LAMMPS data file via write_data, version 30 Jul 2021, timestep = 10500000

864 atoms
2 atom types
576 bonds
1 bond types
288 angles
1 angle types

0.6455500442082975 17.56202235579552 xlo xhi
1.8519039519025213 21.77727384809943 ylo yhi
0.7875695461023433 21.425626253896077 zlo zhi

Masses

1 1.00794
2 15.9994

Pair Coeffs # lj/cut/tip4p/long/omp

1 0 0
2 0.21084 3.1668

Bond Coeffs # harmonic/omp

1 450 0.9572

Angle Coeffs # harmonic/omp

1 55 104.52

Atoms # full

671 1 1 0.5897 4.194642386770396 5.586890761316221 1.445955751810497 6 0 4
424 1 2 -1.1794 2.5042690918979114 4.814131627634991 1.8917851447403036 8 -5 3
425 1 1 0.5897 2.1148075312888426 5.634673738144684 2.19390969076901 8 -5 3
66 1 1 0.5897 0.882766176760289 4.086689290223424 1.1366567715795455 7 1 -5
842 1 1 0.5897 4.014220628537435 3.534600846069317 4.137332994778729 -3 2 1
843 1 1 0.5897 3.1960520445119878 4.518056929921476 4.946841913347414 -3 2 1
608 1 1 0.5897 2.204961924436038 6.659485292590453 5.351151541792025 4 3 1
426 1 1 0.5897 2.732172305209593 4.346516396746708 2.6952892819380483 8 -6 3
841 1 2 -1.1794 3.1132431348817424 3.806811911414701 4.311617834697666 -3 2 1
336 1 1 0.5897 2.670967795984009 3.4167890030444115 8.162991820483931 3 2 4
778 1 2 -1.1794 4.324942130223286 4.3643355816756575 6.758783064873211 -4 0 1
479 1 1 0.5897 4.352778908516783 2.5102091808858287 6.2476296154563675 -1 5 -4
334 1 2 -1.1794 1.9716016911826064 2.7640196644940795 8.194540366608436 3 2 4
838 1 2 -1.1794 2.4012880925599784 5.387819750875005 9.617931452337253 -2 -3 -3
840 1 1 0.5897 1.8912311856812567 6.176578939322517 9.433695394286987 -2 -3 -3
839 1 1 0.5897 3.3114508366845037 5.684124707038781 9.613505343278092 -2 -3 -3
335 1 1 0.5897 1.5427287235619263 2.8303626797046 7.34137355117209 3 2 4
705 1 1 0.5897 0.8214757119445969 3.105007018566336 9.605407236886823 3 2 -2
609 1 1 0.5897 1.586393657903268 6.116926041658648 6.621927956783234 4 3 1
780 1 1 0.5897 3.8427317766537725 5.189466147284781 6.812184847241196 -4 0 1
607 1 2 -1.1794 2.42975019304735 6.321291353414721 6.217935155020997 4 3 1
848 1 1 0.5897 4.428115191561964 2.8214263892916485 10.89088905712691 7 1 3
342 1 1 0.5897 1.13641226433433 6.603731326976262 12.448030297811794 1 4 -1
166 1 2 -1.1794 1.995617206174503 4.7110324578156195 15.63635982273637 -4 0 2
375 1 1 0.5897 4.820018820104113 4.199488272043013 13.260092994243927 2 3 -2
395 1 1 0.5897 0.8097868564367835 2.4340696377538213 14.023605693522542 8 -2 5
579 1 1 0.5897 3.335362136929831 6.17346149799374 13.157682858290183 0 2 -1
394 1 2 -1.1794 1.0909088859697658 3.1708608977656407 13.481086395275367 8 -2 5
659 1 1 0.5897 2.654340751358417 3.774599508049654 12.732959786349044 0 -1 -1
167 1 1 0.5897 2.834602235556047 4.486199219333895 16.038565338128628 -4 0 2
168 1 1 0.5897 1.9751545586225112 4.204222057635855 14.824608226655016 -4 0 2
660 1 1 0.5897 2.9595364748162543 4.685350558274193 11.562815040137842 0 -1 -1
658 1 2 -1.1794 3.247604972798261 4.470423118556606 12.449969569393861 0 -1 -1
416 1 1 0.5897 4.124814099790936 5.839441915075891 19.04483083547095 -4 0 -3
758 1 1 0.5897 2.069872574419873 2.6724615102757383 19.44803744224943 5 0 2
285 1 1 0.5897 1.8353395712916298 2.1550094422285424 17.52618563545581 5 -2 -2
749 1 1 0.5897 4.043712524088022 2.972055860067073 19.302316438582952 3 8 -4
407 1 1 0.5897 1.9225375851095228 6.1830154468349585 16.695654898297896 -4 -4 4
757 1 2 -1.1794 2.5958188752962394 2.9318791571167013 20.204544337206144 5 0 2
759 1 1 0.5897 2.748516786125939 3.868672220393978 20.080793368182974 5 0 2
415 1 2 -1.1794 3.276787779138604 5.610048367191184 19.42493070259918 -4 0 -3
284 1 1 0.5897 1.4105720141333182 3.480767732074508 16.931367197243766 5 -2 -2
283 1 2 -1.1794 1.2905628809713425 2.922692073806557 17.699737577537782 5 -2 -2
249 1 1 0.5897 3.515067735793242 2.156434412152117 21.42410135158561 0 0 -2
655 1 2 -1.1794 4.496422583693919 4.682316113661535 16.69121761872218 0 3 -1
408 1 1 0.5897 2.224087167977707 6.309229779094599 18.173825664029042 -4 -4 4
656 1 1 0.5897 4.784070468264289 5.579226872316797 16.86160691958965 0 3 -1
417 1 1 0.5897 3.0168417574456616 6.3877647368765045 19.9187182271494 -4 0 -3
657 1 1 0.5897 4.562021243461533 4.243970075488722 17.539684196366807 1 3 -1
406 1 2 -1.1794 1.9758818992881262 6.8230931560864745 17.405351432476383 -4 -4 4
697 1 2 -1.1794 3.9058597692643557 9.521817985815893 1.8307729513545687 -3 5 -3
456 1 1 0.5897 3.0532854116258537 9.004437797909324 4.185645809235054 4 -4 2
454 1 2 -1.1794 3.330113619428733 9.178690187424788 5.085211003023122 4 -4 2
698 1 1 0.5897 3.524090723738715 9.045095720758468 1.0937498958728735 -3 5 -3
455 1 1 0.5897 3.8870296951592755 8.434374784797356 5.313367375755374 4 -4 2
854 1 1 0.5897 1.5294527673004357 9.630738242610384 1.3394618289004705 -1 0 4
153 1 1 0.5897 1.024418602605964 7.839922334065001 2.9521301119162597 3 -1 0
151 1 2 -1.1794 1.3136684105747523 7.039568014220353 3.3902905479911567 3 -1 0
500 1 1 0.5897 3.828186254801018 11.206727832148701 2.373365956850515 4 -4 -3
87 1 1 0.5897 1.0495259367271863 11.472607130911134 4.594544850077824 -1 9 3
853 1 2 -1.1794 0.8664740520338505 9.35145397732482 1.9708777361459235 -1 0 4
647 1 1 0.5897 3.127632100735111 11.50858239008895 5.678977029213721 -6 -3 -2
855 1 1 0.5897 0.7656692511921165 10.099412815836413 2.5596401678841856 -1 0 4
423 1 1 0.5897 4.633185117252205 10.299859052710422 5.35230640100248 -2 0 7
699 1 1 0.5897 4.391433801445105 8.85792749517601 2.3203501843618293 -3 5 -3
238 1 2 -1.1794 1.1814868643257033 7.854729672103684 8.958853396394678 -6 -3 -1
110 1 1 0.5897 2.289022900466273 11.218492768642466 9.259461963461055 -2 -2 -6
669 1 1 0.5897 2.3518724562303346 9.63936341533437 6.700801579087374 -6 -5 1
55 1 2 -1.1794 4.758698792423554 9.94920292001747 8.942668698461219 -6 -1 -1
533 1 1 0.5897 2.6198590705142677 8.474412590670063 10.340425954649488 -9 0 -2
239 1 1 0.5897 1.457769802544454 8.481853020669838 8.290565301336121 -6 -3 -1
667 1 2 -1.1794 1.8625021382636142 10.091804339250263 7.387853918111007 -6 -5 1
668 1 1 0.5897 0.9458488240418439 10.005728975582535 7.125971945816557 -6 -5 0
56 1 1 0.5897 4.186320531806873 9.719051424573626 9.674574577129691 -6 -1 -1
57 1 1 0.5897 4.706210473543268 9.198147015051042 8.351590705754102 -6 -1 -1
211 1 2 -1.1794 4.305877202217105 7.648139512693723 7.687964035218732 0 1 0
109 1 2 -1.1794 1.8946141504072185 11.425098487678286 10.106808323351808 -2 -2 -6
111 1 1 0.5897 0.9514684685249087 11.395850859370226 9.946048013859139 -2 -2 -6
212 1 1 0.5897 3.581028841247374 7.238570391740498 7.215670502360865 0 1 0
213 1 1 0.5897 4.588177001204935 6.9840866228276095 8.3169500636356 0 1 0
532 1 2 -1.1794 3.310692799595532 8.539788072759876 10.999748174166438 -9 0 -2
361 1 2 -1.1794 2.1698261647352073 10.882916560056199 16.155529471990675 4 -2 -3
163 1 2 -1.1794 1.0632120601689277 8.800727799365099 14.710255586187596 -2 4 -2
70 1 2 -1.1794 4.280751555453114 7.632976244291063 15.75763851372337 4 1 -5
768 1 1 0.5897 4.199325018338726 10.674193033057719 15.019418522338604 -1 -5 3
389 1 1 0.5897 3.5075143144165657 11.357379624625903 12.000453199427161 2 4 1
578 1 1 0.5897 3.2251736134793907 7.513698768069581 12.46235495730349 0 2 -1
388 1 2 -1.1794 3.2084129768640786 10.898927775497713 12.785684773371777 2 4 2
390 1 1 0.5897 2.3217058596696356 11.2281205771188 12.932686423085675 2 4 2
72 1 1 0.5897 3.758555440292218 7.339855644476428 15.010903243506995 4 1 -5
577 1 2 -1.1794 3.0290574508588946 7.070918692515693 13.288017687664635 0 2 -1
534 1 1 0.5897 3.140045259831463 9.369958829623503 11.444623430368338 -9 0 -2
363 1 1 0.5897 1.7431443056021094 10.281180356222432 15.54553204490101 4 -2 -3
164 1 1 0.5897 1.6104913217219092 8.29824143120128 14.106759604249877 -2 4 -2
767 1 1 0.5897 4.783408683539751 9.330469254271463 15.400337887675807 -1 -5 3
327 1 1 0.5897 3.3437294474920813 10.45472412271521 17.793694366138414 0 -1 0
362 1 1 0.5897 1.5430869147602164 10.982653841511821 16.872104740321973 4 -2 -3
793 1 2 -1.1794 2.8387340459376396 8.208649125620344 20.13315701018927 -9 5 4
316 1 2 -1.1794 1.6753243327743446 11.756032951711235 20.80812821483275 -3 -5 -2
795 1 1 0.5897 3.223003623480495 8.71610462465972 19.418265602232772 -9 5 4
326 1 1 0.5897 4.561310545217266 9.633840637389259 17.42557274371329 0 -1 0
325 1 2 -1.1794 3.9116767401498134 9.755772845652638 18.1179282148762 0 -1 0
653 1 1 0.5897 0.9430623582592081 11.427611380944464 19.17862582136299 -1 0 1
71 1 1 0.5897 3.7210923559557947 7.476191151180524 16.518179159829124 4 1 -5
794 1 1 0.5897 1.9034631882800896 8.408439398357526 20.093552270575515 -9 5 4
173 1 1 0.5897 2.086260627556096 14.905829441182721 4.032859371378059 3 0 0
693 1 1 0.5897 4.436823121491377 14.792234628915931 4.977768728880273 7 -2 5
4 1 2 -1.1794 2.4342319124295226 16.428077090428264 1.6707324784228126 3 -3 -2
691 1 2 -1.1794 3.91250227382001 15.369704117555505 4.422943245716899 7 -2 5
692 1 1 0.5897 4.37709127045164 15.385388195254873 3.5862059416270577 7 -2 5
648 1 1 0.5897 3.0256537650024415 12.469563649783941 4.513660652587369 -6 -3 -2
172 1 2 -1.1794 1.3084304131229907 14.795522323095303 3.4860022720676014 3 0 0
447 1 1 0.5897 2.7918000121993627 16.44859616551561 5.203576309298305 4 -2 -2
6 1 1 0.5897 2.1755140060180382 15.71420222069635 2.2535795680716992 3 -3 -2
501 1 1 0.5897 3.7556950664152544 12.66527624959797 1.9743320509450615 4 -4 -3
499 1 2 -1.1794 3.8288313635250297 12.092005269037754 2.7373692160303014 4 -4 -3
646 1 2 -1.1794 2.637992627963704 12.26901482002538 5.365555738695077 -6 -3 -2
516 1 1 0.5897 0.8691370572033265 16.00217446051391 1.0536137250868558 -2 -3 1
318 1 1 0.5897 1.242337596162213 12.158969917068527 0.9226521524638158 -3 -5 -1
5 1 1 0.5897 2.6279405874984323 15.999143824476638 0.8372416341097212 3 -3 -2
445 1 2 -1.1794 2.191687297651156 16.79111198951371 5.865974936934919 3 -2 -2
731 1 1 0.5897 3.0156797955675216 16.59894425865113 10.834283123498128 2 4 -3
122 1 1 0.5897 2.2863705433817527 14.434834848520188 9.358034384739362 -2 -2 -1
192 1 1 0.5897 3.994081309666583 15.049876523533497 7.681775822370274 6 3 -7
201 1 1 0.5897 0.8005818687317006 13.186566042570792 8.217167402146863 3 -3 -2
802 1 2 -1.1794 2.924031438368564 13.543790818981186 7.962943950699284 7 2 0
804 1 1 0.5897 2.860621598949237 13.20927470906077 7.068326918957133 7 2 0
190 1 2 -1.1794 4.693093038858628 15.67503649440399 7.873640236636903 6 3 -7
803 1 1 0.5897 3.689054702750156 13.101521437747277 8.330873430927392 7 2 0
121 1 2 -1.1794 2.2094884720271626 15.030804901645507 10.10311876481411 -2 -2 -1
123 1 1 0.5897 1.2794714666389793 15.25483543759296 10.136244163895688 -2 -2 -1
185 1 1 0.5897 0.7683280008855322 16.224924579680675 7.006509590690988 1 4 2
191 1 1 0.5897 4.239643845149656 16.505985823789572 8.0156017996008 6 3 -7
719 1 1 0.5897 4.1718496175011825 16.2817977031687 15.73703809398615 6 3 0
473 1 1 0.5897 2.4152338043036954 12.298745584869353 15.326199086960958 -1 -3 -4
141 1 1 0.5897 4.470848747149953 12.987587857416464 15.47323616531226 2 -4 3
78 1 1 0.5897 4.51264618388513 14.389867519942845 11.845175295826737 -5 -2 -5
254 1 1 0.5897 2.9637396166209116 16.02300797809712 13.336963590417577 3 10 -9
472 1 2 -1.1794 2.6057787898338964 13.128384755705987 14.888452503028129 -1 -3 -4
474 1 1 0.5897 2.93576636261309 12.874682149704332 14.026456576438381 -1 -3 -4
76 1 2 -1.1794 3.821565565627679 14.119933069022439 12.44996294339984 -5 -2 -5
429 1 1 0.5897 1.7444328546214192 14.395534043357268 15.804126546532869 -3 2 -3
253 1 2 -1.1794 2.9657477259652034 16.62044886592934 14.084811699832446 3 10 -9
255 1 1 0.5897 2.039887996829199 16.78833254234105 14.260340910809434 3 10 -9
77 1 1 0.5897 3.0123652021713117 14.214805575488857 11.947386840434053 -5 -2 -5
271 1 2 -1.1794 3.4503672817268045 12.62687728990133 18.12733514048039 0 1 4
273 1 1 0.5897 2.739644104096165 13.254131414654541 18.26015997172676 0 1 4
553 1 2 -1.1794 1.5018417352614573 14.435401527036024 18.800747445695162 -1 -5 6
154 1 2 -1.1794 3.356210530546127 16.21750691376011 19.56348845709532 2 -1 -5
272 1 1 0.5897 3.9308116002433575 12.96505077017627 17.371672639774992 0 1 4
555 1 1 0.5897 2.1875114184009252 15.048325922009989 19.066073909008068 -1 -5 6
573 1 1 0.5897 4.15667950627649 13.072450619495234 20.067175134755008 3 -5 -4
128 1 1 0.5897 1.8769368866142258 16.7453341811582 16.869310586785417 -1 1 -4
571 1 2 -1.1794 3.873913242372122 13.236533313467277 20.966804269717848 3 -5 -4
156 1 1 0.5897 4.174251716799667 15.834188508785234 19.247107497724784 2 -1 -5
317 1 1 0.5897 2.4977087216705502 12.23751096273858 20.71825776992602 -3 -5 -3
554 1 1 0.5897 1.3774836095565797 14.604041969161887 17.866769174790996 -1 -5 6
572 1 1 0.5897 4.540913467390316 13.822233731925172 21.324966223715293 3 -5 -4
427 1 2 -1.1794 1.2686433169383906 15.08274847755025 16.270580949522973 -3 2 -3
635 1 1 0.5897 1.0891816526652138 20.88802899910991 3.0518432517147187 -9 3 1
303 1 1 0.5897 2.778150346651964 17.836038176528348 2.5914664833603194 0 3 5
182 1 1 0.5897 0.8038140553692186 17.85587636113399 5.135155619736153 -4 2 -3
247 1 2 -1.1794 3.8268020195997554 21.39231541379199 1.3722632092277325 0 -1 -1
302 1 1 0.5897 2.7019441144988847 19.29084684806722 3.003257710987149 0 3 5
301 1 2 -1.1794 3.196374998451417 18.48569451500397 3.1564879330064723 0 3 5
248 1 1 0.5897 3.2115717320454507 21.404372985905937 2.1054520901790834 0 -1 -1
690 1 1 0.5897 4.369250344782429 18.70402614563613 4.8127630126341066 2 -6 4
83 1 1 0.5897 1.4864538187334955 19.724987522033718 5.55341337930395 -2 -3 -5
634 1 2 -1.1794 2.006124468570449 20.957111592687426 3.317688424555767 -9 3 1
597 1 1 0.5897 4.850197281328919 19.088346942725536 2.658430915080997 4 -4 0
636 1 1 0.5897 2.018831138416176 21.674214600253894 3.951576651961465 -9 3 1
755 1 1 0.5897 3.212701017924281 19.727102655972867 8.975216347681904 -3 -4 -4
834 1 1 0.5897 4.747928417755851 18.61140734058789 7.675326221365997 2 -3 1
29 1 1 0.5897 1.2937228594347914 18.818201705753843 9.647005240426214 -8 -1 7
756 1 1 0.5897 2.4247545258627783 21.011645533629437 9.11997054015659 -3 -4 -4
754 1 2 -1.1794 2.6289897510511206 20.1937365481953 9.573344373701472 -3 -4 -4
84 1 1 0.5897 2.6466557532288464 20.593227168898572 5.9915474392128285 -2 -3 -5
833 1 1 0.5897 3.3321005737101173 18.889573365039748 7.21716312012174 2 -3 1
832 1 2 -1.1794 3.8326394375818382 18.454484001731927 7.90736730336541 2 -3 1
446 1 1 0.5897 2.755458795390416 17.260644909562224 6.480725602830503 3 -2 -2
478 1 2 -1.1794 4.513114753545766 21.526912167934967 5.993013303862986 -1 4 -4
82 1 2 -1.1794 2.1020856284632705 19.858510081418423 6.27413008514998 -2 -3 -5
732 1 1 0.5897 4.148335627871154 17.60117489826871 10.766534934614404 2 4 -3
521 1 1 0.5897 3.2461149080313083 21.10546614021687 11.075214221715513 -3 1 -3
268 1 2 -1.1794 2.7612133169479502 19.50582870447597 14.919029161992643 5 6 4
823 1 2 -1.1794 4.7942244865975825 21.364880096229157 15.164277554727688 -3 3 5
368 1 1 0.5897 1.2404949016512195 20.542537610712838 15.148691485184209 7 6 -1
269 1 1 0.5897 2.7201863930692003 18.885119178571554 15.646526568673313 5 6 4
270 1 1 0.5897 2.482763412488789 18.999745548465263 14.155773602756302 5 6 4
522 1 1 0.5897 2.4634359223496705 21.522739008997004 12.302056436804273 -3 1 -3
520 1 2 -1.1794 3.3305741299161107 21.58193403658225 11.90108166008509 -3 1 -3
825 1 1 0.5897 4.162429403261509 20.676496812681407 14.956259461549482 -3 3 5
59 1 1 0.5897 2.232078925291355 18.404039377955662 12.140540615719969 0 -1 -4
58 1 2 -1.1794 1.5168344090780175 18.89981083856796 12.539114583369164 0 -1 -4
60 1 1 0.5897 0.9085039193745538 18.23165468489377 12.854927216751555 0 -1 -4
800 1 1 0.5897 4.658198935218301 20.51737256735132 12.151038948635028 -1 -1 4
730 1 2 -1.1794 3.349361538332541 17.3934774511577 11.251013448621618 2 4 -3
550 1 2 -1.1794 3.2676496509114505 19.45372750118547 19.956718093412274 -3 4 -7
488 1 1 0.5897 3.7772265987204356 21.131859705603492 16.75528531145973 2 -4 2
552 1 1 0.5897 3.5137408922130966 20.09351724205553 20.624789787835685 -3 4 -7
129 1 1 0.5897 1.4750146097272312 18.115743218873817 17.371608774729374 -1 1 -4
551 1 1 0.5897 2.41925221335947 19.11839778148415 20.2465267329918 -3 4 -7
489 1 1 0.5897 3.4827296071696656 20.47644100888686 18.087800110087837 2 -4 2
286 1 2 -1.1794 0.7408627396129343 18.793655262991745 20.65073810307047 6 2 0
487 1 2 -1.1794 3.117984153007783 21.087774764753725 17.447881291606286 2 -4 2
127 1 2 -1.1794 2.219495977013746 17.625956425773403 17.022207587836963 -1 1 -4
821 1 1 0.5897 4.774407027458169 17.53991072814705 20.318754239146042 2 2 4
155 1 1 0.5897 3.1855536621924134 16.945645906935976 18.966051672480162 2 -1 -5
672 1 1 0.5897 5.155582310379504 6.3837437144810645 2.302417476051489 6 0 4
202 1 2 -1.1794 7.2498449881745755 5.404063773258636 4.949685702026282 -3 0 2
492 1 1 0.5897 8.202806956737964 4.621164758377315 3.8029090174318787 0 6 4
208 1 2 -1.1794 8.800221838944594 6.605651697717254 1.7367887342102408 1 -3 2
203 1 1 0.5897 7.877789455638432 6.076907512472142 5.2127084466646805 -3 0 2
231 1 1 0.5897 9.085360797980702 2.610204522981877 3.053010988060678 3 3 -1
491 1 1 0.5897 8.963764041120601 4.977455859170017 2.5436053824002745 0 6 4
490 1 2 -1.1794 8.938655584467712 4.341370880149249 3.2584331804923896 0 6 4
542 1 1 0.5897 6.675394473288386 2.981256050395274 0.8156184016083209 -3 1 4
773 1 1 0.5897 5.500922975716769 6.217249434109632 4.441071482756358 0 -3 1
543 1 1 0.5897 6.235120744732837 4.392569119267534 1.141551029182613 -3 1 4
220 1 2 -1.1794 5.388286894663192 2.92440017673638 3.0449571540004126 3 -2 6
670 1 2 -1.1794 5.05370855955643 6.008709585000917 1.4276674684293735 6 0 4
221 1 1 0.5897 5.9328604055125655 2.4375191127063873 3.6635220638643835 3 -2 6
104 1 1 0.5897 7.387277339823153 1.9726147420612543 5.239518452153393 5 1 3
204 1 1 0.5897 7.11961857986867 4.876232504354206 5.737509943878801 -3 0 2
222 1 1 0.5897 5.078565539514732 2.263297559410545 2.4259028407856102 3 -2 6
209 1 1 0.5897 8.094158229375388 6.549273143292957 1.092965616209285 1 -3 2
51 1 1 0.5897 7.141797767321854 3.595815019557093 10.949637924321202 9 1 -3
234 1 1 0.5897 7.466461196133822 4.152008303760658 8.496680250643784 -4 0 -2
49 1 2 -1.1794 7.825904761882049 3.771306347212499 10.303561378737225 9 1 -3
50 1 1 0.5897 8.261648563597127 4.561056971224405 10.623927470633655 9 1 -3
233 1 1 0.5897 7.455446335604647 5.425795290018046 7.678607001776221 -4 0 -2
694 1 2 -1.1794 8.692564161234579 2.7376494896623695 6.053504781907459 1 -3 -1
779 1 1 0.5897 5.034707028942841 4.459626065071911 7.393911992697455 -4 0 1
232 1 2 -1.1794 7.288570417990472 4.48526356309596 7.617174804605003 -4 0 -2
726 1 1 0.5897 5.2927616088549145 6.141704362648397 10.208418981853468 3 -6 3
724 1 2 -1.1794 5.049783024070256 5.683876021609446 9.403703447383721 3 -6 3
695 1 1 0.5897 8.336762879134415 3.3986540233649576 6.647388480240192 1 -3 -1
847 1 2 -1.1794 5.077069476503067 3.136556204726578 10.261784638676147 7 1 3
725 1 1 0.5897 5.117033987395384 4.755340203066979 9.626215412939624 3 -6 3
849 1 1 0.5897 5.116320371209927 2.451788925445836 9.594116754014061 7 1 3
43 1 2 -1.1794 7.4604539749720535 1.8859200745102893 13.085706177263488 3 8 -4
179 1 1 0.5897 5.754881481167326 6.760129706771411 15.151304936577617 -10 3 -1
786 1 1 0.5897 6.613890658766225 6.578991091576688 11.742214243802078 6 4 6
180 1 1 0.5897 5.971142189769667 5.499481839452041 14.341437223651502 -10 3 -1
45 1 1 0.5897 6.7745413096857785 2.5518316508397914 13.133744041826587 3 8 -4
178 1 2 -1.1794 6.437222465343631 6.1553840694115305 14.859906232522105 -10 3 -1
373 1 2 -1.1794 5.579685398846878 3.8562628040469886 13.73058956148201 2 3 -2
400 1 2 -1.1794 8.568596169710972 6.543107243919545 11.502993190577666 -2 -6 0
102 1 1 0.5897 8.485500862169493 3.9745177577162436 15.59788820119808 7 -4 -5
374 1 1 0.5897 5.208964317409499 3.2669203907677824 14.387441952700653 2 3 -2
784 1 2 -1.1794 5.65988511798069 6.646093202864904 11.702306028279258 6 4 6
158 1 1 0.5897 7.37382833422721 2.06175368117524 16.156074991632085 -1 3 0
243 1 1 0.5897 8.396254594256837 3.8676215953630897 20.45563298019097 -3 1 4
559 1 2 -1.1794 5.702578173182193 6.648267252753952 18.283443839281656 2 2 1
748 1 2 -1.1794 4.915154892580213 3.1226107492908066 18.936054197001766 3 8 -4
16 1 2 -1.1794 8.245633904472554 5.932326152782889 18.464795622388582 -5 3 4
750 1 1 0.5897 5.463482365496497 3.321135199692006 19.695097059950704 3 8 -4
18 1 1 0.5897 8.807654957947468 6.105882914407217 17.70965544372277 -5 3 4
560 1 1 0.5897 6.624069404824619 6.393987789051732 18.234330427145043 2 2 1
17 1 1 0.5897 8.777746496867122 5.380766396240763 19.0382843391398 -5 3 4
381 1 1 0.5897 7.486977532831318 4.326376198422297 17.713264017244157 4 2 -2
541 1 2 -1.1794 6.627465861715476 3.863368365060598 21.08517191050549 -3 1 3
606 1 1 0.5897 8.88233524150116 2.2783992117398997 19.095755230509774 -5 0 -2
380 1 1 0.5897 6.425023975522323 4.075280151004794 16.66390071769128 4 2 -2
379 1 2 -1.1794 7.190448129904114 3.6756239044641177 17.076989332333568 4 2 -2
589 1 2 -1.1794 6.785655889251598 8.780077536475336 3.0399742426098237 1 2 1
432 1 1 0.5897 8.904213464397639 8.089612672792459 5.823802451183384 -6 -4 -3
774 1 1 0.5897 5.711413287701918 7.6263247496843825 3.929124313036585 0 -3 1
591 1 1 0.5897 7.525272867869021 8.178706432146003 2.952946438817633 1 2 1
590 1 1 0.5897 7.151871324608549 9.549272190056346 3.4763839372457297 1 2 1
421 1 2 -1.1794 5.472625856636564 10.707576763484582 5.565204814226029 -2 0 7
611 1 1 0.5897 8.835102249241869 11.429573249629872 4.808518999609639 4 2 -3
772 1 2 -1.1794 5.026138690032173 6.993610206588352 4.144300877276499 0 -3 1
612 1 1 0.5897 8.102179606090562 11.491752098072707 3.485318984120517 4 2 -3
610 1 2 -1.1794 8.70733652505237 10.948942688402527 3.990656089564139 4 2 -3
422 1 1 0.5897 5.396155652318969 11.601983679011868 5.232898238812112 -2 0 7
397 1 2 -1.1794 7.614604750055324 7.367713962205309 8.057151687214052 7 -1 -5
398 1 1 0.5897 7.739982233792329 8.154730646288648 7.52693124924561 7 -1 -5
495 1 1 0.5897 8.441854986791475 10.227155693533904 6.721520897985672 0 1 2
651 1 1 0.5897 6.095377622419388 9.268702123370797 9.75191135198912 4 -3 1
494 1 1 0.5897 7.015058139399811 10.13792253313739 6.223343811922026 0 1 2
576 1 1 0.5897 5.282052616794973 11.629899264920539 8.702481567212574 2 1 -1
649 1 2 -1.1794 6.917155134773095 8.926644315079535 10.103922439938767 4 -3 1
399 1 1 0.5897 7.358288725321104 7.697011993206645 8.918600732486254 7 -1 -5
493 1 2 -1.1794 7.761788365653281 9.597683635028744 6.481717990937878 0 1 2
294 1 1 0.5897 9.088083454825126 10.32329238906532 9.57525650972036 1 0 3
402 1 1 0.5897 9.0079476235948 6.908463247898022 10.735061910421363 -2 -6 0
650 1 1 0.5897 6.872379450788523 9.112684411900833 11.041790335701426 4 -3 1
250 1 2 -1.1794 8.273809249868744 8.133001107703677 14.828152767628302 4 -1 2
663 1 1 0.5897 5.766474103856859 9.887747309016255 13.539029713087832 -2 -4 1
661 1 2 -1.1794 6.263329619853638 9.437637753279645 12.855786685063373 -2 -4 1
252 1 1 0.5897 7.764340596098928 7.322787677555557 14.842865537311576 4 -1 2
662 1 1 0.5897 7.03392532332361 9.092945133439384 13.307016735344817 -2 -4 1
502 1 2 -1.1794 5.720764552754345 11.704532977347029 11.5062621833927 -6 2 4
785 1 1 0.5897 5.481519165212751 7.582842428367547 11.78543358022394 6 4 6
765 1 1 0.5897 8.422750756331286 9.999138853188864 14.96982441849379 -5 -2 -3
504 1 1 0.5897 5.946215604227783 10.799544060990968 11.721665771562835 -6 2 4
763 1 2 -1.1794 8.45466635736545 10.94520635453494 15.11181561455096 -5 -2 -3
414 1 1 0.5897 9.058634347647956 8.193194629254435 12.368087075062089 1 -3 2
766 1 2 -1.1794 5.019674317912482 10.248663464867963 15.268747698449715 -1 -5 3
74 1 1 0.5897 6.914263205475308 9.982047924498767 17.257793719928713 -1 0 1
75 1 1 0.5897 7.072534543015937 8.816377836965057 16.304894073400796 -1 0 1
676 1 2 -1.1794 6.688426889773514 7.56662967946051 20.68559258623843 1 1 -4
366 1 1 0.5897 5.80199546584841 9.443021069945978 20.511977779677103 3 7 -2
365 1 1 0.5897 5.072767306861755 10.085711031651961 19.351354775539466 3 7 -2
73 1 2 -1.1794 6.809915766091546 9.032339600849525 17.199661745108155 -1 0 1
707 1 1 0.5897 8.41850513784393 8.861071983800937 18.280538356618056 -2 0 -7
364 1 2 -1.1794 5.726407781991781 10.264947196619573 20.02726121680808 3 7 -2
678 1 1 0.5897 6.060624899934077 7.063377451914681 21.204066269779265 1 1 -4
677 1 1 0.5897 6.515837019549966 7.306226490994609 19.78080772628791 1 1 -4
561 1 1 0.5897 5.697142552372608 7.576817495099749 18.05111501475553 2 2 1
813 1 1 0.5897 6.522853833004502 11.794922478182702 20.395062963195237 -5 5 -6
465 1 1 0.5897 8.319494610363408 16.319193607423852 3.773782880525813 5 -2 -3
282 1 1 0.5897 6.366703572969519 13.465459070599143 5.548947458546539 -4 0 2
464 1 1 0.5897 8.040308845801999 15.144874855306583 2.860043530972922 5 -2 -3
224 1 1 0.5897 8.074240469877536 14.357407081104663 4.876183404721495 1 -4 -8
463 1 2 -1.1794 7.67523562166642 15.633490818608278 3.5977835678636585 5 -2 -3
371 1 1 0.5897 6.206874129966871 15.575432033718569 2.478129075411305 5 7 -2
223 1 2 -1.1794 8.113990485582898 13.685405065870706 5.5566677750656055 1 -4 -8
370 1 2 -1.1794 5.386240208086437 15.414874441852335 2.0123011057649105 5 7 -2
737 1 1 0.5897 7.034904252656358 12.352253155434399 1.6868027711462066 1 1 1
736 1 2 -1.1794 6.7898097480156965 12.318616011343174 2.6114784492984047 1 1 1
738 1 1 0.5897 5.844285406285633 12.169813519695321 2.603860337918535 1 1 1
535 1 2 -1.1794 9.068379349535904 14.460602734439727 1.3359476136356054 6 8 6
280 1 2 -1.1794 5.433792753241696 13.412214364177855 5.756465248123174 -4 0 2
372 1 1 0.5897 5.416447869454479 16.00792024647275 1.261542221774628 5 7 -2
281 1 1 0.5897 5.406964831947958 13.125020784253964 6.669168478467399 -4 0 2
225 1 1 0.5897 8.111947360166416 14.175840341101086 6.378669937022476 1 -4 -8
39 1 1 0.5897 8.513182257486621 12.221253313895977 9.332115359292008 -2 6 -6
115 1 2 -1.1794 7.5398217555646765 15.064080442065956 7.782843128682613 -2 -4 2
529 1 2 -1.1794 8.480555534038938 12.61804627971574 11.069722244420431 -6 -1 -7
116 1 1 0.5897 6.645789868161823 15.333905431558415 7.572795603534566 -2 -4 2
575 1 1 0.5897 5.659561381899706 12.98558260446111 9.260564179442587 2 1 -1
117 1 1 0.5897 8.05099899014304 15.872148101966266 7.7387662864194215 -2 -4 2
769 1 2 -1.1794 5.501508783478812 14.82546176475454 10.422149832747863 6 -2 -1
771 1 1 0.5897 6.34224340174277 15.140882738947171 10.753661821590423 6 -2 -1
574 1 2 -1.1794 5.455599286189188 12.534305936388773 8.441439421739682 2 1 -1
38 1 1 0.5897 7.383858679715812 12.058844251648082 8.337029069577286 -2 6 -6
770 1 1 0.5897 5.223812138515794 15.494744220047691 9.796718944558917 6 -2 -1
37 1 2 -1.1794 8.33742817203061 12.023110457833761 8.41228475627091 -2 6 -6
528 1 1 0.5897 7.402027920520041 12.180655741130337 14.235630576842775 0 -8 -1
503 1 1 0.5897 5.7581858040931895 12.166956870066583 12.343542165252181 -6 2 4
531 1 1 0.5897 7.618076845292849 12.259708109280801 11.279345315466157 -6 -1 -7
527 1 1 0.5897 6.265217424289951 13.166942980723285 14.399275028250091 0 -8 -1
526 1 2 -1.1794 6.896436528425965 12.838887401461927 13.758836918578554 0 -8 -1
289 1 2 -1.1794 5.933294056582369 15.994149523021557 13.495934359883536 -4 -5 -9
581 1 1 0.5897 7.698764918454916 16.032206320792834 16.21075889113116 -6 0 3
291 1 1 0.5897 5.787621125481273 15.791487022768068 14.420020181571012 -4 -5 -9
851 1 1 0.5897 7.297387173181433 15.4907875506831 12.296777450015263 -5 1 -4
290 1 1 0.5897 5.056918594711887 16.147544572276427 13.142832946284324 -4 -5 -9
850 1 2 -1.1794 7.895610339424223 15.425483408625386 11.552409246245608 -5 1 -4
580 1 2 -1.1794 8.134795611380994 16.784473175302537 15.810529414132743 -6 0 3
852 1 1 0.5897 8.270237334309591 16.302262573085642 11.467957931326936 -5 1 -4
139 1 2 -1.1794 5.205499616394571 13.315748486032502 15.991706142646658 2 -4 3
564 1 1 0.5897 8.450667333735424 13.722643619490452 13.900359470732088 5 4 4
483 1 1 0.5897 8.49053109912046 14.144627665277326 16.018311233111255 4 6 5
140 1 1 0.5897 5.088538233673496 14.265736414700232 15.999205561947067 2 -4 3
718 1 2 -1.1794 4.9902410566917865 15.977980843853208 16.12966616398593 6 3 0
530 1 1 0.5897 8.421743417587589 13.542252980704887 11.311845857427912 -6 -1 -7
812 1 1 0.5897 7.945963191131717 12.294080131038614 20.262976495590852 -5 5 -6
321 1 1 0.5897 6.194702828458638 12.050183011770967 17.117103401764034 4 -3 5
682 1 2 -1.1794 6.0534886425535 14.8142765322764 19.180214343501476 8 1 -4
811 1 2 -1.1794 7.052776505467878 12.590931573875833 20.437090410903934 -5 5 -6
482 1 1 0.5897 7.599653684893483 13.285966975476306 16.890598340343587 4 6 5
683 1 1 0.5897 6.661915301539067 14.272294544565868 19.68251494477489 8 1 -4
481 1 2 -1.1794 7.883946448694917 14.190211654077777 16.757365852128896 4 6 5
684 1 1 0.5897 6.3993944260477775 14.799354964224054 18.28782768291903 8 1 -4
320 1 1 0.5897 6.668638794119343 12.021550698353233 18.554607256757876 4 -3 5
319 1 2 -1.1794 6.95890723888966 11.852072233253349 17.658368119057354 4 -3 5
592 1 2 -1.1794 8.3019650999746 16.76494282552455 20.216187675617057 -2 1 -1
594 1 1 0.5897 7.354710301605698 16.629156361017788 20.19416151880773 -2 1 -1
720 1 1 0.5897 5.322235662442913 16.73660309779538 16.609774629764992 6 3 0
596 1 1 0.5897 6.221492099193803 18.80185890895578 3.232311104562937 5 -4 0
595 1 2 -1.1794 5.782287015324741 19.243177941926845 2.5052889641036655 4 -4 0
8 1 1 0.5897 8.66563490517375 18.70476114382514 3.3981808587369335 3 -3 -2
688 1 2 -1.1794 5.1500778459475 18.232440402717792 5.10281420367505 2 -6 4
337 1 2 -1.1794 7.309729526575761 21.06220807716937 1.0196575470838383 -1 -3 7
103 1 2 -1.1794 6.745407973479018 21.336079712839656 4.805328331625817 5 0 3
338 1 1 0.5897 6.81603917792708 20.40810618663333 1.5142750410143995 -1 -3 7