LAMMPS data file via write_data, version 30 Jul 2021, timestep = 14250000

1296 atoms
2 atom types
864 bonds
1 bond types
432 angles
1 angle types

-10.574106479992556 12.554106479992557 xlo xhi
-9.21042819972991 12.20042619972991 ylo yhi
0.13070803464056624 21.72929096536423 zlo zhi
-9.219904151856479 2.0116550504998343 2.701718867145007 xy xz yz

Masses

1 1.008
2 15.999

Pair Coeffs # lj/cut/tip4p/long/omp

1 0 0
2 0.21084 3.1668

Bond Coeffs # harmonic/omp

1 450 0.9572

Angle Coeffs # harmonic/omp

1 55 104.52

Atoms # full

323 108 1 0.5897 -6.268581171389015 -5.6375989903459125 3.216198506028077 1 1 0
298 100 2 -1.1794 -5.948988161109359 -7.251850485994932 4.040383932577662 1 1 0
280 94 2 -1.1794 -9.62899654440472 -4.334749091839611 1.5259190721359446 1 1 0
299 100 1 0.5897 -6.589571188064051 -7.948792360799543 4.182374668741657 1 1 0
270 90 1 0.5897 -8.471776925848076 -7.363157908797271 2.1053009283110478 1 1 0
163 55 2 -1.1794 -7.257793207539757 -7.938530587057174 1.019593627581163 1 1 0
164 55 1 0.5897 -6.456468551045069 -8.355021331561 1.3369301228799568 1 1 0
269 90 1 0.5897 -9.257728500648865 -6.077654225375859 2.2525747978108974 1 1 0
268 90 2 -1.1794 -9.179523179306742 -6.962188187882779 2.6098429774278866 1 1 0
282 94 1 0.5897 -10.480689681905082 -3.9060852811952307 1.610470012212145 1 1 0
324 108 1 0.5897 -7.139995769427488 -4.417411258328499 3.4252915267196324 1 1 0
73 25 2 -1.1794 -8.264985457099014 -3.842198420910205 4.695754868144337 1 0 0
314 105 1 0.5897 -8.911477667918998 -6.718608326200876 4.405342050702878 1 1 0
275 92 1 0.5897 -10.388431904165865 -8.186603005852406 3.2061466664457616 1 1 0
165 55 1 0.5897 -7.550220343010839 -8.497837962514236 0.299878490369784 1 1 0
75 25 1 0.5897 -9.020710019523097 -3.3938676835993826 4.3160689947489255 1 0 0
300 100 1 0.5897 -5.127274196269225 -7.712215612302243 3.8697399933502084 1 1 0
259 87 2 -1.1794 -6.888564285540577 -5.341574010700332 0.2902550488200135 1 1 0
633 211 1 0.5897 -5.670294246757032 -6.05574861196029 5.442999793867403 1 1 0
261 87 1 0.5897 -6.807222240311518 -5.180373565108384 1.2302697468270223 1 1 0
322 108 2 -1.1794 -6.412556729655069 -4.746644984688123 2.8973941532825136 1 1 0
260 87 1 0.5897 -6.834611669300148 -6.29338413923826 0.204345746261752 1 1 0
74 25 1 0.5897 -8.022416226187033 -3.3062702022263624 5.450910907368418 1 0 0
313 105 2 -1.1794 -8.727147146212118 -6.490514408249227 5.3165293152246695 1 1 0
315 105 1 0.5897 -8.522954828575527 -5.5556374323432625 5.293417918428096 1 1 0
429 143 1 0.5897 -6.3569071847376195 -7.374706784922794 8.847704735680887 1 0 0
428 143 1 0.5897 -6.4108592212516164 -7.075075489769656 10.330654935884255 1 0 0
427 143 2 -1.1794 -5.806940652580428 -7.122771179771947 9.589587325338483 1 0 0
419 140 1 0.5897 -8.535860229458539 -5.696821490537111 8.865590564321748 1 0 0
418 140 2 -1.1794 -9.195774887298171 -6.205984809616902 9.336148938444358 1 0 0
413 138 1 0.5897 -7.522199386439397 -3.7481936257547295 7.687285617228519 1 0 0
627 209 1 0.5897 -9.982127782963412 -6.907819137337112 6.425078394727385 1 1 0
420 140 1 0.5897 -8.731454710385657 -6.55600431698001 10.09648884350209 1 0 0
618 206 1 0.5897 -7.495452826881663 -7.160192612606645 6.549413150755743 1 1 0
350 117 1 0.5897 -7.248307197035573 -4.296738313660113 9.8771331467729 0 0 0
414 138 1 0.5897 -6.6790854016122445 -4.989157912251192 7.484549682662373 1 0 0
412 138 2 -1.1794 -7.280384788474352 -4.575364189162505 8.103781357512762 1 0 0
408 136 1 0.5897 -10.838570981689992 -5.232486966427599 9.522826982479875 1 0 0
616 206 2 -1.1794 -7.181294333557723 -7.7569979193845295 7.228598569430558 1 1 0
626 209 1 0.5897 -10.334932514942572 -6.868280196441994 7.8967042549774344 1 1 0
617 206 1 0.5897 -7.970922942604915 -8.19328551877409 7.548527308996852 1 1 0
351 117 1 0.5897 -7.250629333696574 -3.022171705856353 10.694160701330496 0 0 0
349 117 2 -1.1794 -7.270523817202752 -3.9754259905019147 10.77852555145125 0 0 0
684 228 1 0.5897 -7.995709343533781 -6.492215751247105 14.55395009474298 0 0 0
740 247 1 0.5897 -10.69585353329667 -3.4203712866540616 11.945339459722868 1 0 0
652 218 2 -1.1794 -5.484538940258433 -5.413574283974801 12.64223882387751 0 0 0
682 228 2 -1.1794 -7.3108032300722705 -6.89869794815017 14.022990364395651 0 0 0
780 260 1 0.5897 -7.415199233108582 -4.09024507882809 15.253600034384057 0 0 0
779 260 1 0.5897 -7.316071834434587 -3.166615526428462 14.058331996047395 0 0 0
778 260 2 -1.1794 -7.949264804544141 -3.6323705421130708 14.604487644955903 0 0 0
768 256 1 0.5897 -9.410510791900304 -2.6952757899764777 14.989864208301077 0 0 0
654 218 1 0.5897 -6.06734793965866 -4.950612135030401 12.040383446128876 0 0 0
653 218 1 0.5897 -6.066366323148115 -5.972577382494301 13.15715768193281 0 0 0
661 221 2 -1.1794 -9.362069754249646 -4.67124387579733 12.386474183586966 0 0 0
766 256 2 -1.1794 -10.28425212514325 -2.339908116558436 15.152870436139711 0 0 0
662 221 1 0.5897 -8.921730483642072 -4.430069137835758 13.201491662499043 0 0 0
663 221 1 0.5897 -8.686587262470232 -4.584055857920356 11.713948578987917 0 0 0
729 243 1 0.5897 -7.759625416499375 -6.938012548859722 12.288259296184693 1 0 0
788 263 1 0.5897 -4.926845958963668 -4.845852875239303 15.571603476887335 0 0 0
767 256 1 0.5897 -10.872744563777466 -3.0852888812726933 15.032938434763597 0 0 0
757 253 2 -1.1794 -9.571601573855435 -6.000736253188177 15.555014917430093 0 0 0
727 243 2 -1.1794 -7.865020485247316 -7.252807976166076 11.390458935420547 1 0 0
739 247 2 -1.1794 -11.504882264738757 -3.0192955123420795 11.627686664658544 1 0 0
1131 377 1 0.5897 -6.999325024407611 -2.066441846350372 17.42563275782828 0 0 0
1121 374 1 0.5897 -4.642559546495755 -3.518560164826323 18.468842815428843 0 0 0
1248 416 1 0.5897 -5.789540943690129 -1.4798756961097688 20.752504572626062 0 0 0
1221 407 1 0.5897 -10.556855251194378 -2.103386462513189 19.484658212931244 0 0 0
1152 384 1 0.5897 -6.595649853641158 -4.064485707789376 19.636063946587775 0 0 0
1225 409 2 -1.1794 -7.777720628835438 -3.4255976318680244 21.00055910629452 0 0 0
1227 409 1 0.5897 -8.557378606851131 -2.958711449460818 20.69984095437189 0 0 0
1109 370 1 0.5897 -8.738986162584977 -3.6579242737007 17.998057419227415 0 0 0
1108 370 2 -1.1794 -9.306003204781284 -4.4242372764466005 18.084692127339622 0 0 0
1089 363 1 0.5897 -6.426676979724982 -4.830826861079366 17.419187562024923 0 0 0
1143 381 1 0.5897 -8.168330731869577 -5.189485744928083 21.525686010648297 0 0 0
1097 366 1 0.5897 -8.922586807865418 -6.026207980788618 18.64453919070064 0 0 0
1219 407 2 -1.1794 -10.149785605675143 -1.9542810124307284 20.33809732148068 0 0 0
1151 384 1 0.5897 -5.953606194302711 -5.431910223313297 19.536854152867033 0 0 0
1150 384 2 -1.1794 -5.913979468781594 -4.54869214540461 19.17010331925691 0 0 0
1141 381 2 -1.1794 -8.256072497134742 -6.1369158192828905 21.629991340009806 0 0 0
1130 377 1 0.5897 -7.181191438598923 -1.6625322494883896 18.8732704447754 0 0 0
1129 377 2 -1.1794 -7.640048714735974 -2.0666048323972976 18.136717968819905 0 0 0
1088 363 1 0.5897 -6.47679546937933 -6.072021597936249 16.553741803592274 0 0 0
1087 363 2 -1.1794 -6.458947250339795 -5.116184926497919 16.506072493892322 0 0 0
1142 381 1 0.5897 -8.39266895920521 -6.464686254193479 20.74106865033653 0 0 0
1226 409 1 0.5897 -7.3298160412878035 -2.80174295005376 21.571993844196864 0 0 0
758 253 1 0.5897 -9.408538663044043 -5.466203327607283 16.33218593015536 0 0 0
59 20 1 0.5897 -13.5043330250361 -0.7464799698016762 3.526469014226114 1 0 0
69 23 1 0.5897 -11.07993817114893 -2.7716872926580987 3.1511685468870025 1 0 0
272 91 1 0.5897 -9.234263381309345 -0.9009727979652311 1.3120874990374218 1 1 0
271 91 2 -1.1794 -10.088727441278895 -0.6934068152060977 0.9337598572826099 1 1 0
301 101 2 -1.1794 -7.8375808918449845 -2.093685429694445 1.7169418087039887 1 1 0
107 36 1 0.5897 -9.333875428634173 1.6466048887184712 3.1074671350044767 1 0 0
258 86 1 0.5897 -12.597767413763375 -2.498763157113327 1.355091326200149 1 1 0
83 28 1 0.5897 -9.587089289767379 -0.74273935128309 3.7524806467281056 1 0 0
67 23 2 -1.1794 -10.536848901489865 -2.579840472352285 3.915746566518076 1 0 0
256 86 2 -1.1794 -12.18636651384341 -3.1696622868320175 1.899911880803846 1 1 0
68 23 1 0.5897 -11.11548628705089 -2.7265542886059837 4.663945922529853 1 0 0
52 18 2 -1.1794 -12.117102368279745 0.20656121998838195 2.676435066789286 1 0 0
98 33 1 0.5897 -11.915726906034372 0.3799072061821054 4.495951671965319 1 0 0
53 18 1 0.5897 -12.326519127635667 1.0739321258421786 2.330063098701651 1 0 0
54 18 1 0.5897 -11.353078448205514 -0.07486359849503543 2.1731402081051217 1 0 0
82 28 2 -1.1794 -8.99703571944417 0.010508850007809656 3.7795393068443537 1 0 0
84 28 1 0.5897 -8.12645368948772 -0.37052218851247076 3.8944484148855394 1 0 0
44 15 1 0.5897 -10.086992187909985 1.0619580745898816 0.1733040749381285 1 0 0
99 33 1 0.5897 -11.654783501941012 1.5621362053313348 5.404990939622681 1 0 0
273 91 1 0.5897 -10.20748257643639 -1.3412792311748616 0.23916370170082224 1 1 0
281 94 1 0.5897 -8.996054391809153 -3.616901755926791 1.5447354989158615 1 1 0
417 139 1 0.5897 -8.975928398691103 0.9613482085600538 5.493656949802567 1 0 0
97 33 2 -1.1794 -11.779959529876539 0.61320772714177 5.414318090956257 1 0 0
527 176 1 0.5897 -12.07010019424126 1.513043910219297 8.734862229500557 1 0 0
526 176 2 -1.1794 -12.744790228518601 1.0441161568046802 9.225855190398516 1 0 0
426 142 1 0.5897 -8.851369741704103 -1.7453131626773217 6.973958813538834 1 0 0
435 145 1 0.5897 -7.614488560687869 -0.8603215379032818 9.920665718755139 0 0 0
424 142 2 -1.1794 -7.991762481059173 -2.159899337694827 7.048039333619295 1 0 0
402 134 1 0.5897 -10.953183697689195 -0.4054457798081952 6.545034643229111 1 0 0
401 134 1 0.5897 -11.027212306792244 -1.2177482296948021 7.820289578697106 1 0 0
400 134 2 -1.1794 -10.40505543286549 -0.819507696716947 7.2116239915512095 1 0 0
537 179 1 0.5897 -9.566487613467345 0.010907238891743276 8.648816608437878 1 0 0
536 179 1 0.5897 -9.751539330133415 0.04531106056676748 10.150925825664102 1 0 0
535 179 2 -1.1794 -9.121899828908818 0.2541067175573506 9.460921346266572 1 0 0
528 176 1 0.5897 -12.266732680102729 0.5998174467161022 9.92604615789797 1 0 0
411 137 1 0.5897 -13.39017108248128 0.4830168810885045 6.2910841028377344 1 0 0
433 145 2 -1.1794 -6.820168489871595 -1.2726569241066699 10.260255983396128 0 0 0
522 174 1 0.5897 -10.002654892472844 2.070557280505259 7.4749645390007124 1 0 0
520 174 2 -1.1794 -10.70645985547721 2.3617537767668555 8.054694457842249 1 0 0
415 139 2 -1.1794 -8.728976098656792 1.5552310159873084 6.202622288850939 1 0 0
425 142 1 0.5897 -7.376297077307019 -1.4286523853993929 7.100618694402366 1 0 0
410 137 1 0.5897 -13.549428325733302 0.37578502198492814 7.792703101628382 1 0 0
790 264 2 -1.1794 -10.932826530548558 -0.057667944396929016 13.769412279566376 0 0 0
770 257 1 0.5897 -11.914942464422264 2.7211933579904475 13.227837676702647 0 0 0
762 254 1 0.5897 -9.185922532174498 2.087001316123235 12.18624581741035 0 0 0
761 254 1 0.5897 -9.394211213401062 1.0062887728506809 13.22560099448618 0 0 0
760 254 2 -1.1794 -8.71012201718387 1.5035695268240872 12.777366394234313 0 0 0
769 257 2 -1.1794 -12.314016919586539 2.6021886658089546 12.365940673012433 0 0 0
792 264 1 0.5897 -11.546492747023251 0.3819863034321642 14.35792699512135 0 0 0
888 296 1 0.5897 -10.572858701119811 2.961987521708748 15.313761674762272 0 0 0
837 279 1 0.5897 -11.148261651503411 -0.06491173875517653 12.012774826764064 1 0 0
791 264 1 0.5897 -10.728127634877778 -0.8829245285436951 14.208955107173004 0 0 0
896 299 1 0.5897 -7.926679223701769 2.4230463061709813 15.591261576030577 0 0 0
866 289 1 0.5897 -12.54688178585389 1.5996972296933532 16.329548722258934 0 0 0
835 279 2 -1.1794 -11.193955693904421 -0.38010253980511344 11.110099259809374 1 0 0
836 279 1 0.5897 -11.337069267466077 -1.3229774340351819 11.191985615930328 1 0 0
771 257 1 0.5897 -11.60023921460753 2.7579257289068515 11.747523267041354 0 0 0
1009 337 2 -1.1794 -11.172988067485157 3.7779848134399288 20.93863985542947 0 -1 0
1260 420 1 0.5897 -9.83438468888659 3.0813721518554136 19.745521258927752 0 0 0
1251 417 1 0.5897 -11.526842353708531 1.9340725755087433 21.651514424861023 0 0 0
1259 420 1 0.5897 -8.90704490549815 1.899016315275004 19.56105486021851 0 0 0
1258 420 2 -1.1794 -9.137406990767408 2.746814952736033 19.181139122359703 0 0 0
1101 367 1 0.5897 -10.036139325620502 -1.0472091830567454 16.484008953262286 0 0 0
1250 417 1 0.5897 -11.607167576714312 0.7090267916322528 20.765585339044954 0 0 0
1196 399 1 0.5897 -9.657855709663695 1.1315753757620968 16.762402244571913 0 0 0
1236 412 1 0.5897 -7.860453847210856 -0.13232488055385438 20.585620362951172 0 0 0
1216 406 2 -1.1794 -12.342610727720764 2.876337599963831 17.75705713164904 0 0 0
1235 412 1 0.5897 -9.362967668401472 -0.3159494565156553 20.557011143964115 0 0 0
1234 412 2 -1.1794 -8.680561131307726 0.3519056526935085 20.489586725375638 0 0 0
1099 367 2 -1.1794 -9.848393454777773 -0.5254646802010559 17.264284763006156 0 0 0
1246 416 2 -1.1794 -6.185989862922003 -0.8416511156178199 20.159479062915388 0 0 0
1206 402 1 0.5897 -11.045538765775659 -0.011218067492263728 18.510074140404292 0 0 0
1204 402 2 -1.1794 -11.758436970313955 0.3987540553262292 18.999916320108586 0 0 0
1197 399 1 0.5897 -9.494533677316332 2.5302914947169732 17.318245835665703 0 0 0
1100 367 1 0.5897 -9.04351772021087 -0.9039416626764805 17.618158234581756 0 0 0
1205 402 1 0.5897 -11.954811492252176 1.1992120827797237 18.513242861662697 0 0 0
1195 399 2 -1.1794 -9.535274146184129 2.04259239514386 16.495584155906023 0 0 0
1218 406 1 0.5897 -13.192557836830616 3.3120883524603038 17.820140284413018 0 0 0
1217 406 1 0.5897 -11.706005582661714 3.5911798499992855 17.754311660633864 0 0 0
1249 417 2 -1.1794 -11.70517018658293 0.9939087793964436 21.674136580763108 0 0 0
40 14 2 -1.1794 -15.144527664860629 4.191536626761909 1.8545189006958354 1 0 0
177 59 1 0.5897 -14.035136182899194 4.614279487177949 3.321890319015759 1 0 0
42 14 1 0.5897 -15.665173842643394 4.730841455662354 1.2592961894124952 1 0 0
108 36 1 0.5897 -10.223130877303776 2.8060240379414676 3.5035729992249594 1 0 0
175 59 2 -1.1794 -13.616203163567858 4.7845184950419135 4.1655814917734375 1 0 0
55 19 2 -1.1794 -13.080833181841037 6.388592142003336 0.7361403871933527 1 0 0
56 19 1 0.5897 -12.428447115888805 5.908525763837602 1.2462190718858754 1 0 0
66 22 1 0.5897 -13.534941930572058 3.212723040730367 1.6708190162366596 1 0 0
65 22 1 0.5897 -12.035970158060582 3.373731961397544 1.532192538059612 1 0 0
64 22 2 -1.1794 -12.7182925944442 2.7136269241041138 1.654410542493495 1 0 0
162 54 1 0.5897 -14.269695062712254 6.89228324429755 2.0713279439501324 1 0 0
85 29 2 -1.1794 -11.050781943576645 4.921678349702489 1.6622993183096297 1 0 0
191 64 1 0.5897 -12.674832571556665 6.401285734632445 4.314208784114478 1 0 0
167 56 1 0.5897 -16.44611303141179 6.2215592205686825 3.2498839328318834 1 0 0
183 61 1 0.5897 -12.14689643591468 3.732071342007071 4.466039080485146 1 0 0
181 61 2 -1.1794 -11.402844304745804 3.2988456652891784 4.884344037701977 1 0 0
176 59 1 0.5897 -14.298333626067736 4.605207152035984 4.812653315243091 1 0 0
45 15 1 0.5897 -10.003465359924048 2.2589815992391653 1.0964697483654744 1 0 0
190 64 2 -1.1794 -11.995066172276108 7.075073028532602 4.328509407811431 1 0 0
43 15 2 -1.1794 -10.069281134223619 2.0189866256182256 0.17217607336764645 1 0 0
106 36 2 -1.1794 -9.62629291841611 2.510215007816875 2.8162008880265925 1 0 0
192 64 1 0.5897 -11.174958239800745 6.590708405360369 4.233150019146877 1 0 0
508 170 2 -1.1794 -13.307291340448128 6.481382084642972 7.288984236032548 1 0 0
645 215 1 0.5897 -12.196522006285004 7.143384467732465 8.589581883784533 1 0 0
644 215 1 0.5897 -12.327009557378942 7.204341272891286 10.096578217397397 1 0 0
643 215 2 -1.1794 -11.690650182544156 7.296908890870435 9.387605305491904 1 0 0
509 170 1 0.5897 -13.982112727220413 5.863454490494984 7.5700409736822065 1 0 0
457 153 2 -1.1794 -10.066823621172759 3.103761588690519 10.76183032216125 0 0 0
532 178 2 -1.1794 -11.012385010354727 4.997155373585006 7.065145360398441 1 0 0
543 181 1 0.5897 -10.227543334801108 6.108934768503756 9.76148419847094 0 0 0
510 170 1 0.5897 -13.692760964492834 6.93219189526666 6.5377365649856936 1 0 0
534 178 1 0.5897 -11.82706222870203 5.49920011864657 7.042031560749241 1 0 0
521 174 1 0.5897 -11.058300190681557 3.144481454521598 7.6307553575856755 1 0 0
459 153 1 0.5897 -9.770442301635857 4.012173871698943 10.705498750237611 0 0 0
533 178 1 0.5897 -10.32290796759448 5.660063296333277 7.103468286757726 1 0 0
636 212 1 0.5897 -15.106249116742926 7.663176829178321 9.91479571542536 1 0 0
538 180 2 -1.1794 -15.253384963225674 4.924001677858172 8.326083985708022 1 0 0
519 173 1 0.5897 -16.450412708200364 7.439936197283279 6.3833023817226495 1 0 0
182 61 1 0.5897 -11.11741296186883 3.912411267937438 5.561394731989264 1 0 0
458 153 1 0.5897 -10.064446369879608 2.7938364519319894 9.856187150276899 0 0 0
518 173 1 0.5897 -16.669489975844357 7.64667646234736 7.866902554681862 1 0 0
944 315 1 0.5897 -14.113987948224747 5.7593289331474775 10.917324467983695 1 0 0
887 296 1 0.5897 -10.320968681452179 3.9104899125750165 14.161189130881732 0 0 0
874 292 2 -1.1794 -13.300627045960276 4.825798300458992 14.843465863124077 0 0 0
876 292 1 0.5897 -12.44097372947881 4.404946127092762 14.830486770643025 0 0 0
848 283 1 0.5897 -13.82973842354625 3.589438535225 11.999741565403367 1 0 0
945 315 1 0.5897 -13.840342960064273 6.868155870830657 11.911171059983287 1 0 0
869 290 1 0.5897 -12.293980478637339 8.34278567100805 13.025426746886874 0 0 0
900 300 1 0.5897 -14.304340181598995 7.739465595411955 14.148215681370578 0 0 0
899 300 1 0.5897 -13.49228463927066 6.470965043565101 13.995212541991163 0 0 0
898 300 2 -1.1794 -13.537218501692244 7.380955094905088 13.701858380271121 0 0 0
886 296 2 -1.1794 -11.005090522033077 3.379344209941207 14.568651052804611 0 0 0
943 315 2 -1.1794 -13.939380064919117 6.69874449624384 10.974298424604736 1 0 0
965 322 1 0.5897 -16.216112408658372 8.132444024338005 12.070016140102346 1 0 0
875 292 1 0.5897 -13.923476748085188 4.101322219610836 14.78448067433674 0 0 0
650 217 1 0.5897 -15.469013977564561 8.797765083235534 16.2678956682476 0 -1 0
1209 403 1 0.5897 -13.186155495343208 5.821681092870227 16.29433937414503 0 0 0
847 283 2 -1.1794 -14.557253322464941 4.037866216028217 11.568571730683246 1 0 0
649 217 2 -1.1794 -15.642988328501886 8.239461639571052 15.510041095363484 0 -1 0
880 294 2 -1.1794 -9.018038303234366 4.982463065660273 13.387538335726878 0 0 0
1018 340 2 -1.1794 -11.583507063956482 7.404304209849075 20.264898464388907 0 -1 0
1019 340 1 0.5897 -12.295257433337998 6.764241921738142 20.26746461143635 0 -1 0
1020 340 1 0.5897 -10.845460629778369 6.940917197446778 19.868896241941766 0 -1 0
1003 335 2 -1.1794 -13.501905684698638 5.20044486350387 20.262168670064323 0 -1 0
1237 413 2 -1.1794 -10.586908655741981 5.0360918557159575 17.69463013768137 0 0 0
989 330 1 0.5897 -15.09786085060022 8.339754909640787 18.63869713335425 0 -1 0
1030 344 2 -1.1794 -9.241737243022403 6.017053559617812 19.733932335175744 0 -1 0
1032 344 1 0.5897 -8.793884015571464 5.577071804023843 20.45646409565167 0 -1 0
1011 337 1 0.5897 -11.97077898885738 4.223758902252207 20.653860807360978 0 -1 0
1207 403 2 -1.1794 -12.970812262215219 6.386978795272423 17.03621734259864 0 0 0
1208 403 1 0.5897 -12.112349059107935 6.081498903140247 17.329532704446343 0 0 0
1239 413 1 0.5897 -9.903953366158442 5.2586684377500745 17.062040924720353 0 0 0
1238 413 1 0.5897 -10.221830853607162 5.2918107634877405 18.54174877610818 0 0 0
990 330 1 0.5897 -14.315514738517297 7.096061504050541 18.273843764531893 0 -1 0
1043 348 1 0.5897 -11.862095313725783 8.979934843446456 19.655039224807474 0 -1 0
980 327 1 0.5897 -12.8254070142638 8.212412255685203 16.664452522414248 0 -1 0
1034 345 1 0.5897 -14.778898441183202 7.80683690990257 20.742669083108787 0 -1 0
1035 345 1 0.5897 -14.369378401888202 9.057341815805993 21.491409597698425 0 -1 0
1033 345 2 -1.1794 -14.667151799705623 8.15770675029781 21.62622505709679 0 -1 0
988 330 2 -1.1794 -14.93697303951323 7.438039697713423 18.916542941982513 0 -1 0
1010 337 1 0.5897 -10.76211765813505 4.388773242379507 21.55058078170477 0 -1 0
1229 410 1 0.5897 -8.030445818596771 3.850248100975872 18.22589271167157 0 0 0
57 19 1 0.5897 -11.305124052140581 8.493557113588716 21.62441523743939 1 0 -1
291 97 1 0.5897 -15.310839388346409 10.865841826788008 4.5461992073665325 1 0 0
174 58 1 0.5897 -16.539624236426327 10.00985720093833 1.6303116355761884 1 0 0
173 58 1 0.5897 -15.076322604205341 10.395975233980637 1.5885194314825501 1 0 0
172 58 2 -1.1794 -15.658637540223243 9.636413181472863 1.604082549535797 1 0 0
283 95 2 -1.1794 -16.8413436821116 11.935432828751855 4.129074317937004 1 0 0
161 54 1 0.5897 -15.144300271657327 8.088732042424633 2.380387606716296 1 0 0
193 65 2 -1.1794 -14.116520504730204 11.905212065278578 1.6509688317973097 1 0 0
206 69 1 0.5897 -14.714078260551972 7.4988343976206355 4.445323413068149 1 0 0
285 95 1 0.5897 -17.243679772981555 11.78245882396451 3.2740769028357057 1 0 0
148 50 2 -1.1794 -18.174619061878865 10.848216765311017 1.7560478162057487 1 0 0
289 97 2 -1.1794 -14.497543570910217 10.434549082723036 4.8085385576692685 1 0 0
150 50 1 0.5897 -18.513575387984766 11.528408357087505 1.1741428693450675 1 0 0
284 95 1 0.5897 -17.515751164986682 11.683919270172426 4.759999781052393 1 0 0
215 72 1 0.5897 -12.379270120704852 8.608838693616237 3.474870104551319 1 0 0
216 72 1 0.5897 -13.17352945776694 9.890276675560061 3.6126629175962486 1 0 0
153 51 1 0.5897 -12.826083230827376 9.176669076222455 1.2542083894548202 1 0 0
152 51 1 0.5897 -12.890689317684656 8.052946444795813 0.241711953032122 1 0 0
214 72 2 -1.1794 -12.53232464978533 9.453698043436065 3.0518647013325393 1 0 0
151 51 2 -1.1794 -12.891803588128187 9.007383930136315 0.3143906147368266 1 0 0
160 54 2 -1.1794 -14.980221631366428 7.183035839699288 2.64301354171193 1 0 0
205 69 2 -1.1794 -14.87561546367579 7.783200529878377 5.344914139351707 1 0 0
194 65 1 0.5897 -13.691940476907522 12.099467446183171 2.48661358949915 1 0 0
207 69 1 0.5897 -14.741452309964874 8.730736556851918 5.324941647160113 1 0 0
640 214 2 -1.1794 -13.95488158988941 12.196801433873345 6.8263410632062 1 0 0
630 210 1 0.5897 -12.694062263855972 9.31762313390311 7.4665388941407755 1 0 0
629 210 1 0.5897 -13.38510809721191 10.638713609171054 7.729434885486104 1 0 0
628 210 2 -1.1794 -13.366495878751739 9.724643715446172 8.012805633481275 1 0 0
566 189 1 0.5897 -13.237397110139849 9.823741740454336 9.758137351942935 0 0 0
635 212 1 0.5897 -14.719509351005637 8.609749064311854 8.798552546140701 1 0 0
634 212 2 -1.1794 -15.478081594455851 8.203123616047739 9.217389274677727 1 0 0
642 214 1 0.5897 -14.811338545208224 12.623388626052142 6.854490128959366 1 0 0
565 189 2 -1.1794 -13.082008378492596 10.069532011884084 10.670116202166916 0 0 0
567 189 1 0.5897 -13.071213310986812 11.026632580028805 10.662308149455571 0 0 0
646 216 2 -1.1794 -18.409827259640544 12.116072228773012 8.131628067925739 1 0 0
290 97 1 0.5897 -14.195236180416115 10.93348512820438 5.567480395698144 1 0 0
525 175 1 0.5897 -11.598334967641815 8.2941530831275 5.588985131664913 1 0 0
327 109 1 0.5897 -13.376154285823796 13.36808907269664 9.875098048370772 0 -1 0
647 216 1 0.5897 -18.117138136752132 11.25269942437196 8.423353913684016 1 0 0
658 220 2 -1.1794 -16.382603502972074 11.880846374734853 14.84354565071701 0 -1 0
870 290 1 0.5897 -12.03150744245211 9.354968565060636 11.930822414567466 0 0 0
683 228 1 0.5897 -16.57541406578948 13.582074709487605 14.244629641318838 0 -1 0
671 224 1 0.5897 -13.260183577932999 11.140730695005063 14.036069253958484 0 -1 0
670 224 2 -1.1794 -13.985967887755038 10.662107816578407 14.436510440223033 0 -1 0
672 224 1 0.5897 -13.589714536046769 10.19902937181861 15.174567257844101 0 -1 0
956 319 1 0.5897 -16.77660840849679 10.846460235054971 11.733659596435489 1 0 0
660 220 1 0.5897 -15.509670308006001 11.577407284213562 14.594171518800275 0 -1 0
879 293 1 0.5897 -14.628873108461804 9.844289456371383 11.63357246018126 0 0 0
878 293 1 0.5897 -14.929166210094287 10.078763203437818 13.098715190277623 0 0 0
877 293 2 -1.1794 -15.35233190828549 9.909809202581313 12.256880105553192 0 0 0
868 290 2 -1.1794 -11.596188124072953 8.862793559104185 12.626854782905639 0 0 0
680 227 1 0.5897 -11.159222673471417 9.54958358074479 15.533516067491659 0 -1 0
728 243 1 0.5897 -17.205238081349872 13.212688594617278 11.48008590588878 1 -1 0
659 220 1 0.5897 -16.95628130871524 11.136166599978436 14.66282850095518 0 -1 0
955 319 2 -1.1794 -17.55818941616041 11.349967051309898 11.505868020800389 1 0 0
681 227 1 0.5897 -10.849618313891924 9.416861526196366 14.057613720170437 0 -1 0
1140 380 1 0.5897 -11.71349031282778 12.84084696445503 20.78408098813755 0 -1 0
1138 380 2 -1.1794 -12.213880954182208 13.286373010612342 20.100461724120184 0 -1 0
1128 376 1 0.5897 -13.846957639138816 14.084945330708761 20.346911815179094 0 -1 0
1127 376 1 0.5897 -15.292322186332626 13.657940319756763 20.490627461499397 0 -1 0
1022 341 1 0.5897 -13.387894387980214 12.423406523034432 18.648837060155593 0 -1 0
1119 373 1 0.5897 -14.805504014013277 11.040263427104785 20.73159150534931 0 -1 0
1117 373 2 -1.1794 -13.938989941794933 10.697302293064572 20.950310515483498 0 -1 0
1044 348 1 0.5897 -12.63876577664507 10.279262707134015 19.675949198096593 0 -1 0
1042 348 2 -1.1794 -11.9183179858118 9.835101980979362 19.228815377946894 0 -1 0
993 331 1 0.5897 -16.256920837833036 12.936815400919203 16.449143240066643 0 -1 0
1002 334 1 0.5897 -16.258758323639036 10.254509882690646 18.031077466793572 0 -1 0
1126 376 2 -1.1794 -14.732983406514826 14.433439156380105 20.44591619174333 0 -1 0
991 331 2 -1.1794 -16.0420059834762 13.549685692923711 17.152361614558718 0 -1 0
992 331 1 0.5897 -15.279979378515822 13.162714183001546 17.583474236511595 0 -1 0
981 327 1 0.5897 -12.476430964641146 9.401073173323867 17.53474489506545 0 -1 0
1023 341 1 0.5897 -13.223054004822124 12.208361020382265 17.15940636981134 0 -1 0
1021 341 2 -1.1794 -13.82698376821705 12.049537054414506 17.884796645852703 0 -1 0
1001 334 1 0.5897 -14.787596523126988 10.503095451937044 17.774333904194748 0 -1 0
1000 334 2 -1.1794 -15.439761904654368 9.804208920722088 17.824317655065652 0 -1 0
1098 366 1 0.5897 -17.210578264476073 14.255586692058822 18.258897287906514 0 -1 0
1111 371 2 -1.1794 -16.2886906741276 12.052765847273998 20.437999478014596 0 -1 0
1096 366 2 -1.1794 -17.799632682229955 14.546634925727522 18.954971761436656 0 -1 0
1118 373 1 0.5897 -13.656896853124033 11.219159573363056 21.701586705698404 0 -1 0
979 327 2 -1.1794 -12.650280582672245 9.152692323241348 16.62680802559145 0 -1 0
305 102 1 0.5897 -1.5478630966414055 -6.36078241014274 2.4060734582030556 1 1 0
311 104 1 0.5897 -2.668117058231023 -8.091894381539714 3.492351068049644 1 1 0
318 106 1 0.5897 -2.767108906189165 -4.337099308135931 1.7897432791329098 1 1 0
293 98 1 0.5897 -4.9899097149021445 -3.7828654404476074 2.4144382016805865 1 1 0
317 106 1 0.5897 -1.298563574815482 -4.052343595739622 1.5567048829859071 1 1 0
304 102 2 -1.1794 -1.3653857277214279 -7.224641045276552 2.7756873318091815 1 1 0
316 106 2 -1.1794 -1.917550136514068 -4.768590472035352 1.698378742526591 1 1 0
242 81 1 0.5897 -0.974365632504222 -6.779259759840819 4.506225237979593 0 1 0
306 102 1 0.5897 -0.7584323146410359 -7.627957716390681 2.1550785069550233 1 1 0
310 104 2 -1.1794 -3.4421647748899504 -8.461832376206962 3.9168241248667663 1 1 0
3 1 1 0.5897 -1.3599771497693176 -3.3864139014198393 4.451469656880329 0 0 0
241 81 2 -1.1794 -0.8952161606970694 -6.40762017702825 5.3847996783230085 0 1 0
243 81 1 0.5897 -0.7307691348325083 -5.476235559506316 5.23757534221142 0 1 0
199 67 2 -1.1794 0.520308817237277 -8.192672055930917 0.9493331406150979 1 1 0
1262 421 1 0.5897 -2.1534189356167577 -5.806880413123672 0.13813758308964505 0 0 1
201 67 1 0.5897 0.2971897596205597 -8.78749976893626 0.233288549223934 1 1 0
632 211 1 0.5897 -4.558098804499343 -5.763440650470809 6.42777579561141 1 1 0
555 185 1 0.5897 -2.502038698491317 -6.7337282789810935 6.083332334614424 0 1 0
554 185 1 0.5897 -2.8374988175963622 -6.8149988204098815 7.557294465279443 0 1 0
553 185 2 -1.1794 -3.187749919708609 -7.014741632478529 6.689127361801731 0 1 0
546 182 1 0.5897 0.0484623319453501 -7.570219285456448 6.570323671168096 0 1 0
404 135 1 0.5897 -5.356049371780134 -3.6268407003110195 5.723454768773837 1 0 0
544 182 2 -1.1794 0.4876151244513167 -8.10463517809795 7.231942900865226 0 1 0
348 116 1 0.5897 -1.3709275344565892 -6.648905922081565 9.593178598308812 0 0 0
347 116 1 0.5897 -1.1317420381949699 -5.486098835207537 8.653895767834094 0 0 0
346 116 2 -1.1794 -1.811810846378231 -6.089068489143819 8.954117806704105 0 0 0
336 112 1 0.5897 -3.431506425474387 -5.280362762912093 9.271225834057967 0 0 0
334 112 2 -1.1794 -4.270498579993073 -4.828869703591244 9.36355275802845 0 0 0
359 120 1 0.5897 -4.434644667555268 -3.2062362805389064 8.780601971844375 0 0 0
356 119 1 0.5897 1.3460879130675032 -7.076193743516372 10.222493567630682 0 0 0
335 112 1 0.5897 -4.926825924642884 -5.516369989839228 9.250082102157078 0 0 0
357 119 1 0.5897 1.3064237040793572 -7.1474855949956915 8.710818683542042 0 0 0
326 109 1 0.5897 -3.009422928808325 -7.737097870352257 10.81508217216767 0 0 0
631 211 2 -1.1794 -5.415095396713203 -5.44985176787622 6.1387662102024825 1 1 0
655 219 2 -1.1794 -0.4537400610107287 -7.411739932851633 10.99842262284675 0 0 0
793 265 2 -1.1794 -1.8126854321711665 -6.0214782178823185 15.537007068228263 0 0 0
795 265 1 0.5897 -2.6507979625092855 -5.640740149912108 15.274503727960333 0 0 0
803 268 1 0.5897 -3.3783673569903048 -2.861641074207548 15.22647671668959 0 0 0
678 226 1 0.5897 -3.8992273945831473 -6.33646002043852 12.27259527033272 0 0 0