LAMMPS (30 Jul 2021)
Processor partition = 0
  using 2 OpenMP thread(s) per MPI task
using multi-threaded neighbor list subroutines
variable        pid world 0 1
variable        phase world IceII IceIh

shell cd ${phase}
shell cd IceII
include Restart.lmp
echo both
log log.lammps
#include		in.partitions
include		in.temp
variable        temperature equal 242.60
variable	tempDamp equal 100.0
include		in.pressure
variable        pressure equal 2159.6
variable        pressureDamp equal 1000.0 # This is 1 ps
include		in.seed
variable        seed equal 745823

units		real
atom_style	full
box tilt large
read_restart	restart.lmp.${pid}
read_restart	restart.lmp.0
Reading restart file ...
  restart file = 30 Jul 2021, LAMMPS = 30 Jul 2021
  restoring atom style full from restart
  triclinic box = (-10.772777 -9.2372912 -0.084414029) to (12.752777 12.227289 21.944413) with tilt (-9.2095063 1.9997337 2.6582750)
  4 by 2 by 4 MPI processor grid
  restoring pair style lj/cut/tip4p/long/omp from restart
  restoring bond style harmonic/omp from restart
  restoring angle style harmonic/omp from restart
  1296 atoms
  864 bonds
  432 angles
Finding 1-2 1-3 1-4 neighbors ...
  special bond factors lj:    0        0        0       
  special bond factors coul:  0        0        0       
     2 = max # of 1-2 neighbors
     1 = max # of 1-3 neighbors
     1 = max # of 1-4 neighbors
     2 = max # of special neighbors
  special bonds CPU = 0.002 seconds
  read_restart CPU = 0.009 seconds
include 	in.setup
variable	out_freq equal 1000
variable	out_freq2 equal 10000
variable	out_freq3 equal 1000

timestep	2.0

neigh_modify    delay 7 every 1

include		in.tip4p
# This is TIP4P/Ice

# create groups ###
group ox type 2
432 atoms in group ox
group hy type 1
864 atoms in group hy

# set charges - beside manually ###
set group ox charge -1.1794
Setting atom values ...
  432 settings made for charge
set group hy charge 0.5897
Setting atom values ...
  864 settings made for charge

# ### TIP3P Potential Parameters ###
pair_style lj/cut/tip4p/long/omp 2 1 1 1 0.1577 8.5
pair_coeff 1 1*2 0.000 0.000
pair_coeff 2 2 0.21084 3.1668
bond_style  harmonic
bond_coeff  1 450 0.9572
angle_style harmonic
angle_coeff 1 55 104.52
kspace_style pppm/tip4p/omp 1.0e-5
pair_modify tail yes

thermo          ${out_freq}
thermo          1000
thermo_style    custom step temp pe etotal epair emol press lx ly lz vol pxx pyy pzz pxy pxz pyz enthalpy

restart 	${out_freq3} restart.lmp.${pid} restart2.lmp.${pid}
restart 	1000 restart.lmp.${pid} restart2.lmp.${pid}
restart 	1000 restart.lmp.0 restart2.lmp.${pid}
restart 	1000 restart.lmp.0 restart2.lmp.0


include         in.dump
dump            myDump all atom ${out_freq2} dump.water.${pid}
dump            myDump all atom 10000 dump.water.${pid}
dump            myDump all atom 10000 dump.water.0
dump            myDump2 all dcd ${out_freq2} dump.dcd
dump            myDump2 all dcd 10000 dump.dcd
dump_modify     myDump append yes
dump_modify     myDump2 append yes


variable natoms 	equal  "count(all)"                        # NUMBER ATOMS
variable H      	equal  "enthalpy/v_natoms"                 # ENTHALPY-per-atom
variable Vol      	equal  "vol/v_natoms"                 # volume-per-atom
fix AVG all 		ave/time ${out_freq} 1 ${out_freq} v_Vol v_H file vol_enthalpy.dat
fix AVG all 		ave/time 1000 1 ${out_freq} v_Vol v_H file vol_enthalpy.dat
fix AVG all 		ave/time 1000 1 1000 v_Vol v_H file vol_enthalpy.dat


timer           timeout 10:00:00 every 1000
New timer settings: style=normal  mode=nosync  timeout=10:00:00

fix 		1 all shake 1e-6 200 0 b 1 a 1
Finding SHAKE clusters ...
       0 = # of size 2 clusters
       0 = # of size 3 clusters
       0 = # of size 4 clusters
     432 = # of frozen angles
  find clusters CPU = 0.001 seconds
fix             2 all nph tri ${pressure} ${pressure} ${pressureDamp}
fix             2 all nph tri 2159.6 ${pressure} ${pressureDamp}
fix             2 all nph tri 2159.6 2159.6 ${pressureDamp}
fix             2 all nph tri 2159.6 2159.6 1000
fix             3 all temp/csvr ${temperature} ${temperature} ${tempDamp} ${seed}
fix             3 all temp/csvr 242.6 ${temperature} ${tempDamp} ${seed}
fix             3 all temp/csvr 242.6 242.6 ${tempDamp} ${seed}
fix             3 all temp/csvr 242.6 242.6 100 ${seed}
fix             3 all temp/csvr 242.6 242.6 100 745823


run             250000
PPPM initialization ...
  extracting TIP4P info from pair style
  using 12-bit tables for long-range coulomb (../kspace.cpp:340)
  G vector (1/distance) = 0.3676828
  grid = 30 40 32
  stencil order = 5
  estimated absolute RMS force accuracy = 0.0043762322
  estimated relative force accuracy = 1.3178893e-05
  using double precision FFTW3
  3d grid and FFT values/proc = 7888 1280
Last active /omp style is kspace_style pppm/tip4p/omp
Neighbor list info ...
  update every 1 steps, delay 7 steps, check yes
  max neighbors/atom: 2000, page size: 100000
  master list distance cutoff = 10.8154
  ghost atom cutoff = 10.8154
  binsize = 5.4077, bins = 7 5 5
  1 neighbor lists, perpetual/occasional/extra = 1 0 0
  (1) pair lj/cut/tip4p/long/omp, perpetual
      attributes: half, newton on, omp
      pair build: half/bin/newton/tri/omp
      stencil: half/bin/3d/tri
      bin: standard
Setting up Verlet run ...
  Unit style    : real
  Current step  : 750000
  Time step     : 2
  Walltime left : 9:59:59.95
Per MPI rank memory allocation (min/avg/max) = 10.65 | 10.66 | 10.66 Mbytes
Step Temp PotEng TotEng E_pair E_mol Press Lx Ly Lz Volume Pxx Pyy Pzz Pxy Pxz Pyz Enthalpy 
  750000     251.5245   -6310.4857   -5663.4543   -6310.4857            0    1676.0455    23.525554     21.46458    22.028827    11123.812    1151.8031    2042.7933    1833.5402   -319.27023   -705.17205    111.18382   -5391.5504 
  751000    239.34756   -6325.6303   -5709.9233   -6325.6303            0    2839.6791    23.386521     21.66927    21.851574    11073.697    3047.3116    2807.1127    2664.6129    851.38708    317.60066    869.15091   -5251.3193 
  752000    244.23674   -6327.6492   -5699.3651   -6327.6492            0    1533.3322    23.488373    21.454479    22.014886    11093.979    1970.8394    2881.7656   -252.60858    157.01464    -995.7458   -249.74997   -5451.2807 
  753000    239.91888   -6326.2488   -5709.0721   -6326.2488            0     1420.924    23.485117    21.617967    21.987589     11163.11    425.61621    2352.8158    1484.3399    272.56388   -856.98481   -565.87988   -5477.7421 
  754000    236.21263   -6352.8057   -5745.1631   -6352.8057            0    1697.6568     23.54992    21.633036    21.745698    11078.482    1297.8745    1726.1499     2068.946    1524.5518    -960.5511   -398.71937   -5470.8756 
  755000    236.30012   -6317.0383   -5709.1706   -6317.0383            0    2110.9533    23.364948    21.505286    22.052153    11080.543    3901.9564    947.01526    1483.8882    1004.5154   -1358.0577    809.34475    -5368.044 
  756000    246.54705   -6323.9846   -5689.7573   -6323.9846            0     1947.322    23.384264    21.609973    22.012792    11123.797    1292.4214    2291.7328    2257.8119    337.82779     8.420656    76.533112   -5373.8449 
  757000     237.1024   -6329.8486   -5719.9171   -6329.8486            0    3071.1106    23.535439    21.653483    21.711979    11064.951    1675.1633    3987.8885    3550.2799    49.474302    604.27536   -6.4075012   -5224.3291 
  758000    247.50514   -6328.4316   -5691.7397   -6328.4316            0    2939.2612    23.509935    21.421863    21.918161    11038.569    2642.1811    4018.8883    2156.7143   -671.56105     119.8655   -926.43744   -5218.5591 
  759000    263.87701   -6342.9024   -5664.0949   -6342.9024            0    1185.9754    23.319316    21.772472     21.97111    11155.153    1639.4057    519.17903    1399.3415   -348.92893    456.66405    398.64186   -5471.1527 
  760000    252.76663   -6346.0595   -5695.8328   -6346.0595            0    757.76998    23.632607     21.50524    21.940548    11150.732    1192.6011    1949.4898   -868.78097    -595.2839   -436.74267    163.28521   -5572.6027 
  761000    246.99754   -6342.0565   -5706.6704   -6342.0565            0    1856.3656    23.283369    21.676689    21.917445    11061.874    1613.6162    1774.8906      2180.59   -282.90878    652.37739    1267.3983   -5407.1902 
  762000    248.86809   -6308.8394   -5668.6414   -6308.8394            0    2927.0596    23.745991    21.271694    21.894439    11059.263     1168.708    3718.2087     3894.262    814.35158    -636.8316    333.92292   -5196.5418 
  763000    254.90437   -6333.8632   -5678.1373   -6333.8632            0    1935.8634    23.335628    21.734666    21.907133    11111.124     3887.884    223.32892    1696.3773    667.04918   -1346.0461   -636.25102   -5364.4415 
  764000    237.20483   -6348.1032   -5737.9082   -6348.1032            0     2343.152    23.467772    21.547712    21.929147    11089.061     1810.759    2517.3463    2701.3508    324.28445    395.66542   -388.15352   -5358.9676 
  765000    244.52883   -6326.8351   -5697.7996   -6326.8351            0    1965.8507    23.632944    21.602497    21.720459    11088.959    2371.6869    1173.3674    2352.4977   -176.02501    240.93276    548.67141   -5379.8801 
  766000    243.51207   -6336.9946   -5710.5746   -6336.9946            0    1989.1946    23.450934    21.627816    21.916254    11115.759    1158.5793    2612.8628    2196.1416   -73.695566    643.00429   -48.462637   -5388.1024 
  767000    243.98853   -6332.0229   -5704.3773   -6332.0229            0    3778.4913    23.573632    21.258466    21.965637    11007.843    3311.0583    4416.2504    3608.1653   -38.890689   -486.48315   -334.57569   -5097.7854 
  768000    239.41126   -6352.0125   -5736.1416   -6352.0125            0    816.83729    23.288041    21.821275    21.883674    11120.731    1906.7609    898.73944   -354.98851    642.43227   -681.97647    334.36593   -5603.6633 
  769000    238.12002   -6321.0893   -5708.5401   -6321.0893            0    2728.6817    23.749534    21.340516    21.824314    11061.158    973.96162    4235.7742    2976.3091    251.88116   -590.28242   -468.35592    -5268.361 
  770000    242.39974   -6344.4711   -5720.9125   -6344.4711            0    1611.5194    23.099688    21.905764     21.94673    11105.403    3565.0582    138.46404    1131.0359    36.689814    -371.0704   -17.623005   -5459.9094 
  771000    244.63143     -6365.31   -5736.0105     -6365.31            0     2046.291    23.592858    21.256572    22.071218    11068.788    1724.9692    2708.3374    1705.5663   -1270.8576    678.85537   -1308.8695   -5405.6841 
  772000    238.38738   -6315.2223   -5701.9853   -6315.2223            0     1389.211    23.394287    21.865032    21.797867    11149.976    918.84784    444.05908    2804.7262    8.3627941    263.32407    195.09711   -5476.0843 
  773000    237.51088   -6334.8118   -5723.8296   -6334.8118            0    846.01985    23.691421    21.389533    21.982695    11139.696   -489.55784    1826.1578    1201.4596   -482.12479     158.6432    966.39154   -5586.3843 
  774000    260.50596    -6308.513   -5638.3773    -6308.513            0    3413.5185    23.276428    21.726841     21.88964      11070.1    3382.9479    2457.4941    4400.1135    148.62054   -64.095199    574.55097   -5087.2782 
  775000    248.99032   -6308.9476   -5668.4352   -6308.9476            0    2556.9741    23.620758    21.404699    21.963519     11104.65    2895.4076    2025.7616     2749.753   -1053.9028   -1343.8786    -1003.018   -5254.3334 
  776000    250.52786   -6318.0056    -5673.538   -6318.0056            0    1953.0531    23.441701    21.753085    21.825195    11129.307    3474.7478    478.62926    1905.7824    370.27469   -1728.6757    254.91452   -5356.5388 
  777000    242.40472   -6307.5117   -5683.9403   -6307.5117            0    3025.6969    23.481534    21.533086      21.8886    11067.531    3374.3702    2848.5629    2854.1576    43.763557   -318.51214   -391.25991   -5195.5668 
  778000    232.46634   -6335.3946   -5737.3891   -6335.3946            0    1995.0998    23.501779    21.594004    21.904187    11116.321    2146.9875    1694.5787    2143.7331    -1143.002   -422.79397   -199.76027   -5413.9433 
  779000    244.58845   -6356.2536   -5727.0647   -6356.2536            0    1875.2937    23.427985    21.667687    21.834049    11083.624    1288.2827    2343.8371    1993.7613      -548.97   -571.09815    212.00839   -5423.9361 
  780000    247.67297   -6299.8852   -5662.7615   -6299.8852            0    3295.2974    23.685069    21.531739    21.675159    11053.913    2227.7725    3773.1207    3884.9991    275.00883   -1244.9555    446.89872   -5131.5267 
  781000    257.21484   -6336.2805    -5674.611   -6336.2805            0    1046.6599    23.414539    21.724019    21.926323    11152.998     1775.099    468.93553    895.94507    1585.2613   -299.68087    419.77173   -5504.3665 
  782000    243.78148   -6317.3981   -5690.2851   -6317.3981            0     2864.599    23.539849    21.417962    21.949933     11066.62    2980.4529    3319.1944    2294.1498     1528.484    378.51469    469.70425   -5227.9523 
  783000    246.07647   -6339.1517    -5706.135   -6339.1517            0    1377.0909    23.368562    21.781644    21.833384    11113.317    1326.5058    1707.8328     1096.934    846.63797    714.95772   -1080.3164   -5482.9412 
  784000    242.01641   -6348.6047   -5726.0323   -6348.6047            0   -129.18184     23.70015    21.551349    21.902627    11187.209   -275.34326    111.07848   -223.28074     260.2395   -239.42033   -1005.9614   -5747.1088 
  785000    238.64438   -6349.3421    -5735.444   -6349.3421            0     4129.245    23.362225    21.593013    21.791108     10992.76     5131.336    4144.2449     3112.154   -438.74264   -571.38971   -1280.5164   -5073.4511 
  786000    248.97156   -6364.5632    -5724.099   -6364.5632            0      3698.32    23.248486    21.581145    21.911998    10993.884    4153.6886    4060.7827    2880.4886   -902.66781   -638.50381   -193.67278   -5131.1307 
  787000    250.30081   -6343.6056    -5699.722   -6343.6056            0    2914.2417    23.563142    21.412544    21.917185    11058.246    3884.3486     2972.837    1885.5396   -1700.4136    54.337337   -190.82982    -5229.733 
  788000    239.95696   -6320.6809   -5703.4062   -6320.6809            0    2214.8486    23.377371    21.764694    21.837134    11110.763    2609.4257    424.15163    3610.9684   -94.781442    299.43364    545.51739   -5344.5142 
  789000    239.54977   -6320.8838   -5704.6566   -6320.8838            0    1187.4801     23.71806    21.329155    22.018814    11139.013   -485.02485    3212.3343     835.1309   -478.67777    331.99825   -201.39299   -5511.7492 
  790000    240.78202   -6342.3587   -5722.9616   -6342.3587            0    1919.8969     23.26805    21.846683    21.850654    11107.337      1926.24    574.15672    3259.2939    308.51797    965.00347   -592.08228   -5411.9592 
  791000     241.2233   -6348.2834   -5727.7512   -6348.2834            0    2270.1363    23.589483    21.467976    21.852474    11066.496    2764.1255    992.15237    3054.1312   -840.07516    141.16938    709.86458   -5361.3659 
  792000    239.86359    -6332.989   -5715.9545    -6332.989            0    2284.1375    23.430205    21.624151    21.885113    11088.274    1892.3978    2513.3315     2446.683   -1078.2835    611.88999   -290.69094   -5346.5841 
  793000    252.55552   -6345.7637     -5696.08   -6345.7637            0    1776.1071     23.26576    21.602274    22.063977    11089.207    2647.2278    2041.6988    639.39482   -689.70427   -449.72245    447.15612   -5408.8396 
  794000    245.89979   -6326.5616   -5693.9994   -6326.5616            0    2584.0949    23.550428    21.470028    21.879722    11063.008    1662.1172    2814.3071    3275.8604   -530.02837    60.672405     899.9353   -5277.0747 
  795000    233.66504   -6378.8456   -5777.7566   -6378.8456            0     492.7562    23.412457    21.756173    21.895074    11152.594    1334.6458   -1220.0902    1363.7129   -394.35027    228.95028    91.815051   -5697.6102 
  796000    247.24544   -6340.6714   -5704.6475   -6340.6714            0    2275.2191    23.593568    21.540544     21.89004    11124.918    2125.2704    3159.2458    1541.1412    619.61181   -623.35903   -1849.2217   -5335.5034 
  797000    240.52377   -6346.5459   -5727.8132   -6346.5459            0    3710.6418    23.373563    21.496545    21.884728        10996    3448.3853    3738.8946    3944.6454    763.71613    333.44467     47.26354   -5132.7547 
  798000    250.04883   -6330.4973   -5687.2619   -6330.4973            0    2941.0155    23.344554     21.53592    21.952102    11036.341    4613.7553    1432.2969    2776.9943     318.1667   -674.25675    1088.7605   -5213.8946 
  799000    246.97581   -6318.6949   -5683.3647   -6318.6949            0    2171.1807    23.566118    21.434143    21.922497    11073.481    1373.6439    2584.8876    2555.0106    809.46655   -349.40444    706.80301   -5332.7291 
  800000    257.95884   -6371.6152   -5708.0318   -6371.6152            0    1822.7063    23.395802     21.69658    21.852331    11092.438    1270.3698    1769.7497    2427.9994    117.65802   -361.56989   -365.06803   -5413.1692 
  801000    247.77893   -6316.7402    -5679.344   -6316.7402            0    1918.2589     23.41165    21.571063    22.009577    11115.149     3868.394    1386.7942    499.58865   -268.81985   -1230.3175   -1484.3206   -5368.3884 
  802000    245.88722   -6369.6472   -5737.1173   -6369.6472            0    2610.9284    23.516712     21.55003    21.803057    11049.481    1691.2047    3267.9591    2873.6214    262.48825    1493.0364    894.69673   -5316.3784 
  803000    234.49658   -6325.4564   -5722.2282   -6325.4564            0    2431.5057    23.442975    21.491689    21.921777     11044.83    2609.1776    1162.4546    3522.8849    121.41015    288.14403    1632.4752   -5330.5673 
  804000    245.46839   -6329.1099   -5697.6574   -6329.1099            0    2988.1143    23.309109    21.672621    21.883461    11054.856    2263.6064    3618.4859    3082.2505   -263.16436   -202.01828    131.85254   -5215.9025 
  805000    250.69218   -6335.1153    -5690.225   -6335.1153            0    2641.1181    23.607969    21.496593    21.820444    11073.677    2763.9644    2368.3745    2791.0156   -161.35049   -1302.1156    120.63905   -5263.6891 
  806000    253.95382   -6322.7136   -5669.4329   -6322.7136            0    1516.4958    23.359305    21.701797    21.921512    11112.867    1302.6972    1602.7587    1644.0316   -121.74003   -826.25159   -174.59384   -5423.6548 
  807000    237.55595    -6316.145   -5705.0468    -6316.145            0     2402.066    23.621267    21.404011    21.836386    11040.255    1275.8696    3839.8791    2090.4492    915.37955    288.95638    868.55482   -5318.2882 
  808000    242.25033   -6334.3755   -5711.2013   -6334.3755            0    2342.8434    23.446549    21.621592    21.814705    11059.002     2770.859    1858.2644    2399.4067    509.07127    242.03012    779.26984   -5333.3377 
  809000    239.11902   -6314.5581   -5699.4389   -6314.5581            0    1398.2774    23.523918    21.526597     21.98839    11134.699     1460.833    1553.7051    1180.2942    1565.6425   -655.79643   -1313.4807   -5472.3752 
  810000    236.14681   -6353.4257   -5745.9525   -6353.4257            0    1575.2604    23.442017    21.664272    21.881959    11112.845    908.00489    1895.3696    1922.4067    833.05217   -416.04045   -519.29707   -5490.6509 
  811000    240.01305   -6329.0126   -5711.5936   -6329.0126            0     1984.953    23.574985    21.548698     21.81723    11083.376    2167.6491    1241.4571    2545.7527    -363.5541    -75.52489    1496.6101   -5390.7465 
  812000    245.28782   -6321.1723   -5690.1844   -6321.1723            0    1830.8517    23.459141    21.601187    21.969808    11133.096    1921.0136    1687.1574    1884.3842   -559.45062   -284.58988    1026.4023   -5392.9185 
  813000    256.10493   -6319.8685   -5661.0542   -6319.8685            0    1169.6057    23.380064    21.705193    22.013192    11171.008    2141.8338    1199.8461    167.13721   -946.64778   -1503.7085   -354.32839   -5470.5047 
  814000    241.45339   -6338.3665   -5717.2424   -6338.3665            0    1174.1841    23.716933    21.559589    21.814614    11154.408   -89.151504    842.67453    2769.0292   -561.28204    171.79954   -1164.9267   -5526.2313 
  815000    232.55371   -6354.0898   -5755.8595   -6354.0898            0      1076.77    23.454265    21.712571    21.868329    11136.499    2384.8549    488.80424    356.65069    119.09875   -854.69111   -643.39614   -5580.9766 
  816000    248.97468   -6315.2314   -5674.7592   -6315.2314            0    3415.8155    23.494738    21.435621    21.965838     11062.53    2479.2475    4289.0843    3479.1146   -201.69169    582.89288   -267.61021   -5123.6664 
  817000    229.63683   -6329.2908   -5738.5641   -6329.2908            0       2599.7    23.295048    21.630193    21.914681     11042.29    1791.1006    1901.8689    4106.1306    1355.6918    963.95129    941.44412   -5319.9071 
  818000    230.07299   -6326.7115   -5734.8628   -6326.7115            0    520.78016    23.525067    21.675624    21.981135    11208.632    823.01061     254.2593    485.07057    296.39495   -689.70847   -198.28342   -5649.7327 
  819000      232.609   -6359.2311   -5760.8586   -6359.2311            0    2377.3816    23.566257    21.576241    21.725974    11047.033    1975.1539    1974.9978    3181.9932   -1332.5995   -295.72851   -701.09431   -5377.8395 
  820000    234.01045   -6313.1015   -5711.1238   -6313.1015            0    3953.7007     23.28958     21.60322    21.881714    11009.345    4652.4701    3355.8186    3852.8134   -146.39735   -386.93494   -15.461024   -5076.3177 
  821000    235.34419   -6304.0309   -5698.6223   -6304.0309            0    881.41842    23.670349    21.408958    22.019167    11158.378   -1123.0792    2463.1947    1304.1397   -249.02676    1244.9987    688.69137    -5555.186 
  822000    251.91355   -6290.9135   -5642.8812   -6290.9135            0    1880.6492    23.252065    21.838124    21.936236    11138.815    2940.2695   -215.41427    2917.0923   -1420.9665    1028.7164    443.59091   -5337.3731 
  823000    241.43621   -6358.8912   -5737.8113   -6358.8912            0     2258.403     23.63037    21.377445    21.894594    11060.205    343.93285    3843.2687    2588.0075    295.71685    370.57804    1060.3454   -5373.5269 
  824000    233.52004   -6316.6094   -5715.8933   -6316.6094            0     3511.621    23.107119    21.784824    21.887212    11017.683    4300.1278     3317.437    2917.2982   -1177.5977    806.70585   -457.15244   -5151.6404 
  825000    245.60981   -6340.2625   -5708.4462   -6340.2625            0    3095.6128    23.667401     21.29946    21.952541    11066.339    1091.1287    4986.4636     3209.246   -621.15035    868.61743    1094.4971   -5208.8416 
  826000    242.52446   -6334.6188   -5710.7394   -6334.6188            0    3156.4055     23.32888    21.674879    21.851703    11049.328    3237.1184    3426.8943    2805.2037    1190.2826    1071.1735   -71.950344   -5202.1064 
  827000    230.52063   -6322.2271   -5729.2268   -6322.2271            0    2307.8029    23.581284    21.538961    21.814804    11080.096    1510.5887    2045.1542    3367.6657   -360.63937     770.0507    312.17664   -5356.3047 
  828000    246.06206   -6307.8404   -5674.8607   -6307.8404            0    1365.7442    23.485134    21.603534    21.976295    11149.935    1620.2299    2549.3682   -72.365475    336.07336    1347.2358   -1342.7295   -5452.7766 
  829000    237.83271   -6348.3858   -5736.5756   -6348.3858            0    2795.5817    23.308371    21.534164    22.013126    11048.967    3820.5325    3486.7393    1079.4733    143.59555   -914.73132    190.13111   -5286.1016 
  830000    250.31632   -6320.4028   -5676.4794   -6320.4028            0    1879.5332    23.573881    21.522724    21.924362    11123.854    1788.6921    3028.4596    821.44799    116.14818   -180.43981   -165.30802   -5371.5627 
  831000    241.12346   -6344.0334    -5723.758   -6344.0334            0    3305.1227    23.427716    21.582419    21.748513    10996.631    3098.8257    3582.3505     3234.192    922.84771   -924.63089   -572.86709   -5193.7003 
  832000    242.85894    -6350.791   -5726.0511    -6350.791            0    2983.1945    23.442949    21.453992    22.013487     11071.57    3542.3438    3508.1162    1899.1236    1204.2629    11.351668    745.71585   -5244.3622 
  833000    238.75002   -6324.4976   -5710.3278   -6324.4976            0    2394.8559    23.420966    21.688199    21.815894     11081.57    3111.1385    2659.1002     1414.329   -65.556205    560.50727   -781.67892   -5323.2871 
  834000     249.5087   -6295.6148   -5653.7689   -6295.6148            0     502.6705    23.682533    21.518179    22.006095    11214.415    447.85881    1648.5384   -588.38569    71.898287   -132.39745   -476.34297   -5571.5567 
  835000    236.04041   -6336.5924   -5729.3928   -6336.5924            0    2495.5498    23.301451    21.745357    21.802667    11047.376     3796.392    880.30927     2809.948    1186.3179   -534.77554   -375.10842   -5327.3232 
  836000      233.357    -6330.356   -5730.0593    -6330.356            0    1904.9554    23.734526    21.509196    21.636071    11045.443    652.77815    1849.6697    3212.4183    428.06829   -248.05122    651.51887   -5423.1968 
  837000    235.63197   -6348.1155   -5741.9666   -6348.1155            0     1987.243    23.346495    21.600456    21.959926    11074.279    2078.2448    2727.4002    1156.0841    269.26207    29.499292   -375.82523    -5421.013 
  838000    244.96792   -6331.9071   -5701.7421   -6331.9071            0    1148.5692    23.602736    21.568516    21.949379    11173.901    681.55893     1470.634    1293.5146    474.73801    935.81735    -878.9731   -5514.5714 
  839000    233.21225   -6361.5141   -5761.5898   -6361.5141            0    1925.9703    23.507333    21.695318    21.713916    11074.077    2111.9215    678.78024    2987.2091    351.59242    752.69964     929.5749   -5450.5377 
  840000     235.6822   -6337.0305   -5730.7524   -6337.0305            0    2347.3506    23.377778    21.500424    22.001606    11058.714    3005.9689     2811.338    1224.7447   -190.95161    343.94948     245.5055   -5352.1717 
  841000    236.10081   -6347.6909    -5740.336   -6347.6909            0    3102.9064    23.412003    21.529287    21.906089    11041.627    2726.4839     3555.867    3026.3684     384.3557   -152.72853   -635.91474   -5240.6725 
  842000    245.36519   -6341.2791   -5710.0921   -6341.2791            0    1496.1813      23.4957     21.54549    21.977203     11125.44    2159.1979    1866.8352    462.51073   -776.10509   -570.55929    521.86046    -5467.332 
  843000    240.51153   -6325.5334   -5706.8321   -6325.5334            0    1039.5013    23.631271    21.596528    21.819976      11135.9    1344.0648    765.09623    1009.3429     413.7749    -1068.973   -640.01847   -5538.0112 
  844000    246.12875   -6335.7818   -5702.6306   -6335.7818            0    3466.7482    23.467252    21.579215    21.783663    11031.353    3780.7762     3635.654    2983.8144    212.03916   -127.31929   -791.64256   -5144.8968 
  845000    236.71889   -6364.7031   -5755.7582   -6364.7031            0    3173.6238    23.436037    21.376523    21.963969    11003.531    3397.9087    3480.6691    2642.2937    1104.4383   -238.68521     421.3619   -5246.4702 
  846000    253.25982   -6338.3339   -5686.8385   -6338.3339            0    2554.6273    23.247535    21.676426     21.95605    11064.169    2358.2309    3286.1784    2019.4725   -313.60339    398.21138   -197.04552   -5274.6249 
  847000     242.9243   -6338.5335   -5713.6256   -6338.5335            0    1691.1987    23.628159    21.443349    21.851324    11071.341    396.47452    2837.8636    1839.2579    80.873837   -705.46095   -125.17873   -5440.5576 
  848000    237.26495   -6358.3283   -5747.9786   -6358.3283            0     1356.897     23.39663    21.681482    21.883779    11101.064    2294.3771     807.1902    969.12378   -150.83452    127.93275    1072.6831   -5528.3002 
  849000     232.8699   -6307.8655   -5708.8219   -6307.8655            0    1276.6002    23.589159    21.516853    22.030483     11181.89    392.74409    2571.5396    865.51683    456.46118   -139.37201   -728.01793   -5500.6386 
  850000    235.96551   -6335.8418    -5728.835   -6335.8418            0    3496.7107    23.413254    21.604685    21.748862    11001.357     3053.047    2834.6552      4602.43   -13.663739    31.399488   -469.18945   -5167.8104 
  851000    237.30559   -6346.9433   -5736.4891   -6346.9433            0    1695.5501    23.563297    21.578446    21.768208    11068.248    378.18573    2403.9938    2304.4706    357.84985    447.31159    146.90562   -5462.7951 
  852000    232.33987   -6309.1377   -5711.4576   -6309.1377            0    867.19484    23.485205    21.520116     22.18747    11213.643    2635.7507    379.43282   -413.59902    29.034579   -279.46464    -361.4784    -5569.637 
  853000    238.69386   -6303.8536   -5689.8282   -6303.8536            0    1181.4105    23.491605    21.627176    21.969956    11161.992    1136.6255    2241.8131    165.79303    547.34813   -941.28054   -456.01924   -5497.5109 
  854000    243.47597   -6330.5892   -5704.2621   -6330.5892            0    3006.7436    23.548404    21.607537    21.710833    11046.971     2735.576    1915.9376    4368.7172    445.39287    -1226.908    307.12444   -5219.8494 
  855000     245.6974   -6324.5574   -5692.5159   -6324.5574            0    2575.7056    23.442715    21.521883    21.996979    11098.166    2749.9549    3162.5667    1814.5953   -57.428545   -475.21577    574.44608   -5275.6241 
  856000    235.44727   -6334.0929   -5728.4191   -6334.0929            0    3240.4516     23.38671     21.48503    21.966312    11037.285    3058.8978    4102.4345    2560.0224    759.48778   -52.811887    335.26279   -5206.8118 
  857000    245.44955   -6347.4962   -5716.0922   -6347.4962            0    2014.7453    23.509222     21.60347    21.791298    11067.381    2173.7655     1029.596    2840.8744    107.88761    614.94926    2198.6613   -5390.8994 
  858000    243.34597   -6344.0089   -5718.0162   -6344.0089            0    1056.8727    23.560056    21.566932    21.954246    11155.351     845.9833     1047.866    1276.7688   -89.979696    712.18622   -698.31701   -5546.0743 
  859000    236.20749   -6341.3597   -5733.7304   -6341.3597            0    2057.9463    23.391042    21.641564     21.93104    11101.903    2824.3112    1552.8162    1796.7116    912.30128    -783.8037    -713.3712   -5400.5285 
  860000    237.98795   -6336.8576   -5724.6481   -6336.8576            0    2282.6355    23.650135    21.442169    21.810891    11060.525    1673.8568    3142.2776    2031.7721    323.84457   -76.385623   -452.28964   -5356.4444 
  861000    231.08327   -6295.6934   -5701.2458   -6295.6934            0    1049.4375    23.413354    21.694836    22.045028    11197.747    794.80227    907.25217     1446.258   -906.85351    1438.3838    539.17603   -5529.8646 
  862000    243.59413   -6337.0027   -5710.3717   -6337.0027            0    2509.4446    23.582781    21.500138     21.83966    11073.429    1718.9722    2923.9845     2885.377   -1445.4993     414.5816   -679.43186   -5305.1099 
  863000    241.93727   -6327.6152   -5705.2463   -6327.6152            0    3049.5387    23.349496    21.645318    21.812915    11024.405    4425.5053    2002.8921    2720.2187   -1624.9809    46.288698    301.64435   -5214.9425 
  864000    244.11322   -6318.0091   -5690.0427   -6318.0091            0    2026.2313    23.373757     21.48319    22.118569    11106.682    2868.6637    2940.9229     269.1073    255.29126   -175.60888    258.06863   -5361.8347 
  865000    244.79695   -6325.4356   -5695.7104   -6325.4356            0    840.82596    23.459384    21.646055    22.077056    11210.798    781.98337     1473.292     267.2025    14.080994    1204.9861   -78.166967    -5558.237 
  866000    239.48509   -6366.9016   -5750.8408   -6366.9016            0     425.4346    23.602355    21.674289    21.783949     11143.89    6.1841698    458.08083    812.03879   -670.59237    798.99758   -460.30516   -5681.6982 
  867000    226.95615   -6363.5482   -5779.7173   -6363.5482            0    1710.3235    23.515548    21.521798    21.837215    11051.746    1497.2646    1751.3909    1882.3151   -349.82852    93.896144    44.997546   -5504.0501 
  868000     237.2963   -6351.9025   -5741.4722   -6351.9025            0    1744.2602    23.203968    21.632715    22.127039    11106.995    2429.3196    2029.4391    774.02192   -230.60011    566.71253    655.36622   -5458.9297 
  869000    245.23875   -6349.5252   -5718.6634   -6349.5252            0     2285.062    23.523382    21.361864    21.993764    11051.939    2117.7935    3059.3062    1678.0863    694.99898   -117.25451    558.86022   -5350.3544 
  870000    239.24658   -6332.1586   -5716.7113   -6332.1586            0    1630.5448    23.459032    21.728695    21.717959    11070.385    1369.4068    1351.4893    2170.7383   -632.37623    441.78748   -321.93303   -5453.4595 
  871000    237.52466   -6333.1401   -5722.1224   -6333.1401            0    1078.5613    23.467156    21.634184    21.915715     11126.45    2031.9422    141.37847    1062.3634   -189.36657   -387.68996   -471.61369   -5547.1066 
  872000    244.46282   -6303.2124   -5674.3467   -6303.2124            0     1962.405    23.485903    21.540518    22.040696    11150.355    2013.6403    2933.7136    939.86095   -453.36626   -804.08867   -1086.2969   -5355.2273 
  873000    242.71996   -6355.2921   -5730.9098   -6355.2921            0    1950.7647    23.394827    21.671559    21.877688     11092.04    2498.9693    2230.8882    1122.4365    428.97102   -831.30029    221.17621   -5415.3423 
  874000     251.7811   -6355.1465   -5707.4549   -6355.1465            0    2766.1535    23.620572    21.440667    21.798189    11039.493    2884.3282    2884.3538    2529.7786    1361.0492   -1594.1196    1603.7696   -5262.1051 
  875000    242.94469   -6302.0594   -5677.0989   -6302.0594            0    2507.9654     23.43401    21.674438    21.810201    11077.815    3446.5254     1500.186    2577.1849    1473.8719   -993.47158   -560.87822   -5271.9156 
  876000    247.87772   -6348.3078   -5710.6575   -6348.3078            0    3284.2982    23.743484    21.470229    21.647822    11035.584    1659.8563    4777.4579    3415.5803   -268.57883    -645.3738    -1671.701   -5182.0737 
  877000    248.48835   -6357.7153   -5718.4941   -6357.7153            0    995.07828    23.349746    21.726665    21.979692    11150.565     1573.234    115.92064    1296.0803    348.88603   -511.96691    262.64043    -5556.675 
  878000    241.76244   -6344.5664   -5722.6473   -6344.5664            0    2434.2692    23.469466    21.443521    21.992119     11067.93    1576.2739     4195.209    1531.3248    796.61683   -175.04742    597.93957   -5329.7212 
  879000    248.90283   -6308.7891   -5668.5017   -6308.7891            0    2802.5194    23.469466    21.700571    21.729858    11067.035    2083.3054    2805.8626    3518.3902   -282.28298    987.64162    1057.7043   -5216.1713 
  880000    231.30575   -6354.5944   -5759.5745   -6354.5944            0    2299.4841    23.448398    21.580204    21.886714    11075.142    3782.7411    1490.2372    1625.4742   -883.41462    301.09415    815.89321   -5388.1628 
  881000     232.0122   -6349.9951   -5753.1578   -6349.9951            0    3179.0948    23.433156    21.409623    21.993113    11033.836    2662.8188    4231.0416    2643.4241   -686.47135    472.77945    -514.3103   -5241.5869 
  882000    240.30496   -6298.2178    -5680.048   -6298.2178            0    2918.6775    23.301053    21.824117    21.848092    11110.299    4187.8392    2326.2211    2241.9723   -773.21065   -375.86312    -154.4237   -5207.1279 
  883000    242.75479   -6316.8616   -5692.3897   -6316.8616            0    1508.7247    23.505486    21.441362    21.995349    11085.428    1851.5241    2948.2113   -273.56119    964.54411   -211.01487    179.41183   -5448.4748 
  884000    233.26795   -6349.7443   -5749.6768   -6349.7443            0    1123.3745    23.457352    21.609461    21.913728    11108.085     927.2544    719.80834    1723.0606    903.67222   -53.284196    4.5672262   -5567.6901 
  885000    232.45483   -6349.1677   -5751.1918   -6349.1677            0    2410.1618    23.429604    21.547089    21.857867    11034.721    1832.0437    3668.6164    1729.8252    651.96108     895.8548   -991.05484   -5363.3243 
  886000    248.76151   -6327.6342   -5687.7104   -6327.6342            0    3253.4504    23.474282     21.55212    21.874141    11066.578    3995.4297    2236.7107    3528.2108   -1057.0724    562.83513   -612.65411   -5162.6208 
  887000    240.73159   -6340.6519   -5721.3846   -6340.6519            0    3531.5337    23.363716    21.561774    21.828478    10996.383    3221.5962    3159.9646    4213.0404    882.78134    520.51975    340.71573   -5155.0291 
  888000    237.45426   -6353.2867   -5742.4501   -6353.2867            0    1194.3735    23.509153    21.475035    21.955101     11084.25   -589.19526     1916.389    2255.9267     209.2267    943.27966     930.1223   -5549.3768 
  889000    233.05649   -6328.0337   -5728.5101   -6328.0337            0    3291.9179    23.349785    21.552272    21.778769    10959.967    4106.5533    3483.0216    2286.1788    59.248453    288.41785   -947.62649   -5202.3303 
  890000     244.1812   -6338.3643    -5710.223   -6338.3643            0    2000.6456    23.498071    21.564183    21.927636      11111.1    2032.0919    1861.7854    2108.0595    378.58846   -393.23244    38.749388   -5386.0304 
  891000    230.84419   -6325.9294   -5732.0968   -6325.9294            0     246.5876    23.562066    21.611656    21.948941    11176.736   -557.83838    1133.2242    164.37701    400.18692    600.34213    91.090034   -5691.9027 
  892000    245.08733   -6345.3779   -5714.9057   -6345.3779            0    2206.9963    23.400589     21.58296    21.944968    11083.393    3320.5537    1209.6418    2090.7933     912.7567   -263.37271    921.71694    -5358.167 
  893000    245.74783   -6335.4207   -5703.2493   -6335.4207            0    2424.6121    23.628333    21.362076    21.882366     11045.13    2007.9801    2883.8359    2382.0204    1022.8221   -917.50012     316.0613   -5312.6882 
  894000    244.67982   -6346.2259    -5716.802   -6346.2259            0    2445.7368    23.349573    21.828551    21.672749    11046.326    2063.7411    1919.2593    3354.2102    1394.8121   -1116.9708    177.85516   -5322.7954 
  895000     251.1029   -6323.1615   -5677.2146   -6323.1615            0    1951.7597    23.629029    21.485162    21.914744    11125.535    1504.2961    1836.9855    2513.9976    106.14014   -960.46765    196.71785   -5360.5327 
  896000    245.10089   -6358.1294   -5727.6223   -6358.1294            0    2785.7174    23.265102    21.630756    21.927113    11034.638    3523.0084    3470.5931    1363.5506    142.50519   -553.57469   -349.62407   -5279.3199 
  897000    246.08799    -6370.867   -5737.8206    -6370.867            0    1772.3759    23.572879    21.427785    21.906407    11065.246    1524.9257    2182.0348    1610.1673    323.91252   -701.34112    1040.7835    -5451.803 
  898000    232.31924   -6341.7162   -5744.0891   -6341.7162            0    2082.3016    23.422936    21.705838    21.736465    11051.133    2000.5735    1974.4261    2271.9054     455.8477    96.896118   -1646.2641   -5408.4857 
  899000     236.6288   -6292.4373   -5683.7241   -6292.4373            0    1271.8101    23.530954    21.608537    21.944315    11158.015    1702.8274    709.47685     1403.126    553.97882   -213.56885   -1034.7167   -5476.7647 
  900000    233.49897   -6332.3786   -5731.7167   -6332.3786            0    2900.3689    23.323422    21.706206    21.837567    11055.552    3558.5685    2497.1242    2645.4139    1006.6764   -522.53592   -927.97909    -5264.079 
  901000    252.98055   -6333.8008   -5683.0237   -6333.8008            0    2210.2342    23.533665    21.488649    21.893097    11071.485    1413.4577    2945.1866    2272.0582    369.17915    1173.7949    1838.1991   -5326.1455 
  902000    238.12678   -6348.1721   -5735.6055   -6348.1721            0    1747.2128    23.487776    21.588385    21.949224    11129.643    980.48754    2831.9382    1429.2126   -302.28521     63.22371    977.35727   -5452.0077 
  903000    245.92299   -6309.9579    -5677.336   -6309.9579            0    1231.0162    23.543557    21.717284     21.80597    11149.438    1062.9763     726.6268    1903.4456   -158.24183   -294.77316    380.75977   -5477.1689 
  904000     245.5327   -6350.1294   -5718.5115   -6350.1294            0    2254.3816    23.548093    21.418466    21.989496     11090.71    1758.1398    2455.5214    2549.4836   -477.74764   -1244.4658   -95.197775   -5353.8728 
  905000    249.00753   -6383.3952   -5742.8385   -6383.3952            0    3051.5958     23.30341    21.647895    21.801613    10998.255    3307.8169    2981.8384     2865.132    898.05861   -716.09925    420.34645   -5253.3679 
  906000     223.0435    -6339.387   -5765.6211    -6339.387            0    2138.0139     23.57854    21.465468    21.884295    11076.176    1868.6176    2104.6441    2440.7799     1106.097   -146.27941     68.21102   -5420.2578 
  907000    239.40985   -6349.3715   -5733.5043   -6349.3715            0    516.15746    23.471955    21.697753    21.913764    11160.432   -155.30951    488.26687     1215.515   -13.037406    312.59326   -644.98403   -5649.4927 
  908000    230.82966   -6329.8593   -5736.0641   -6329.8593            0      1980.18    23.443181    21.604824    21.949548    11117.134     2738.473    1545.1648    1656.9022   -823.85556    558.80931     540.2494   -5415.0136 
  909000    252.35702   -6357.6059   -5708.4329   -6357.6059            0    3352.8613    23.468134    21.498325    21.728176    10962.421    3654.2331    2741.7977    3662.5532   -1295.2689   -883.42258    110.26966   -5172.3919 
  910000     232.0425   -6317.8964   -5720.9812   -6317.8964            0    1393.2507    23.343373    21.647626     21.98512     11109.71    1226.7099    653.14295    2299.8991   -509.35073    83.258184    556.94106   -5495.2415 
  911000    239.30835   -6355.7308   -5740.1247   -6355.7308            0    1732.6544    23.541509    21.467628    21.927737    11081.848    921.12447     2480.893    1795.9456   -531.20478    737.43447    264.29826   -5460.0976 
  912000    232.87816   -6311.4233   -5712.3584   -6311.4233            0    1387.4684    23.467296    21.707353     21.88685    11149.443    1466.8953    416.57645    2278.9335    664.28287    215.03661   -598.62553   -5486.7516 
  913000     247.6177   -6358.5649   -5721.5835   -6358.5649            0    3054.0818    23.421553    21.412526    21.970669    11018.612    3718.6498     2885.414    2558.1817    293.11877    248.26095   -725.57943   -5230.8073 
  914000    244.22549   -6363.2814   -5735.0262   -6363.2814            0    2976.4751    23.296435    21.622052    21.919571    11041.254    4062.3448    3213.0321    1654.0485     805.9456    -413.6142   -1157.0475   -5255.7382 
  915000     246.1843   -6350.8107   -5717.5165   -6350.8107            0     1683.054    23.585059    21.616436    21.789157    11108.655    684.75499    1664.5174    2699.8895   -59.216103    530.18233   -182.43346   -5444.8478 
  916000    232.65338   -6280.2768   -5681.7901   -6280.2768            0    2708.0693     23.53429    21.533895    21.909691    11103.501    2532.2954    4009.4706     1582.442    1221.9441   -367.23257   -673.59689   -5243.2639 
  917000    242.84218   -6353.7704   -5729.0737   -6353.7704            0    602.79562    23.415753    21.551061    22.105472     11155.18    599.66082    624.03619    584.68985   -369.95229    274.69387    104.70753   -5631.0068 
  918000    239.96035   -6304.5196   -5687.2362   -6304.5196            0    2511.4167     23.59924    21.545213    21.793679     11081.01    1850.6497    3356.0032    2327.5973    503.98263    505.26391     130.9092   -5281.3783 
  919000    262.99775   -6340.4773   -5663.9316   -6340.4773            0    2350.7504    23.590428    21.606714     21.77328    11098.094    1857.5193     2973.885    2220.8471   -177.77474    88.281735   -541.55967   -5283.4525 
  920000    243.50971   -6333.9453   -5707.5314   -6333.9453            0    3140.9963    23.342006    21.622438    21.843877    11024.847    3259.8351    2559.4467    3603.7071   -36.841273   -733.72181   -962.42236   -5202.5029 
  921000    241.02362   -6330.0669   -5710.0483   -6330.0669            0    2961.2986    23.595403    21.382895    21.855468    11026.914    3357.5867    2658.2147    2868.0945    654.26071   -821.99182    1041.8314   -5233.8234 
  922000    246.17033   -6344.1069   -5710.8487   -6344.1069            0    1766.9476    23.395594    21.679403    21.900872    11108.177    1302.6922    2217.9464    1780.2043    518.62653   -102.92135   -85.084199   -5424.6008 
  923000    238.70157   -6346.3096   -5732.2644   -6346.3096            0     1844.085    23.701155    21.410949    21.904258    11115.627    677.59227      2359.09    2495.5727    1195.8805   -201.24305    323.22858   -5433.3197 
  924000    246.50266   -6368.0281    -5733.915   -6368.0281            0    1780.5605    23.296355    21.829395    21.789482    11080.939     2233.432    648.43745    2459.8119    934.59615   -1272.3767   -847.84325   -5446.1691 
  925000    244.28558   -6336.1521   -5707.7423   -6336.1521            0    2361.9664    23.554017    21.470407      21.9554     11103.16    2498.6356    2443.0339    2144.2296   -1008.5046   -979.24136   -234.81832   -5325.2734 
  926000    241.66026   -6360.3067   -5738.6504   -6360.3067            0    3694.4277    23.331746    21.563444    21.802185    10968.958     3950.047    4996.8204    2136.4157    394.84106    307.79261   -841.78015   -5147.6491 
  927000    248.40164   -6310.0781     -5671.08   -6310.0781            0    2624.2215     23.64211    21.458514     21.81986    11069.751    1386.1582    3200.9412    3285.5651    2724.8549   -667.64835    462.73608   -5247.4232 
  928000    248.46051   -6335.8304   -5696.6809   -6335.8304            0    3020.5459    23.348252    21.556547    22.041641    11093.727    2985.3988    3551.7193    2524.5196   -200.46147    946.27975   -634.11344   -5207.9848 
  929000    241.52694   -6330.0081   -5708.6947   -6330.0081            0     1837.737    23.569407    21.668456    21.834041    11150.921    1561.2489    1744.3757    2207.5865   -444.29953    427.37561   -1033.6589   -5409.8332 
  930000    244.37798   -6334.1194   -5705.4719   -6334.1194            0    2335.9363    23.478097    21.669661    21.796519    11089.249      3253.67    1780.5458     1973.593    562.26688   -151.12415    311.74335   -5327.6919 
  931000     237.0107   -6336.3469   -5726.6513   -6336.3469            0    3230.0121    23.362177    21.455695    22.009206    11032.153    4738.6886    3770.8545    1180.4931     1779.062   -527.44887   -494.81966   -5206.9662 
  932000    252.92921   -6340.9928   -5690.3478   -6340.9928            0    2530.8797    23.437462    21.558288    21.923846    11077.496    2285.7155    3066.2307    2240.6928    1442.0385    361.96132    55.276813   -5281.4743 
  933000    243.70384   -6365.8422   -5738.9289   -6365.8422            0    1261.9296    23.636509    21.614453    21.762546    11118.272   -599.94474    2528.2316     1857.502    829.87824    654.05134   -72.005198   -5534.3088 
  934000    246.76219   -6368.8684   -5734.0877   -6368.8684            0    751.79563    23.469687    21.615817    21.921791    11121.285   -451.33585    1243.8632    1462.8596   -126.34443    243.93347   -544.88544   -5612.1521 
  935000    242.34093   -6317.3234   -5693.9161   -6317.3234            0    2695.7361     23.46863    21.644199    21.799359    11073.196    2318.9792    2648.4573    3119.7718   -39.172152    48.880806   -1250.2086   -5258.5785 
  936000    256.77236   -6344.9209   -5684.3896   -6344.9209            0    1953.7811    23.534261    21.612634    21.816383    11096.627    1464.1284    2406.3427    1990.8722    839.94967   -795.88839    564.01452   -5368.2035 
  937000     236.2245    -6356.092   -5748.4189    -6356.092            0    991.41499    23.512455    21.533194    21.968564    11122.646    493.50559    1328.3731    1152.3662    573.75979   -1120.7157    824.65893   -5587.5991 
  938000    238.64333   -6301.1629   -5687.2675   -6301.1629            0    2257.2736    23.441949    21.587463    21.909406    11087.303    2522.7593    1886.4015    2362.6598    1363.9366   -199.50588    1192.2649   -5322.2732 
  939000    226.05455    -6336.909   -5755.3974    -6336.909            0    2497.0576    23.551778    21.737338    21.654359    11086.013    1738.4631    1907.7524    3844.9572   -491.34171    838.66731   -59.530804   -5351.6779 
  940000    260.17599   -6323.2917   -5654.0048   -6323.2917            0    2495.2099    23.647485    21.353073     21.90031    11058.484    2231.3037    3782.2667    1472.0593    179.26333    -760.5777   -1654.9361   -5251.5857 
  941000    249.02451   -6325.6914   -5685.0911   -6325.6914            0    2609.3803    23.333301    21.709914    21.835404    11061.029    2981.1651    2366.8624    2480.1133   -96.324798   -414.07831    912.69738   -5264.1621 
  942000    248.39381    -6340.902    -5701.924    -6340.902            0    2286.4996    23.603696    21.494137    21.817278    11068.802    1790.0782    1877.2515    3192.1691    261.40905    -243.7437    1257.2851    -5332.821 
  943000    247.89613   -6358.2629   -5720.5652   -6358.2629            0    3285.1377    23.265887    21.646382    21.878272    11018.385    3486.6954    2562.1899    3806.5279   -101.06008   -898.65702   -326.94219   -5192.6703 
  944000    243.74535    -6337.113    -5710.093    -6337.113            0    1483.7232    23.467265    21.543659    21.995476    11120.269    3096.4242    757.43911     597.3064   -763.89855   -1054.0604   -582.04408   -5469.4661 
  945000     237.5847   -6303.6993   -5692.5272   -6303.6993            0    2718.5401    23.581856     21.52226     21.81202     11070.36    2474.4251    2265.3836    3415.8116    1544.4467    164.50488   -318.26941   -5253.6193 
  946000    235.63516   -6325.1656   -5719.0085   -6325.1656            0    1626.3794    23.409359    21.688198    21.937272    11137.703    3016.2211    824.40063    1038.5165    -362.9517    853.16034   -805.15674   -5454.8325 
  947000    244.35482   -6343.6115   -5715.0237   -6343.6115            0   -255.31218    23.596004    21.478826    22.111749    11206.554   -483.73922    227.63581   -509.83312    252.34695    457.91703   -31.781058   -5756.7509 
  948000    247.09822   -6328.7346   -5693.0895   -6328.7346            0    2278.9886    23.524948    21.693905    21.652188     11050.15    996.43831    2682.8671    3157.6605     527.9678    428.49208   -450.43346   -5325.8189 
  949000    240.25166   -6307.4217   -5689.3889   -6307.4217            0    2153.5976    23.496921    21.581095     21.89451    11102.472    1992.8353    1755.3403    2712.6171    49.786126   -1062.7909    576.61204   -5340.6824 
  950000    244.50301   -6357.4605   -5728.4914   -6357.4605            0    2313.6024     23.23402    21.568678    22.068519    11059.133    4137.0237    2354.2495    449.53421   -701.56718   -681.27795   -98.558399   -5355.3395 
  951000    245.98412    -6336.426   -5703.6469    -6336.426            0     2634.404    23.568672    21.482024    21.829116    11052.142    2146.1921    2075.0375    3681.9823   -412.77973   -220.14011    291.34121   -5279.0227 
  952000    252.82713   -6367.2785   -5716.8961   -6367.2785            0    1325.6524    23.450029    21.691569    21.824604    11101.476    957.06822    1500.2754    1519.6137    300.39233   -323.62051   -182.16801   -5502.2681 
  953000    238.70379   -6381.5239   -5767.4729   -6381.5239            0    2080.7685    23.578999    21.488381    21.869033    11080.482    2677.2754    2110.7725    1454.2576     534.5748   -789.33004   -1461.6897    -5431.226 
  954000    232.98337   -6323.9061   -5724.5706   -6323.9061            0    3092.2559    23.178877    21.691061    21.981718    11051.846    4262.1119    2905.4485    2109.2072   -435.22074   -38.355284   -1237.4185   -5226.1613 
  955000     249.6028   -6376.8582   -5734.7703   -6376.8582            0    2418.6792    23.458967    21.520794    21.883313    11047.913    1778.4543    2561.7015    2915.8817     145.8927    80.943677   -730.64797   -5345.0667 
  956000    234.82592   -6354.3904    -5750.315   -6354.3904            0    3395.0355    23.559561    21.552853    21.683675    11010.445    2758.7975    2655.6706    4770.6385    256.45087   -63.285167   -80.561413   -5205.1536 
  957000    234.62593   -6343.1989    -5739.638   -6343.1989            0    2531.5789    23.346878     21.72031    21.881454    11096.116    2024.3683    2317.4701    3252.8982    934.12569    544.74408   -86.123624   -5329.9641 
  958000    246.89894   -6346.8842   -5711.7518   -6346.8842            0    1249.0698    23.512266    21.507597    22.028231    11139.508    435.57569    1411.2123    1900.4214    216.57628    412.63839    194.02797     -5508.83 
  959000     245.3829     -6333.52   -5702.2874     -6333.52            0    2160.3496    23.392002    21.743114    21.775927    11075.563    1844.7262    2812.6419    1823.6806    3.2615836    89.542176   -111.52685   -5353.3354 
  960000    237.95598   -6325.7469   -5713.6197   -6325.7469            0    1905.3974    23.678719    21.458929    21.877301    11116.293    105.28003    2709.1614    2901.7508    495.16026   -173.11903   -377.95104   -5404.7171 
  961000    250.33579   -6339.6435     -5695.67   -6339.6435            0    2790.8206    23.338444    21.735161    21.882497    11100.221    2939.3216    1497.9521     3935.188    708.37002   -1513.3493    197.13762    -5243.877 
  962000    241.46138   -6356.9937    -5735.849   -6356.9937            0    1632.0367    23.624321    21.469609    21.837307     11075.99    966.38449    2529.4304    1400.2953   -237.55894    419.48507    438.32427   -5472.2229 
  963000    232.98155    -6324.538   -5725.2072    -6324.538            0    2944.0799    23.351485    21.622783    21.831217    11023.107    2872.4633    3157.4157    2802.3606    320.05815    334.39473    304.38394   -5251.9148 
  964000     247.5047   -6347.0867   -5710.3959   -6347.0867            0    2302.8625    23.484578    21.484883    21.975682    11088.125    2707.1341    1455.1438    2746.3097    205.38873   -286.75136    998.33094   -5338.0025 
  965000    238.27702   -6370.0772   -5757.1241   -6370.0772            0     2633.938    23.336652    21.604547    21.853148    11017.872      3667.94    1198.1007    3035.7733    703.88029   -509.17975    79.837224   -5333.8914 
  966000    235.54481   -6327.1317    -5721.207   -6327.1317            0    2123.2116    23.481695    21.512287    21.953384    11089.642    2684.6133    3022.2555    662.76595    333.03885   -505.48102   -1648.0892   -5377.8178 
  967000    243.73544   -6348.0276    -5721.033   -6348.0276            0    1815.4455    23.490393    21.608774    21.832732    11082.264    2379.2477    1416.4722    1650.6165   -120.58635   -119.45195   -470.18751   -5427.6144 
  968000    246.85569   -6334.8215   -5699.8003   -6334.8215            0    1787.7349    23.478943    21.661176     21.88318    11129.381    1388.1425    1343.6398    2631.4224   -711.06775    147.75169    94.376257    -5409.632 
  969000    238.82791   -6336.4216   -5722.0513   -6336.4216            0      2451.93    23.521394     21.49392     21.89135    11067.543    3005.0962    2926.3052    1424.3885   -527.81571   -1259.9146    227.51782   -5326.2883 
  970000    233.96694   -6365.5842   -5763.7185   -6365.5842            0    1570.8103    23.411885    21.598608     21.90972     11078.96    2526.4069     716.2844    1469.7395   -1072.1974    717.13874    1064.9892   -5509.9144 
  971000    227.54058   -6319.0501   -5733.7158   -6319.0501            0    1468.5131    23.525816    21.409352    22.088195    11125.216      599.091     2838.559    967.88915    764.27569    292.58789    715.51242   -5495.4497 
  972000    240.80173   -6352.1122   -5732.6644   -6352.1122            0    2290.3388     23.33408    21.691745    21.824493    11046.618     2384.445    2594.5334     1892.038    335.54365   -56.848724   -645.47121   -5363.6826 
  973000    236.33445   -6344.7773   -5736.8213   -6344.7773            0    1788.4958    23.546483    21.535532    21.888629    11099.418    2196.9331    1296.0375    1872.5166   -465.53994   -1039.6685   -722.15448    -5447.311 
  974000     256.1184   -6340.2002   -5681.3512   -6340.2002            0    3198.9968     23.27613    21.626241    21.913052    11030.487    3591.7975    3166.6609    2838.5318    1147.5892    956.68247    392.18838   -5166.7339 
  975000     235.1054   -6330.8248   -5726.0304   -6330.8248            0     1249.789     23.49673    21.542497    21.979965     11125.78    1082.5333     2014.228    652.60585    452.00146    1329.6806   -575.40021   -5523.2421 
  976000    244.62685    -6349.308   -5720.0204    -6349.308            0    2323.3418    23.483889     21.57235      21.8095    11048.751    2658.4804    1730.9928    2580.5522   -960.31851    529.98217    666.77806   -5345.6494 
  977000    255.18905   -6317.4934   -5661.0351   -6317.4934            0    2462.8283    23.374106    21.595075    21.972717    11091.071    3063.8553    1656.6268     2668.003   -775.69527   -215.74199    855.12296    -5262.668 
  978000    244.56605   -6294.5377   -5665.4064   -6294.5377            0    2506.0547    23.638249    21.491912    21.886575    11119.062     820.8907     3343.872    3353.4015   -112.77037    -63.55428   -207.03118   -5259.0243 
  979000    240.26265   -6311.5168   -5693.4557   -6311.5168            0    2457.5099    23.385986    21.722807    21.882762    11116.646    2124.2128    2296.4436    2951.8732   -639.61458   -610.08177    567.14405   -5295.0323 
  980000    251.50214   -6322.5918   -5675.6179   -6322.5918            0    1565.2917     23.55795    21.457915     21.99492    11118.531    575.53814    1785.2246    2335.1124    449.75059     160.8529    873.38658   -5421.8021 
  981000    259.80154   -6355.4527    -5687.129   -6355.4527            0    3585.6446    23.282862    21.671347    21.832569    11016.081    3344.4398    3037.6687    4374.8254     814.4848    169.91918   -649.82143   -5111.0657 
  982000    246.06365   -6328.1354   -5695.1516   -6328.1354            0    3099.7449    23.565309    21.360593    21.887692    11017.585    3398.3058    3546.2726    2354.6561    -424.7312   -13.600649   -1224.5302   -5197.0841 
  983000    236.10508   -6334.5806   -5727.2147   -6334.5806            0    3007.7549    23.368879    21.720821    21.777382    11054.009    4127.7554    1947.8889    2947.6203   -67.380131    649.19862    266.60588   -5242.3304 
  984000    239.20426   -6323.4631   -5708.1247   -6323.4631            0     2084.886    23.526509    21.481502    21.948134    11092.253    1908.9096    2928.0392    1417.7091    735.66159   -807.98973    92.269584   -5370.8545 
  985000    247.75308   -6359.1079   -5721.7782   -6359.1079            0    2679.9205    23.345337    21.587813    21.946537    11060.501    3030.7051    3024.2498    1984.8066   -194.54902   -320.20605    378.40222   -5289.4908 
  986000    240.38535   -6337.1685   -5718.7918   -6337.1685            0    809.20289    23.638771    21.618266    21.852347    11167.188    861.68386    245.84008    1320.0847    -1925.578    70.471623   -380.13056   -5587.0034 
  987000    221.26116   -6307.6093   -5738.4284   -6307.6093            0    1720.4374    23.610119    21.636966     21.80358    11138.389   -162.81868     2628.849     2695.282    235.64457     223.1315   -91.891585   -5458.9572 
  988000    250.20821   -6324.4141   -5680.7687   -6324.4141            0    3513.2731     23.21334    21.613809    21.977984    11026.985    5209.5593    3073.4881    2256.7718   -129.18505   -559.94706    439.62266   -5115.7738 
  989000    236.24494   -6330.3457     -5722.62   -6330.3457            0    2263.4833    23.600414    21.399398    21.970315    11095.771    1922.2985    2431.1466    2437.0047    595.33945    68.944834    368.30093   -5356.3421 
  990000    244.29452   -6325.0203   -5696.5875   -6325.0203            0    1465.7695    23.438331    21.786618    21.669758    11065.488    1359.0866    929.63319    2108.5886    1328.1324    61.111612   -289.75113   -5460.0434 
  991000    246.16714    -6361.443    -5728.193    -6361.443            0    2530.2249     23.57656    21.502852    21.793891    11048.703    1075.9686    3472.2337    3042.4724    558.87603    288.69963   -328.37185   -5320.4878 
  992000     241.8589   -6350.4541   -5728.2868   -6350.4541            0    2264.2327    23.395352    21.502424    22.033531    11084.117    2660.4577    2339.6055    1792.6348    -133.4472   -445.42768   -197.45619   -5362.2725 
  993000    247.44074   -6341.9137   -5705.3875   -6341.9137            0    2110.3426    23.421941    21.661994    21.867897    11095.026    1784.9413    1865.3679    2680.7188    173.82117    400.08385   -695.45759   -5363.9139 
  994000    234.66044   -6322.7837    -5719.134   -6322.7837            0    1587.5452    23.750888    21.527707    21.721474    11106.236    1415.9074    805.75965    2540.9684   -1070.7226   -309.60052    1520.3816   -5461.9945 
  995000    246.81898   -6302.8419   -5667.9151   -6302.8419            0    2829.0008    23.247539    21.660656    22.018752    11087.696    2956.9652    2642.0198    2888.0173   -290.87115   -243.62357    243.70868   -5210.4582 
  996000    238.99837   -6345.5535   -5730.7448   -6345.5535            0    1512.5083    23.530578    21.308137    22.160689     11111.21    1108.9062     2861.886    566.73284    -668.3924    152.40451    223.55245   -5485.6494 
  997000    238.90157   -6327.8626   -5713.3028   -6327.8626            0    1174.3305    23.398598    21.734942    21.899469    11137.351    1967.4235    136.27846    1419.2896    -496.6151   -203.27154   -265.98099     -5522.56 
  998000    236.56365   -6306.7506    -5698.205   -6306.7506            0    2578.4577    23.578986    21.574633     21.81762    11098.797    1115.0443    2950.1646    3670.1642   -347.72001    766.25117    -47.98413   -5280.8441 
  999000    237.49979   -6342.3201   -5731.3664   -6342.3201            0    3010.7019    23.462892    21.467183    21.902464    11031.882    2955.2749    2135.3313    3941.4995    514.05177    382.61007    703.67589   -5246.9785 
 1000000    262.50724   -6340.3229    -5665.039   -6340.3229            0    2346.2541    23.423563    21.473904    22.034999    11083.502    2212.5213    2457.1656    2369.0755    82.491846    127.40202    448.46306    -5285.787 
Loop time of 566.808 on 64 procs for 250000 steps with 1296 atoms

Performance: 76.216 ns/day, 0.315 hours/ns, 441.066 timesteps/s
196.1% CPU use with 32 MPI tasks x 2 OpenMP threads

MPI task timing breakdown:
Section |  min time  |  avg time  |  max time  |%varavg| %total
---------------------------------------------------------------
Pair    | 36.981     | 46.976     | 56.18      |  83.5 |  8.29
Bond    | 0.70389    | 0.9458     | 1.2545     |  15.0 |  0.17
Kspace  | 300.45     | 311.93     | 324.11     |  39.6 | 55.03
Neigh   | 3.8103     | 4.2399     | 4.6202     |  13.0 |  0.75
Comm    | 72.675     | 81.567     | 88.407     |  38.5 | 14.39
Output  | 0.65486    | 0.65628    | 0.65779    |   0.1 |  0.12
Modify  | 104.24     | 108.13     | 111.76     |  14.6 | 19.08
Other   |            | 12.36      |            |       |  2.18

Nlocal:        40.5000 ave          49 max          31 min
Histogram: 3 3 2 5 1 3 3 4 4 4
Nghost:        3013.47 ave        3040 max        2992 min
Histogram: 2 4 2 6 5 5 3 4 0 1
Neighs:        12593.0 ave       15283 max        9516 min
Histogram: 3 3 2 5 2 2 3 4 4 4

Total # of neighbors = 402975
Ave neighs/atom = 310.93750
Ave special neighs/atom = 2.0000000
Neighbor list builds = 8991
Dangerous builds = 1

unfix		3
unfix		2
unfix		1

write_data	data.final.${pid}
write_data	data.final.0
System init for write_data ...
PPPM initialization ...
  extracting TIP4P info from pair style
  using 12-bit tables for long-range coulomb (../kspace.cpp:340)
  G vector (1/distance) = 0.36833345
  grid = 30 40 32
  stencil order = 5
  estimated absolute RMS force accuracy = 0.0042396635
  estimated relative force accuracy = 1.2767621e-05
  using double precision FFTW3
  3d grid and FFT values/proc = 7888 1280
Last active /omp style is kspace_style pppm/tip4p/omp
WARNING: Not all mixed pair coeffs generated from mixing. Use write_data with 'pair ij' option to store all pair coeffs. (../write_data.cpp:312)

write_restart   restart.lmp.${pid}
write_restart   restart.lmp.0
System init for write_restart ...
PPPM initialization ...
  extracting TIP4P info from pair style
  using 12-bit tables for long-range coulomb (../kspace.cpp:340)
  G vector (1/distance) = 0.36833345
  grid = 30 40 32
  stencil order = 5
  estimated absolute RMS force accuracy = 0.0042396635
  estimated relative force accuracy = 1.2767621e-05
  using double precision FFTW3
  3d grid and FFT values/proc = 7888 1280
Last active /omp style is kspace_style pppm/tip4p/omp
Total wall time: 0:09:26
