LAMMPS data file via write_data, version 30 Jul 2021, timestep = 3750000

1008 atoms
2 atom types
672 bonds
1 bond types
336 angles
1 angle types

-3.1536559971552567 14.763654996705805 xlo xhi
-0.09530774204058545 22.67530674203895 ylo yhi
-0.10776583243859861 19.33776383243754 zlo zhi
0.1318387233617654 -6.495708626184825 0.1607955518763884 xy xz yz

Masses

1 1.008
2 15.999

Pair Coeffs # lj/cut/tip4p/long/omp

1 0 0
2 0.21084 3.1668

Bond Coeffs # harmonic/omp

1 450 0.9572

Angle Coeffs # harmonic/omp

1 55 104.52

Atoms # full

32 11 1 0.5897 1.2426815605539652 1.5049845968515603 3.167296498639435 0 0 0
55 19 2 -1.1794 -0.46216048709906365 4.447034506983452 3.4092809217711295 0 0 0
56 19 1 0.5897 -1.0979734331322932 3.939541316585541 2.9048468539785195 0 0 0
57 19 1 0.5897 0.24200440194444095 4.634428954481731 2.7885341338415595 0 0 0
121 41 2 -1.1794 -2.3592617718353956 2.6232069650894907 2.4171803423011413 1 0 0
122 41 1 0.5897 -2.2593476938125736 2.0057352938937503 1.6926120124044417 1 0 0
31 11 2 -1.1794 1.5519136106786338 0.9218036512884555 2.474105699430703 0 0 0
46 16 2 -1.1794 2.2781720535916374 4.787553922083994 2.312095715869991 0 0 0
86 29 1 0.5897 -2.003886629610994 1.8317441679616109 3.991413383675561 1 0 0
21 7 1 0.5897 1.2862014479629948 2.091462032440168 1.0731416405051024 0 0 0
123 41 1 0.5897 -3.3008612457493687 2.642349909593507 2.5880177236853963 1 0 0
18 6 1 0.5897 5.151977440556124 3.948655747191033 0.19621460909867927 0 0 0
52 18 2 -1.1794 3.8928033935125805 3.0953961719837086 3.627644165614376 0 0 0
33 11 1 0.5897 0.8337108309042991 0.30268091152824655 2.3431533149585717 0 0 0
71 24 1 0.5897 3.3377153997059974 0.4931993129355199 1.9052476390475759 0 0 0
16 6 2 -1.1794 5.586841661902179 4.777996973285154 0.3946411670929194 0 0 0
602 201 1 0.5897 -0.10838289160762571 5.092742710244885 0.3392104726353478 1 0 1
78 26 1 0.5897 0.32695111018964695 3.0003562140438866 4.367945876555196 0 0 0
47 16 1 0.5897 2.3187991513001975 5.25892935139391 1.4799224830989677 0 0 0
53 18 1 0.5897 4.606629673972497 2.6519382397185214 3.1694666370792426 0 0 0
6 2 1 0.5897 3.5416349428384644 1.4253314700212272 4.706249623510533 0 0 0
527 176 1 0.5897 4.3444098623326095 1.7288357589168373 0.09187377696076185 0 0 1
70 24 2 -1.1794 3.9556246202873835 0.15056739611580636 1.2594979599045915 0 0 0
54 18 1 0.5897 3.3380121203745645 3.4420679247970676 2.928878800091733 0 0 0
157 53 2 -1.1794 -4.00996063477427 5.089718295070522 4.518194165947324 1 0 0
48 16 1 0.5897 2.4143321048152764 5.462438619469604 2.977122453091275 0 0 0
19 7 2 -1.1794 1.1753674922645683 2.5289286836745988 0.22894452896623407 0 0 0
482 161 1 0.5897 -1.1336437303875044 0.1152255763052604 0.865333320538088 1 1 0
85 29 2 -1.1794 -2.1302154323674976 1.2636513730487897 4.751465146261987 1 0 0
67 23 2 -1.1794 -2.4352298740687535 0.632089674355406 7.949849965496663 0 0 0
59 20 1 0.5897 1.7986192120596707 3.415119923980435 5.691489591591334 0 0 0
345 115 1 0.5897 -0.981587851065636 0.013349080039183045 5.100950551710661 0 1 0
34 12 2 -1.1794 -0.023441684019757325 1.6617603437490474 7.319089867814235 0 0 0
35 12 1 0.5897 -0.059301525665782506 2.1959654433590745 8.112562950032142 0 0 0
669 223 1 0.5897 -5.28392224000799 1.5845339961282439 8.9523337421644 1 0 0
45 15 1 0.5897 0.6317455423391674 4.713127840366717 6.913244859781963 0 0 0
125 42 1 0.5897 -5.491878425567268 3.3956820985712395 6.994966206496867 1 0 0
36 12 1 0.5897 -0.8103627976179184 1.1182982437146745 7.35987815342729 0 0 0
58 20 2 -1.1794 2.190807932498023 4.103505864921857 6.228692471396812 0 0 0
5 2 1 0.5897 3.296175504643209 -0.04527942416078251 4.969092633472699 0 0 0
124 42 2 -1.1794 -4.909421503339404 2.812837298168408 7.482031487738982 1 0 0
98 33 1 0.5897 -3.6675002318620065 5.384010957004562 8.62396609399033 1 0 0
126 42 1 0.5897 -4.030037731862623 3.055307537360726 7.191993160137739 1 0 0
77 26 1 0.5897 0.19547481572391012 2.018162082812859 5.512574081216188 0 0 0
134 45 1 0.5897 -2.217803293415387 2.8054256813601954 6.147168783434047 1 0 0
60 20 1 0.5897 2.893712698225624 3.6636438046444986 6.706835074426334 0 0 0
69 23 1 0.5897 -2.8546653269445494 1.309656184377682 8.480040422233028 0 0 0
135 45 1 0.5897 -1.6996184503081913 4.027290444394533 6.875547704441382 1 0 0
133 45 2 -1.1794 -2.476882073077876 3.679715939083578 6.438186653033118 1 0 0
402 134 1 0.5897 1.1526936013601565 0.3678145139684639 8.030975672196728 0 1 0
43 15 2 -1.1794 -0.19780451360381868 5.069433349973946 7.231078838398536 0 0 0
159 53 1 0.5897 -3.567473843367897 4.479131921010217 5.107797210349087 1 0 0
4 2 2 -1.1794 3.7728466785306765 0.7142903245683256 5.303934753939936 0 0 0
401 134 1 0.5897 2.155086975780975 0.3257239945420569 9.164723440906286 0 1 0
44 15 1 0.5897 -0.009052914645700127 5.3566933564720625 8.1244489019182 0 0 0
97 33 2 -1.1794 -3.6896167826979536 5.072041803929501 9.528691816073104 1 0 0
68 23 1 0.5897 -3.1586573507862052 0.08627996519565598 7.6416413210328145 0 0 0
11 4 1 0.5897 2.3334899709500228 5.600550479225283 5.242095098895632 0 0 0
87 29 1 0.5897 -3.080351355275001 1.1991002709791438 4.847616285929365 1 0 0
522 174 1 0.5897 2.2757091615741913 5.5392326842769215 9.518531766551263 0 0 0
90 30 1 0.5897 -5.052058733443275 1.8295731556302814 5.970501102142135 1 0 0
76 26 2 -1.1794 0.7677747697922817 2.259734747201683 4.784274721801616 0 0 0
525 175 1 0.5897 -1.5824531465340264 2.545693646617151 9.974200569916455 0 0 0
626 209 1 0.5897 -5.37192940915272 1.9384543005741564 12.523025875706036 1 0 0
574 192 2 -1.1794 0.19359027621145453 0.9915279779241641 11.617298793718977 0 0 0
22 8 2 -1.1794 0.23784915218894742 2.9850074922327785 9.751574475441716 0 0 0
575 192 1 0.5897 0.7205400613870712 0.22402032296882157 11.839621312979393 0 0 0
550 184 2 -1.1794 -1.7110447129085014 5.063096475485276 11.896933569323876 0 0 0
561 187 1 0.5897 -3.8389908576963956 4.106130249992837 13.737406578960769 0 0 0
668 223 1 0.5897 -5.645173435861474 1.557999203556643 10.422359322766978 1 0 0
535 179 2 -1.1794 -2.7646750982727477 1.27449709495238 12.539429087524514 0 0 0
536 179 1 0.5897 -2.8283680276046956 1.8985004603375835 13.262500379674591 0 0 0
537 179 1 0.5897 -2.81389505449111 1.8149724005167467 11.750879265212266 0 0 0
524 175 1 0.5897 -2.7841084915964043 3.4411221477638265 9.76006416960385 0 0 0
552 184 1 0.5897 -2.6422701112058204 5.155659720546203 12.097927957699422 0 0 0
557 186 1 0.5897 0.49741821427066135 2.723431001625229 13.386089077967993 0 0 0
593 198 1 0.5897 -7.404856453450275 0.6365294297756454 14.092495005036087 1 0 0
556 186 2 -1.1794 0.44513113307717056 3.6561125408025124 13.177240653844851 0 0 0
558 186 1 0.5897 -0.3288841338051629 3.734143968705983 12.619597984439954 0 0 0
559 187 2 -1.1794 -4.122810010317268 4.751036921388258 13.089470852015964 0 0 0
560 187 1 0.5897 -4.685801716475685 4.259001317524497 12.491805765030012 0 0 0
662 221 1 0.5897 -7.221433178005778 4.225881579289207 13.545906422837412 1 0 0
625 209 2 -1.1794 -5.478085953784296 2.6902349246272115 11.940052627002446 1 0 0
523 175 2 -1.1794 -2.538979409993865 2.5338038345229945 9.94148209125952 0 0 0
576 192 1 0.5897 -0.622883137538504 0.8705265092896964 12.102043373164346 0 0 0
627 209 1 0.5897 -6.424878056538535 2.8195975811722236 11.885350374108016 1 0 0
23 8 1 0.5897 0.4250618378748592 2.4272499631691438 10.506674704751173 0 0 0
551 184 1 0.5897 -1.2710800721064013 5.627392065603843 12.532727171082216 0 0 0
24 8 1 0.5897 0.8272225500229484 3.7323863845241494 9.853218301023464 0 0 0
663 221 1 0.5897 -6.60934638643638 5.604395814807129 13.415072044256004 1 0 0
520 174 2 -1.1794 2.277370996684682 4.717592421326473 10.0096580338152 0 0 0
589 197 2 -1.1794 -5.432572906652945 0.9470155971653402 14.180082354583273 1 0 0
661 221 2 -1.1794 -6.898697548807451 4.9631001089820534 14.064200228585587 1 0 0
667 223 2 -1.1794 -5.465260038095077 0.9854869046108974 9.676627526389384 1 0 0
99 33 1 0.5897 -4.59638648640515 4.797961532334737 9.665970142846133 1 0 0
165 55 1 0.5897 -9.215522251320644 0.9621394332595354 18.427565227390687 1 0 -1
510 170 1 0.5897 0.5253115732470155 2.2011098806440197 15.494816799368856 0 0 0
526 176 2 -1.1794 -2.3377158400307287 2.67210203543439 19.018489690952308 0 0 0
628 210 2 -1.1794 -8.284053119618449 2.7101780267430438 16.395774120871774 1 0 0
639 213 1 0.5897 -5.841368174511468 4.0267442033638305 15.187238008808867 1 0 0
614 205 1 0.5897 -7.216563569197266 5.46839388279026 17.388785124521483 1 0 0
590 197 1 0.5897 -5.16557118664576 1.6733650578313886 14.743457763400555 1 0 0
580 194 2 -1.1794 -2.459117771609243 2.8491628358340355 14.854853479989057 0 0 0
538 180 2 -1.1794 -2.9233552795726476 1.0657703284283127 16.803236410553033 0 0 0
539 180 1 0.5897 -2.4983313879647326 1.78388311310079 17.272220883599452 0 0 0
581 194 1 0.5897 -2.734362322603509 2.143996677974079 15.440759961840891 0 0 0
571 191 2 -1.1794 -5.42323254436773 0.4854929949879948 18.035380748722645 0 0 0
638 213 1 0.5897 -6.37656915330953 3.026877929849922 16.19025811085427 1 0 0
549 183 1 0.5897 -4.326701666510341 4.199080728959007 16.50885795174585 0 0 0
562 188 2 -1.1794 -1.1254479485541822 4.608806812992858 16.7515410443624 0 0 0
547 183 2 -1.1794 -3.8250251922660636 4.84328533346561 17.008458121929692 0 0 0
564 188 1 0.5897 -2.055384839594214 4.5960899644091535 16.977869557149504 0 0 0
637 213 2 -1.1794 -5.564264885199465 3.3359693325948103 15.78916097918165 1 0 0
563 188 1 0.5897 -1.054594829856188 5.271582276831247 16.064498843393213 0 0 0
20 7 1 0.5897 -5.430891844101275 1.9755794824825248 19.046744538847747 0 0 -1
540 180 1 0.5897 -3.833352343753618 1.0913486976039202 17.098930557927225 0 0 0
164 55 1 0.5897 -8.242693685287431 2.1220905874595375 18.414168517434636 1 0 -1
163 55 2 -1.1794 -8.614434431521087 1.4524566726168686 18.988412894445784 1 0 -1
582 194 1 0.5897 -1.9610684292609966 3.4452878418237023 15.414192026642604 0 0 0
548 183 1 0.5897 -3.8124612924471837 5.621875842589023 16.451737680151712 0 0 0
508 170 2 -1.1794 0.5380800920359938 1.42211421780751 14.938715328888037 0 0 0
601 201 2 -1.1794 -7.035115176986551 4.707005130186561 19.127620914749635 1 0 0
528 176 1 0.5897 -3.253810771172377 2.873642115404983 19.208999177235626 0 0 0
615 205 1 0.5897 -7.241124816715174 5.612780228937743 15.881886252657184 1 0 0
905 302 1 0.5897 -1.6550840901575494 0.06560012691930756 17.70571948317825 0 1 0
101 34 1 0.5897 -8.7252093385625 4.761204140057262 19.190394219723796 1 0 -1
603 201 1 0.5897 -6.556860952719228 3.8782973827241176 19.15355845465806 1 0 0
591 197 1 0.5897 -4.989636803621917 0.18246386779110824 14.548155103995716 1 0 0
255 85 1 0.5897 -2.3071046939239253 8.88488648233794 4.217373115536223 1 0 0
289 97 2 -1.1794 -2.675119488302146 9.91142865782122 2.3566277316392488 1 0 0
145 49 2 -1.1794 -0.5153455767765989 6.735000957964946 1.6159916775731247 1 0 0
147 49 1 0.5897 -0.9469661893302179 7.234092872448483 0.9225477143913798 1 0 0
146 49 1 0.5897 -1.2286903361818042 6.453526955565991 2.1888613281546645 1 0 0
188 63 1 0.5897 0.7549088513818076 9.917114227535665 0.9870019242062034 0 0 0
9 3 1 0.5897 -0.6396946110052193 5.781897330481582 4.519996771239259 0 0 0
200 67 1 0.5897 0.5968323405507521 8.046312865202252 2.362792303544458 0 0 0
199 67 2 -1.1794 1.1889483870766453 8.774166099964766 2.552262125126349 0 0 0
112 38 2 -1.1794 -3.40737256352919 6.405847138512437 2.153797262091309 1 0 0
332 111 1 0.5897 -2.2177508570852678 8.976000117582299 0.8094092061961401 1 0 0
187 63 2 -1.1794 0.8907303138968325 10.571570058368414 0.3017325219840923 0 0 0
10 4 2 -1.1794 2.261551478090542 6.383322613230241 4.695832285211178 0 0 0
201 67 1 0.5897 2.065245132412465 8.406952587370862 2.4366944869357168 0 0 0
245 82 1 0.5897 0.7706091512191131 9.66252861256675 4.155933030012535 0 0 0
189 63 1 0.5897 1.8414228558993102 10.668560239923101 0.24745614066943944 0 0 0
240 80 1 0.5897 3.340061480833082 7.124012313343489 1.2140778510582368 0 0 0
290 97 1 0.5897 -2.2156269353458344 10.730463602766656 2.5418783217032805 1 0 0
291 97 1 0.5897 -3.590941346717967 10.09802614102101 2.563027033763845 1 0 0
114 38 1 0.5897 -3.309313712976112 5.732395697461411 1.4806667973490526 1 0 0
239 80 1 0.5897 3.922331402235913 8.516520228759347 1.3321030283438897 0 0 0
221 74 1 0.5897 4.27378525846902 10.386591773765218 3.234877103302153 0 0 0
220 74 2 -1.1794 3.467032448540378 10.48737917153193 3.740043440974362 0 0 0
238 80 2 -1.1794 3.8001722294354154 7.70309358655306 1.8217339904214989 0 0 0
331 111 2 -1.1794 -2.1098893219559414 8.505970478775913 -0.017469146072260133 1 0 0
694 232 2 -1.1794 3.8670953596125823 10.276593177831419 0.24608040763054329 0 0 1
696 232 1 0.5897 4.436580644874132 11.04362622149026 0.1856409030155055 0 0 1
113 38 1 0.5897 -3.476936798027479 5.917128816770526 2.973963693920428 1 0 0
224 75 1 0.5897 -0.6994810377393614 11.241382963792983 4.097172551614513 0 0 0
222 74 1 0.5897 2.890712991941796 10.998776959131897 3.172115860272386 0 0 0
12 4 1 0.5897 1.3195648038857346 6.526014581409878 4.603954836883046 0 0 0
110 37 1 0.5897 -4.08666493959668 6.354833661996535 6.145318096740852 1 0 0
109 37 2 -1.1794 -4.040029364117053 6.472855314904285 7.094126328451606 1 0 0
293 98 1 0.5897 -3.9125893446328 10.757000306742388 6.889205203797924 1 0 0
174 58 1 0.5897 3.8542213366207863 8.976802736220906 4.9767781498737955 0 0 0
64 22 2 -1.1794 2.5724525814122554 6.690446566156491 7.993049229728557 0 0 0
111 37 1 0.5897 -4.922240687964407 6.745704998730633 7.345689157592251 1 0 0
228 76 1 0.5897 2.026695776271879 11.245245941286726 5.5041918325450245 0 0 0
173 58 1 0.5897 3.7815630548763135 7.534152291879082 5.430120108455683 0 0 0
7 3 2 -1.1794 -0.53936784407398 6.601318327094452 5.004486488269589 0 0 0
237 79 1 0.5897 -2.057303366069446 8.530434721550327 8.574916026176451 0 0 0
246 82 1 0.5897 0.5264601603455308 9.565066557226439 5.646922080238897 0 0 0
292 98 2 -1.1794 -4.821879624949567 10.562378652501394 7.116217053429002 1 0 0
294 98 1 0.5897 -4.768116976231329 10.116386715448176 7.961529668831465 1 0 0
202 68 2 -1.1794 0.8841507157823685 8.767039468854941 7.473650486649117 0 0 0
203 68 1 0.5897 -0.003653414077871897 8.422996283418426 7.571957143898797 0 0 0
204 68 1 0.5897 1.4376708063713313 7.988598395189596 7.412423823899988 0 0 0
191 64 1 0.5897 0.942524348345577 9.461074488940156 9.184558655299599 0 0 0
235 79 2 -1.1794 -1.8196808756356058 7.784651168781506 8.02395926781168 0 0 0
236 79 1 0.5897 -2.645302171455789 7.5061895561428145 7.627707964688552 0 0 0
301 101 2 -1.1794 -2.269465499392458 10.971720258263064 6.354559929416194 1 0 0
302 101 1 0.5897 -1.9898226811512747 10.081532314645825 6.141138247600231 1 0 0
257 86 1 0.5897 -4.299162023635633 8.346206673312278 5.03022867742456 1 0 0
254 85 1 0.5897 -1.819288595902864 7.76063427920688 5.10619656154121 1 0 0
253 85 2 -1.1794 -2.4193369821311883 8.506138224637953 5.089327904073912 1 0 0
588 196 1 0.5897 -1.007391493197522 6.720889888475523 9.327501603247299 0 0 0
8 3 1 0.5897 -0.48107373823582256 6.33244796673308 5.92135164095894 0 0 0
836 279 1 0.5897 -5.380946492960016 8.479205741252112 9.104230931935634 1 0 0
244 82 2 -1.1794 0.38109750797186237 10.13496322779623 4.891685236812268 0 0 0
724 242 2 -1.1794 0.8500230147378227 10.843891570091522 13.099158247347965 0 0 0
514 172 2 -1.1794 -0.8195187784794395 6.312737670960543 14.438248401088567 0 0 0
837 279 1 0.5897 -4.353294089384706 8.729400895105453 10.187369473357613 1 0 0
616 206 2 -1.1794 -6.49760424655655 6.681180931810977 11.968917090889862 1 0 0
678 226 1 0.5897 0.7687510791020564 9.335618650566738 14.21245911381385 0 0 0
693 231 1 0.5897 -1.9052889628423157 9.56924923771381 10.73027899625705 0 0 0
795 265 1 0.5897 -5.7227213988456 9.908375012636093 11.173735869700732 1 0 0
794 265 1 0.5897 -5.136691635990022 10.825725588679168 12.225893424394883 1 0 0
649 217 2 -1.1794 -3.610946319346952 7.41529546578541 11.013907522052074 1 0 0
650 217 1 0.5897 -2.906293619335981 7.433319950859575 11.661472846370053 1 0 0
651 217 1 0.5897 -3.544828454409773 6.549452432944174 10.611204302892563 1 0 0
793 265 2 -1.1794 -5.902455602167555 10.283789694634578 12.035732361484856 1 0 0
743 248 1 0.5897 1.2757319802793283 8.577013163452998 11.300591758238193 0 0 0
744 248 1 0.5897 0.7113860431292585 7.188273538954243 11.088574195935275 0 0 0
618 206 1 0.5897 -7.027804917532439 7.466097502872757 11.83131213001318 1 0 0
742 248 2 -1.1794 1.2048920264719678 7.717238178664179 11.715412242893475 0 0 0
703 235 2 -1.1794 -1.5093354270209343 8.49094511028128 12.513165722658997 0 0 0
704 235 1 0.5897 -0.5657469053418929 8.610139611931668 12.405498397766626 0 0 0
705 235 1 0.5897 -1.7350104257316294 9.03327391928059 13.268949856933274 0 0 0
759 253 1 0.5897 -5.673809994463328 9.24786682334389 13.46477171156653 1 0 0
617 206 1 0.5897 -5.5985324465427215 6.967823175879848 11.80848849655166 1 0 0
513 171 1 0.5897 -4.010174858281826 6.437912396887109 14.42604936314771 0 0 0
750 250 1 0.5897 -3.1030196602799984 10.832564422652657 13.941976976669574 0 0 0
586 196 2 -1.1794 -0.27568518855623836 6.332857187029457 9.807310668836838 0 0 0
516 172 1 0.5897 -0.1632385866247592 7.008661064166974 14.473850255870783 0 0 0
835 279 2 -1.1794 -5.005037158938678 9.173707182151976 9.645164171882698 1 0 0
726 242 1 0.5897 0.047693572773591875 11.237758122512169 12.75669332659374 0 0 0
192 64 1 0.5897 1.5472791842067135 10.69456425039627 9.82075564502081 0 0 0
587 196 1 0.5897 -0.6879782121695572 5.844109122274622 10.519706366608109 0 0 0
692 231 1 0.5897 -0.8965979754636724 10.34091354373655 9.906132631326761 0 0 0
190 64 2 -1.1794 0.9960943921295993 9.936137193710932 10.013843325231294 0 0 0
691 231 2 -1.1794 -1.7918670613452208 10.002929398507947 9.884449430686223 0 0 0
266 89 1 0.5897 -3.2455706642301956 11.347884516374672 9.641891427630835 1 0 0
757 253 2 -1.1794 -5.807162751480162 8.801260159535826 14.300912612158697 1 0 0
741 247 1 0.5897 -6.368054129964207 9.00286658571219 17.92167683916218 0 0 0
677 226 1 0.5897 0.5442328577647526 8.979503550345825 15.666743917875003 0 0 0
613 205 2 -1.1794 -7.341161329637705 6.1127999921880845 16.69198049097839 1 0 0
333 111 1 0.5897 -8.488749901147273 9.355693587366995 18.773787607537262 1 0 -1
515 172 1 0.5897 -1.65543689102139 6.765250043932512 14.550272220026347 0 0 0
762 254 1 0.5897 -7.536452814149348 8.76015095251439 14.740763055843688 1 0 0
568 190 2 -1.1794 -1.3210560267307008 7.165998135544983 18.299329122155886 0 0 0
797 266 1 0.5897 -6.878074431591992 10.677913743737568 17.41354638738418 1 0 0
511 171 2 -1.1794 -3.526267120276801 6.904523384491723 15.107510263575355 0 0 0
569 190 1 0.5897 -1.4253565053661559 6.529737575501611 19.006880701202682 0 0 0
749 250 1 0.5897 -3.0572799956289876 10.097923880666976 15.265007982028205 0 0 0
740 247 1 0.5897 -6.16376430790793 7.69971130781747 17.178767203129535 0 0 0
695 232 1 0.5897 -2.757388880102595 10.162019893993739 18.783916649115174 0 0 0
798 266 1 0.5897 -8.003322280174284 9.99923615645742 16.661809087300526 1 0 0
748 250 2 -1.1794 -2.538935577608756 10.277670109139578 14.480569706525584 0 0 0
706 236 2 -1.1794 -3.136549845683417 9.119786139375316 17.288134856688597 0 0 0
707 236 1 0.5897 -4.049233195834153 8.885467942142236 17.456432095753232 0 0 0
708 236 1 0.5897 -2.6365930977209757 8.352728778133066 17.56715160534013 0 0 0
796 266 2 -1.1794 -7.784407068101579 10.385532663536114 17.509832963084087 1 0 0
758 253 1 0.5897 -5.795948193278802 9.502706230494617 14.952149437166014 1 0 0
739 247 2 -1.1794 -5.710470640072716 8.332725174054826 17.735617002786668 0 0 0
84 28 1 0.5897 -4.008157340420368 5.853715090228598 18.437587435539555 0 0 -1
82 28 2 -1.1794 -4.22958336286678 6.33502076960713 19.23479488801006 0 0 -1
512 171 1 0.5897 -3.9267747865757787 7.773455428882195 15.134057381445855 0 0 0
83 28 1 0.5897 -4.854624808557826 7.0005383531850995 18.947447170478267 0 0 -1
805 269 2 -1.1794 -5.516862534218037 11.230400717732294 16.099558092755505 1 0 0
570 190 1 0.5897 -0.6226754825364882 6.805291171511001 17.753124787181648 0 0 0
676 226 2 -1.1794 0.8334005603796202 8.609372970952977 14.832695142715725 0 0 0
281 94 1 0.5897 -3.0218224423616737 13.503463727070496 3.485159355367719 1 0 0
282 94 1 0.5897 -2.115874171198597 14.309501558312348 2.5786775194182994 1 0 0
280 94 2 -1.1794 -2.9581946124838367 13.855269442824756 2.5971649188411625 1 0 0
770 257 1 0.5897 -1.7221518649710064 12.40016206020095 0.2885095698998636 1 0 1
313 105 2 -1.1794 -0.5580829510676857 14.799569290191304 1.4693532213991545 1 0 0
315 105 1 0.5897 -0.38759415812258213 13.976865872595738 1.0107509138503066 1 0 0
314 105 1 0.5897 0.3063495140691548 15.104097455894712 1.7454683662174293 1 0 0
225 75 1 0.5897 -0.6564925975381017 12.754596302745366 4.1142523366863255 0 0 0
500 167 1 0.5897 -1.3220323774253206 16.13608923784898 0.24278218315747357 1 0 0
368 123 1 0.5897 2.435895669710102 16.14052074645159 2.327751637407858 0 0 0
252 84 1 0.5897 3.0074870570095324 14.628708638995692 0.8094968602942966 0 0 0
223 75 2 -1.1794 -0.9056737602133378 12.010547946749716 3.566003719976676 0 0 0
216 72 1 0.5897 1.0189584848803923 12.426321583152749 2.6924410907641634 0 0 0
180 60 1 0.5897 2.326890216211873 13.783170508738147 4.004699641053551 0 0 0
214 72 2 -1.1794 1.9724132339743532 12.505784559742965 2.7202484532298623 0 0 0
215 72 1 0.5897 2.223699362328537 12.697788598262012 1.8167379020478245 0 0 0
423 141 1 0.5897 -2.490954581528266 16.7263688835452 4.053082542226503 1 0 0
406 136 2 -1.1794 4.137728705212202 15.63443974593724 1.7082925665772524 0 0 0
367 123 2 -1.1794 1.5092890013943059 16.373126912473168 2.38619231447145 0 0 0
408 136 1 0.5897 4.565179595026214 16.01993341935501 0.9434098189452835 0 0 0
369 123 1 0.5897 1.4203059506188254 16.79095680663457 3.242796104142042 0 0 0
407 136 1 0.5897 4.757198232673617 14.976207654895923 2.0231688430648114 0 0 0
250 84 2 -1.1794 2.4950410182759803 13.959116558900327 0.35642597771393686 0 0 0
771 257 1 0.5897 -0.3558280520623831 11.781191014353798 0.08447981534259719 1 0 1
184 62 2 -1.1794 5.613588294166693 12.417998969174564 -0.04696834541941458 0 0 0
424 142 2 -1.1794 -4.851323540457645 16.01282185969793 5.342121361601356 1 0 0
227 76 1 0.5897 1.6823313377464029 11.95878791073034 6.794251576007199 0 0 0
226 76 2 -1.1794 2.4007023848337496 11.811883518963137 6.178960047756105 0 0 0
267 89 1 0.5897 -3.9157648143000214 12.373025615365384 8.752088658218192 1 0 0
371 124 1 0.5897 0.09386808386169898 16.97371222767825 7.727029871268203 0 0 0
211 71 2 -1.1794 -0.1627786227069561 12.364750907734564 7.381260009153544 0 0 0
212 71 1 0.5897 -0.5568555133639523 12.707420175786694 8.183457968944959 0 0 0
213 71 1 0.5897 -0.3928659649272772 13.005269357976957 6.70813937677508 0 0 0
370 124 2 -1.1794 0.1707711457283856 16.189699811314533 7.183300039072249 0 0 0
178 60 2 -1.1794 2.3310235211971273 14.174114273886435 4.878447805344873 0 0 0
232 78 2 -1.1794 1.9077941735237545 14.676676594706947 8.259721701060641 0 0 0
179 60 1 0.5897 2.5148884606100035 13.442626116024211 5.467859256913246 0 0 0
234 78 1 0.5897 1.284100229693772 15.32052587759981 7.924113599136465 0 0 0
341 114 1 0.5897 3.413317289543441 15.532288165049073 5.673713404467751 0 0 0
233 78 1 0.5897 2.6137522707921956 14.667027736739962 7.6133886872808665 0 0 0
277 93 2 -1.1794 -4.252418834667369 13.55738193814447 7.455963169330141 1 0 0
278 93 1 0.5897 -3.670311902889564 14.279859002674947 7.691406513175081 1 0 0
403 135 2 -1.1794 -2.3624356484456004 15.66093607425692 8.066758614143312 0 0 0
279 93 1 0.5897 -5.133861776552816 13.908951956436724 7.580784120069012 1 0 0
462 154 1 0.5897 -4.961114948261749 16.873369390520317 6.997379023488849 1 0 0
326 109 1 0.5897 -3.231433793429452 12.003764943974463 5.399022424270638 1 0 0
404 135 1 0.5897 -1.4577700752578284 15.710075600446139 7.757966605396434 0 0 0
176 59 1 0.5897 -0.8117189003398089 15.02472584606728 5.087670074995875 0 0 0
327 109 1 0.5897 -4.213554227382586 13.150223605793823 5.511431364753321 1 0 0
175 59 2 -1.1794 -0.45064919409850646 14.142697913292565 5.176148987648977 0 0 0
405 135 1 0.5897 -2.43514917301637 16.36625970622524 8.709778311245502 0 0 0
756 252 1 0.5897 -1.6502564256640246 14.288489795823306 9.11406304994346 0 0 0
303 101 1 0.5897 -1.4663608705229398 11.417599442730666 6.623677696094479 1 0 0
372 124 1 0.5897 0.21485062326960147 16.522656813330585 6.286889344332248 0 0 0
425 142 1 0.5897 -3.9055628357215317 15.983041458457883 5.1978481094530835 1 0 0
177 59 1 0.5897 0.49800537442050086 14.269790794731806 5.166844578922219 0 0 0
340 114 2 -1.1794 3.7869126400673903 16.410542561024325 5.747096421599524 0 0 0
690 230 1 0.5897 1.8653646220107394 13.062226309419248 9.195474575500008 0 0 0
421 141 2 -1.1794 -2.3085135460344652 16.414389651029996 4.93948778648807 1 0 0
325 109 2 -1.1794 -3.7654427224180553 12.597450250112788 4.871244777851221 1 0 0
910 304 2 -1.1794 0.4660508753909012 15.634119643193202 10.745632372866671 0 0 0
725 242 1 0.5897 1.1493575331569046 11.455400389740722 13.772014615925855 0 0 0
926 309 1 0.5897 -4.295981083263072 15.790677069378738 14.15887226205237 1 0 0
718 240 2 -1.1794 -1.4340557419461106 12.285308120831262 12.116795102940522 0 0 0
785 262 1 0.5897 -7.082340852390342 14.679847456950975 11.972640348156714 1 0 0
720 240 1 0.5897 -1.1545114366070308 13.068229302593272 12.591278628555141 0 0 0
911 304 1 0.5897 -0.2074273796936703 15.978805080115837 11.331943719246434 0 0 0
873 291 1 0.5897 -2.2475507911995027 15.420850217214236 12.12624792217351 0 0 0
682 228 2 -1.1794 -0.5751598029558398 14.006583392317095 14.069227315277551 0 0 0
786 262 1 0.5897 -6.5649889987158865 13.914164841718366 13.171833535738193 1 0 0
729 243 1 0.5897 -3.997832759945328 12.695522345488527 13.505165959926757 0 0 0
871 291 2 -1.1794 -1.7276946852527457 16.21756436162545 12.232480016343338 0 0 0
1005 335 1 0.5897 -4.623647226746504 16.20577366159014 10.168360340475806 1 0 0
912 304 1 0.5897 1.232644240703582 15.512847683217254 11.305830746787452 0 0 0
784 262 2 -1.1794 -6.273620146681138 14.425610487406487 12.416930131228183 1 0 0
727 243 2 -1.1794 -3.94107951102323 11.92411424892981 12.941294849951339 0 0 0
773 258 1 0.5897 -6.394789684027755 13.10416314106052 11.273546133552395 1 0 0
817 273 2 -1.1794 -3.6911757066604034 14.562338982158806 11.097645957014716 1 0 0
818 273 1 0.5897 -4.551216189105703 14.54731301004252 11.51750118993319 1 0 0
819 273 1 0.5897 -3.6542575739748275 13.747262815629153 10.59713733796651 1 0 0
719 240 1 0.5897 -1.5362030460325395 12.577362463665043 11.21092371830862 0 0 0
755 252 1 0.5897 -0.4472957806466673 14.053901421872713 10.002693846306073 0 0 0
728 243 1 0.5897 -3.0675586258465106 11.974347680303232 12.553157865616708 0 0 0
925 309 2 -1.1794 -5.020128524609225 16.39620354519932 14.317191222652232 1 0 0
1003 335 2 -1.1794 -5.428986053316203 16.68895991416311 9.983728980067433 1 0 0
684 228 1 0.5897 -0.15687237217145267 14.84332998407817 14.272023179176633 0 0 0
774 258 1 0.5897 -5.7551853288219785 12.242868571362289 10.205393514217354 1 0 0
754 252 2 -1.1794 -1.230617382695376 13.623568598396016 9.659967270372064 0 0 0
846 282 1 0.5897 0.5151910858717592 17.05732370392781 14.148225395078475 0 0 0
688 230 2 -1.1794 2.011857854475572 12.436833814504892 9.905215259066066 0 0 0
872 291 1 0.5897 -1.9963851233324745 16.778309064829855 11.504694470186 0 0 0
831 277 1 0.5897 -7.80541340114033 12.30112311826822 14.267063288614056 1 0 0
680 227 1 0.5897 -2.420409074707397 14.431184557293694 14.133116591076668 0 0 0
772 258 2 -1.1794 -6.593067254056766 12.621862281018744 10.470826813229586 1 0 0
679 227 2 -1.1794 -3.354858101481887 14.308762553085483 14.30044398258884 0 0 0
930 310 1 0.5897 -7.039194810964613 15.96743968156807 14.303345580309577 1 0 0
265 89 2 -1.1794 -3.8786196848754684 12.065569997430561 9.657868075772347 1 0 0
876 292 1 0.5897 -1.9298165859606575 15.971096215962923 17.258782515343473 0 0 0
730 244 2 -1.1794 -1.2115443897813156 12.110878017164342 16.013699739337113 0 0 0
907 303 2 -1.1794 -5.299738929938356 15.870686495560411 17.91163896601778 0 0 0
731 244 1 0.5897 -1.6066126263198015 11.589869119402948 15.314600688871616 0 0 0
874 292 2 -1.1794 -2.5216264195699525 16.70507104402745 17.09404417646435 0 0 0
251 84 1 0.5897 -4.564428270752036 14.612088995964003 19.205166689274602 0 0 -1
908 303 1 0.5897 -6.044492754474959 15.462361834366444 17.470215775025252 0 0 0
807 269 1 0.5897 -4.879247093480586 11.795592732842136 16.535735419232516 1 0 0
715 239 2 -1.1794 -3.648906490684232 13.000073383322743 17.083329462363672 0 0 0
716 239 1 0.5897 -3.46941813323682 13.400675755512333 17.933981908667576 0 0 0
681 227 1 0.5897 -3.4009969285213115 14.037024880025577 15.217174810668261 0 0 0
927 309 1 0.5897 -4.694854604863386 16.98699194275928 14.996464073657544 1 0 0
732 244 1 0.5897 -0.5384821902216839 11.54141965540216 16.386347893072692 0 0 0
736 246 2 -1.1794 -0.677645639675486 14.678713057303796 17.694433559767834 0 0 0
783 261 1 0.5897 -8.469406423739144 14.160828726755776 17.1176678204405 1 0 0
909 303 1 0.5897 -4.701991922367352 16.109082129102553 17.203008394301605 0 0 0
781 261 2 -1.1794 -7.541289900489975 14.032260852778524 16.922401851998067 1 0 0
782 261 1 0.5897 -7.214714021568866 13.500983732499622 17.648584744495345 1 0 0
737 246 1 0.5897 -0.40494547528151426 15.35539687219942 18.314104793031504 0 0 0
717 239 1 0.5897 -2.8095474961764406 12.62960402112696 16.810625202977263 0 0 0
965 322 1 0.5897 -7.662885807030926 17.08129505590105 16.081396885646864 1 0 0
683 228 1 0.5897 -0.6178398749927903 13.549677968928679 14.909312314839733 0 0 0
830 277 1 0.5897 -7.461341029256658 13.25677053513448 15.389729962335744 1 0 0
185 62 1 0.5897 -0.8861509900928386 13.280004170566366 18.746926972297196 0 0 -1
844 282 2 -1.1794 0.692238684643673 16.34595417450933 14.763741341811404 0 0 0
806 269 1 0.5897 -6.119313836323708 11.836422241480422 15.668357071964278 1 0 0
875 292 1 0.5897 -2.255369094516457 17.040718080351454 16.238014451565075 0 0 0