LAMMPS data file via write_data, version 30 Jul 2021, timestep = 22750000

864 atoms
2 atom types
576 bonds
1 bond types
288 angles
1 angle types

0.6355354201286136 17.572036979850793 xlo xhi
1.8401080475642022 21.78906975242308 ylo yhi
0.7753517281169078 21.43784407187532 zlo zhi

Masses

1 1.00794
2 15.9994

Pair Coeffs # lj/cut/tip4p/long/omp

1 0 0
2 0.21084 3.1668

Bond Coeffs # harmonic/omp

1 450 0.9572

Angle Coeffs # harmonic/omp

1 55 104.52

Atoms # full

314 1 1 0.5897 2.28868706622442 2.5315195532851895 4.288833518398276 3 0 0
315 1 1 0.5897 1.0835944071081554 1.901870072774204 3.623036615562979 3 0 0
490 1 2 -1.1794 1.898542207586295 6.502249644528772 3.1539368936825873 3 7 5
173 1 1 0.5897 2.7704162057113457 5.7069928897475695 1.672975185457262 2 0 -2
491 1 1 0.5897 1.9873117335787944 6.188970349282309 4.054068708574693 3 7 5
172 1 2 -1.1794 3.3686610854242196 5.482074395028089 0.9603873061838475 2 0 -2
313 1 2 -1.1794 1.7284054232891568 2.6011618120203868 3.5158497527526147 3 0 0
247 1 2 -1.1794 2.1997339294460576 5.518397949806179 5.894069298323289 -2 0 1
576 1 1 0.5897 2.4002167871337567 2.784588655670092 7.970342428189966 1 -1 4
575 1 1 0.5897 2.508717786646309 3.8010355453894595 9.087107704620184 1 -1 4
640 1 2 -1.1794 2.6161329027962266 6.068855628738335 9.265518377184614 8 2 -5
641 1 1 0.5897 1.999533055637506 6.606906007521479 8.768961820519467 8 2 -5
187 1 2 -1.1794 4.639448824996599 6.372929898308723 7.3859019784100175 -4 4 3
574 1 2 -1.1794 2.3631897480562847 2.8692502039883143 8.923127073588308 1 -1 4
249 1 1 0.5897 1.4937773174178979 5.26869203709162 6.490394086731695 -2 0 1
413 1 1 0.5897 0.9354397394012058 2.1079284099059286 9.782925631516502 7 -2 4
642 1 1 0.5897 3.4395937213063656 6.139978241566039 8.782681030419733 8 2 -5
320 1 1 0.5897 3.7736191276703472 2.821858309813811 6.0808367257090294 3 0 -4
248 1 1 0.5897 2.794583032333593 6.041023048165765 6.431928937340237 -2 0 1
5 1 1 0.5897 2.81725132883941 6.596176978583962 10.961394272093045 0 -4 -3
319 1 2 -1.1794 2.8176708470731544 2.773159386519878 6.090397670500341 3 0 -4
189 1 1 0.5897 4.801770595416416 5.912293817047552 6.56263959250412 -4 4 3
321 1 1 0.5897 2.5309402100710465 3.6863874187371186 6.098789631868755 3 0 -4
594 1 1 0.5897 4.024967063307598 5.4944566520325795 12.616242154233518 0 -1 -4
227 1 1 0.5897 3.1189798980891963 4.096753432925162 14.343369679417972 4 0 0
592 1 2 -1.1794 4.485784313010137 4.784667442677202 13.06366881213114 0 -1 -4
228 1 1 0.5897 2.3999756925938858 4.132216199315516 15.675191467447794 4 0 0
605 1 1 0.5897 3.0248200590875465 2.095591874065278 15.158555156933916 -2 -5 -2
803 1 1 0.5897 1.7617463461585758 3.7101979264551073 12.669340936891299 6 1 -7
802 1 2 -1.1794 1.3622659401293733 4.412435521664902 12.155971548891866 6 1 -7
562 1 2 -1.1794 4.778600717959797 2.482162195360025 11.767651237847426 1 2 4
226 1 2 -1.1794 2.43839702760853 3.6516121764693366 14.848265217699886 4 0 0
564 1 1 0.5897 4.725439448844211 3.2672847543250705 12.312766015703124 1 2 4
804 1 1 0.5897 1.2368540294650956 5.125758375607832 12.781838750134638 6 1 -7
427 1 2 -1.1794 2.5096495672106247 3.431959740399173 19.98829983123965 -3 -4 0
429 1 1 0.5897 1.5784939875108088 3.3885606920013664 20.20587719313911 -3 -4 0
174 1 1 0.5897 3.483437908057007 6.299849498472487 21.138749453821774 2 0 -3
555 1 1 0.5897 2.168657856233617 4.395616380028853 18.016910657868458 -7 -5 6
428 1 1 0.5897 2.8464748642070985 4.154545544541058 20.518118521992086 -3 -4 0
553 1 2 -1.1794 2.577087399098108 4.84983601724914 17.27992460860171 -7 -5 6
554 1 1 0.5897 3.34791088327591 5.274106821696593 17.65688615432554 -7 -5 6
82 1 2 -1.1794 4.853676789216867 2.326122671902315 17.877923955313214 -5 -4 -1
83 1 1 0.5897 3.96676841629639 2.679992988580972 17.811156873342867 -5 -4 -1
225 1 1 0.5897 1.1465876522476024 5.950780487942364 17.108951722737793 3 -1 -5
611 1 1 0.5897 4.557108984127039 10.938923107153231 5.132306483633787 -2 2 -2
560 1 1 0.5897 4.381573721781482 8.576710819960404 3.1130912211431063 4 2 2
561 1 1 0.5897 3.408434753580143 9.519268841010527 2.4373721469858287 4 2 2
210 1 1 0.5897 1.9259914444236588 9.305498593442323 4.374387000695467 -3 -4 2
559 1 2 -1.1794 3.4710858033674863 8.871044072361286 3.1389051509731805 4 2 2
209 1 1 0.5897 1.2890693639618163 10.222746191056155 5.396632491260614 -3 -4 2
208 1 2 -1.1794 1.4358137353115983 9.298241628886043 5.196544683871501 -3 -4 2
492 1 1 0.5897 2.4443247654594376 7.28781525350758 3.118308321418565 3 7 5
430 1 2 -1.1794 0.71363019699983 9.413486110135647 1.2660635108479164 -10 2 -1
474 1 1 0.5897 4.170535970560648 11.659682778707014 2.1887021168475442 1 3 1
369 1 1 0.5897 3.55567338495028 9.16266752065648 7.655027216349137 4 2 -6
699 1 1 0.5897 2.6608778512088684 10.455685170531952 9.190090450708698 0 3 -1
697 1 2 -1.1794 2.9717601578280903 9.651533925340917 9.605967365462114 0 3 -1
367 1 2 -1.1794 3.790827474021941 8.807410175611018 6.797840488741331 4 2 -5
188 1 1 0.5897 4.410439500706398 7.263879452507054 7.121277589766728 -4 4 3
368 1 1 0.5897 2.9849166378817285 8.865659270505404 6.28462820531946 4 2 -5
698 1 1 0.5897 2.526070605364894 9.631540417664826 10.452857572528977 0 3 -1
384 1 1 0.5897 1.2380559403752116 8.652962615571681 8.088374041519975 -8 -1 -2
382 1 2 -1.1794 0.8219207575904955 7.809713464160763 7.909283437351607 -8 -1 -2
125 1 1 0.5897 4.676826266957019 9.48428952476612 12.57545047846555 2 3 6
124 1 2 -1.1794 4.148558218544947 10.164890228178995 12.992576738397439 2 3 6
6 1 1 0.5897 3.981353585890136 7.42600750142862 11.45963913858786 0 -4 -3
285 1 1 0.5897 2.872341039147591 8.140706742632696 14.765328518630872 7 -3 -7
283 1 2 -1.1794 2.0319383025126156 8.161685202271611 15.22308834686623 7 -3 -7
300 1 1 0.5897 4.011439559690641 11.133985454583962 14.502021169527845 -5 -1 0
142 1 2 -1.1794 1.490719286849158 9.59127490857743 12.024417403803975 -5 -1 3
284 1 1 0.5897 1.5858607383089909 8.93182300019331 14.870679787602036 7 -3 -7
298 1 2 -1.1794 4.019514598900331 11.483097136014655 15.393272203365825 -5 -1 0
299 1 1 0.5897 3.1121097941362663 11.738821135872453 15.55908135675905 -5 -1 0
7 1 2 -1.1794 4.750048223622801 7.70222978306742 14.742812845646839 1 -2 -2
126 1 1 0.5897 3.2588689784813605 10.00476513888403 12.677805760118842 2 3 6
143 1 1 0.5897 0.7480789321595865 9.946496488974681 12.51288703886415 -5 -1 3
144 1 1 0.5897 1.2019273264438666 8.72171916001102 11.74740237128481 -5 -1 3
4 1 2 -1.1794 3.2261344596245305 6.92220592234094 11.76313202309437 0 -4 -3
32 1 1 0.5897 0.7944232713934332 7.0087747017996005 14.298598639591106 4 5 3
758 1 1 0.5897 0.7796459728995941 11.205170238437276 14.485871785794304 4 0 2
656 1 1 0.5897 4.374014732010746 11.81332556201737 11.719121819680831 -1 6 -6
494 1 1 0.5897 1.5204644198457564 9.204044696121667 17.030377031173337 -1 -3 3
75 1 1 0.5897 2.176770351027101 8.609604036990559 20.764510269889428 2 4 3
417 1 1 0.5897 2.354820614495721 11.72809032967708 18.727179111009093 -6 1 1
73 1 2 -1.1794 2.424493840029988 7.891912245461285 20.18155095257871 2 4 3
152 1 1 0.5897 4.017103435512367 7.704063614297878 16.698972459669505 3 -2 -2
240 1 1 0.5897 3.2988697326940577 10.431749506119889 20.72850670012172 -5 -6 0
416 1 1 0.5897 1.797303019289199 10.32297475160641 18.809815125880682 -6 1 1
415 1 2 -1.1794 2.2866381499922066 10.973990112833292 19.3128080602876 -6 1 1
151 1 2 -1.1794 4.095284798578748 8.205121415974999 17.51082242339035 3 -2 -1
153 1 1 0.5897 3.8083266275811436 7.600097145394358 18.194834196894767 3 -2 -1
493 1 2 -1.1794 0.8694986647191563 9.262070536671436 17.729776712815507 -1 -3 3
74 1 1 0.5897 1.6572811410513737 7.31971183163743 20.16593851361511 2 4 3
357 1 1 0.5897 0.8511598205542752 11.510407069817417 21.133067882400383 -4 -1 5
238 1 2 -1.1794 3.9624627028380397 10.28201489658959 21.40192446523612 -5 -6 0
224 1 1 0.5897 0.653793902243869 7.379245472013976 17.20175659085723 3 -1 -5
239 1 1 0.5897 4.794208527675422 10.461211475409849 20.96330740032242 -5 -6 0
57 1 1 0.5897 3.8673128378454056 13.580900679484055 0.8642138405077783 -7 -2 4
739 1 2 -1.1794 3.2118355777804073 15.746965352461906 3.36183188596671 -1 0 7
589 1 2 -1.1794 1.3723915332793146 12.863292627828242 3.2060035442006836 0 11 0
261 1 1 0.5897 2.3072799411763354 12.287543285149622 4.77452045354584 1 1 12
473 1 1 0.5897 3.0857868119131937 12.567644094365914 2.7281481627748105 1 3 1
741 1 1 0.5897 3.621844075215309 15.099918498154834 3.9358506238108295 -1 0 7
782 1 1 0.5897 4.7211628026643995 15.967881433537142 2.4321601368296104 -6 -2 4
106 1 2 -1.1794 1.2338264895640025 15.383542138574903 1.5310686783750196 5 -2 4
619 1 2 -1.1794 0.8904730789696069 16.33561906072882 5.111730430474826 4 -3 2
740 1 1 0.5897 2.5344328128816116 16.152745178599236 3.902878650446773 -1 0 7
107 1 1 0.5897 1.8043016399313654 15.28694089028129 2.293623898871533 5 -2 4
558 1 1 0.5897 4.56684067687687 13.559958720400726 3.961747540297947 0 0 3
591 1 1 0.5897 1.0594051694602917 12.656661886924825 2.3253169951565464 0 11 0
472 1 2 -1.1794 4.012259535477094 12.55511706547335 2.48773698172307 1 3 1
259 1 2 -1.1794 2.8831196981609954 11.821525477302144 5.380735853705886 1 1 12
621 1 1 0.5897 1.2631082249443373 15.95717615190999 5.908114915197709 4 -3 2
196 1 2 -1.1794 2.4178358621647367 14.220373448275025 10.16388328107947 -3 -6 0
170 1 1 0.5897 3.637717785356414 14.897495434514473 7.549888044036275 -6 2 0
169 1 2 -1.1794 4.507505518176069 14.525980728794076 7.402513843658672 -6 2 0
197 1 1 0.5897 2.6357684317882475 15.152255247427217 10.182982585951256 -3 -6 0
24 1 1 0.5897 2.024395342906523 12.671606374880385 8.920543090633975 -3 -1 2
47 1 1 0.5897 1.608168840070065 16.608785548052573 8.088109090765524 4 -2 0
198 1 1 0.5897 3.043173303083886 13.815299174477653 10.764826394013557 -3 -6 0
46 1 2 -1.1794 1.6806980342928148 15.743681855761329 7.684869542023523 4 -2 0
706 1 2 -1.1794 3.173248743655071 16.738702367064782 10.651440343236848 -1 -5 -12
171 1 1 0.5897 4.551107052229003 14.384878966355602 6.456751744200027 -6 2 0
48 1 1 0.5897 1.1215975348801126 15.181345578545075 8.221026408722583 4 -2 0
22 1 2 -1.1794 1.9523915323311 11.930544745988682 8.31895483976109 -3 -1 2
23 1 1 0.5897 1.106938269190465 12.053207535145525 7.887184619808019 -3 -1 2
260 1 1 0.5897 2.620227073799419 12.131234004047743 6.247479797223586 1 1 12
410 1 1 0.5897 2.390403831134204 14.143025642882973 14.003540994616055 7 -2 -9
708 1 1 0.5897 3.758079648057669 16.52962280321159 11.379815043219596 -1 -5 -12
545 1 1 0.5897 2.5770070951796376 12.686748511930107 12.473892864329455 -3 0 3
409 1 2 -1.1794 2.94874446443747 14.78961044176503 14.435333361153042 7 -2 -9
544 1 2 -1.1794 1.771248379394311 12.832423053838951 12.96967222212771 -3 0 3
655 1 2 -1.1794 4.10017821396159 12.70435484933326 11.501440051303314 -1 6 -6
411 1 1 0.5897 2.4943976343066847 15.622423954057048 14.307763145361706 7 -2 -9
798 1 1 0.5897 4.012617593611402 15.32077006445095 13.313229501395082 1 -4 -2
546 1 1 0.5897 1.0698133599840443 12.598703354333976 12.36170310525259 -3 0 3
408 1 1 0.5897 4.705374942977624 14.299372512066082 15.230837309408269 -5 -3 2
796 1 2 -1.1794 4.680443085749246 15.711741378097754 12.749829700305696 1 -4 -2
88 1 2 -1.1794 1.666442707724513 15.572808334386876 17.1888476998472 7 -3 1
356 1 1 0.5897 0.6818064577300798 12.93307131313035 20.64387131645406 -4 -1 5
816 1 1 0.5897 3.1395141868857954 15.861038709457748 20.213372906703142 -5 7 -4
814 1 2 -1.1794 2.9837247514001515 16.73604545611758 19.857908376129885 -5 7 -4
90 1 1 0.5897 1.1458970984507992 15.502615743675543 16.38861887963853 7 -3 1
55 1 2 -1.1794 4.07710455791141 13.970914815692456 20.67808787989479 -7 -2 3
56 1 1 0.5897 3.8583589020639324 13.290986411680633 20.040818260597348 -7 -2 3
322 1 2 -1.1794 4.2840084971509365 12.721162116113256 17.94931834624608 8 -6 -3
678 1 1 0.5897 4.43022254396312 14.759676596345614 17.791772321930836 -3 0 -6
848 1 1 0.5897 0.7363568806304619 12.239529016326099 16.941892736843123 9 -3 5
257 1 1 0.5897 0.7677934452194863 14.754177796975771 18.654132462341437 -6 4 -1
815 1 1 0.5897 3.2707099190880156 16.67942113435155 18.946466490555224 -5 7 -4
324 1 1 0.5897 3.7238931956515082 12.348404863586396 17.268412356742232 8 -6 -3
89 1 1 0.5897 2.544320041317641 15.803193249518095 16.884658219932774 7 -3 1
676 1 2 -1.1794 4.569717396877195 15.65951043073525 17.49663216291085 -3 0 -6
849 1 1 0.5897 1.6493926735429825 13.444828065687654 17.016750074607927 9 -3 5
847 1 2 -1.1794 1.6188710111354223 12.535661310864189 16.718849171437576 9 -3 5
684 1 1 0.5897 3.339403054085743 19.645897312323093 3.9273469181810277 6 -1 -5
682 1 2 -1.1794 2.7939283034810023 18.861147446775547 3.981335302627616 6 -1 -5
648 1 1 0.5897 1.703660342017467 18.95219448037448 5.191347156523198 -5 -2 -2
567 1 1 0.5897 2.5573135664043787 21.455572404596822 1.9678096933133056 -2 3 -9
777 1 1 0.5897 4.283883169851482 18.012674805087677 5.287036368860418 4 -3 2
683 1 1 0.5897 2.4543192677673265 18.74345694649076 3.0941571797264062 6 -1 -5
565 1 2 -1.1794 2.920360719096972 21.06764198969391 1.1715879635591195 -2 3 -9
790 1 2 -1.1794 2.303021612295993 18.14002985432665 1.4088087791262973 0 2 -1
792 1 1 0.5897 1.4535830976592046 17.733491997129867 1.5804112648098316 0 2 -1
639 1 1 0.5897 4.438579047017171 19.00724288138825 1.897642123034695 -10 -4 5
647 1 1 0.5897 0.6881517921527425 18.007159358680376 5.797759486031568 -5 -2 -2
775 1 2 -1.1794 4.722520421039732 17.594285577118985 6.027861668084667 4 -3 2
115 1 2 -1.1794 3.000376504738193 20.152783426961477 9.811175916904624 -1 -4 5
117 1 1 0.5897 2.8514683786286437 21.02413660051476 9.443959999860084 -1 -4 5
235 1 2 -1.1794 1.452163266267526 18.14167208070924 8.628384088405447 -3 -3 -4
116 1 1 0.5897 2.429335909959376 19.577146997555488 9.302420362486108 -1 -4 5
812 1 1 0.5897 4.699590909037029 20.120117014169438 9.729396403708746 -1 4 -3
237 1 1 0.5897 1.4736007666965099 18.547740299950597 7.761807601799762 -3 -3 -4
646 1 2 -1.1794 1.1218198747848804 18.847885737684308 5.944258848034701 -5 -2 -2
158 1 1 0.5897 4.801340050808503 17.6705834078695 7.750473581036966 3 1 0
707 1 1 0.5897 3.7589993183096464 16.99896881355945 9.940474789841414 -1 -5 -12
606 1 1 0.5897 4.1399055921452135 21.023924256520367 15.07550271937424 -2 -6 -2
438 1 1 0.5897 2.8983978951863683 18.278505157609956 11.481280393262661 -1 6 4
436 1 2 -1.1794 2.788117827326666 18.694407726571917 12.336348525636254 -1 6 4
27 1 1 0.5897 3.4613906978835183 17.567791367246663 15.251702981082827 1 7 7
26 1 1 0.5897 2.7366347615374784 17.942021501959815 13.976297097317488 1 7 7
25 1 2 -1.1794 2.6210147359603284 17.473814923630343 14.80315077233906 1 7 7
437 1 1 0.5897 2.876519504367295 19.631222186967648 12.160731465124346 -1 6 4
326 1 1 0.5897 2.5572789982057778 21.420122783761606 13.464133606782445 3 1 -4
604 1 2 -1.1794 3.189370608717659 21.101582906666202 15.157529860757656 -2 -6 -2
380 1 1 0.5897 1.2116409007841726 18.395566389271096 15.984343542160294 10 2 3
92 1 1 0.5897 4.770351928305749 18.341418203949715 12.779584949894526 -1 -6 6
325 1 2 -1.1794 2.281121246122895 21.54313581460005 12.555908586911038 3 1 -4
636 1 1 0.5897 1.1458031852519628 16.882141780343304 11.176477962402776 -10 3 -2
327 1 1 0.5897 3.0913606943398566 21.73075853538525 12.082020064310754 3 1 -4
164 1 1 0.5897 0.6542303691063509 20.273334823406337 12.963870000080984 5 1 0
405 1 1 0.5897 1.5977227551316884 20.91552903432875 18.14858406484238 1 -8 -2
643 1 2 -1.1794 1.1822088452220836 19.509023327374656 19.61251630652408 4 0 2
845 1 1 0.5897 4.4080702722152605 20.505189311591252 19.204207346665918 2 -1 1
662 1 1 0.5897 3.6441998545107506 18.828373931593212 18.245532225768777 1 -6 -2
661 1 2 -1.1794 3.4089089240114423 18.338652936747614 17.45744646474848 1 -6 -2
663 1 1 0.5897 2.5553112918877723 18.689206931533363 17.20296047272064 1 -6 -2
846 1 1 0.5897 3.7838734941740424 20.244105608572333 20.558532343190635 2 -1 1
844 1 2 -1.1794 4.169688683833688 19.798537592289094 19.80427573286365 2 -1 1
404 1 1 0.5897 2.2028815149641128 21.32134584157655 16.821521070394077 1 -8 -2
273 1 1 0.5897 1.0911385885129388 16.81300785256976 19.570287674925588 -1 -1 0
379 1 2 -1.1794 0.8914909576020011 18.964203823067642 16.684640957092387 10 2 3
403 1 2 -1.1794 1.8179238712865897 21.682618494176367 17.61999345317706 1 -8 -2
645 1 1 0.5897 2.0601301349291345 19.405160481933194 19.979599717791857 4 0 2
644 1 1 0.5897 0.8180874124416526 18.623783409287135 19.607097362563948 4 0 2
791 1 1 0.5897 2.683443067958173 17.613473241040232 21.368238543066646 0 2 -2
566 1 1 0.5897 2.91628947606417 21.781209042956764 21.196053564219078 -2 3 -10
578 1 1 0.5897 5.241231976186034 3.519027672753576 2.7357921098788074 6 5 -5
135 1 1 0.5897 6.522635009687362 5.375675662211208 5.376529942518642 -2 -5 2
393 1 1 0.5897 5.407432151293051 5.107637677911989 1.2223068807849307 5 3 1
276 1 1 0.5897 7.099968835364928 2.717505751402036 3.166756770936241 1 6 1
391 1 2 -1.1794 6.1151017583454985 4.46902199338643 1.3096961180833222 5 3 1
12 1 1 0.5897 7.842064062200273 5.071201981430777 1.5731751301014922 -1 -2 3
274 1 2 -1.1794 7.789327654775853 2.113209353746123 2.8912875426547933 1 6 1
10 1 2 -1.1794 8.616441747663416 5.62815681484364 1.4930704632986382 -1 -2 3
133 1 2 -1.1794 5.651935079253393 5.561628440583927 5.024978539676875 -2 -5 2
579 1 1 0.5897 4.984174399368548 4.073005891243092 4.121099613306093 6 5 -5
577 1 2 -1.1794 5.192121448409678 3.26226178154267 3.6566289048433007 6 5 -5
134 1 1 0.5897 5.787667449278232 6.292457737946418 4.421870317076477 -2 -5 2
149 1 1 0.5897 8.174325172807734 5.316722654926908 7.365136994272162 0 -6 3
772 1 2 -1.1794 8.092619732618072 2.5708943944132265 8.78964228698258 5 1 2
154 1 2 -1.1794 5.606858469821777 2.9645977541838446 6.6416335218889815 6 3 -2
156 1 1 0.5897 6.458235350252413 3.3996812621842345 6.59546635938917 6 3 -2
87 1 1 0.5897 7.428325032132648 6.203950461740719 9.616817848497792 1 6 0
86 1 1 0.5897 6.233198438158216 5.285626281498585 9.759382854964697 1 6 0
155 1 1 0.5897 5.812572417633876 2.030381352347643 6.607067721714596 6 3 -2
489 1 1 0.5897 5.164966510730488 3.703726538123635 8.443706049308457 0 -11 -1
487 1 2 -1.1794 5.6278882683289835 3.6851668737900978 9.281360471346966 0 -11 -1
85 1 2 -1.1794 6.70444492697604 5.98946523087331 10.205266748560586 1 6 0
773 1 1 0.5897 7.197235254355148 2.8014276590607317 9.037460041920001 5 1 2
488 1 1 0.5897 5.035185095532109 3.2214236549675705 9.872896687640182 0 -11 -1
148 1 2 -1.1794 7.76093461533666 4.965595623390741 6.576414719016755 0 -6 3
150 1 1 0.5897 8.492997825667818 4.704252475515247 6.017804866682736 0 -6 3
377 1 1 0.5897 7.4721589877289105 2.2019948862490373 11.566254458139806 3 2 2
184 1 2 -1.1794 6.861884794216083 5.9124193659706314 14.396916790568481 -3 9 3
626 1 1 0.5897 6.080242201195023 2.932037003744833 15.16658755511257 2 -4 1
104 1 1 0.5897 7.434871361573327 4.706650670883679 11.316985489904896 7 1 7
105 1 1 0.5897 8.265873402947577 4.317057398273256 12.520996712204566 7 1 7
625 1 2 -1.1794 6.575909990199235 3.173311615560208 15.949123295961535 2 -4 1
563 1 1 0.5897 5.690204701242823 2.1996946445092465 11.842087299284268 1 2 4
103 1 2 -1.1794 7.740401821376668 3.946412444344687 11.811936513526902 7 1 7
593 1 1 0.5897 5.189457788705486 5.220790202369973 13.544218486689886 0 -1 -4
186 1 1 0.5897 7.1391160134612415 5.958591846598233 15.311943526398734 -3 9 3
176 1 1 0.5897 8.211452907442206 2.1199320384780505 15.766390694163414 7 -1 3
185 1 1 0.5897 7.315724881119016 6.6400429483843215 13.971637662616395 -3 9 3
337 1 2 -1.1794 8.422151593819933 6.681902210205784 19.576405226243367 -1 3 2
392 1 1 0.5897 6.275311413783878 4.164604385918503 21.078903323037956 5 3 0
462 1 1 0.5897 8.424388423808281 5.703742255364264 16.629495103487955 7 2 -1
760 1 2 -1.1794 5.0241892021648695 5.71995602760955 18.577552896694797 3 -3 -1
461 1 1 0.5897 7.343481259600176 4.648326098905304 16.728356082310533 7 2 -1
762 1 1 0.5897 5.716449205464496 5.706268510303519 17.916591931947472 3 -3 -1
761 1 1 0.5897 5.368273968011471 6.279393962865816 19.273901743773244 3 -3 -1
527 1 1 0.5897 7.519561401974794 3.0570758468266934 19.163281008035703 -3 -6 2
526 1 2 -1.1794 6.693171820306851 3.2124006660932904 19.620718583821017 -3 -6 2
460 1 2 -1.1794 7.5708194624754315 5.529227314741267 17.026046586624354 7 2 -1
627 1 1 0.5897 6.054128237210282 2.835865030045066 16.677236589250825 2 -4 1
528 1 1 0.5897 6.618130591567021 2.4823022000707637 20.23521870716725 -3 -6 2
84 1 1 0.5897 5.311225999551185 2.933379400887755 18.45943969773716 -5 -4 -1
277 1 2 -1.1794 8.903788449752405 2.318737925260617 18.507389215212953 -5 0 -2
11 1 1 0.5897 8.60464788852456 5.926203084796632 21.24600190515398 -1 -2 2
278 1 1 0.5897 8.962269122136322 1.924553868549303 17.63706749332399 -5 0 -2
160 1 2 -1.1794 7.095345578710743 10.907546427658545 3.077412345123179 0 9 2
162 1 1 0.5897 7.975109021045289 10.692010796031955 3.3870461302171897 0 9 2
771 1 1 0.5897 6.529200517735626 8.137770755490843 3.230332802705693 3 2 1
679 1 2 -1.1794 8.65577036355013 8.500307392145587 5.313284723383756 -12 -6 -1
769 1 2 -1.1794 5.745259854435492 7.608413642807901 3.0835603697243514 3 2 1
161 1 1 0.5897 6.510779643773876 10.414986997126944 3.6535564833009704 0 9 2
770 1 1 0.5897 5.713504790349668 7.484493317747951 2.1349316235716813 3 2 1
860 1 1 0.5897 6.873757090993979 10.875150607044494 1.2485199454640794 -7 0 3
610 1 2 -1.1794 5.34545423138812 10.396502627737187 5.108341814140371 -2 2 -2
737 1 1 0.5897 8.649330410334455 8.212188168143037 3.4004323651087276 4 -4 2
738 1 1 0.5897 8.617721368642787 7.394892334859898 2.126444772177802 4 -4 2
681 1 1 0.5897 8.961576788106434 9.271692585499746 5.790473742693561 -12 -6 -1
736 1 2 -1.1794 8.4699701324086 8.278910018820017 2.462514504161752 4 -4 2
612 1 1 0.5897 5.141170378690549 9.651123448289034 5.673107360396715 -2 2 -2
680 1 1 0.5897 7.858965006116277 8.234444083505862 5.772285231955326 -12 -6 -1
704 1 1 0.5897 6.37774560430071 7.292279156526714 7.698514292297223 7 2 -3
702 1 1 0.5897 8.916920365498282 11.165330613972426 7.160724079923103 6 -1 -1
703 1 2 -1.1794 7.007343946080841 7.976596406197516 7.471391750123597 7 2 -3
824 1 1 0.5897 7.012860081090714 10.580509367117145 9.864079103939147 3 -2 6
705 1 1 0.5897 6.768442654038932 8.717123477345206 8.028892256371083 7 2 -3
363 1 1 0.5897 8.87071264777352 8.408510766425554 9.055969579202218 4 0 -5
823 1 2 -1.1794 6.347836957818772 10.006441104043747 9.484009241556995 3 -2 6
212 1 1 0.5897 5.662400082924402 8.735509424518781 10.55581286233524 2 -4 4
825 1 1 0.5897 5.843797371312249 10.575388771023801 8.902134806090134 3 -2 6
213 1 1 0.5897 6.015276147450598 7.367953084205678 11.101065426135698 2 -4 4
524 1 1 0.5897 5.558411544385983 11.373109686100793 6.593254618573069 1 -3 -1
523 1 2 -1.1794 5.413009862774607 11.686103675738385 7.486113965380136 1 -3 -1
371 1 1 0.5897 7.8022844845530335 11.248644383233257 11.91174772430555 -4 6 -3
8 1 1 0.5897 5.012177180156095 8.619963159200077 14.669904258032757 1 -2 -2
211 1 2 -1.1794 5.540516823679364 8.17017740621851 11.318588892497411 2 -4 4
581 1 1 0.5897 5.785606853491155 10.5192439992073 15.352904845619573 -3 -1 3
582 1 1 0.5897 6.753911934320054 10.384128909382758 14.196994935640781 -3 -1 3
372 1 1 0.5897 8.330157652638585 11.331391555573427 13.328248448976362 -4 6 -3
722 1 1 0.5897 7.575775135333787 8.404386139126238 12.843326463320496 7 -4 -1
580 1 2 -1.1794 6.39695487895914 9.905727888238596 14.945318264770076 -3 -1 3
370 1 2 -1.1794 7.877252015180358 10.74494465748864 12.722260416531132 -4 6 -3
113 1 1 0.5897 8.035195641221774 9.166493902996308 15.459570556381996 -4 -4 2
721 1 2 -1.1794 8.234558153241583 7.8506024384076145 13.26236508584585 7 -4 -1
112 1 2 -1.1794 8.684073366439028 8.75262400450956 16.02872204054048 -4 -4 2
9 1 1 0.5897 5.57133783135142 7.213218347011964 14.69101188307519 1 -2 -2
723 1 1 0.5897 8.939773552806981 8.453288648494791 13.498376642042073 7 -4 -1
835 1 2 -1.1794 6.789302677596799 8.511013219624566 18.123212803874793 2 3 0
338 1 1 0.5897 9.097783098078054 7.336466755394151 19.399406751984294 -1 3 2
318 1 1 0.5897 6.786250640480251 7.639371927767742 20.987850888002328 -4 -2 0
654 1 1 0.5897 8.520916316496834 10.138710400742738 20.854311075966002 -5 0 2
837 1 1 0.5897 5.91272957480045 8.330789835380738 17.783489742272657 2 3 0
215 1 1 0.5897 6.263033072527146 10.320509886858648 18.095834728498197 0 3 4
861 1 1 0.5897 6.664492922218222 11.677386447248866 20.64426899915007 -7 0 2
214 1 2 -1.1794 6.459030774376386 11.211897140523536 17.807261997374205 0 3 4
836 1 1 0.5897 7.358672889180014 8.464030673579064 17.355146769770528 2 3 0
316 1 2 -1.1794 5.835443877810505 7.563958007890093 21.06885332369611 -4 -2 0
317 1 1 0.5897 5.51038222265021 8.451061938703791 20.915084468382545 -4 -2 -1
859 1 2 -1.1794 6.60233669343689 10.789723302933403 20.997061573796465 -7 0 2
216 1 1 0.5897 6.662266391334228 11.68597236225388 18.613629083841587 0 3 4
339 1 1 0.5897 7.707836713858304 6.907057615758147 18.980304550966366 -1 3 2
819 1 1 0.5897 7.885460965380415 14.377402260411158 3.0978606123607264 9 -1 2
783 1 1 0.5897 6.071113670506838 15.50315926293536 1.9285323627646471 -6 -2 4
818 1 1 0.5897 8.084578222594306 13.845400187127241 1.6945209925271014 9 0 2
505 1 2 -1.1794 7.454072176924626 13.167437502479437 4.772403282737962 -1 4 -3
817 1 2 -1.1794 7.759513592197909 14.605661609671063 2.1768222347769104 9 0 2
549 1 1 0.5897 8.535482491767059 16.121778137168384 4.33017418667111 2 1 4
507 1 1 0.5897 8.060432345224154 13.0722388565816 5.50694237574617 -1 4 -3
781 1 2 -1.1794 5.488940354236158 16.26285857178243 1.9424891604456216 -6 -2 4
557 1 1 0.5897 5.835004706156767 13.67833904707951 4.780128217777881 0 0 3
672 1 1 0.5897 8.528656185576779 15.970337176216825 1.4731547647068324 16 4 2
506 1 1 0.5897 7.669265179485723 12.440640556259417 4.18779182798831 -1 4 -3
670 1 2 -1.1794 9.089725711595316 16.623445823743715 1.054908162036368 16 4 2
556 1 2 -1.1794 4.918932617799896 13.955201235478429 4.759300333771838 0 0 3
425 1 1 0.5897 6.860222035593954 15.983693198645755 5.643369240929927 10 -1 1
336 1 1 0.5897 8.694145355110177 12.238309757997953 10.35783731618021 8 -2 7
424 1 2 -1.1794 6.968430174283998 15.818498305558435 6.580026901723634 10 -1 1
471 1 1 0.5897 8.645631902181757 13.555842457419278 8.04139545439553 5 -7 6
826 1 2 -1.1794 6.107908107297791 14.189253147672892 9.646143211351355 6 4 1
469 1 2 -1.1794 8.194960560751433 12.858651188968508 7.564865221009429 5 -7 6
426 1 1 0.5897 6.135251816035669 15.43496935570563 6.85390240079476 10 -2 1
827 1 1 0.5897 5.405291130416887 14.394533940043592 9.029314514411778 6 4 1
335 1 1 0.5897 7.398809683472082 13.015203325048558 10.460790778169056 8 -2 7
470 1 1 0.5897 7.332868190779217 12.804497558647444 7.977331696292708 5 -7 6
828 1 1 0.5897 6.607252286249756 15.002524146987241 9.720448766233492 6 4 1
63 1 1 0.5897 8.42678707200638 15.342886790315095 7.776895857321299 -1 2 6
481 1 2 -1.1794 7.247513411214676 16.61027139249192 9.596878435630748 -4 1 1
334 1 2 -1.1794 7.752744538954325 12.126284121835145 10.490141799149399 8 -2 7
525 1 1 0.5897 4.87009145195647 12.467430114895476 7.3810940520666986 1 -3 -1
531 1 1 0.5897 6.788771462050023 13.907587252590874 13.57604438722956 -2 1 -6
406 1 2 -1.1794 5.505044244995198 13.774796070197748 15.271603796547105 -5 -3 2
529 1 2 -1.1794 6.944101259067178 14.13835364011687 12.660137192981013 -2 1 -6
123 1 1 0.5897 8.8758427148687 16.777661671861356 12.737565376698637 -1 0 5
686 1 1 0.5897 7.070053961872636 13.434481401237338 16.17984215429935 3 -6 -6
36 1 1 0.5897 5.441100312245554 16.643988751146374 14.492079414538381 -7 2 -1
657 1 1 0.5897 4.911388352277629 13.153315537836795 11.263447091455639 0 6 -6
530 1 1 0.5897 7.775522130994644 14.612602596099109 12.669816887760721 -2 1 -6
797 1 1 0.5897 5.3448741094341585 15.029095253556882 12.655924109101198 1 -4 -2
407 1 1 0.5897 5.196490364831661 12.874309998910816 15.37273196371539 -5 -3 2
600 1 1 0.5897 8.990670356739733 12.170585466188566 15.307920118659544 -2 -5 -6
35 1 1 0.5897 5.1169825109038305 16.467950434431238 15.9603937582015 -7 2 -1
687 1 1 0.5897 7.827613608238011 12.380781165213408 16.959471928660278 3 -6 -6
552 1 1 0.5897 5.952153339505767 13.618574852161847 20.005823662800672 2 14 -6
551 1 1 0.5897 7.29357902167209 13.924127800133048 19.37400890700185 2 14 -6
15 1 1 0.5897 5.458286827652157 16.38340633102677 20.51126330912134 0 -6 -3
550 1 2 -1.1794 6.729314942579446 13.197517259142636 19.63840244255958 2 14 -6
571 1 2 -1.1794 8.252990124572491 15.38901459355258 19.235641179514452 0 -4 -1
13 1 2 -1.1794 5.879141461665705 16.634948804965617 19.689149860312014 0 -6 -3
14 1 1 0.5897 6.678095418492888 16.10869050601855 19.65770253662464 0 -6 -3
572 1 1 0.5897 8.954098704946363 14.980106728427195 18.728192528627233 0 -4 -1
573 1 1 0.5897 8.705115994399073 15.845361826773992 19.945283958895047 0 -4 -1
323 1 1 0.5897 5.112288597342223 12.24903737163767 17.863806340402533 8 -6 -3
685 1 2 -1.1794 7.9483334333733655 13.200456741907724 16.480069906821953 3 -6 -6
677 1 1 0.5897 5.060570815617527 16.0718648466396 18.20746952878057 -3 0 -6
513 1 1 0.5897 4.999717941421395 21.410987089059063 4.115285544499015 -1 4 -6
511 1 2 -1.1794 4.964528039619404 20.495253968796753 4.3918227732280295 -1 4 -6
111 1 1 0.5897 8.403960200123272 20.0163645759201 5.052228460068533 -2 -2 -7
747 1 1 0.5897 7.31519184335335 17.924233562807558 4.135775899163268 3 2 -5
512 1 1 0.5897 5.442788023897044 20.020692163580442 3.7118766945532795 -1 4 -6
515 1 1 0.5897 6.9664097363641675 21.317298641216688 1.6136630807477077 -5 0 -2
516 1 1 0.5897 6.028085287629974 20.422068823640494 0.832582791754085 -5 0 -2
109 1 2 -1.1794 8.13024011219935 19.526246420812924 4.276892024288012 -2 -2 -7
110 1 1 0.5897 8.941747739783812 19.367045989191332 3.794763081168162 -2 -2 -7
637 1 2 -1.1794 5.377712627574744 18.94812017810591 2.0731954070598504 -10 -4 5