#include		in.partitions
include		in.temp
variable        temperature equal 283.72
variable	tempDamp equal 100.0
include		in.pressure
variable        pressure equal 11500.0
variable        pressureDamp equal 1000.0 # This is 1 ps
include		in.seed
variable        seed equal 745823

units		real
atom_style	full
read_restart	restart.lmp.${pid}
read_restart	restart.lmp.0
Reading restart file ...
  restart file = 30 Jul 2021, LAMMPS = 30 Jul 2021
  restoring atom style full from restart
  orthogonal box = (-0.099149878 -0.11902018 -0.049338878) to (24.829151 24.849021 22.859339)
  4 by 4 by 2 MPI processor grid
  restoring pair style lj/cut/tip4p/long/omp from restart
  restoring bond style harmonic/omp from restart
  restoring angle style harmonic/omp from restart
  1920 atoms
  1280 bonds
  640 angles
Finding 1-2 1-3 1-4 neighbors ...
  special bond factors lj:    0        0        0       
  special bond factors coul:  0        0        0       
     2 = max # of 1-2 neighbors
     1 = max # of 1-3 neighbors
     1 = max # of 1-4 neighbors
     2 = max # of special neighbors
  special bonds CPU = 0.002 seconds
  read_restart CPU = 0.009 seconds
include 	in.setup
variable	out_freq equal 1000
variable	out_freq2 equal 10000
variable	out_freq3 equal 1000

timestep	2.0

neigh_modify    delay 7 every 1

include		in.tip4p
# This is TIP4P/Ice

# create groups ###
group ox type 2
640 atoms in group ox
group hy type 1
1280 atoms in group hy

# set charges - beside manually ###
set group ox charge -1.1794
Setting atom values ...
  640 settings made for charge
set group hy charge 0.5897
Setting atom values ...
  1280 settings made for charge

# ### TIP3P Potential Parameters ###
pair_style lj/cut/tip4p/long/omp 2 1 1 1 0.1577 8.5
pair_coeff 1 1*2 0.000 0.000
pair_coeff 2 2 0.21084 3.1668
bond_style  harmonic
bond_coeff  1 450 0.9572
angle_style harmonic
angle_coeff 1 55 104.52
kspace_style pppm/tip4p/omp 1.0e-5
pair_modify tail yes

thermo          ${out_freq}
thermo          1000
thermo_style    custom step temp pe etotal epair emol press lx ly lz vol pxx pyy pzz pxy pxz pyz enthalpy

restart 	${out_freq3} restart.lmp.${pid} restart2.lmp.${pid}
restart 	1000 restart.lmp.${pid} restart2.lmp.${pid}
restart 	1000 restart.lmp.0 restart2.lmp.${pid}
restart 	1000 restart.lmp.0 restart2.lmp.0


include         in.dump
dump            myDump all atom ${out_freq2} dump.water.${pid}
dump            myDump all atom 10000 dump.water.${pid}
dump            myDump all atom 10000 dump.water.0
dump            myDump2 all dcd ${out_freq2} dump.dcd
dump            myDump2 all dcd 10000 dump.dcd
dump_modify     myDump append yes
dump_modify     myDump2 append yes


variable natoms 	equal  "count(all)"                        # NUMBER ATOMS
variable H      	equal  "enthalpy/v_natoms"                 # ENTHALPY-per-atom
variable Vol      	equal  "vol/v_natoms"                 # volume-per-atom
fix AVG all 		ave/time ${out_freq} 1 ${out_freq} v_Vol v_H file vol_enthalpy.dat
fix AVG all 		ave/time 1000 1 ${out_freq} v_Vol v_H file vol_enthalpy.dat
fix AVG all 		ave/time 1000 1 1000 v_Vol v_H file vol_enthalpy.dat




fix 		1 all shake 1e-6 200 0 b 1 a 1
       0 = # of size 2 clusters
       0 = # of size 3 clusters
       0 = # of size 4 clusters
     640 = # of frozen angles
  find clusters CPU = 0.001 seconds
fix             2 all nph aniso ${pressure} ${pressure} ${pressureDamp}
fix             2 all nph aniso 11500 ${pressure} ${pressureDamp}
fix             2 all nph aniso 11500 11500 ${pressureDamp}
fix             2 all nph aniso 11500 11500 1000
fix             3 all temp/csvr ${temperature} ${temperature} ${tempDamp} ${seed}
fix             3 all temp/csvr 283.72 ${temperature} ${tempDamp} ${seed}
fix             3 all temp/csvr 283.72 283.72 ${tempDamp} ${seed}
fix             3 all temp/csvr 283.72 283.72 100 ${seed}
fix             3 all temp/csvr 283.72 283.72 100 745823


run             250000
PPPM initialization ...
  extracting TIP4P info from pair style
  using 12-bit tables for long-range coulomb (../kspace.cpp:340)
  G vector (1/distance) = 0.37447861
  grid = 30 30 30
  stencil order = 5
  estimated absolute RMS force accuracy = 0.0032703908
  estimated relative force accuracy = 9.8486848e-06
  using double precision FFTW3
  3d grid and FFT values/proc = 5400 960
Last active /omp style is kspace_style pppm/tip4p/omp
Neighbor list info ...
  update every 1 steps, delay 7 steps, check yes
  max neighbors/atom: 2000, page size: 100000
  master list distance cutoff = 10.8154
  ghost atom cutoff = 10.8154
  binsize = 5.4077, bins = 5 5 5
  1 neighbor lists, perpetual/occasional/extra = 1 0 0
  (1) pair lj/cut/tip4p/long/omp, perpetual
      attributes: half, newton on, omp
      pair build: half/bin/newton/omp
      stencil: half/bin/3d
      bin: standard
Per MPI rank memory allocation (min/avg/max) = 10.54 | 10.55 | 10.55 Mbytes
Step Temp PotEng TotEng E_pair E_mol Press Lx Ly Lz Volume Pxx Pyy Pzz Pxy Pxz Pyz Enthalpy 
 6250000    288.07981   -8989.4701   -7891.1785   -8989.4701            0    11458.763    24.928301    24.968041    22.908678    14258.609    11291.718    11601.048    11483.522    689.19558   -632.07523   -620.35783   -5508.3609 
 6251000    284.42806   -9019.1667   -7934.7972   -9019.1667            0    12212.288    24.830362    24.726572     23.14449    14210.016    12714.055    13248.065    10674.744   -1015.7072    1054.7351   -471.46675   -5403.9408 
 6252000    283.51199   -9007.3723   -7926.4953   -9007.3723            0    10933.814    24.946512    24.940366    22.900029    14247.829    10790.174    10508.081    11503.187   -476.22601   -443.08584    480.02363   -5654.5584 
 6253000    291.63936   -9027.7093   -7915.8471   -9027.7093            0    11511.152    24.852476    24.921863    22.934694    14205.061    10916.163    12129.646    11487.647    722.65651    272.02478    552.54296   -5531.1249 
 6254000    273.25554   -9013.6583   -7971.8835   -9013.6583            0    11361.664    24.891086    24.884208    22.986629    14237.802     11154.11    11745.001    11185.881    815.38068   -345.76893    48.801975   -5612.7051 
 6255000     284.2872     -9002.73   -7918.8976     -9002.73            0    10069.794    24.999206    25.084344    22.805591    14301.128    9881.5719    9390.9354    10936.874   -897.00592   -1072.5452    1260.9703    -5818.668 
 6256000     295.4812   -9013.9678   -7887.4587   -9013.9678            0    11079.277    24.805256    24.926822    23.037692    14244.579    10937.359    11670.094    10630.377   -258.72811   -260.22974    827.26402   -5585.8213 
 6257000    274.94499   -8994.6542   -7946.4385   -8994.6542            0    11410.194    24.837772     25.05199    22.896708    14247.147    13780.013    10038.291    10412.278   -454.58973    -716.9616    558.26235   -5575.6281 
 6258000    284.45886   -9040.4869        -7956   -9040.4869            0    11596.525    24.791318    24.976648    22.997541     14240.17    12312.435    10637.286    11839.852   -72.682998   -247.26668   -240.90162   -5547.6538 
 6259000    285.46862   -8974.9618   -7886.6253   -8974.9618            0      11846.1    24.894414    24.932824    22.967955    14255.934    11559.523    11471.099    12507.677   -201.65162    180.31789    329.15462   -5423.7242 
 6260000    288.40858   -9004.6587   -7905.1137   -9004.6587            0    12248.963    24.933527    24.987315    22.850224     14236.19    11542.798    11582.768    13621.323   -1120.5717    257.47518    855.26791   -5361.9811 
 6261000    278.52699    -9008.987   -7947.1151    -9008.987            0    11071.873    24.813045    25.005105    22.979214    14257.518    12895.005    10949.852    9370.7614    589.50928    167.39906   -551.44267   -5644.9265 
 6262000     283.8676   -8966.1198   -7883.8871   -8966.1198            0    9777.2251    24.909847    25.077202    22.912621     14312.81    11000.277    8365.0524    9966.3462   -86.128636    -945.9307    891.76615   -5843.0121 
 6263000    275.50673   -8952.3875   -7902.0302   -8952.3875            0    11023.406      24.9499    24.859947    23.045116    14293.806    11842.097    10437.345    10790.777     287.7925   -868.75456   -540.00913   -5604.0855 
 6264000    273.34998    -9026.843   -7984.7082    -9026.843            0    11080.033    25.091696    24.930535    22.772286     14245.19    8917.0232    12063.461    12259.614   -154.68008    528.09466    51.534404   -5682.8149 
 6265000    281.08206    -9001.625    -7930.012    -9001.625            0    12098.556    24.883391    24.832103    23.014653    14220.914    10732.007    12916.962      12646.7    619.96601    1089.5565    7.9346892   -5420.8024 
 6266000    287.81818   -9013.3251    -7916.031   -9013.3251            0    11850.571     24.89166    25.007355    22.839081    14216.747     12061.77    11575.173     11914.77    624.45818   -538.78963    475.01891    -5458.973 
 6267000    283.86497   -8991.2692   -7909.0465   -8991.2692            0     12283.23    24.922844    24.947869    22.847953    14206.214    12707.854    11828.758    12313.079   -1321.6839     573.1924   -108.72153   -5364.1692 
 6268000    280.61203   -9028.3553   -7958.5342   -9028.3553            0     11730.22    24.813147    24.822967    23.076309    14213.528    11693.391    12625.105    10872.163    85.654378     1196.461   -494.56395   -5526.9802 
 6269000    283.18024   -9023.0309   -7943.4187   -9023.0309            0    11360.423    25.034973    24.884634    22.831487      14223.7    11153.299    11605.877    11322.094    494.11844   -243.64802    -951.6122   -5586.8343 
 6270000    281.29567   -9037.7549   -7965.3275   -9037.7549            0    10337.459    25.020072    24.804197    23.004447    14276.624    10082.394    11700.629    9229.3542    110.95592   -594.88224   -644.43818   -5812.9661 
 6271000    285.32689   -9042.2707   -7954.4745   -9042.2707            0    10322.721    24.910705    24.890905    22.992897    14256.746    10757.383    10835.961    9374.8207    153.32318    -470.4264   -1116.0248   -5808.1741 
 6272000    285.18586    -8991.388   -7904.1295    -8991.388            0    10491.966    25.003201    25.160508    22.763922    14320.629     9263.833    9781.3493    12430.717    22.533276   -335.34971    383.19505   -5712.8646 
 6273000    270.97403   -9017.4392   -7984.3626   -9017.4392            0    12137.338    24.768472    24.910374    23.060435    14228.102    13644.206    11131.453    11636.356   -505.73246    207.14911   -397.50858   -5465.8374 
 6274000    284.91861   -8960.8401   -7874.6004   -8960.8401            0    10064.989    25.014692     24.93756    22.987529    14339.745    9710.3011    10371.593    10113.072     -52.4684    288.57498   -1298.9758   -5769.7046 
 6275000    284.42006   -9008.2365   -7923.8975   -9008.2365            0    11472.468    24.977133    24.909846    22.891676    14242.664    11327.133    11353.142    11737.128    663.97831   -1351.4371    1111.9956   -5540.8979 
 6276000     296.9893   -9019.1593   -7886.9007   -9019.1593            0    10576.065    25.025441    24.823106    22.983776    14277.732    9270.6229    12082.198    10375.374    449.37173   -1514.1008     170.6458   -5684.6881 
 6277000    285.07561   -9008.9845   -7922.1462   -9008.9845            0    10400.215    25.059961    24.813956    23.022098    14315.987    9579.8257    12004.727    9616.0935   -100.53341   -631.50726    13.351508   -5750.7478 
 6278000    286.04938   -9040.8475   -7950.2968   -9040.8475            0    10991.793    24.923462    24.968253    22.862346    14227.131    11054.753     11070.21    10850.414    328.91418    393.82457    751.08527   -5669.6306 
 6279000     268.6682   -8979.0493   -7954.7636   -8979.0493            0    11502.011    24.938689     24.98363    22.888322    14260.775    10875.263    11169.505    12461.265     409.6992    197.19606    -213.2971   -5562.5894 
 6280000    291.25555   -9004.7981   -7894.3992   -9004.7981            0    10453.653    24.805497    24.985921    23.077557    14303.197    9928.9722    12077.517    9354.4701    219.07244   -92.604913    469.12426   -5713.7936 
 6281000    294.41539   -9000.3689   -7877.9232   -9000.3689            0    10070.676    24.919989    25.052335    22.932597     14316.91    11483.912     10043.61     8684.505   -363.37029    540.05299    647.01518   -5775.1919 
 6282000    289.51835   -9014.6989    -7910.923   -9014.6989            0    9709.2852    24.816711    25.026353    23.088728    14339.757    10991.721    9230.8611    8905.2731   -1048.9044   -1038.6639    38.363711   -5880.4138 
 6283000    296.21323   -9040.7335   -7911.4336   -9040.7335            0    10226.736    24.898272    25.058215    22.896282    14285.134    10823.159    9598.3593    10258.689   -784.16502   -160.86409    109.07112   -5780.8566 
 6284000    277.65893   -9052.0976   -7993.5351   -9052.0976            0    9824.3943    24.860223    24.950503    23.074849    14312.753    9373.7187    10731.709    9367.7556    135.10333    184.82211    444.46783   -5942.8222 
 6285000    276.42129   -9061.0179   -8007.1739   -9061.0179            0     10497.68    24.926056    25.065756    22.848281    14275.387    11005.658     9664.477    10822.904   -89.723647   -280.63929   -397.38381   -5821.6422 
 6286000    275.64152   -9000.7836   -7949.9124   -9000.7836            0    11933.791    24.881703    24.951713    22.944627    14244.968     11455.98    11737.465     12607.93    117.57414   -855.06916    711.03143   -5470.6882 
 6287000    290.43042   -9031.7906   -7924.5374   -9031.7906            0    12405.484    24.824417    24.976837    22.849277    14167.361    11364.289    13776.651    12075.512    -191.9761    1.3045592   -1084.8835   -5361.3605 
 6288000    290.84555   -9004.3259   -7895.4901   -9004.3259            0    12802.453    24.743195    25.017263    22.912499    14182.998    15110.524    11084.953    12211.882   -373.53284    237.62542     975.9284   -5247.3734 
 6289000    281.35973   -9027.9239   -7955.2522   -9027.9239            0    11191.271    24.707547    25.050518    23.020079    14247.975    12863.464    9751.1177    10959.231    536.91074   -256.16525   -630.07172   -5629.7945 
 6290000    282.37599   -9023.5457   -7946.9996   -9023.5457            0    13186.372    24.842835    24.986115    22.796966    14150.668    12001.665    12541.899     15015.55    -476.0865   -635.23735   -115.33712   -5225.6888 
 6291000    279.77543   -9047.2565    -7980.625   -9047.2565            0    12414.666     24.85929     24.82005    22.964568    14169.341    12081.144    12971.825    12191.028    680.24359   -247.83304   -1063.6986   -5415.1925 
 6292000    280.63521    -9014.811   -7944.9016    -9014.811            0     11152.04     25.06593    24.923373    22.791303    14238.354    9953.1539    11509.338     11993.63    693.98397   -1994.6584    257.33399   -5629.1604 
 6293000     285.0426   -9004.9985   -7918.2861   -9004.9985            0    10820.681    24.944591    24.816024    23.042767    14264.062    10351.918    11748.323    10361.803    117.81205    138.39298    1093.7433   -5667.2953 
 6294000    285.52155   -9033.1354   -7944.5971   -9033.1354            0    10597.166    24.967611    24.886716     22.94818    14259.124    11358.575    11263.546    9169.3785   -734.01547   -204.74056    356.75658   -5740.8665 
 6295000    274.57246   -9053.0166   -8006.2211   -9053.0166            0    10263.645    24.993937    24.956098    22.822462    14235.537    8894.1941     10407.55    11489.189   -244.97745    399.06026    -225.3677   -5875.3786 
 6296000    303.77878   -9035.9911   -7877.8479   -9035.9911            0    11346.313    24.879002    24.813465    23.093605    14256.473    11040.368    11837.945    11160.627   -374.74602   -813.19996    274.60704   -5518.7674 
 6297000    284.90274   -9017.7856   -7931.6064   -9017.7856            0    13652.855    24.957211    24.858876    22.781772    14133.999    13723.472    13089.837    14145.256    449.63736    824.15372    107.56215   -5117.3451 
 6298000    280.76147   -9024.3988   -7954.0081   -9024.3988            0     10699.12    24.871313    24.920864    23.017525    14266.599    11873.073    10016.841    10207.447    -672.4965   -945.16327   -240.06405   -5727.9094 
 6299000    287.07846   -9009.2714   -7914.7974   -9009.2714            0    10780.065    24.882778    24.927272    22.996036    14263.517     11072.86     10622.62    10644.713    413.48277   -270.72623   -565.40018   -5672.3417 
 6300000    297.07527   -9016.5511   -7883.9647   -9016.5511            0    11681.966    24.909572    25.113705     22.75459    14234.626    11807.139    10028.559      13210.2   -456.56258   -479.06701    622.13574   -5458.8186 
 6301000    288.40137   -9030.7242   -7931.2067   -9030.7242            0    10610.393     24.81361    24.985334    23.029543    14277.772    10756.175    10886.179    10188.824    1195.5648   -788.88267    344.11546   -5721.8401 
 6302000    289.50544   -9039.2254   -7935.4987   -9039.2254            0    11385.193    24.851536    25.059412    22.858135    14235.244    12210.822    10326.912    11617.846    -412.8908   -658.73301    327.41066   -5571.8593 
 6303000    284.82744   -9022.1313   -7936.2392   -9022.1313            0    11882.753    24.798754    24.898012    23.002609    14202.724    12348.114     11877.09    11423.055   -565.76702    49.922522    642.36257    -5474.939 
 6304000    285.04546   -9006.9093   -7920.1861   -9006.9093            0    10618.447    24.905152    25.043968    22.884334    14273.505    9901.7681    11020.124    10933.448   -888.52568    114.52808    138.70127   -5709.8032 
 6305000    281.16014    -8973.388   -7901.4773    -8973.388            0    11886.803    24.898079    24.877752    22.992527    14241.761    11986.689    11917.061    11756.659    364.22552    188.41901   -93.040676   -5432.5709 
 6306000    288.26872   -8983.8035   -7884.7917   -8983.8035            0    12427.626    24.939762    24.823119    22.949899    14207.885    12493.633    13086.993    11702.252    619.52158   -130.70111   -441.97582   -5309.6952 
 6307000    285.13194   -9015.6613   -7928.6084   -9015.6613            0    11892.987    24.879095    24.875623    22.963852    14211.937    11652.892    11796.943    12229.126   -142.97661   -267.06812    403.65026   -5463.5903 
 6308000    279.97918   -9028.7219   -7961.3136   -9028.7219            0    10351.376    25.093923    24.921059    22.848678    14288.813    9786.6374    10336.943    10930.548    196.55763    1338.9817    -651.0456   -5804.2143 
 6309000    280.17016   -9004.9484   -7936.8119   -9004.9484            0    11714.276    24.909192    24.881836    22.968484    14235.555    11166.854     12702.36    11273.614   -774.77115   -447.03957    2259.5999   -5504.7998 
 6310000    287.08594   -9083.1278   -7988.6253   -9083.1278            0    10890.105    24.830603      24.8634    23.043571    14226.484    11670.812    10014.878    10984.626    587.89666   -1102.0394    384.92904   -5729.1607 
 6311000    280.97825   -9021.2085   -7949.9913   -9021.2085            0    11808.861     24.86884    25.023791    22.827983    14206.142    11694.684        10535      13196.9    1228.2789    276.83608    196.29598   -5503.4077 
 6312000    292.04856   -9038.0969   -7924.6745   -9038.0969            0    12807.561    24.741733      24.8947    23.061941    14204.726    13260.496    12475.037    12687.151   -369.47184    -233.1586   -653.41382   -5271.4427 
 6313000    284.71431   -8950.9961   -7865.5353   -8950.9961            0     12671.04    24.886643    24.946957    22.887517    14209.623    14379.798    12298.667    11334.656    848.72897    813.06918    675.47518   -5239.6804 
 6314000    291.25878   -9018.8701   -7908.4588   -9018.8701            0    13218.692    24.852177    24.833187    22.978436    14181.343    12533.815    14092.398    13029.864   -232.20221   -90.686797    375.83512   -5174.5644 
 6315000    278.21754   -9042.8394   -7982.1473   -9042.8394            0    11642.456    24.992044    25.008728    22.757051    14223.595    10895.301    11199.212    12832.855    1283.8437   -229.27615   -611.59084   -5567.0765 
 6316000    289.83173   -8959.1376   -7854.1668   -8959.1376            0    12177.004    24.863354    24.937906    22.975382    14245.655    12621.038    12482.722    11427.253   -1266.1566   -1903.0703    1031.7946   -5324.2935 
 6317000    279.68016   -9029.4716   -7963.2033   -9029.4716            0    12551.894    24.706858    24.987882    22.964405    14177.582    13837.873    12051.665    11766.143    857.61741    130.88286    595.21445   -5367.9048 
 6318000    276.31221   -9016.1012   -7962.6731   -9016.1012            0    12824.221    24.866299    24.926354    22.876149    14179.236    12649.936    12381.596     13441.13    110.28017   -322.34449    -420.0461   -5310.7575 
 6319000     288.7491   -9055.7221   -7954.8788   -9055.7221            0    12663.898    24.778388    24.967444    22.880049    14154.811    13157.743    11998.183    12835.768    1142.7886    806.15549   -803.65032   -5340.6274 
 6320000    273.87967    -9009.625   -7965.4708    -9009.625            0    11631.107      24.8388    24.915465    23.011454    14241.105    11308.236    12782.751    10802.333   -38.110872    1189.3697   -620.60773   -5549.7841 
 6321000    282.75788   -9007.8945   -7929.8926   -9007.8945            0    10764.435     24.97639    25.035361    22.829092     14274.87    9954.3158    10000.736    12338.254    497.59461   -1438.7943    727.54575   -5688.9058 
 6322000    289.07827   -8981.2793   -7879.1811   -8981.2793            0    12321.818    24.864011    24.888448    22.973018    14216.316    12580.047    11843.636    12541.772   -142.50301   -248.90721   -428.34935   -5324.4938 
 6323000    271.07276   -9033.7753   -8000.3223   -9033.7753            0    11871.903    24.856608    24.877402    22.958493    14196.793    12540.373    12429.188    10646.147    154.14189    94.751821     1506.157   -5542.2963 
 6324000    282.28036   -8980.5249   -7904.3434   -8980.5249            0    11854.764    25.013957    24.962596    22.777099    14222.324    11812.692    11501.473    12250.128     1049.088   -528.44897    588.29852    -5445.452 
 6325000    288.65613   -8974.3215   -7873.8327   -8974.3215            0    12542.909    24.758536    24.888811    23.075547    14219.395    12940.089    14072.568     10616.07   -1048.0307   -387.72255    200.35348   -5272.7432 
 6326000    290.22072   -9029.7958   -7923.3421   -9029.7958            0     12762.58    24.846379    24.945225    22.845664    14159.709    14263.728    11519.199    12504.813   -66.562595   -251.03234    291.59951   -5287.8076 
 6327000    283.55927    -9049.373   -7968.3158    -9049.373            0    12640.404    24.924549    24.863036    22.845709    14157.486    11235.116    13358.883    13327.213   -711.65476   -1150.0117    286.80785   -5358.4211 
 6328000    292.48227   -8994.9037   -7879.8279   -8994.9037            0    11488.551    24.983372    24.777909    23.007836    14242.672    10089.336    13073.335    11302.982    -150.2254   -56.089993    1119.2163   -5493.4863 
 6329000    277.90714   -9000.8479   -7941.3391   -9000.8479            0    12412.919    25.077007    24.875034    22.821387    14235.785     10923.67    13329.671    12985.416    -910.2935    639.04655     1028.385   -5364.2393 
 6330000    277.64102   -8995.5367   -7937.0425   -8995.5367            0    11747.275    24.935973     24.83831    23.004052     14247.96    10216.595    13782.585    11242.645    312.93224    308.93811   -429.45155   -5496.0541 
 6331000    291.32989   -9016.3685   -7905.6861   -9016.3685            0    10768.308     24.92596    24.914529     23.00344    14285.563    10794.666    10997.388    10512.869   -208.64021    295.33794    -71.57233   -5662.2138 
 6332000    292.16017   -9065.5083   -7951.6605   -9065.5083            0    10737.406     24.95129    24.964395    22.889861    14257.954    11927.761    9050.2905    11234.167    1302.1164    2.2608456    996.66574   -5718.9498 
 6333000     283.3963   -9067.0058   -7986.5698   -9067.0058            0    11202.772    24.795168    24.891008    23.013841    14203.607    13001.209    10756.431    9850.6745   -59.344916    -101.1565    1524.1256   -5665.9712 
 6334000    292.25715   -8986.3081   -7872.0906   -8986.3081            0    10241.534    24.854513    25.049467     22.97349    14303.119     11000.87    10014.394     9709.338    284.43251   -842.46327   -723.79668   -5735.7443 
 6335000    275.02605   -9008.7622   -7960.2375   -9008.7622            0    10759.573    24.884034    25.026842    22.954557    14295.382    11426.086    10364.243     10488.39    1183.7014    1218.8403   -819.08772   -5717.0442 
 6336000    283.22336   -9007.8934   -7928.1168   -9007.8934            0    10159.132    24.856005     24.97148    23.049671    14306.728    12727.055    8572.6491    9177.6905   -169.19246    1367.6543   -1029.9403   -5808.4246 
 6337000    293.34073   -9036.8043   -7918.4557   -9036.8043            0    13354.237    24.846778    25.088129    22.629801    14106.494    13951.439    11386.315    14724.959   -143.13131   -527.80367    817.74205   -5171.1051 
 6338000    287.70403   -8973.3708   -7876.5118   -8973.3708            0    12118.748    24.856295    24.916412    22.933444    14203.363    12406.935     11404.45    12544.857   -161.37467    383.34751    539.62962   -5366.2165 
 6339000    282.58218    -9066.117   -7988.7849    -9066.117            0    12184.095    24.829808    24.949465    22.830893     14143.52    12912.908     11567.85    12071.529    272.14404    390.67834    97.386312    -5475.587 
 6340000    281.38414   -8977.6443   -7904.8796   -8977.6443            0    12812.916    24.897978    24.865672    22.875677    14162.445    13575.186    13064.759    11798.802   -481.51367    1043.2978    967.62205   -5258.4394 
 6341000    281.45265   -9030.6938   -7957.6679   -9030.6938            0    12771.819    24.888241    24.845792    22.906911    14164.902    11865.154    12359.406    14090.896   -281.00357   -419.50795    424.90292   -5319.2582 
 6342000    299.75367   -9052.8216   -7910.0239   -9052.8216            0    12623.637    24.812085    24.858561    22.979481    14173.577    13275.504    11474.455    13120.951    255.10683    29.166031   -695.38572   -5300.6288 
 6343000    278.43369   -8990.7277   -7929.2115   -8990.7277            0    11294.757     24.87549    24.944744    22.993157    14267.547    11841.457    12347.639    9695.1737    243.53561   -470.19029   -1083.3014   -5579.0264 
 6344000    282.33709   -9012.2184   -7935.8207   -9012.2184            0     10865.15    24.912497    25.008933    22.873589    14251.046    11242.942    10334.438    11018.071   -1.0743666    197.74349   -389.60521   -5677.6417 
 6345000    277.96647   -9064.5152   -8004.7803   -9064.5152            0    11800.549    24.724438    24.930794    23.034569    14198.505      12160.2    12282.573    10958.875   -457.32267   -89.424216   -574.41675    -5561.233 
 6346000    279.62133   -8998.4663   -7932.4223   -8998.4663            0     11235.03     24.84143    24.976175    23.003854    14272.601    12943.681    9249.2872    11512.121   -264.79019    63.911292   -1000.8553   -5593.8368 
 6347000    285.37086   -9008.0674   -7920.1035   -9008.0674            0    10453.794    24.947126    24.985542    22.924337     14289.14    9512.0643    10852.274    10997.042   -858.96914    193.92555   0.11611741   -5741.6119 
 6348000    270.96292   -9040.3055   -8007.2713   -9040.3055            0    10388.164    24.780285     24.88172     23.16818    14284.947     10396.05     11067.99    9700.4517    398.89779     -160.796    430.68572   -5843.0916 
 6349000    289.64046    -9035.408   -7931.1665    -9035.408            0    10051.494    24.991595    25.043345    22.874507    14316.539    8821.4337     10009.37    11323.678   -941.07716    458.96013   -439.75101   -5832.4946 
 6350000    282.64188   -9055.7166   -7978.1568   -9055.7166            0    11162.037    24.765671     24.86269    23.157862    14259.249    13081.419    10807.663    9597.0281    120.48893      -601.14    722.63983   -5656.9385 
 6351000    280.92657   -9020.4803   -7949.4601   -9020.4803            0    11660.488    24.935876    24.869962    22.924572    14216.772    10536.604    12310.093    12134.768   -399.02701   -702.70952    205.95167    -5531.809 
 6352000     284.1005   -8989.9077   -7906.7871   -8989.9077            0    10007.692     24.96641    25.016565    22.933167    14323.456    9684.5799    10333.536    10004.961   -330.18293    745.45034    1605.2169    -5816.251 
 6353000    283.92734   -9016.4756   -7934.0151   -9016.4756            0    10591.086    24.908738    24.905549     23.04326    14295.251    10382.128    10874.314    10516.816    331.13447    703.54111    761.07303   -5725.9688 
 6354000    286.25024   -9055.4501   -7964.1337   -9055.4501            0     8877.696     25.09205    24.978387    22.903624    14355.051    7726.6304    8368.2494    10538.208   -560.23241   -747.60257    347.85468   -6105.5552 
 6355000    288.48729   -9017.7787   -7917.9336   -9017.7787            0    10668.414    24.857956    24.880826    23.100754    14287.504    10972.642    10525.213    10507.388    15.625703   -510.11675    118.73641   -5694.9712 
 6356000    270.55955   -8985.6903   -7954.1939   -8985.6903            0    13011.562     24.88646    24.921601    22.860756    14178.479    12951.502    13117.212    12965.973    77.302638    71.273125   -630.84829   -5263.6815 
 6357000     286.8298    -9015.403    -7921.877    -9015.403            0    12078.493    24.952263    24.914271    22.877972     14222.49    10991.553    13694.917    11549.008    293.02714    761.92743    -1036.072   -5416.5508 
 6358000    284.16704   -9006.2263    -7922.852   -9006.2263            0    13473.631    24.797076    24.857054    22.970322    14158.499    13146.002    15405.526    11869.365   -437.10429    83.849116    1613.3117   -5140.7198 
 6359000    285.41501   -9033.1258   -7944.9936   -9033.1258            0    11559.816    24.983862     24.95049    22.782395    14201.625    11446.317    10693.782    12539.349   -474.92903   -385.23447   -800.45902   -5550.7693 
 6360000    277.91683   -9012.6173   -7953.0716   -9012.6173            0    11536.096    25.037594    24.892612    22.860381    14247.757    10871.851    12112.786    11623.651   -285.00678   -805.31606    418.31088   -5555.9986 
 6361000     282.8969   -9008.7974   -7930.2654   -9008.7974            0    11148.433    24.936936    24.854329    22.982964     14244.63    10299.687    12676.504    10469.109    43.408901    95.293626   -864.58735   -5614.2528 
 6362000     287.2381   -9014.9747   -7919.8921   -9014.9747            0    11713.727    24.930736    24.993519    22.876354    14254.412    10989.779    10853.395    13298.006   -756.28684   -919.75902    1485.1079   -5484.7725 
 6363000    289.76714   -9041.2816   -7936.5571   -9041.2816            0    11578.671     24.88973    24.898814    22.933571    14212.502    12088.717    11136.518    11510.777   -764.61806   -773.05214   -389.06461   -5536.5909 
 6364000    298.89572   -9001.9772   -7862.4504   -9001.9772            0    13363.276     24.91114    24.847432    22.889766    14168.259    13074.775    14276.962    12738.091   -702.30864   -602.01512   -41.966276    -5101.203 
 6365000    289.21081   -8979.4793   -7876.8758   -8979.4793            0    11525.765    24.926412    24.953849    22.881082    14232.261    11925.133    11305.953    11346.209   -634.83592    361.53547   -121.71285   -5484.5543 
 6366000    292.43083   -9061.3207    -7946.441   -9061.3207            0    11463.657    24.765648     24.85374    23.047707    14186.301    12360.351    11659.178    10371.442   -428.51939   -506.22432    1075.3568   -5574.6947 
 6367000    273.96998    -9042.261   -7997.7625    -9042.261            0    11822.885    24.972823    24.964185    22.783615    14203.902     12162.13    10412.298    12894.227   -389.74531   -126.85694    772.86603   -5548.6596 
 6368000    284.76703   -9080.8274   -7995.1656   -9080.8274            0    12563.497    24.796034    24.867997    22.994293    14178.918    12818.818    12210.051    12661.621    851.10548   -279.02299   -367.50251   -5397.2232 
 6369000    278.46145   -8994.8521   -7933.2301   -8994.8521            0     12821.45    24.890611    24.946833     22.82768    14174.663    11751.056    13345.869    13367.426   -262.95147   -752.10288   -359.21541   -5282.7424 
 6370000    277.08296   -8999.4156    -7943.049   -8999.4156            0    12176.088    24.837212    24.926172    22.943316     14204.13    12274.633    12140.753    12112.876   -168.20873    314.05768    375.57093     -5420.74 
 6371000    283.22435   -9024.2718   -7944.4914   -9024.2718            0    11677.868    24.737362    24.969521    22.996959    14204.764    13880.513    10102.225    11050.867    231.98004    259.55323     -460.198    -5525.282 
 6372000     286.6516   -8993.7117   -7900.8651   -8993.7117            0    11711.015    24.859561    25.031343    22.889974    14243.703    12203.346    10497.643    12432.055   -934.67943   -181.13902    492.62129   -5468.1383 
 6373000    281.15378   -9045.9059   -7974.0195   -9045.9059            0    10324.137    24.818311    24.944806    23.041274    14264.575    11795.372    9543.2934    9633.7464   -683.64652   -47.316918    561.07069   -5826.2458 
 6374000    287.22054   -8990.9278   -7895.9121   -8990.9278            0    11666.545    24.901158    24.890755    22.991993    14250.635    12577.581     11056.71    11365.343    845.59703   -803.66804   -586.40444   -5471.2438 
 6375000    290.62927   -8978.6561   -7870.6448   -8978.6561            0    12155.358    25.013405    24.934989    22.774469    14204.641    12163.172    11295.308    13007.593    255.19653   -1052.7821   -228.29438   -5352.5395 
 6376000    287.87423   -9026.8205   -7929.3126   -9026.8205            0    12149.221    24.851924    24.773056    23.053242    14192.915    12907.367    12564.909    10975.389   -611.79769    183.03407    1056.1523   -5414.5561 
 6377000    293.73154   -9024.8428   -7905.0042   -9024.8428            0    12116.798    24.897464    24.938753    22.823516    14171.389    12587.288    11949.716     11813.39    124.07353   -1809.9122    939.63053   -5400.7629 
 6378000    278.74136   -9004.5163   -7941.8271   -9004.5163            0    12734.921    24.898764    24.898067    22.848379    14164.421    12343.767    12983.101    12877.895   -1148.9874    -1026.667   -398.51506   -5311.1293 
 6379000    281.67532    -8991.938   -7918.0633    -8991.938            0    11769.601    24.884338     24.86698    22.985345    14223.293    13754.729    12109.952    9444.1224   -990.20749     258.7497    647.62626   -5476.6697 
 6380000    284.79412   -9056.1037   -7970.3387   -9056.1037            0    11585.128    25.124451    24.832524    22.778784    14211.764    9711.4633    12271.669    12772.251   -78.735286   -888.98035    364.70672   -5569.1587 
 6381000    280.87659   -9037.5672   -7966.7375   -9037.5672            0     12620.69    24.822929    24.749562    23.062106    14168.357    12752.867    12947.683     12161.52    950.53184    809.46879    1402.3792   -5358.9121 
 6382000    276.20667   -8994.5072   -7941.4814   -8994.5072            0    10741.408    24.942169    25.049277    22.887937    14300.002    10311.808    10190.735    11721.681   -576.34421    1075.2864    352.32918   -5701.3516 
 6383000    274.94752   -8997.9428   -7949.7175   -8997.9428            0    10264.313    24.948153    24.985818    22.971359    14319.197     9815.188    10318.929    10658.823   -848.11019    -730.2333    535.54773   -5806.2127 
 6384000    277.58852   -9053.5087   -7995.2147   -9053.5087            0    10130.535    24.973304     24.90166    22.994462     14299.72    11660.474    9202.8456    9528.2855    261.39443   -215.37148    1082.1885   -5882.5245 
 6385000    274.34059   -9044.0746   -7998.1631   -9044.0746            0    10738.884    25.104188    24.775907    22.874754    14227.618    9058.4036    12467.084    10691.165   -100.56242    1494.6659    1558.1319   -5769.8961 
 6386000    280.08565   -8999.9905   -7932.1763   -8999.9905            0    10638.623    24.994437    24.892291    22.919534    14259.819     9693.555    11490.171    10732.143   -783.58319   -1511.1672    1754.2863   -5719.7168 
 6387000    276.50735    -9031.822   -7977.6498    -9031.822            0    10326.239    24.947644    24.817866    23.060866    14278.073    9542.8271    11198.721     10237.17     600.2646   -690.67156   -23.754201   -5827.4062 
 6388000    281.91577   -9008.6957   -7933.9042   -9008.6957            0    9928.3055    25.051086    24.961248     22.92619    14335.893    9142.7015    10439.989    10202.226   -316.89211   -48.924384    838.36779   -5858.1508 
 6389000    285.00212   -9060.0349   -7973.4768   -9060.0349            0    11216.396    24.872436    24.818621    23.042006     14223.82    12387.962    11123.807    10137.419    793.49441   -1348.8253    621.22977   -5646.7495 
 6390000    282.81614   -9008.7945   -7930.5704   -9008.7945            0    10564.159    25.096362    24.896684    22.832976    14266.414    10070.559    10625.746    10996.173     522.7554   -716.03779    -1261.006   -5732.5807 
 6391000    287.38118    -9072.589   -7976.9609    -9072.589            0    10413.731    24.996868    24.900354    22.919417    14265.752    10567.167    9992.9464    10681.079    1362.9386   -487.73964    311.41223   -5810.3699 
 6392000    274.94209   -9023.9542   -7975.7495   -9023.9542            0    11554.657     24.76916     24.94197    23.025633    14225.044    12501.273    11402.524    10760.174    521.93166    1125.9557     126.8782   -5578.6473 
 6393000     292.9233   -9045.3499   -7928.5927   -9045.3499            0    11180.448    24.834367    25.148902    22.777443    14225.813    10657.617    9860.1635    13023.563    190.63023    218.94472   -136.07798   -5608.9976 
 6394000    288.28021   -9040.5166   -7941.4609   -9040.5166            0    11582.738    24.829816    24.900597     22.99036    14214.416    11610.968    11603.061    11534.184    122.98653   -498.01469    989.11644   -5540.3284 
 6395000    293.88831   -8979.6311   -7859.1948   -8979.6311            0    12847.477    24.841417    24.847217    23.012006    14203.932    13827.339    11623.328    13091.765    -479.1522    126.72507    783.58619   -5197.8427 
 6396000    287.00646   -9039.8899   -7945.6904   -9039.8899            0     11403.85    24.977134    24.887641    22.876728    14220.676    10633.094    12111.571    11466.886    267.21551    655.36416    -16.18473   -5580.6005 
 6397000    286.89953    -9028.432   -7934.6401    -9028.432            0    13115.782    24.961193    24.745826    22.920751    14157.812     13411.64    13328.086    12607.619   -319.74287   -680.47659   -158.20097   -5226.5307 
 6398000    282.53623   -9044.3073   -7967.1503   -9044.3073            0    13389.808    24.887746    24.760543    22.914938    14120.967    12968.162    14234.897    12966.366   -243.59065    181.45024    478.99178   -5209.6557 
 6399000    282.79092   -8998.8307   -7920.7028   -8998.8307            0    12320.064    24.885704     24.92656    22.900519    14205.536    11199.866    12940.828    12819.499   -394.96039    441.20836    319.05226    -5368.316 
 6400000    288.45614   -9055.4323   -7955.7059   -9055.4323            0    11472.355    24.900537    24.774881    23.036688    14211.513    11138.606    12248.996    11029.462    240.54181   -410.11855   -1274.0014   -5577.9418 
 6401000    285.89134    -9007.028   -7917.0798    -9007.028            0    12064.455    24.839699    24.962218    22.928978    14217.204    13565.666    11446.411    11181.287   -165.72423    998.40618    390.91958   -5415.5956 
 6402000    275.26297   -9014.5145   -7965.0865   -9014.5145            0    10834.996    24.949673    24.866336    23.039316    14293.752    8850.9018    13236.157    10417.929   -1345.1705   -1279.1382    291.25848   -5706.4264 
 6403000    283.76185   -9005.7555   -7923.9259   -9005.7555            0    10283.268    24.955367    24.951546    22.952232    14291.781    9604.9996    9891.3914    11353.412   -574.18693    1612.1434   -1205.9899   -5780.5745 
 6404000    269.19217   -8996.3724   -7970.0891   -8996.3724            0    10908.835    24.890762    25.006044    22.903733     14255.73    11472.207    9916.6004    11337.699   -287.59313    798.25592   -348.79458   -5702.0855 
 6405000    283.18977    -9021.136   -7941.4875    -9021.136            0    10741.961    24.714588     25.12918    22.968191    14264.564    11600.698    10280.992    10344.195    362.05043   -55.660654    1332.3892   -5706.7939 
 6406000    274.22997   -9073.4781   -8027.9884   -9073.4781            0    12368.389    24.812116    25.006419    22.811281    14153.537    12983.567    11819.093    12302.507   -507.55291    918.57062   -47.030771   -5474.9696 
 6407000    273.79297   -8997.3744   -7953.5508   -8997.3744            0    11386.278    24.831987    25.038174    22.949677    14268.907    10794.216    11059.273    12305.346     693.8926   -1397.0851      247.079   -5584.0962 
 6408000    279.02741    -9000.711   -7936.9312    -9000.711            0    11481.425    24.959931    24.923501    22.912692     14253.73    11196.895     11824.48    11422.899    1254.2221   -282.90098     548.2964   -5550.2181 
 6409000    293.06517   -9028.3815   -7911.0834   -9028.3815            0    10818.535    24.976711    24.826101     23.01969    14273.919    10507.264    11342.848    10605.494   -1270.6832    24.300428   -178.44611   -5658.9839 
 6410000    285.41848   -9032.9254     -7944.78   -9032.9254            0    11674.278    24.912498    24.893996    22.897716    14200.514    12859.754    11424.175    10738.904   -363.01386    268.05873   -59.267148   -5527.0379 
 6411000     276.8049   -9035.7111   -7980.4046   -9035.7111            0    12754.432    24.922122    24.835399    22.846826    14141.063    12388.456    13395.886    12478.955   -299.82561   -422.09105    -913.3833   -5350.0212 
 6412000    282.95046    -9019.117   -7940.3808    -9019.117            0    11850.222    24.899374     24.85885    22.987541    14228.594    11806.062    12889.074     10855.53    725.41422    146.50478    -1828.694   -5481.3478 
 6413000    283.44289   -8988.5153   -7907.9017   -8988.5153            0    12348.224    24.970388     24.98945    22.741692     14190.73    12489.529    11877.601    12677.543    1377.5208   -646.50913    1020.8623   -5352.3472 
 6414000    284.49833    -9050.438   -7965.8006    -9050.438            0    11377.648    24.812541    24.927828    23.023674    14240.667    12454.235    10565.278     11113.43    158.28307   -1301.8281   -641.73316    -5602.828 
 6415000    292.93236   -9052.8592   -7936.0675   -9052.8592            0     10550.32    24.888275    24.955603    22.947511    14252.743    9902.2063    10657.572    11091.181    362.30858    -731.9634    597.71499   -5743.0607 
 6416000    293.32547   -9030.4023   -7912.1118   -9030.4023            0    9902.2429    24.818411    25.049071    23.004899    14301.643     11260.71       8406.3    10039.718   -460.83774    56.572548    282.08434   -5846.7536 
 6417000    274.61689    -9064.176   -8017.2112    -9064.176            0    10352.681     24.88185     25.04542    22.910087    14277.025    10942.234    9747.8049    10368.004    158.67566   -1673.7274    413.46369   -5861.6197 
 6418000    287.23754   -8986.5684   -7891.4879   -8986.5684            0    9409.8072    24.849134    25.085185    23.025342    14352.734    10276.126    9668.0697    8285.2255   -505.57244   -636.13287   -718.80192   -5921.8279 
 6419000    280.98933   -9013.9748   -7942.7154   -9013.9748            0    11238.317    24.893451    25.018373    22.892654    14257.399    11903.046    9204.3362    12607.569    819.22868   -1452.3517   -13.728776   -5605.9373 
 6420000    282.71151     -9015.79   -7937.9648     -9015.79            0    13250.224    24.776102    24.970415    22.866714     14146.94    14524.851    13513.205    11712.614    767.96913   -237.80242   -349.24512   -5204.1971 
 6421000    281.19332   -9008.4462    -7936.409   -9008.4462            0     12788.01    24.899405    24.784868    22.935702    14154.275     13605.14    13179.111     11579.78    121.50739    -95.76006   -99.201422   -5296.6366 
 6422000    286.08944   -9026.8941   -7936.1907   -9026.8941            0     13182.69    24.931888     24.74786    22.914733    14138.639    11742.852    15925.798     11879.42    475.23602    1296.1231    408.52788   -5217.9522 
 6423000    290.98226   -9042.7145   -7933.3574   -9042.7145            0    12860.124    24.963388    24.838484    22.871619     14181.61    13648.921    12108.567    12822.884   -845.60556    679.72162    192.98453   -5273.5722 
 6424000    275.62168   -9010.5568   -7959.7613   -9010.5568            0    12625.928    24.883231    24.940632    22.836291    14172.282    13219.378    11503.555    13154.852    391.55733    2315.0398    125.03056   -5350.1309 
 6425000    275.13283   -8998.1216   -7949.1898   -8998.1216            0    10568.145    24.784425    24.864092    23.201628    14297.823    12573.773    10614.122    8516.5385    -300.1425    619.45517   -565.59964     -5745.53 
 6426000    281.26758   -9035.7907   -7963.4704   -9035.7907            0    12089.402    24.932952     25.00016    22.791134    14206.347    11276.515    11650.031    13341.659    335.57723   -350.17455   -55.291878   -5458.7278 
 6427000    280.53858   -9004.9937   -7935.4527   -9004.9937            0     9907.151    24.773828    25.020944    23.108717    14324.274    11919.878    8714.4893    9087.0857    -187.9106    435.47325    555.98418   -5865.8008 
 6428000    283.22973   -9026.3101   -7946.5092   -9026.3101            0    10111.987    24.916466    25.010088    22.898707    14269.627    10428.779    9762.6664    10144.515   -354.71154    824.78913    733.13829   -5842.1252 
 6429000    285.54532   -9052.0883   -7963.4593   -9052.0883            0    10376.608    24.894543    24.882927    23.070875    14291.233    10041.379    11971.539    9116.9049    572.46394    718.53201   -634.03406    -5800.736 
 6430000    272.59347   -9022.6252   -7983.3746   -9022.6252            0    10142.127    24.926023    24.913954    23.005808     14286.74    9327.0603    10451.893    10647.428    210.23469    508.58864    1082.3036   -5870.1869 
 6431000    285.87688   -9029.6325   -7939.7394   -9029.6325            0    12431.918    25.036949    24.774207    22.829763    14160.629    11699.232    12827.377    12769.145    386.50305   -61.230685     736.4619   -5372.3214 
 6432000    289.70127   -8995.2313    -7890.758   -8995.2313            0    12908.382    24.943955    24.803707    22.922545    14182.237    11554.476    14413.707    12756.962   -619.05933   -802.40211    765.73757   -5220.8738 
 6433000    289.00866   -9047.8337   -7946.0009   -9047.8337            0    12652.395    24.835389    24.935838    22.858697    14156.191    12090.747    12616.604    13249.832   -238.91487    509.19569    38.068535   -5333.8694 
 6434000    282.66526    -9006.444   -7928.7951    -9006.444            0    12475.153    24.841334    24.926939     22.94214    14206.196    12665.994    12915.642    11843.822   -1023.5719    716.70165    299.13923   -5344.1582 
 6435000    298.65005   -9011.3488   -7872.7586   -9011.3488            0    12262.609    24.900397     24.98845    22.788283    14179.379    12349.186    11517.912     12920.73   -320.41539    324.60969   -1360.2825   -5336.9528 
 6436000    283.29435   -8973.5547   -7893.5074   -8973.5547            0    10907.295    24.771658     24.93438    23.112794    14275.985    13593.169    9488.6853    9640.0319    470.74732    384.20895    473.49168    -5622.602 
 6437000    277.18295   -9065.5458    -8008.798   -9065.5458            0    9476.7849    24.931768    25.024656    22.881762    14276.135    9901.3234    9154.4698    9374.5616   -584.29608   -603.06627    379.05075   -6035.7049 
 6438000     286.9708   -8999.5323   -7905.4687   -8999.5323            0    12255.017    24.945722    24.915957    22.877212    14219.252    12581.204    11376.621    12807.227    -681.1297    683.50702   -1155.9286   -5364.1065 
 6439000    275.35067   -9047.2191   -7997.4567   -9047.2191            0    11991.542    24.842936    24.852775    22.957624    14174.402    10537.439    12717.156    12720.031    1945.7019   -1434.9667   -960.93492   -5518.5758 
 6440000    289.69866    -8996.433   -7891.9696    -8996.433            0    10644.371     24.93416     24.91557    23.007907    14293.635    10304.541    11556.934    10071.637   -196.59069   -1211.3867    528.54967   -5673.0654 
 6441000     281.0629   -8997.1327   -7925.5928   -8997.1327            0    11699.763    24.949002     24.95348     22.86042    14232.085    12030.127    10169.569    12899.592    509.76533    332.99157    167.25792   -5497.1858 
 6442000    286.94863    -8983.955   -7889.9759    -8983.955            0    13380.214    24.934097    24.721696    22.998747     14176.73    11427.405    15373.934    13339.304    179.02239    169.04583   -697.49482   -5123.5756 
 6443000    283.00327   -9012.0801   -7933.1426   -9012.0801            0    12169.107    24.962886    24.940633    22.825357    14210.843    12260.859    12314.603    11931.858    999.28796    339.63105    415.60574   -5411.0883 
 6444000    277.59361   -9001.7511   -7943.4377   -9001.7511            0    10921.054    24.827486    24.871661    23.086125    14255.701    11242.691     10845.62    10674.852   -340.18212    830.21193   -9.7433226   -5672.8984 
 6445000    291.87908   -9046.9184   -7934.1423   -9046.9184            0    10813.309    24.940942    24.882106    22.929879    14229.897    10389.784    10767.205    11282.938   -541.68371    895.43567    276.53568    -5690.073 
 6446000    290.99344   -9028.5305   -7919.1308   -9028.5305            0    11128.757    24.971355    24.915831    22.875807    14232.916    10322.591    11831.909     11231.77    -146.6347    544.27479   -614.19736   -5609.1071 
 6447000    294.17404   -9063.6177   -7942.0921   -9063.6177            0    10221.438    24.916886     25.00217    22.908116    14271.211    10476.669    9598.2526    10589.392   -850.92924    -429.1983    827.63322   -5814.6942 
 6448000    283.87606   -9006.9787   -7924.7137   -9006.9787            0    11602.577    24.811898    25.062033    22.917696    14251.062    10927.742    12656.453    11223.536   -278.59281    226.67223   -996.92636   -5513.2675 
 6449000    290.11854   -8997.8207   -7891.7565   -8997.8207            0    12433.314    24.751369    24.930411    23.029388    14210.555    12489.007    11415.099    13395.837   -215.95357   -269.56347     1032.281   -5314.9972 
 6450000    290.40192   -9028.8501   -7921.7055   -9028.8501            0    12257.841    24.892202    25.068402    22.746899     14194.24    11912.751    12300.633    12560.138   -865.70746    -97.15101   -396.20926   -5384.2291 
 6451000     290.0069   -8993.8779   -7888.2393   -8993.8779            0    13723.849    24.750738    24.946326    22.942957    14165.899    15091.508    12727.212    13352.827    274.41716   -880.21405    736.31858   -5052.9593 
 6452000    283.27823   -9005.3974   -7925.4116   -9005.3974            0    12736.883     24.83079    24.866902    22.923316    14154.341    12900.674    12558.851    12751.124    223.66751    671.10151    669.77842   -5296.1808 
 6453000    280.42881   -9062.2089   -7993.0864   -9062.2089            0    11054.068    24.915599     24.84182    22.959974    14211.049    9244.5777    12088.766    11828.861   -575.61725   -462.64813    793.05796   -5702.0913 
 6454000    291.39293   -9023.7491   -7912.8264   -9023.7491            0    11319.498    25.026568    24.884776    22.873934    14245.441    9610.7074    12266.622    12081.166    118.20642    505.20607   -159.69251   -5561.1424 
 6455000    280.44002   -9049.2533   -7980.0881   -9049.2533            0    10895.772    25.057059    24.828713     22.92922     14265.06    9668.8989    11230.872    11787.546    481.43893   -85.625807   -555.18394   -5713.3179 
 6456000    268.04757   -9066.0234   -8044.1038   -9066.0234            0    10480.113    24.975375    24.807045    23.033291    14270.627    9518.9685    11754.803    10166.566   -764.85993   -154.99333   -321.40177    -5862.957 
 6457000    275.92416   -8982.0696   -7930.1209   -8982.0696            0    11917.919     25.01355    24.893215    22.862742    14235.891    10633.263     12076.41    13044.085   -315.41961   -84.594174    454.90148   -5455.7718 
 6458000    282.02006   -9013.3976   -7938.2085   -9013.3976            0    10764.805    24.836075    24.926151    23.000629    14238.948    11870.632     10860.25    9563.5318   -240.76009    200.00789   -153.34923   -5702.7843 
 6459000    283.94606   -8984.2579   -7901.7261   -8984.2579            0    10909.459    24.879335    25.034225     22.91636    14273.108    11672.097    10091.031    10965.249   -1715.7057     -318.871    642.84788   -5630.8279 
 6460000     279.2571   -8990.7233   -7926.0679   -8990.7233            0    11412.204       24.855    25.009988    22.935886     14257.48    12310.281     10970.88     10955.45   -510.90205      448.783    465.14146   -5553.1201 
 6461000    292.06909   -9031.0497   -7917.5491   -9031.0497            0    9990.5465    24.852664    24.998674    23.051083     14321.26    11448.102     9185.301    9338.2369    317.46004   -117.79447   -389.29563   -5830.9146 
 6462000    279.10842   -9019.6131   -7955.5245   -9019.6131            0     10413.61    24.983325    25.036696    22.862864    14300.719    9918.3438    9783.0614    11539.424   -818.39327    182.39277     778.5638   -5783.6483 
 6463000    283.63552   -9045.4007   -7964.0527   -9045.4007            0    10836.657    24.959855    24.792746    23.106331    14298.737    9594.0098    12129.551     10786.41   -972.25376   -1061.7243    628.90676   -5704.2585 
 6464000    277.81426   -8978.3683   -7919.2137   -8978.3683            0     12615.18    24.952944    24.903721    22.872098    14213.205    11541.317    13039.434     13264.79   -321.74463    559.85858   -1501.1425   -5304.2758 
 6465000    276.26925   -9005.8801   -7952.6157   -9005.8801            0    12651.009    24.966293    24.801299      22.9221    14193.284    10808.651     13304.05    13840.327   -336.23712    755.28734   -959.60444   -5333.9265 
 6466000    268.68361   -8992.5566   -7968.2121   -8992.5566            0    12152.914     24.82617    24.833494     23.04548    14208.013    11979.214    13013.768     11465.76   -710.66409   -398.32597     534.8271   -5450.0154 
 6467000    286.49457    -9004.293   -7912.0451    -9004.293            0    11410.587    24.900326     25.02991    22.825698    14226.183    12543.429    9820.9036    11867.428    1184.6092   -692.00551    590.93608   -5544.6417 
 6468000    279.14737   -8993.1045   -7928.8674   -8993.1045            0    11645.508    24.770686    24.929755    23.049282    14233.557    12112.771    11516.327    11307.425   -101.96518    413.61772    432.58594   -5511.4717 
 6469000     282.9701   -9051.5189   -7972.7078   -9051.5189            0    10964.993    24.819884     25.06099    22.856261    14216.843    11912.298    9038.6859    11943.994   -235.45309   -761.71258    522.91086   -5699.2473 
 6470000    271.70798   -8992.4713   -7956.5965   -8992.4713            0    9808.1277    24.907605    24.981374    23.005332     14314.52    9645.5445    10489.587    9289.2515    202.59859    -378.1029   -144.54739   -5909.0263 
 6471000    282.26825   -9021.9553     -7945.82   -9021.9553            0    11105.493    24.931509    24.901275    22.943674    14244.038    11081.224    11761.119    10474.137   -691.81919   -246.35292    -169.9803   -5638.8239 
 6472000    276.56551   -9009.9355   -7955.5417   -9009.9355            0    13045.073    24.921186     24.80981    22.862868     14135.88    12694.991    12953.213    13487.015    851.07801    956.92877   -87.720081   -5266.2045 
 6473000    277.77504   -9003.8948   -7944.8896   -9003.8948            0     12773.62    24.936673    24.847301    22.892749    14184.554    12787.509    12063.811    13469.539    277.98829    820.85191   -1006.0664   -5302.4471 
 6474000    290.54418   -8953.8854   -7846.1985   -8953.8854            0    14129.494    25.005302    24.692013    22.905109     14142.33    12595.632     14933.82     14859.03    321.93898   -1080.5883    1595.6555   -4931.9708 
 6475000    280.39897   -9026.8121   -7957.8034   -9026.8121            0    12252.182    24.958191    24.818829    22.910277    14191.383    12206.005    13223.695    11326.844   -401.93352    71.295595      1553.84   -5422.0089 
 6476000    290.32611    -9046.254   -7939.3985    -9046.254            0    12160.578    24.851795    24.854141    23.013855    14214.969    12251.202    13414.485    10816.045    380.30078    1711.7167   -488.64896   -5418.3802 
 6477000    291.04877   -9015.3014   -7905.6907   -9015.3014            0    10301.221    25.039079    25.133449    22.693969    14281.732    10420.948    9341.3796    11141.334    95.864999    475.26304    296.35261    -5760.107 
 6478000    281.52529   -8987.9979   -7914.6951   -8987.9979            0     11000.42    24.828256    24.974251    23.060604    14299.122    11608.739    10710.426    10682.096    1906.5136    791.68086   -598.19788   -5620.6892 
 6479000    278.23393   -9029.7149   -7968.9603   -9029.7149            0    10016.725    24.956219    24.996149    22.902732    14286.939    10214.578    9846.8229    9988.7738    33.035704    59.163559   -696.88619    -5881.872 
 6480000    286.75432   -9014.6677   -7921.4295   -9014.6677            0    10856.523    24.819698    24.871694    23.150817    14291.183    11796.192    10564.808    10208.569   -118.57676   -217.89221    742.18145   -5658.6886 
 6481000     287.3015   -8987.5747   -7892.2503   -8987.5747            0    10932.968    24.900721    24.991057    22.910707    14257.226      11078.7    11245.438    10474.765    553.01331   -139.71059    376.15895    -5618.991 
 6482000    284.86883   -9003.4189   -7917.3691   -9003.4189            0    13276.624    24.897333    24.782989    22.936329    14152.411    12105.694    14022.576    13701.603    331.91829    958.71294   -565.63242   -5177.0951 
 6483000     283.7839   -8975.7413   -7893.8277   -8975.7413            0    12255.119    24.848568    24.889441    22.980122    14212.446    12394.645    12115.641    12255.072   -329.19462   -449.93003    -910.6689   -5353.6608 
 6484000     286.9845   -9008.0748   -7913.9591   -9008.0748            0    11196.186    24.997333    25.014995    22.757664    14230.553    10776.999    10495.218    12316.342   -87.376414    -446.6951    -50.52195   -5590.3247 
 6485000    279.43701   -9038.6322   -7973.2909   -9038.6322            0    11271.476    24.866717    24.820964    23.055225    14230.051     10887.25    11975.542    10951.635   -222.04841   -832.52693    1213.0351   -5634.1136 
 6486000     291.3133   -9009.5864   -7898.9673   -9009.5864            0    13955.603    24.926636    24.859969    22.740884    14091.967    13629.846    13841.726    14395.238   -1107.2027    749.88406    1085.5503   -5030.8552 
 6487000    276.44254   -9003.2653   -7949.3403   -9003.2653            0    12449.824    24.957918    24.907224    22.831838    14193.011    11089.638     12324.07    13935.765    239.59753    352.35657    162.30697   -5372.3448 
 6488000    287.80969   -8980.5669   -7883.3051   -8980.5669            0    10405.971    24.953532    24.853426    23.073124    14309.508    10293.853    11150.545     9773.516    -63.18403    55.271166   -158.88238   -5711.6883 
 6489000    289.95593   -9036.2643   -7930.8201   -9036.2643            0     10753.36     24.97548    24.916171    22.917755    14261.566     10242.57    11855.805    10161.705   -503.56191   -384.63972    655.10293   -5694.2253 
 6490000    286.67697   -8979.5754    -7886.632   -8979.5754            0    12067.192    24.848265    24.849907    23.057218    14237.304    12608.107    12082.731    11510.739   -576.60938    1078.6767   -177.27593   -5381.0428 
 6491000    285.01797   -8993.2128   -7906.5943   -8993.2128            0    12372.625     24.98737    24.858234    22.909356     14229.96    11926.801    13227.004    11964.069    663.46505   -854.31893    452.64632   -5338.9112 
 6492000    286.30534    -8990.715   -7899.1884    -8990.715            0    12345.155    25.027386    24.891522    22.831891    14223.577    10267.888    13576.088    13191.488    44.379607    1198.8736    126.09412   -5338.3554 
 6493000    284.11119    -9027.698   -7944.5366    -9027.698            0    11670.537    24.868304     24.74301    23.083837    14203.871    12695.421    12408.927    9907.2626    325.14594   -1949.7513   -93.227501   -5526.9979 
 6494000    275.51002   -9024.6799   -7974.3101   -9024.6799            0    10974.828    25.045608    25.075794    22.713456    14264.925    9964.5034    10248.834    12711.146   -473.30265   -370.36553    751.16426   -5691.1146 
 6495000    284.57237   -9015.8375   -7930.9179   -9015.8375            0    10717.849    24.881418    24.950308    23.006796    14282.597    10441.012    12084.155    9628.3809   -919.69983    2049.5231   -1304.8393   -5698.4216 
 6496000    288.65093   -9042.9779   -7942.5089   -9042.9779            0    11552.513    24.840908    24.956922    22.921387    14210.174    11718.116     11184.48    11754.943    -193.3557   -147.17262    -204.7304   -5548.3567 
 6497000    297.39606   -9003.7969   -7869.9875   -9003.7969            0    12496.481    24.904859    24.878685    22.920592    14201.602    12639.178    12366.084    12484.181    311.23751   -1211.1566     62.61659   -5281.7688 
 6498000    274.12375   -9025.4199   -7980.3352   -9025.4199            0    11464.678    24.822417    25.083565    22.829104    14214.192    12195.036    10355.282    11843.718    582.59696   -1597.3206   -1296.6086    -5603.714 
 6499000    271.68948   -9046.9891   -8011.1849   -9046.9891            0    11341.253    24.784912    24.893869    23.055722    14225.204    11519.453    11699.621    10804.685   -242.21017   -209.61502   -1094.0478   -5658.3284 
 6500000      288.328   -8998.5327   -7899.2949   -8998.5327            0    11222.404    24.911206    24.936006    22.946651    14254.138    10684.752    12016.523    10965.937   -1337.9469   -396.63939     1321.194   -5566.3594 
Loop time of 488.03 on 64 procs for 250000 steps with 1920 atoms

Performance: 88.519 ns/day, 0.271 hours/ns, 512.264 timesteps/s
195.8% CPU use with 32 MPI tasks x 2 OpenMP threads

MPI task timing breakdown:
Section |  min time  |  avg time  |  max time  |%varavg| %total
---------------------------------------------------------------
Pair    | 70.071     | 73.868     | 85.99      |  38.6 | 15.14
Bond    | 0.79302    | 1.1076     | 1.9921     |  24.5 |  0.23
Kspace  | 211.62     | 227.21     | 234.89     |  35.8 | 46.56
Neigh   | 5.7494     | 6.6551     | 7.3802     |  19.2 |  1.36
Comm    | 76.042     | 81.021     | 88.076     |  38.6 | 16.60
Output  | 0.56867    | 0.56894    | 0.57051    |   0.0 |  0.12
Modify  | 78.486     | 84.969     | 91.463     |  29.9 | 17.41
Other   |            | 12.63      |            |       |  2.59

Nlocal:        60.0000 ave          64 max          53 min
Histogram: 1 0 1 2 1 7 6 7 4 3
Nghost:        3416.66 ave        3448 max        3385 min
Histogram: 2 3 3 2 7 3 4 2 4 2
Neighs:        21307.4 ave       22892 max       18466 min
Histogram: 1 0 0 1 4 6 8 8 2 2

Total # of neighbors = 681836
Ave neighs/atom = 355.12292
Ave special neighs/atom = 2.0000000
Neighbor list builds = 13745
Dangerous builds = 1

unfix		3
unfix		2
unfix		1

write_data	data.final.${pid}
write_data	data.final.0
System init for write_data ...
PPPM initialization ...
  extracting TIP4P info from pair style
  using 12-bit tables for long-range coulomb (../kspace.cpp:340)
  G vector (1/distance) = 0.37451037
  grid = 30 30 30
  stencil order = 5
  estimated absolute RMS force accuracy = 0.003265265
  estimated relative force accuracy = 9.8332484e-06
  using double precision FFTW3
  3d grid and FFT values/proc = 5400 960
Last active /omp style is kspace_style pppm/tip4p/omp
WARNING: Not all mixed pair coeffs generated from mixing. Use write_data with 'pair ij' option to store all pair coeffs. (../write_data.cpp:312)

write_restart   restart.lmp.${pid}
write_restart   restart.lmp.0
System init for write_restart ...
PPPM initialization ...
  extracting TIP4P info from pair style
  using 12-bit tables for long-range coulomb (../kspace.cpp:340)
  G vector (1/distance) = 0.37451037
  grid = 30 30 30
  stencil order = 5
  estimated absolute RMS force accuracy = 0.003265265
  estimated relative force accuracy = 9.8332484e-06
  using double precision FFTW3
  3d grid and FFT values/proc = 5400 960
Last active /omp style is kspace_style pppm/tip4p/omp
Total wall time: 0:08:08
