LAMMPS data file via write_data, version 30 Jul 2021, timestep = 38750000

1296 atoms
2 atom types
864 bonds
1 bond types
432 angles
1 angle types

-10.593588781845561 12.573588781845562 xlo xhi
-9.08406325943959 12.07406125943959 ylo yhi
0.293794446898886 21.566204553090817 zlo zhi
-9.462462456101578 1.843786019286192 2.473083049402195 xy xz yz

Masses

1 1.008
2 15.999

Pair Coeffs # lj/cut/tip4p/long/omp

1 0 0
2 0.21084 3.1668

Bond Coeffs # harmonic/omp

1 450 0.9572

Angle Coeffs # harmonic/omp

1 55 104.52

Atoms # full

323 108 1 0.5897 -6.184744022334726 -5.732598554111627 3.495330749177448 1 1 0
298 100 2 -1.1794 -6.0346229172521495 -7.3900448544201485 4.197478837710597 1 1 0
280 94 2 -1.1794 -9.410953180703395 -4.602816073791881 1.7730675979259816 1 1 0
299 100 1 0.5897 -6.573360241685382 -8.16268549092262 4.367235786392472 1 1 0
270 90 1 0.5897 -8.429610407593232 -7.579259196388758 2.189933401777618 1 1 0
163 55 2 -1.1794 -7.0260193408649565 -8.009052885995821 0.9278576625877395 1 1 0
164 55 1 0.5897 -6.267218563271637 -8.431122345015755 1.330671288518998 1 1 0
269 90 1 0.5897 -9.148734498967908 -6.286327799124395 2.5107804198681447 1 1 0
268 90 2 -1.1794 -9.097011939816536 -7.207208599540246 2.766476496669926 1 1 0
256 86 2 -1.1794 -11.992198121463877 -3.600869905060655 2.0673326281936633 1 1 0
324 108 1 0.5897 -7.16723662860826 -4.581979494333691 3.5468978264858904 1 1 0
261 87 1 0.5897 -6.648530215873899 -5.0238677789043225 1.3445523177003997 1 1 0
314 105 1 0.5897 -8.722325985443828 -6.9530464633797475 4.547212604855714 1 1 0
73 25 2 -1.1794 -8.240752914325327 -4.025709472114272 4.719883795766614 1 0 0
259 87 2 -1.1794 -6.639451038903981 -5.205480380820191 0.404850219094556 1 1 0
282 94 1 0.5897 -10.22922339662636 -4.11199228957843 1.8491543364399141 1 1 0
75 25 1 0.5897 -9.06590172319112 -3.7192580661532952 4.34387391928564 1 0 0
313 105 2 -1.1794 -8.617685206303442 -6.682812513865124 5.459406705528773 1 1 0
281 94 1 0.5897 -8.725689422311747 -3.9516374369211063 1.92267020764688 1 1 0
315 105 1 0.5897 -8.443959753629635 -5.7427847269006485 5.4127167411233605 1 1 0
74 25 1 0.5897 -7.975177214270337 -3.3267789600246145 5.3173446561455275 1 0 0
260 87 1 0.5897 -6.6200333439992125 -6.160530713360903 0.3452267412989889 1 1 0
300 100 1 0.5897 -5.138317460873103 -7.72457813509133 4.166227248766283 1 1 0
322 108 2 -1.1794 -6.432076290765469 -4.927549005725665 3.0405344013553504 1 1 0
275 92 1 0.5897 -10.564445624328517 -8.100360490692369 3.377791291493268 1 1 0
429 143 1 0.5897 -6.403326287850189 -7.235286461908352 8.792922870529914 1 0 0
428 143 1 0.5897 -6.729144663886711 -7.12125490771137 10.266883955284355 1 0 0
427 143 2 -1.1794 -6.018277095096663 -7.001055386607985 9.637255344424494 1 0 0
419 140 1 0.5897 -8.790112800755246 -5.485696382980638 8.829893275548148 1 0 0
418 140 2 -1.1794 -9.498162106850037 -5.936033660814085 9.29033617252393 1 0 0
413 138 1 0.5897 -7.607865734641411 -3.6046983473601157 7.779283805114339 1 0 0
627 209 1 0.5897 -10.06754771797603 -6.784269931978685 6.398105779890561 1 1 0
420 140 1 0.5897 -9.053468302033105 -6.57027335435384 9.852589725418579 1 0 0
618 206 1 0.5897 -7.811338506902255 -7.594096645369813 6.742953612680785 1 1 0
350 117 1 0.5897 -7.312475648371105 -4.0597144227647 9.7527156456852 0 0 0
414 138 1 0.5897 -6.933709937834623 -4.922955801073108 7.463902118504131 1 0 0
412 138 2 -1.1794 -7.506132188661982 -4.499434366281981 8.103600746449347 1 0 0
349 117 2 -1.1794 -7.327651066273645 -3.9252714819404595 10.700238674106714 0 0 0
626 209 1 0.5897 -10.3858480968739 -6.652560411862452 7.872236057420431 1 1 0
351 117 1 0.5897 -7.158538310196805 -2.989971643294762 10.812588901579927 0 0 0
408 136 1 0.5897 -11.019124095261207 -5.0156602320650165 9.469106137817118 1 0 0
631 211 2 -1.1794 -5.804866433299232 -5.695985924469375 6.385386947550321 1 1 0
616 206 2 -1.1794 -7.337495268884542 -8.177675550108807 7.335443217211607 1 1 0
633 211 1 0.5897 -6.1151259545324 -6.265995111128368 5.681951138976746 1 1 0
684 228 1 0.5897 -8.388760030185109 -6.644138036266112 14.323367421390126 0 0 0
788 263 1 0.5897 -5.098472918167298 -4.653771174486162 15.470015148893475 0 0 0
652 218 2 -1.1794 -5.7487101070736255 -5.444679840207753 12.52905256083443 0 0 0
682 228 2 -1.1794 -7.68067182924813 -7.068334577051376 13.838656090390279 0 0 0
780 260 1 0.5897 -7.726944745838976 -3.757915762737852 15.025868512384609 0 0 0
779 260 1 0.5897 -7.42078220513824 -2.8137806253428987 13.882853791992135 0 0 0
778 260 2 -1.1794 -8.14587459945336 -3.2458589570975125 14.334188300943396 0 0 0
768 256 1 0.5897 -9.819057473044834 -2.741166912798036 14.659709859643625 0 0 0
654 218 1 0.5897 -6.234790635544953 -4.991002760270744 11.840555944508935 0 0 0
653 218 1 0.5897 -6.415838831940442 -5.931548984993992 13.012809732079528 0 0 0
661 221 2 -1.1794 -9.320640412542472 -4.753887750677756 12.479687434982518 0 0 0
1087 363 2 -1.1794 -6.652650939701631 -5.196954755433597 16.24789356116673 0 0 0
662 221 1 0.5897 -8.802747249254054 -4.233013809189987 13.093236175809237 0 0 0
663 221 1 0.5897 -8.817574804776443 -4.736029306794703 11.665543537712477 0 0 0
729 243 1 0.5897 -8.309127999192555 -7.155819885920527 11.893988948821917 1 0 0
740 247 1 0.5897 -10.856654222139165 -3.353876126779344 12.156614961136764 1 0 0
766 256 2 -1.1794 -10.741224102548859 -2.497664781534577 14.740645517784515 0 0 0
727 243 2 -1.1794 -8.262038298515598 -7.52513635422375 11.01223186670262 1 0 0
757 253 2 -1.1794 -9.745658254351367 -6.1566375435189356 15.59202754224011 0 0 0
1088 363 1 0.5897 -6.850788279773422 -6.131365700632198 16.187666645895643 0 0 0
1248 416 1 0.5897 -5.899166546847518 -1.8720127153359911 20.55756200004558 0 0 0
1219 407 2 -1.1794 -10.423997762127883 -2.1320317734298335 20.158236102530584 0 0 0
1226 409 1 0.5897 -7.972743270265388 -3.227521791775702 21.519026414235697 0 0 0
1143 381 1 0.5897 -8.426005730620412 -5.435250848182449 21.360534357157885 0 0 0
1152 384 1 0.5897 -6.982414328772773 -4.502615642032493 19.51356812436921 0 0 0
1225 409 2 -1.1794 -8.175287409092405 -3.689807207410473 20.70582271527492 0 0 0
1227 409 1 0.5897 -9.037019334940826 -3.360296910635368 20.45078586140774 0 0 0
1109 370 1 0.5897 -8.662059286972019 -3.748297331972042 17.598509981224357 0 0 0
1108 370 2 -1.1794 -9.344259501468862 -4.4192710248814695 17.61901811254839 0 0 0
1089 363 1 0.5897 -6.577830327505032 -5.027603064126002 17.186944040647376 0 0 0
1151 384 1 0.5897 -6.238755155591752 -5.80498580543435 19.307276722665375 0 0 0
1129 377 2 -1.1794 -7.749254504549929 -2.196185757745945 17.608369040714024 0 0 0
1150 384 2 -1.1794 -6.331646990022818 -4.921739446746319 18.95044981536661 0 0 0
1110 370 1 0.5897 -10.137516648763404 -3.9474100497872477 17.87273160955153 0 0 0
1131 377 1 0.5897 -6.979135669997416 -2.034686834459519 17.063335675039788 0 0 0
1130 377 1 0.5897 -7.442022165204718 -2.0595511672518025 18.50446287627086 0 0 0
1097 366 1 0.5897 -9.022234240424822 -5.961303488854633 18.479461240326746 0 0 0
1221 407 1 0.5897 -10.81994142203555 -2.167849067958853 19.287608931600428 0 0 0
1141 381 2 -1.1794 -8.73758127057448 -6.337450245651782 21.430999942646274 0 0 0
758 253 1 0.5897 -9.58830854368377 -5.556069934745006 16.320438607722558 0 0 0
1121 374 1 0.5897 -4.784921588031761 -3.994762657269548 18.478779871579036 0 0 0
165 55 1 0.5897 -5.451755557009038 -6.138178389761314 21.50693734400354 1 1 -1
417 139 1 0.5897 -9.224561217512676 1.2282564802289695 5.590570910646745 1 0 0
69 23 1 0.5897 -10.971120501233889 -2.8914360668737356 3.462076145597726 1 0 0
272 91 1 0.5897 -9.37629972557292 -1.3304796814130464 1.5979913289132024 1 1 0
271 91 2 -1.1794 -10.179651566179952 -1.0245589290984718 1.1770374848998975 1 1 0
82 28 2 -1.1794 -8.878428259880735 -0.07297140501738753 4.21813693020874 1 0 0
54 18 1 0.5897 -11.527187817245867 -0.447242829854515 2.39330935515476 1 0 0
258 86 1 0.5897 -12.36900979440415 -2.920729087087067 1.5091647622888815 1 1 0
83 28 1 0.5897 -9.378823355492226 -0.8881123389767218 4.252023715914837 1 0 0
67 23 2 -1.1794 -10.54232166090761 -2.506485518316249 4.226243450945865 1 0 0
301 101 2 -1.1794 -7.884008500183183 -2.373885377510974 1.8706401219577158 1 1 0
68 23 1 0.5897 -11.212219135936193 -2.5205468671516096 4.909829963260424 1 0 0
52 18 2 -1.1794 -12.163290911729703 0.11222649840811627 2.838980787318514 1 0 0
98 33 1 0.5897 -12.192967037613695 0.5512472798776216 4.524094437495701 1 0 0
53 18 1 0.5897 -12.269954168470012 0.8648405588467103 2.257345701369398 1 0 0
107 36 1 0.5897 -9.465355047812267 1.5193734974908146 3.4426771205326214 1 0 0
273 91 1 0.5897 -10.294425586117837 -1.607733092408667 0.426857112281378 1 1 0
59 20 1 0.5897 -13.507503941428574 -0.6858053264280795 3.5087556640000757 1 0 0
97 33 2 -1.1794 -12.098969715293583 0.834074728589492 5.433625874613614 1 0 0
44 15 1 0.5897 -10.189725704282532 0.8668571963889207 0.5921514750949407 1 0 0
99 33 1 0.5897 -11.992220782520588 1.783668980840643 5.379780650050997 1 0 0
527 176 1 0.5897 -12.153627639115978 1.4263870884213592 8.781566915845806 1 0 0
526 176 2 -1.1794 -12.886907158144762 0.9946610728230318 9.219798564293098 1 0 0
426 142 1 0.5897 -8.933012824962134 -1.5860135574320946 6.808302402800665 1 0 0
425 142 1 0.5897 -7.449718764836492 -1.2878547255220862 6.859369606730426 1 0 0
424 142 2 -1.1794 -8.075480830090838 -2.0110868608615604 6.822748062197336 1 0 0
402 134 1 0.5897 -11.181663301499102 -0.12574434667319423 6.642008310578731 1 0 0
401 134 1 0.5897 -11.31514058842073 -1.3794888687502658 7.479761020513613 1 0 0
400 134 2 -1.1794 -10.664910311301563 -0.7897119450420629 7.098366451314756 1 0 0
537 179 1 0.5897 -9.589617128014842 -0.1861066202708681 8.491916234153253 1 0 0
536 179 1 0.5897 -9.969278013002102 -0.2159308994814264 9.957082513969597 1 0 0
535 179 2 -1.1794 -9.226731718058266 -0.07270407865749462 9.370270084424178 1 0 0
528 176 1 0.5897 -12.475564308131434 0.41189087035813543 9.858005295825134 1 0 0
435 145 1 0.5897 -7.729446195360419 -1.0015748924373007 9.68760497966948 0 0 0
411 137 1 0.5897 -13.53743038378375 0.40650009704392787 6.411562020320614 1 0 0
522 174 1 0.5897 -10.023568016874435 2.09921847930884 7.500944347497657 1 0 0
415 139 2 -1.1794 -8.876017268249901 1.7476257004887081 6.314980533515117 1 0 0
520 174 2 -1.1794 -10.739936812815234 2.3926078095326133 8.063990767862526 1 0 0
790 264 2 -1.1794 -11.09451914501635 0.06452715340543413 13.77894399185146 0 0 0
770 257 1 0.5897 -12.13639886848048 2.714725691044576 13.203160844391338 0 0 0
762 254 1 0.5897 -9.453961610765651 1.940290556354233 11.862365822234608 0 0 0
761 254 1 0.5897 -9.668952364372625 1.043662910585251 13.062971289896954 0 0 0
760 254 2 -1.1794 -8.981639714878083 1.4328566322788046 12.522324934893895 0 0 0
888 296 1 0.5897 -10.695571090879723 2.999409762602326 15.216114532877755 0 0 0
792 264 1 0.5897 -11.807767024592748 0.45686130969529337 14.282565179476224 0 0 0
835 279 2 -1.1794 -11.266938014638075 -0.4416467632798273 11.089415363457679 1 0 0
837 279 1 0.5897 -11.142395233017941 -0.15629711358445952 11.994475451436664 1 0 0
791 264 1 0.5897 -11.02607225078445 -0.8287893314202037 14.115669587837694 0 0 0
769 257 2 -1.1794 -12.590309096247019 2.5719248217850197 12.372735414454315 0 0 0
896 299 1 0.5897 -8.21499014489163 2.3092573088793653 15.348527601435732 0 0 0
836 279 1 0.5897 -11.597803333968464 -1.3366586948172907 11.16344756629388 1 0 0
771 257 1 0.5897 -11.90302666396699 2.635510915716795 11.709525095007493 0 0 0
866 289 1 0.5897 -12.954312528116601 1.616561155910098 16.1962669106449 0 0 0
1101 367 1 0.5897 -10.30193186415308 -1.3723219054681088 16.1427229170206 0 0 0
1195 399 2 -1.1794 -9.78331141138663 1.936320286662058 16.1722298166032 0 0 0
897 299 1 0.5897 -8.091555605901 2.3646010101969566 13.840763274690712 0 0 0
1196 399 1 0.5897 -9.869203551363839 0.9831698041156685 16.184749178811195 0 0 0
1250 417 1 0.5897 -11.740402929174508 0.45697489399079494 20.5409961086855 0 0 0
1260 420 1 0.5897 -9.99696158746475 2.636993198159688 19.534977567171495 0 0 0
1229 410 1 0.5897 -8.135806632031628 3.323702666095766 18.161764655452433 0 0 0
1259 420 1 0.5897 -9.13366820859005 1.4041280142845114 19.371872033164003 0 0 0
1258 420 2 -1.1794 -9.355175390421234 2.2342434139284304 18.950022001790956 0 0 0
1249 417 2 -1.1794 -11.72861384718745 0.7531445816434612 21.45107143884586 0 0 0
1009 337 2 -1.1794 -11.270636921817033 3.3386315735182794 20.67877602246743 0 -1 0
1246 416 2 -1.1794 -6.447913504857242 -1.3847066228044103 19.943112298466747 0 0 0
1236 412 1 0.5897 -7.855086328610224 -0.5058785746661894 20.20711876415908 0 0 0
1216 406 2 -1.1794 -12.661157415174257 2.5488497069397873 17.758666198588358 0 0 0
1235 412 1 0.5897 -9.351338971904102 -0.7348148178205989 20.230453271093975 0 0 0
1234 412 2 -1.1794 -8.691554730338733 -0.041536178429167236 20.23822405704711 0 0 0
1099 367 2 -1.1794 -9.949253350871222 -0.7337084740543194 16.762219329112376 0 0 0
1100 367 1 0.5897 -9.118660574500321 -1.1122942085850047 17.05029499561023 0 0 0
1206 402 1 0.5897 -11.079643360792598 -0.14731970070944378 18.061810692505663 0 0 0
1247 416 1 0.5897 -5.831306563888335 -0.8513183498539441 19.441688750786664 0 0 0
1197 399 1 0.5897 -9.609159608572133 2.17349538906036 17.08299110298382 0 0 0
1251 417 1 0.5897 -11.549817087502003 1.6917479642847564 21.3956148724071 0 0 0
1011 337 1 0.5897 -12.121669708184562 3.6236134848659187 20.346039132655925 0 -1 0
1217 406 1 0.5897 -12.085806108404208 3.309396715344949 17.839366287537235 0 0 0
1205 402 1 0.5897 -11.929113955125311 1.0244854807788375 18.505807547387978 0 0 0
1204 402 2 -1.1794 -11.728326931839643 0.11255646078901727 18.7159844242199 0 0 0
40 14 2 -1.1794 -15.288827262221577 3.636008710825653 2.016394906509651 1 0 0
177 59 1 0.5897 -14.217746899099465 4.472264968649586 3.3362553595712807 1 0 0
42 14 1 0.5897 -15.766380409153122 4.197367761611046 1.4056928957293515 1 0 0
167 56 1 0.5897 -16.79317082911736 6.32508818939572 3.435833516404836 1 0 0
175 59 2 -1.1794 -13.789794135168817 4.718740269108702 4.156093015150259 1 0 0
55 19 2 -1.1794 -13.43580252597515 6.249320365556519 0.7832818429515347 1 0 0
56 19 1 0.5897 -12.656377158231919 5.844030021957741 1.1632959453484735 1 0 0
66 22 1 0.5897 -13.561047569767545 3.0194279798736545 1.6654019264908868 1 0 0
65 22 1 0.5897 -12.115377683568875 3.4674438288548544 1.6348949257106187 1 0 0
64 22 2 -1.1794 -12.667433256675196 2.6877465393126254 1.577631222061024 1 0 0
43 15 2 -1.1794 -9.977058365367705 1.7922973769597768 0.4723689549071104 1 0 0
162 54 1 0.5897 -14.806999762924999 6.691532648002042 2.0224195946724173 1 0 0
191 64 1 0.5897 -12.966681939244918 6.237398431670572 4.106572371982885 1 0 0
108 36 1 0.5897 -10.191729063670097 2.8176505602655446 3.7230584663798063 1 0 0
183 61 1 0.5897 -12.210217913164628 3.856929913224672 4.497299366206063 1 0 0
181 61 2 -1.1794 -11.384341656019991 3.5020593893659644 4.826211371409555 1 0 0
176 59 1 0.5897 -14.444445589053355 4.541055061336923 4.831433323582178 1 0 0
190 64 2 -1.1794 -12.366150805702963 6.9822920925899385 4.084367960017952 1 0 0
192 64 1 0.5897 -11.498360847777919 6.58838866285209 3.9946552099600443 1 0 0
85 29 2 -1.1794 -11.142605389930846 5.040873439113488 1.6301292952318145 1 0 0
45 15 1 0.5897 -9.795233925914193 2.1129333301415123 1.3556470860875558 1 0 0
106 36 2 -1.1794 -9.621096793262941 2.392507265021356 3.0828468855333506 1 0 0
182 61 1 0.5897 -11.100020899565436 4.131127243300021 5.489107566385637 1 0 0
508 170 2 -1.1794 -13.6231587660839 6.239482875152355 7.054684769147511 1 0 0
645 215 1 0.5897 -12.660627045139234 7.041927856342673 8.393173934385759 1 0 0
644 215 1 0.5897 -13.061402047374486 7.113561177355583 9.851254481140696 1 0 0
643 215 2 -1.1794 -12.317485487346918 7.244642573795284 9.263344649243793 1 0 0
509 170 1 0.5897 -14.265492939111851 5.849693501279404 7.647685464965028 1 0 0
543 181 1 0.5897 -11.075653390823677 5.840945940436567 9.673966661548837 0 0 0
532 178 2 -1.1794 -11.249901052099943 5.043168439549136 7.199014764726243 1 0 0
636 212 1 0.5897 -15.388672342333884 7.638188252524843 9.78757225981178 1 0 0
510 170 1 0.5897 -14.14851492406847 6.71068121413108 6.408074140769639 1 0 0
534 178 1 0.5897 -12.115631449000821 5.451459707013006 7.191088741064296 1 0 0
521 174 1 0.5897 -10.988444489288227 3.24676899613757 7.7107715108162065 1 0 0
459 153 1 0.5897 -10.25218014949744 3.8500638451458666 10.630369591336907 0 0 0
518 173 1 0.5897 -16.851781968625865 7.399060860747026 7.710877403931287 1 0 0
533 178 1 0.5897 -10.639797530869698 5.775850811617513 7.282254903503924 1 0 0
477 159 1 0.5897 -15.86206332650833 4.7358465860601076 6.626855972058195 1 0 0
457 153 2 -1.1794 -10.295701559045893 2.8944448268385727 10.661065113997273 0 0 0
458 153 1 0.5897 -10.467679808338053 2.6329358643201726 9.75657752227133 0 0 0
541 181 2 -1.1794 -10.225286395113827 5.530089213426654 9.98447624537088 0 0 0
538 180 2 -1.1794 -15.634168049683332 4.775136688695435 8.420065764364299 1 0 0
519 173 1 0.5897 -16.75678472018467 7.3363711890993155 6.2013440627142575 1 0 0
887 296 1 0.5897 -10.495968565523643 3.778192045857624 13.933423045509514 0 0 0
874 292 2 -1.1794 -13.635744347961547 4.7512390617008915 14.901631526715132 0 0 0
876 292 1 0.5897 -12.741810412451215 4.417692343940443 14.97822021137539 0 0 0
944 315 1 0.5897 -14.56574930685757 5.696088539634788 11.111171424281157 1 0 0
945 315 1 0.5897 -14.261669711143423 6.984429780146511 11.845355795405217 1 0 0
848 283 1 0.5897 -13.939090827989816 3.6842804509441507 12.164381421735786 1 0 0
900 300 1 0.5897 -14.717005135277986 7.558341815373167 14.266112308704791 0 0 0
899 300 1 0.5897 -13.982555279980915 6.245877320383277 14.093527609758514 0 0 0
898 300 2 -1.1794 -14.095191043590049 7.108375701267443 13.694155324409655 0 0 0
869 290 1 0.5897 -12.783777960346265 8.125958031246617 12.98578143488162 0 0 0
875 292 1 0.5897 -14.185449487401256 3.9677873337899445 14.906844272444966 0 0 0
886 296 2 -1.1794 -11.176519104764637 3.4270020004117434 14.507616923411048 0 0 0
847 283 2 -1.1794 -14.741836433745453 4.02670079344991 11.771282488375522 1 0 0
649 217 2 -1.1794 -16.006994888502092 7.915685815147954 15.549287254323618 0 -1 0
650 217 1 0.5897 -15.7336898528871 8.538641191304139 16.22251220973841 0 -1 0
943 315 2 -1.1794 -14.416040391802294 6.630725788469782 10.969500902106661 1 0 0
1018 340 2 -1.1794 -11.854831090600047 6.976856753380195 19.895183905769454 0 -1 0
1019 340 1 0.5897 -12.487469374882334 6.264491741460597 19.986417438627242 0 -1 0
1020 340 1 0.5897 -11.002481008828651 6.5413248494527085 19.88694231846568 0 -1 0
988 330 2 -1.1794 -15.281034560311536 7.238928699866085 18.707741063426717 0 -1 0
1237 413 2 -1.1794 -10.902114161376925 4.717736217740111 17.656822195785605 0 0 0
1003 335 2 -1.1794 -13.496011552004667 4.715249215716666 19.98745575042929 0 -1 0
1030 344 2 -1.1794 -9.358707529699881 5.863836612985063 19.717433540728315 0 -1 0
1032 344 1 0.5897 -8.88275395152367 5.319338466214017 20.344431403318904 0 -1 0
1043 348 1 0.5897 -12.247348594391436 8.550761193349784 19.198702151257386 0 -1 0
1207 403 2 -1.1794 -13.13360033887448 6.304926262662265 17.162029095602207 0 0 0
1208 403 1 0.5897 -12.37199256366341 5.811524665372742 17.46650440510395 0 0 0
1239 413 1 0.5897 -10.378617016130097 4.82183024883339 16.862256769738128 0 0 0
1238 413 1 0.5897 -10.28755513918182 4.880959981324262 18.372156156820463 0 0 0
990 330 1 0.5897 -14.49222057972671 6.962565674233959 18.241175408581558 0 -1 0
980 327 1 0.5897 -12.844376150845367 7.922830242796456 16.268278676005806 0 -1 0
989 330 1 0.5897 -15.389282682401287 8.16010126664044 18.471500367769853 0 -1 0
1033 345 2 -1.1794 -14.73891872771437 7.5583096857978 21.42543852193216 0 -1 0
1034 345 1 0.5897 -14.768606594561927 7.315164055542487 20.500184964881452 0 -1 0
1035 345 1 0.5897 -14.655952422195323 8.511789139137099 21.420399147249725 0 -1 0
1209 403 1 0.5897 -13.467812742040238 5.797943670489953 16.42225120870863 0 0 0
57 19 1 0.5897 -11.81468929189059 8.163076597947663 21.311658997391785 1 0 -1
1010 337 1 0.5897 -10.963935390572264 4.071674778913366 21.21222313604038 0 -1 0
291 97 1 0.5897 -15.557212197929248 10.595573805070506 4.652541343953364 1 0 0
174 58 1 0.5897 -17.091218497809535 9.853822098860972 1.650450566348162 1 0 0
173 58 1 0.5897 -15.6352847301157 10.26706246992073 1.684125478225512 1 0 0
172 58 2 -1.1794 -16.206487932221357 9.501802311450723 1.7482936555227728 1 0 0
283 95 2 -1.1794 -17.08246001753453 11.469241910236049 4.331871960847344 1 0 0
161 54 1 0.5897 -15.602852101247942 7.965339339034964 2.211741488119114 1 0 0
216 72 1 0.5897 -13.437640838391772 9.858954992305206 3.5437098955072113 1 0 0
215 72 1 0.5897 -12.713925267652883 8.544701752530637 3.341847325543862 1 0 0
285 95 1 0.5897 -17.55364725815671 11.299189704701822 3.5163342126566666 1 0 0
148 50 2 -1.1794 -18.611150985325402 10.845999397689363 2.0028943064187716 1 0 0
289 97 2 -1.1794 -14.647069365307207 10.334090867650536 4.79206538724744 1 0 0
150 50 1 0.5897 -19.00272200242327 11.377364635721849 1.3097509976100261 1 0 0
284 95 1 0.5897 -17.74507415017053 11.37446101187347 5.016123574677395 1 0 0
153 51 1 0.5897 -13.208586817819835 9.208603533359392 1.240936942522465 1 0 0
214 72 2 -1.1794 -12.852411734176581 9.402066359468089 2.9395456160048927 1 0 0
193 65 2 -1.1794 -14.275696643148539 11.719194853711608 1.6989063454186741 1 0 0
207 69 1 0.5897 -14.977922807643157 8.615281032030884 5.2891728932832205 1 0 0
290 97 1 0.5897 -14.379014286815817 10.808806012416033 5.578706321522176 1 0 0
205 69 2 -1.1794 -15.141420315527206 7.6729067574756815 5.324123562339781 1 0 0
525 175 1 0.5897 -11.920432207234853 8.046375856566433 5.4507331445262786 1 0 0
206 69 1 0.5897 -15.184505557814198 7.402700238607386 4.406940172358753 1 0 0
160 54 2 -1.1794 -15.44208777908174 7.1077733823814935 2.605234841464263 1 0 0
151 51 2 -1.1794 -13.23231623867724 8.868415775844527 0.3466225671355494 1 0 0
152 51 1 0.5897 -13.20797992810055 7.917323601891924 0.4509817407777097 1 0 0
640 214 2 -1.1794 -14.268164911530768 12.021694421518086 7.014570977025809 1 0 0
630 210 1 0.5897 -13.042553755236643 9.25223963386433 7.349066268220876 1 0 0
629 210 1 0.5897 -13.946386712095201 10.435401880516798 7.623077733820421 1 0 0
628 210 2 -1.1794 -13.778500813853064 9.532644845085928 7.893158315437661 1 0 0
566 189 1 0.5897 -13.447722362904479 9.788101507052575 9.666414014018772 0 0 0
635 212 1 0.5897 -15.013657575692898 8.558502335858067 8.645649912303243 1 0 0
617 206 1 0.5897 -17.481500698329555 12.585928424624887 7.879520141361213 1 0 0
634 212 2 -1.1794 -15.76389179538371 8.12899877070606 9.056523139436807 1 0 0
642 214 1 0.5897 -15.134655448917876 12.35653086500068 7.245510985985453 1 0 0
567 189 1 0.5897 -13.513056654321549 10.972196881890516 10.607232173879657 0 0 0
565 189 2 -1.1794 -13.371774992114211 10.025709630100087 10.590458905686868 0 0 0
325 109 2 -1.1794 -13.273367087103043 12.72380315359412 10.159460214458917 0 -1 0
327 109 1 0.5897 -14.074445448954418 13.135285826768284 9.83519985715088 0 -1 0
641 214 1 0.5897 -13.689347582152156 12.779915594305878 7.0923510832322645 1 0 0
658 220 2 -1.1794 -16.651372060645258 11.53970511433849 15.137517568529754 0 -1 0
870 290 1 0.5897 -12.483594802234329 9.177513011529557 11.939023080263675 0 0 0
683 228 1 0.5897 -17.069547908692982 13.220711198121544 14.23282071826518 0 -1 0
671 224 1 0.5897 -13.652988634026592 10.754776982536496 14.012738214659647 0 -1 0
670 224 2 -1.1794 -14.38998938984485 10.347141276827601 14.467512294316473 0 -1 0
672 224 1 0.5897 -13.985954860100426 9.833066679214719 15.166516290545726 0 -1 0
956 319 1 0.5897 -17.315791466685837 10.557932014667225 12.13746024809268 1 0 0
660 220 1 0.5897 -15.767161870148742 11.194568528979824 15.013744918909168 0 -1 0
879 293 1 0.5897 -14.929482206660245 9.903312043403806 11.575736516369808 0 0 0
878 293 1 0.5897 -15.275198738684352 9.994651557862733 13.04674539020968 0 0 0
877 293 2 -1.1794 -15.655524194210848 9.798481130152995 12.190645237190928 0 0 0
868 290 2 -1.1794 -12.087432407874912 8.70078690638981 12.668339764555052 0 0 0
680 227 1 0.5897 -11.422310532786172 9.593798488756045 15.405181701011704 0 -1 0
728 243 1 0.5897 -17.80807086081714 12.688540676411113 11.142914002823561 1 -1 0
659 220 1 0.5897 -17.227542040700584 10.807017333965701 14.920323346072854 0 -1 0
1140 380 1 0.5897 -12.270269590885038 12.234593863390755 20.29062038177465 0 -1 0
1138 380 2 -1.1794 -12.710681429474871 12.856085972049653 19.711034491917257 0 -1 0
1128 376 1 0.5897 -14.392680375331443 13.493261535474817 19.90296232260659 0 -1 0
1127 376 1 0.5897 -15.818265355013786 13.134253839986927 20.26428290727368 0 -1 0
1022 341 1 0.5897 -13.69063504213536 12.068921530448305 18.39651019123925 0 -1 0
1119 373 1 0.5897 -15.330253167942274 10.624670855126796 20.523253313580646 0 -1 0
1117 373 2 -1.1794 -14.470191879468079 10.284810529188436 20.770218788659975 0 -1 0
1044 348 1 0.5897 -13.297693873036883 9.612708353970353 19.445622280626534 0 -1 0
1042 348 2 -1.1794 -12.530241554463043 9.417639302400952 18.907811215119352 0 -1 0
1013 338 1 0.5897 -11.176730437598 10.497096368091396 18.359901217888407 0 -1 0
993 331 1 0.5897 -16.78384892905654 12.58445715621628 16.518456602852222 0 -1 0
981 327 1 0.5897 -12.843498002918746 9.139398561759643 17.169061294884948 0 -1 0
991 331 2 -1.1794 -16.627453475372754 13.299284668708806 17.135367917901142 0 -1 0
992 331 1 0.5897 -15.822931953054578 13.05138581185072 17.590815812138782 0 -1 0
1126 376 2 -1.1794 -15.208028000015736 13.87088575058012 20.232938146716783 0 -1 0
1023 341 1 0.5897 -13.379148503351196 12.207620819284708 16.92156711736653 0 -1 0
1021 341 2 -1.1794 -14.054571527101704 11.90220170045759 17.52714193096193 0 -1 0
1001 334 1 0.5897 -15.059241089510369 10.480356723380646 17.50986107654025 0 -1 0
1000 334 2 -1.1794 -15.606841004676397 9.700567079142003 17.599668587773724 0 -1 0
1111 371 2 -1.1794 -16.832598821572063 11.535208131750197 20.102831110911097 0 -1 0
1002 334 1 0.5897 -16.50311585537146 10.036501214298559 17.60912336366524 0 -1 0
1098 366 1 0.5897 -18.01451340063695 13.78638918907471 18.19440103524126 0 -1 0
1118 373 1 0.5897 -14.188303098685836 10.846889443755627 21.49175169446742 0 -1 0
979 327 2 -1.1794 -12.808649087482955 8.879064309685008 16.248668633224465 0 -1 0
305 102 1 0.5897 -1.3962797429172618 -6.131711106233277 2.367438763911532 1 1 0
311 104 1 0.5897 -2.6584019849721123 -7.781519179934368 3.3593097183990097 1 1 0
318 106 1 0.5897 -2.66813837380405 -4.199316819465557 1.6798848737855985 1 1 0
306 102 1 0.5897 -0.5420623153987982 -7.36106460552749 2.141961290055448 1 1 0
243 81 1 0.5897 -0.842938694386266 -5.560261592735138 5.54847994191871 0 1 0
304 102 2 -1.1794 -1.2171454336523269 -7.003765423766993 2.718916770688683 1 1 0
316 106 2 -1.1794 -1.7927383807860409 -4.574997447670732 1.5860490629322046 1 1 0
242 81 1 0.5897 -1.0903596523672654 -6.648348331969633 4.525634818725834 0 1 0
310 104 2 -1.1794 -3.40082252511006 -8.196637131833803 3.798205388155906 1 1 0
293 98 1 0.5897 -4.973629722046173 -3.8514808852113065 2.3595548654819827 1 1 0
241 81 2 -1.1794 -1.015497102747366 -6.498211211984133 5.467945614783867 0 1 0
317 106 1 0.5897 -1.1989084637988103 -3.8374262358682696 1.7251084981425127 1 1 0
3 1 1 0.5897 -1.2181591906996516 -3.4514529764586497 4.659906121467781 0 0 0
201 67 1 0.5897 0.434176677878753 -8.591577431553514 0.45099805110257485 1 1 0
544 182 2 -1.1794 0.45645226555166474 -7.780123826522677 7.369883488921771 0 1 0
555 185 1 0.5897 -2.777749321283835 -6.748352909519824 6.415092395259717 0 1 0
554 185 1 0.5897 -2.9124959432967454 -6.8078021692297686 7.921735502755701 0 1 0
553 185 2 -1.1794 -3.4033781810459125 -6.946515252668216 7.111899871128734 0 1 0
546 182 1 0.5897 -0.05375963712561038 -7.32644236617444 6.699084114487067 0 1 0
359 120 1 0.5897 -4.754825054041966 -3.0844373423256712 8.554507334955218 0 0 0
632 211 1 0.5897 -4.9296403971529035 -6.024077621741131 6.5916324086293265 1 1 0
348 116 1 0.5897 -1.5051890352255182 -6.376506697750054 9.987439195599379 0 0 0
347 116 1 0.5897 -1.3597599711236104 -5.29273009250945 8.940610067128862 0 0 0
346 116 2 -1.1794 -1.997331350321648 -5.896506819299967 9.321467162599026 0 0 0
336 112 1 0.5897 -3.5646219183603973 -5.077602292237961 9.627793258239045 0 0 0
334 112 2 -1.1794 -4.4165245349906765 -4.642385248042196 9.594605609110191 0 0 0
356 119 1 0.5897 1.1891526107897423 -7.006401586968735 10.142462407481187 0 0 0
335 112 1 0.5897 -5.0525832197167535 -5.355901478405254 9.642951055846027 0 0 0
326 109 1 0.5897 -3.4805709070863307 -7.827414221072128 10.821679230874919 0 0 0
404 135 1 0.5897 -5.36869768519881 -4.007457760899793 5.629917006831061 1 0 0
787 263 2 -1.1794 -4.398985607889448 -4.485331008172576 14.838691399813131 0 0 0
793 265 2 -1.1794 -2.1209424963454087 -5.870278872480457 15.423967677327886 0 0 0
795 265 1 0.5897 -2.9642465062623717 -5.4806240202801435 15.193297260432646 0 0 0
803 268 1 0.5897 -3.176462912071047 -3.061311324989962 15.152426636161165 0 0 0
678 226 1 0.5897 -4.173442161537357 -6.294010099526982 12.413091963572402 0 0 0
718 240 2 -1.1794 -0.2107250745697602 -6.8572214937602745 13.762971490948583 0 0 0
789 263 1 0.5897 -4.8178837219478154 -4.585489815994975 13.98397429100221 0 0 0
699 233 1 0.5897 -0.9464177942467149 -4.19315942099148 11.782565635330803 0 0 0
697 233 2 -1.1794 -1.6198162855315221 -4.48160339183961 12.398633510604546 0 0 0
677 226 1 0.5897 -2.6792550810173683 -6.1442096731836315 12.221284728207214 0 0 0
676 226 2 -1.1794 -3.377930608531897 -6.79802099985157 12.241596138521626 0 0 0
698 233 1 0.5897 -1.198895058981023 -4.428294062193836 13.256562093192096 0 0 0
668 223 1 0.5897 -3.154445590142588 -3.1402047238889788 12.086654503152232 0 0 0
667 223 2 -1.1794 -3.9814062662294836 -2.8395990077517705 11.70990889778886 0 0 0
802 268 2 -1.1794 -2.66771849768055 -2.2573328285475487 15.04850619230331 0 0 0