LAMMPS data file via write_data, version 30 Jul 2021, timestep = 30250000

864 atoms
2 atom types
576 bonds
1 bond types
288 angles
1 angle types

0.1089484410329824 18.09862395896596 xlo xhi
0.22090733370952798 23.408270466301197 ylo yhi
0.15788472168180867 22.055311078310744 zlo zhi

Masses

1 1.00794
2 15.9994

Atoms # full

707 1 1 0.5897 3.132349288188247 2.125010083143867 3.7569893614098504 0 0 0
706 1 2 -1.1794 3.140750720379956 2.238795938491258 2.806673954015228 0 0 0
30 1 1 0.5897 5.426330456369316 4.224889772346283 2.3517276857143345 0 0 0
708 1 1 0.5897 2.25285837567267 2.5243224467917833 2.5913133457894744 0 0 0
29 1 1 0.5897 4.543361649282269 2.995495229896386 2.3212055522780273 0 0 0
28 1 2 -1.1794 5.366368341401334 3.345037177985935 1.9795600652329182 0 0 0
495 1 1 0.5897 7.959018128612128 2.2813413002078864 2.9852364114011825 0 0 0
1 1 2 -1.1794 0.65688903125503 3.086769452483355 2.1383783965589016 0 0 0
494 1 1 0.5897 6.469418465726953 2.1409621707825215 2.7542780725791736 0 0 0
493 1 2 -1.1794 7.2001158660232205 1.7554013345157036 3.237647026008909 0 0 0
846 1 1 0.5897 7.3402238627345 1.8499152094595182 5.04379937001838 0 0 0
3 1 1 0.5897 0.5060602204348706 4.0050727564638455 2.362497665368009 0 0 0
20 1 1 0.5897 0.6053151405275463 3.1596808405490417 0.2685649800646005 0 0 0
595 1 2 -1.1794 0.6064521879576653 5.5370816033857055 2.989013353910288 0 0 0
137 1 1 0.5897 5.179774534460305 5.731903620884462 4.080202905864043 0 0 0
136 1 2 -1.1794 5.256334851862275 5.837846067104586 3.13202838837035 0 0 0
668 1 1 0.5897 5.267283284262758 3.1515063851437124 0.22948193196665795 0 0 0
597 1 1 0.5897 0.7209438783161377 5.704987242082207 3.924332288527445 0 0 0
188 1 1 0.5897 3.279677194144448 0.5556844626944724 2.455167342837818 0 1 0
819 1 1 0.5897 7.482784019507443 0.24241239130572012 2.392828900217611 0 0 0
176 1 1 0.5897 9.063832087489576 2.7129556044846237 9.855243406476376 0 0 0
419 1 1 0.5897 8.792143327450356 2.847862104668831 6.564307371873776 0 0 0
676 1 2 -1.1794 5.017495218130854 5.886477402411458 10.449744273507537 0 0 0
844 1 2 -1.1794 7.333964336546311 1.8606072816328751 6.00085918422063 0 0 0
355 1 2 -1.1794 7.5188272748542015 1.8496518152300452 10.139644023681887 0 0 0
685 1 2 -1.1794 5.20242813626993 5.583411715112318 5.84244648595833 0 0 0
275 1 1 0.5897 5.271635734293334 3.2255738398551994 8.625142098960191 0 0 0
356 1 1 0.5897 7.471855957922583 0.9132435446414136 9.946763359354566 0 0 0
276 1 1 0.5897 6.001272427700517 2.770640339932202 9.8710909121872 0 0 0
784 1 2 -1.1794 0.670153878362498 3.0057465896557845 6.395213642858827 0 0 0
487 1 2 -1.1794 3.033505109897345 1.8670868022957172 5.67069383464412 0 0 0
181 1 2 -1.1794 0.6146422248718628 5.739544384582921 5.726631751979218 0 0 0
35 1 1 0.5897 0.7260714608762507 4.0351130057050195 9.531928571666528 0 0 0
686 1 1 0.5897 5.0931401436212695 4.711010744630165 6.220889549117715 0 0 0
678 1 1 0.5897 5.137625668659942 4.949211640529552 10.296885195455424 0 0 0
785 1 1 0.5897 0.7247966300793554 3.0497549957786476 7.349792953923522 0 0 0
674 1 1 0.5897 3.8209687304470914 2.34493550243117 10.048189890519096 0 0 0
36 1 1 0.5897 1.5304238316299137 2.7552491310248293 9.615349346161889 0 0 0
34 1 2 -1.1794 0.826761028480907 3.176225335089064 9.121524704534174 0 0 0
83 1 1 0.5897 4.329101625122319 2.6335003494894553 6.584559898356933 0 0 0
84 1 1 0.5897 5.837239334106923 2.50821407578283 6.626734954792314 0 0 0
845 1 1 0.5897 7.352933424849851 0.9369283370512174 6.251295323707153 0 0 0
183 1 1 0.5897 0.580631113084007 4.809167467997415 5.949141562105543 0 0 0
488 1 1 0.5897 2.190813947043638 2.291165883501744 5.832820447073773 0 0 0
673 1 2 -1.1794 3.072962760425748 1.8671676774919062 10.40661186268437 0 0 0
675 1 1 0.5897 3.1351431331684583 0.995641026995464 10.015666289476325 0 0 0
82 1 2 -1.1794 5.112458250693036 3.040809174947744 6.954274607626915 0 0 0
489 1 1 0.5897 2.902167043006256 0.9594858027468349 5.945055685946075 0 0 0
274 1 2 -1.1794 5.261662855521683 3.3034993278226397 9.5790522464408 0 0 0
112 1 2 -1.1794 0.6756598439186148 5.783419601995119 10.159072826515882 0 0 0
357 1 1 0.5897 7.514484338542477 1.8982694539473957 11.09553832961373 0 0 0
166 1 2 -1.1794 3.092230082126227 1.7139612912146023 13.046039051638987 0 0 0
167 1 1 0.5897 3.099942460828205 1.7812048828520797 12.09129559475195 0 0 0
457 1 2 -1.1794 5.312715682822544 3.200487665864462 13.95430690111236 0 0 0
458 1 1 0.5897 6.032224008322565 2.700335443429837 13.569082969225228 0 0 0
459 1 1 0.5897 4.521189998985609 2.779647211983864 13.618701464728447 0 0 0
762 1 1 0.5897 5.113376441418862 5.023639607328846 13.502066152214956 0 0 0
594 1 1 0.5897 8.244765155588263 2.5476947234799487 13.358631271743238 0 0 0
168 1 1 0.5897 2.3171642725627475 2.207065121450051 13.315073012416216 0 0 0
71 1 1 0.5897 5.353869320204407 3.214689992839401 15.75094693181348 0 0 0
592 1 2 -1.1794 7.494275513341058 2.097351972460876 12.971083721095921 0 0 0
466 1 2 -1.1794 0.7953261248809521 3.2054931375349605 13.861402311419635 0 0 0
593 1 1 0.5897 7.597052294179989 1.1844684613283292 13.240039360706728 0 0 0
468 1 1 0.5897 0.7765714405369347 3.393138346913393 14.799783050227973 0 0 0
365 1 1 0.5897 0.8038940015884455 4.834499236745882 13.14473118633439 0 0 0
113 1 1 0.5897 0.7481189540186102 5.85178651447426 11.111023312832009 0 0 0
761 1 1 0.5897 4.8613753592752165 5.79963979119658 12.226897076690998 0 0 0
133 1 2 -1.1794 0.719421784173282 3.5991597707539955 16.552680494701804 0 0 0
760 1 2 -1.1794 4.962669180658746 5.909527573388387 13.172309722702368 0 0 0
364 1 2 -1.1794 0.8907325760487749 5.754339870166789 12.894507252121267 0 0 0
144 1 1 0.5897 5.60314142731118 5.839074394581571 19.57893382510838 0 0 0
360 1 1 0.5897 9.06642420180601 2.667258138935364 21.06360940704532 0 0 0
571 1 2 -1.1794 0.6063309307094644 5.945157769917085 17.962126756730882 0 0 0
568 1 2 -1.1794 3.119905654140857 1.8208277836404756 20.40518137014093 0 0 0
40 1 2 -1.1794 7.707618051628926 1.8171483500870982 20.170542858502024 0 0 0
669 1 1 0.5897 4.521497677659747 2.748849340196778 20.872559768611573 0 0 0
143 1 1 0.5897 5.466612496687881 4.850019872098651 20.716870864952284 0 0 0
42 1 1 0.5897 7.759449114135332 0.9418207598568532 20.554418233700687 0 0 0
648 1 1 0.5897 0.652438791622299 5.914859797948989 19.761641168171053 0 0 0
754 1 2 -1.1794 7.738515568173442 2.1120191730767734 17.43498591789588 0 0 0
41 1 1 0.5897 6.920154880999327 2.2018067060942155 20.55548404190661 0 0 0
290 1 1 0.5897 2.7637822776842036 1.21442190000402 17.37138762930102 0 0 0
19 1 2 -1.1794 0.7349933886617344 3.0104205525167225 21.229493014123662 0 0 0
756 1 1 0.5897 6.883548242308101 2.4302799846410603 17.145176444012698 0 0 0
291 1 1 0.5897 2.2525046361760976 2.6160884676162866 17.114673689684714 0 0 0
134 1 1 0.5897 0.7358093997496699 4.42831318572675 17.030664108214914 0 0 0
569 1 1 0.5897 2.3418001992629303 2.2675972445225967 20.7386374308331 0 0 0
21 1 1 0.5897 0.6910990847805061 3.8832797286795304 20.839059396199538 0 0 0
570 1 1 0.5897 3.0026438977704526 1.8114892730294871 19.45529638867415 0 0 0
667 1 2 -1.1794 5.3685757444922535 3.07317250587506 21.178372268422144 0 0 0
70 1 2 -1.1794 5.2799294822411715 3.4061062166809917 16.68583438414845 0 0 0
289 1 2 -1.1794 2.993166047248821 2.1366662841937956 17.485907315122738 0 0 0
278 1 1 0.5897 5.314100849610621 4.985035141950536 17.495385014766953 0 0 0
646 1 2 -1.1794 0.6680364037324038 5.699961734091258 20.69421724719323 0 0 0
755 1 1 0.5897 7.673837118775643 2.085850651601482 18.389579766826472 0 0 0
72 1 1 0.5897 4.479726239317842 2.958021597846623 16.9599700739452 0 0 0
323 1 1 0.5897 7.565787133394997 0.3794690164695597 16.888912362806067 0 1 0
142 1 2 -1.1794 5.548631600566235 5.785830788472192 20.533035646263933 0 0 0
277 1 2 -1.1794 5.373186469763351 5.9120084754757025 17.72666460116686 0 0 0
123 1 1 0.5897 3.0759586916706403 8.756109060191378 2.7360553218581063 0 0 0
121 1 2 -1.1794 3.1896743678902957 9.66674320093648 3.008214684694288 0 0 0
122 1 1 0.5897 2.9701713818974214 9.667941700296796 3.9398471189933177 0 0 0
44 1 1 0.5897 1.5460507395536867 10.478415857821153 2.5281647304918655 0 0 0
218 1 1 0.5897 6.190870757062355 10.567232767386601 2.2866395795864203 0 0 0
417 1 1 0.5897 8.242361269538428 6.498804551855522 2.567142979787958 0 0 0
219 1 1 0.5897 4.67886486026489 10.503054640504743 2.245542885636322 0 0 0
254 1 1 0.5897 3.0389564787363677 6.926838284807778 1.3689465279697675 0 0 0
415 1 2 -1.1794 7.532442727556402 7.026196893126644 2.2009307826822164 0 0 0
217 1 2 -1.1794 5.424998551079361 10.997850869226877 1.9068457257724394 0 0 0
66 1 1 0.5897 7.3173599522038195 9.58461095924488 3.931685262856562 0 0 0
65 1 1 0.5897 7.572405677355456 8.7271975379622 2.7103989811812355 0 0 0
64 1 2 -1.1794 7.434032436870951 9.634287157062765 2.982981879475366 0 0 0
253 1 2 -1.1794 2.9555314684778007 6.971082762920493 2.321417380665429 0 0 0
255 1 1 0.5897 2.1374868987790676 6.512122659030847 2.5122393379394747 0 0 0
416 1 1 0.5897 6.734485563828002 6.633384689383972 2.5547686620446433 0 0 0
43 1 2 -1.1794 0.7028040578111422 10.836199871093651 2.250358234788373 0 0 0
396 1 1 0.5897 0.849930175768517 11.023350516430167 0.501248032713739 0 0 0
138 1 1 0.5897 4.459522173105322 6.303179929614445 2.8774486006362214 0 0 0
773 1 1 0.5897 8.925235168552403 10.575197458955463 2.543859304061514 0 0 0
45 1 1 0.5897 0.7401804711518528 11.759713483669428 2.4993229438691857 0 0 0
162 1 1 0.5897 7.79267826758336 6.9807963008943075 0.44610371093862766 0 0 1
14 1 1 0.5897 0.7828764837769793 11.728396874892832 9.51709975952366 0 0 0
165 1 1 0.5897 8.959752500733256 6.115484016945021 6.072854922472139 0 0 0
527 1 1 0.5897 7.3552859557224615 7.896885155928804 9.69991491346807 0 0 0
677 1 1 0.5897 5.84767259830973 6.281463004632843 10.183205561272572 0 0 0
650 1 1 0.5897 2.984034972486403 7.106612705035995 8.50913467874619 0 0 0
687 1 1 0.5897 4.396304328802049 6.046567704439419 6.070267330888121 0 0 0
256 1 2 -1.1794 2.894114243638266 9.727849433250874 10.5640986043937 0 0 0
526 1 2 -1.1794 7.303562920705522 6.9836286496586695 9.417855217275635 0 0 0
820 1 2 -1.1794 7.408857124716933 9.52739131397223 10.19096100789739 0 0 0
712 1 2 -1.1794 7.132804518824061 9.686427488413562 5.780019836537876 0 0 0
10 1 2 -1.1794 2.8608605711869237 6.920469095424143 6.624195589497323 0 0 0
12 1 1 0.5897 2.847533295611938 7.837943382088067 6.351563779313888 0 0 0
550 1 2 -1.1794 0.599012663154232 10.97508306948503 6.5292122305179605 0 0 0
713 1 1 0.5897 7.92624366331019 10.139857873241906 6.064810267219866 0 0 0
145 1 2 -1.1794 7.528103942588961 7.032343425838926 6.641078365643575 0 0 0
714 1 1 0.5897 7.241599082018251 8.789970977535834 6.097497559631769 0 0 0
146 1 1 0.5897 6.779164438572048 6.5094897507069565 6.354767449130909 0 0 0
578 1 1 0.5897 5.649605521823766 10.619521796930977 6.412494319792841 0 0 0
258 1 1 0.5897 3.639842998733355 10.161561979528255 10.149325724288087 0 0 0
114 1 1 0.5897 1.4306808851646986 6.268121471223702 9.825526548570316 0 0 0
793 1 2 -1.1794 2.7639066748367083 9.568616656444279 5.704336713703066 0 0 0
147 1 1 0.5897 7.545707767146766 6.925630818706541 7.592089575787433 0 0 0
651 1 1 0.5897 3.6893405540277 6.781062512564864 9.808468765127776 0 0 0
822 1 1 0.5897 8.19251249251179 9.991471191544473 9.8963946222956 0 0 0
257 1 1 0.5897 2.9459898672053617 8.820778809198199 10.262784034239637 0 0 0
582 1 1 0.5897 5.021301611233045 11.037809046254994 8.510789601238923 0 0 0
581 1 1 0.5897 5.867965567054416 10.513932318576312 9.651171902297161 0 0 0
794 1 1 0.5897 1.9773253567396298 10.06261411427128 5.9356638881772685 0 0 0
580 1 2 -1.1794 5.082017856877578 11.027971414668723 9.465951743521956 0 0 0
13 1 2 -1.1794 0.7820481814241871 10.800464961928002 9.282151298473272 0 0 0
577 1 2 -1.1794 4.850646189210885 11.02199953974095 6.75297878545254 0 0 0
528 1 1 0.5897 8.102837177601792 6.581676895240633 9.758214432012885 0 0 0
551 1 1 0.5897 0.61754182658001 10.91252668219321 7.48412552450503 0 0 0
649 1 2 -1.1794 2.9064332962888324 7.20583967897733 9.457950606722328 0 0 0
795 1 1 0.5897 3.483674762538278 10.070543321925426 6.086768632154728 0 0 0
11 1 1 0.5897 2.023348117057569 6.568349361613909 6.322790950933032 0 0 0
15 1 1 0.5897 1.5094900538175158 10.426366817867363 9.779240745613055 0 0 0
828 1 1 0.5897 7.387689503031648 7.344994257074232 14.782468663205155 0 0 0
261 1 1 0.5897 0.7392717338768258 11.127374214669501 15.19275964486716 0 0 0
332 1 1 0.5897 2.9486401036322754 8.055406596539257 13.91833595325591 0 0 0
797 1 1 0.5897 3.061889057146454 9.805637284810917 12.410771043701756 0 0 0
796 1 2 -1.1794 3.071554165027869 9.834255803877744 13.367434626596578 0 0 0
798 1 1 0.5897 2.253597350419152 10.272269189657083 13.602690172143795 0 0 0
722 1 1 0.5897 4.552724675863371 10.553080535745929 14.087409191110467 0 0 0
259 1 2 -1.1794 0.7960999750526289 11.208165619955118 14.240720573624188 0 0 0
721 1 2 -1.1794 5.337684864200123 11.072271902117771 14.26223113580606 0 0 0
723 1 1 0.5897 5.478602085263966 10.984261823461772 15.204848582880315 0 0 0
331 1 2 -1.1794 2.876497533467877 7.164757350750962 14.261538271528261 0 0 0
225 1 1 0.5897 3.016782017318069 7.0839824916604215 16.071943430773448 0 0 0
826 1 2 -1.1794 7.284370920007858 7.372425868682041 13.831316953917286 0 0 0
475 1 2 -1.1794 7.451978719745344 9.93042424579437 12.901588976241662 0 0 0
476 1 1 0.5897 6.67230338720007 10.36788036711852 13.243625886131214 0 0 0
477 1 1 0.5897 7.453701135148718 9.074016078552361 13.329143858350808 0 0 0
827 1 1 0.5897 6.491223182181667 6.864217912416051 13.661321836639353 0 0 0
333 1 1 0.5897 3.672311293667817 6.726305476815542 13.960399365773347 0 0 0
851 1 1 0.5897 8.789053032795737 6.495705199688821 13.380760484625933 0 0 0
366 1 1 0.5897 1.7164320366086427 6.033728492657328 13.289975911456724 0 0 0
821 1 1 0.5897 7.427934740642101 9.605642706812361 11.144706377052318 0 0 0
572 1 1 0.5897 1.4287890203525 6.332028826060019 17.661884848972377 0 0 0
679 1 2 -1.1794 5.73959605221178 10.89995744431013 16.971699728592725 0 0 0
287 1 1 0.5897 9.05678031341472 10.49248017193434 21.240418700534605 0 0 0
447 1 1 0.5897 0.29265114340996945 10.434616557408498 17.40310493809453 1 0 0
647 1 1 0.5897 1.515722521025497 6.022170595062064 21.000569680430793 0 0 0
139 1 2 -1.1794 7.714379278201515 9.637306642771664 20.601533786594615 0 0 0
520 1 2 -1.1794 7.516694706052289 7.131641996527072 16.63004590314012 0 0 0
279 1 1 0.5897 4.526558841740159 6.277756554286791 17.470349676293793 0 0 0
680 1 1 0.5897 4.925544637421461 10.494035991762283 17.269684330474746 0 0 0
141 1 1 0.5897 7.765679097187848 8.738375790250009 20.92640585130421 0 0 0
160 1 2 -1.1794 7.80512674197477 7.025793660505859 21.387528001489443 0 0 0
140 1 1 0.5897 6.795518341845831 9.880963422152652 20.713694196482606 0 0 0
7 1 2 -1.1794 7.9589943521355035 9.631107525234164 17.77787182036034 0 0 0
522 1 1 0.5897 7.5571385907038975 7.995860407251823 17.03959871684792 0 0 0
521 1 1 0.5897 6.73248190642208 6.726839837765636 17.00070019066498 0 0 0
6 1 1 0.5897 3.08098342980647 7.787611446211923 21.231996352683467 0 0 0
223 1 2 -1.1794 2.968851643111314 7.026786847945493 17.026171431871866 0 0 0
688 1 2 -1.1794 3.0410754993434117 9.512974363475768 20.597783914342862 0 0 0
626 1 1 0.5897 3.4101445336763194 9.552611697815133 18.78308571108378 0 0 0
394 1 2 -1.1794 0.9175278462363515 11.008408439409473 21.444039899981362 0 0 0
690 1 1 0.5897 2.308759523419623 9.995531815002177 20.981306128104684 0 0 0
9 1 1 0.5897 7.137130948942603 10.030433353056921 17.492690390534747 0 0 0
161 1 1 0.5897 7.036157922250565 6.5258226071690295 21.113728570823447 0 0 0
224 1 1 0.5897 3.157707877788729 7.91478056669743 17.329578057278432 0 0 0
689 1 1 0.5897 3.8080828992864224 10.055745630844365 20.780419822037423 0 0 0
625 1 2 -1.1794 3.521011188676738 9.597462324209522 17.833445604676484 0 0 0
361 1 2 -1.1794 5.290100501254448 10.883187575550965 21.026262347655972 0 0 0
8 1 1 0.5897 7.912063230199009 9.642034710549366 18.733797297615872 0 0 0
627 1 1 0.5897 2.7669632443259653 10.101415293159404 17.527358892968728 0 0 0
4 1 2 -1.1794 3.049914662780665 6.874663294468423 21.518035244800622 0 0 0
445 1 2 -1.1794 1.0463389143889872 10.886242422219013 17.023323315988733 0 0 0
5 1 1 0.5897 3.8870883476986946 6.506144206355625 21.235921342024575 0 0 0
246 1 1 0.5897 9.08450495295105 10.71135765501875 16.79705019364002 0 0 0
711 1 1 0.5897 9.023396346733936 6.490035147822891 17.26311676670197 0 0 0
362 1 1 0.5897 5.138944295404181 11.794705635300447 20.77615557835456 0 0 0
446 1 1 0.5897 0.9497881563750808 11.795150010670545 17.307615379121266 0 0 0
363 1 1 0.5897 5.413586532141519 10.91200235311196 21.974968651784597 0 0 0
200 1 1 0.5897 4.952803438861232 13.605500883767336 4.908652534817803 0 0 0
173 1 1 0.5897 4.439588325852318 13.83411314402897 2.749358385228666 0 0 0
172 1 2 -1.1794 5.233974416146261 13.438359519996236 3.107922014575908 0 0 0
293 1 1 0.5897 3.1635705240708085 16.54165300383424 2.8995005904822744 0 0 0
558 1 1 0.5897 2.990004231224835 14.850414464858446 1.3163671847201872 0 0 0
556 1 2 -1.1794 3.0387938715925884 14.857871366658296 2.272234094758049 0 0 0
557 1 1 0.5897 2.242597259474014 14.409037050456467 2.556668147147848 0 0 0
478 1 2 -1.1794 7.456824085660504 14.682919084995694 2.0069681961532186 0 0 0
174 1 1 0.5897 5.27128592895977 12.569797961736805 2.707358716466749 0 0 0
479 1 1 0.5897 8.204064124277687 14.215792578506308 2.3806822099720364 0 0 0
449 1 1 0.5897 7.5509343978212415 16.278039793079337 2.58790518122002 0 0 0
480 1 1 0.5897 6.690592316940462 14.252342763251983 2.3860968955532886 0 0 0
373 1 2 -1.1794 0.8605806321999871 13.490422444716579 3.1585060467558295 0 0 0
374 1 1 0.5897 0.8399567429604303 13.5661943543746 4.112421732161867 0 0 0
308 1 1 0.5897 7.629236086410587 17.17022880079331 4.764991981628404 0 0 0
448 1 2 -1.1794 7.63576286299313 17.176599020078022 2.906729211692648 0 0 0
292 1 2 -1.1794 3.1418108457835454 17.484802754337778 3.0616445404224533 0 0 0
294 1 1 0.5897 2.9879170158679984 17.56294732864167 4.00309572083599 0 0 0
59 1 1 0.5897 8.943678969009948 14.099828067699645 9.891767230608652 0 0 0
552 1 1 0.5897 0.6662461374680739 11.912734882134481 6.348792548368781 0 0 0
239 1 1 0.5897 2.6085427291318184 16.699815823467844 6.138854722394191 0 0 0
307 1 2 -1.1794 7.514155120115984 17.240645450302424 5.712580593672872 0 0 0
238 1 2 -1.1794 2.6972327985489124 17.601199478875195 5.829178029261636 0 0 0
454 1 2 -1.1794 5.136585007610056 13.619906491252078 10.312434662262524 0 0 0
16 1 2 -1.1794 2.7759788102078473 15.006955836463975 6.765855465335222 0 0 0
811 1 2 -1.1794 2.7610835128435465 14.958652876217677 9.55770335510873 0 0 0
382 1 2 -1.1794 2.992431278793143 17.466440175534707 10.61467999010594 0 0 0
376 1 2 -1.1794 7.379820555805389 14.966179119651885 9.416152492705198 0 0 0
18 1 1 0.5897 3.6000739159584625 14.587383500059023 6.518694648921837 0 0 0
766 1 2 -1.1794 0.6225095569603009 13.406826985071122 10.280613682922723 0 0 0
813 1 1 0.5897 2.018330023724738 14.404745315946418 9.7980259018414 0 0 0
384 1 1 0.5897 2.9496212957492087 16.58914656514986 10.23419085957064 0 0 0
456 1 1 0.5897 5.116101667228109 12.710011225130806 10.015911394078744 0 0 0
201 1 1 0.5897 5.809598416711424 13.98502956454963 6.097602178814153 0 0 0
517 1 2 -1.1794 7.3441034654736566 14.684267902696284 6.755201935343866 0 0 0
186 1 1 0.5897 7.472214788198738 16.696153385531773 9.911485297081086 0 0 0
17 1 1 0.5897 2.767343278317879 14.973957245679877 7.722386664428733 0 0 0
812 1 1 0.5897 3.530287993088699 14.46631191721431 9.844357608319916 0 0 0
655 1 2 -1.1794 0.7139649712206738 13.586013100154668 5.831759401149641 0 0 0
518 1 1 0.5897 7.446291375137638 15.589754419158867 6.462085680609565 0 0 0
377 1 1 0.5897 6.590924963599488 14.525160651410047 9.73142737085862 0 0 0
378 1 1 0.5897 7.3437270762045435 14.871139960136091 8.464423272179754 0 0 0
519 1 1 0.5897 8.160112443014619 14.255146507141637 6.497843714633752 0 0 0
656 1 1 0.5897 1.3959875369136854 14.17111554774168 6.161525874893263 0 0 0
199 1 2 -1.1794 4.938812877947485 13.66350420056827 5.863931265251627 0 0 0
579 1 1 0.5897 4.851265363158357 11.90555206589404 6.384756008577567 0 0 0
429 1 1 0.5897 5.847610133179299 13.99449215168145 13.285620292655127 0 0 0
232 1 2 -1.1794 2.777909473141435 14.910638997217703 13.935200747582348 0 0 0
234 1 1 0.5897 2.8137976213110094 14.86379296592403 14.890520007823705 0 0 0
606 1 1 0.5897 3.0117662601942237 16.62476126823774 13.58074644078391 0 0 0
427 1 2 -1.1794 5.028701408119642 13.563175789463804 13.041467301798946 0 0 0
233 1 1 0.5897 3.5239593661905273 14.38797425193736 13.641125450956036 0 0 0
639 1 1 0.5897 1.322037650457959 14.13735799691075 13.243086658533601 0 0 0
428 1 1 0.5897 5.0794776295406425 12.700768353315896 13.453679630397978 0 0 0
297 1 1 0.5897 8.194299499076163 14.453177459266426 13.635702762000127 0 0 0
296 1 1 0.5897 7.2698605130426825 14.92820474463985 14.736400692638249 0 0 0
295 1 2 -1.1794 7.37151758762611 14.919095477412563 13.78471620637997 0 0 0
270 1 1 0.5897 7.555477826926814 16.72381703019184 13.170540596224027 0 0 0
638 1 1 0.5897 0.582217259707928 12.82191717542584 13.362491406113648 0 0 0
637 1 2 -1.1794 0.5424035193098578 13.6765193619197 12.933180903851877 0 0 0
455 1 1 0.5897 5.077921809515674 13.56287260363139 11.266071005797206 0 0 0
605 1 1 0.5897 3.019073803327125 17.530252340839283 12.367579037633128 0 0 0
604 1 2 -1.1794 3.1150677342850375 17.53992083680987 13.31984552086155 0 0 0
767 1 1 0.5897 0.5706220249546283 13.500792374207657 11.231717334329117 0 0 0
157 1 2 -1.1794 7.567800558444858 17.25634024525906 20.56791756418084 0 0 0
117 1 1 0.5897 8.792768945382672 13.950636285398135 20.487655081822005 0 0 0
715 1 2 -1.1794 3.2164412049822233 17.356005596299447 20.365337712248724 0 0 0
49 1 2 -1.1794 7.189352825592593 15.02562074880239 16.680565821712293 0 0 0
53 1 1 0.5897 0.6868978133112804 13.584162485840247 18.6922697371416 0 0 0
682 1 2 -1.1794 4.947065338710731 13.541145731829538 20.24107516277042 0 0 0
159 1 1 0.5897 7.55720050760816 17.343588472049866 19.61481862898723 0 0 0
584 1 1 0.5897 2.944734291411479 16.706876872450728 17.396927925432145 0 0 0
823 1 2 -1.1794 2.910865874087985 15.058482904103535 16.680585987038498 0 0 0
716 1 1 0.5897 3.199320082379456 17.531535505655008 19.424579841775333 0 0 0
52 1 2 -1.1794 0.7741445416269052 13.577451046522537 17.73913117015657 0 0 0
824 1 1 0.5897 3.7043560655675507 14.56806298985386 16.895334278411674 0 0 0
126 1 1 0.5897 5.861910285377023 14.111995184331635 17.210613169464132 0 0 0
610 1 2 -1.1794 7.410649322630149 17.43461581974377 17.908062031218584 0 0 0
683 1 1 0.5897 5.763092737294631 13.959005535976065 20.516281010539693 0 0 0
124 1 2 -1.1794 5.092735165325813 13.571658162249646 17.391334158391544 0 0 0
50 1 1 0.5897 7.203418297684693 15.86383115665172 17.142560230190796 0 0 0
125 1 1 0.5897 5.072362267993725 13.494579437201224 18.345154326194432 0 0 0
684 1 1 0.5897 4.263887686966197 14.009650045052009 20.720655983241706 0 0 0
316 1 2 -1.1794 7.303114216308802 14.62234041871919 21.095618474620885 0 0 0
452 1 1 0.5897 0.8445684667088921 12.705716726028571 20.820700344959178 0 0 0
451 1 2 -1.1794 0.7179463169432138 13.55771212069906 20.403193719831556 0 0 0
664 1 2 -1.1794 2.894924867168497 14.911582801417406 21.430414223412136 0 0 0
318 1 1 0.5897 7.417880129774107 15.55331071237406 20.9048576162103 0 0 0
825 1 1 0.5897 2.2012901451791858 14.551793823567593 17.075575697975935 0 0 0
665 1 1 0.5897 2.1532869514031114 14.501366072269184 20.985519063225382 0 0 0
51 1 1 0.5897 7.959140041870124 14.559119849710697 17.006214153314843 0 0 0
666 1 1 0.5897 2.9883824743891982 15.763990155120622 21.005084782192924 0 0 0
681 1 1 0.5897 5.589977468117643 11.840018361737693 17.072567540137122 0 0 0
317 1 1 0.5897 7.235597111109547 14.579373443768924 22.049407333874218 0 0 -1
267 1 1 0.5897 6.0100140304522025 21.77172397930454 2.56539145688483 0 0 0
696 1 1 0.5897 1.663692650208034 21.864190909575655 2.759817429934988 0 0 0
266 1 1 0.5897 4.500729819641116 21.809982259170468 2.6775342909528272 0 0 0
265 1 2 -1.1794 5.264765612241438 21.2867197657666 2.9198253371056717 0 0 0
228 1 1 0.5897 5.374435639363748 19.557890760363456 2.4608222643264477 0 0 0
343 1 2 -1.1794 0.8388508116143867 18.757566225042197 2.170362942425695 0 0 0
249 1 1 0.5897 5.329448250997944 21.260373523668264 4.769239958569732 0 0 0
226 1 2 -1.1794 5.422081467793601 18.645688448832395 2.1746728485904807 0 0 0
187 1 2 -1.1794 3.1873738040846766 22.79625080495633 2.3487492050866527 0 0 0
818 1 1 0.5897 8.316255558472196 22.170245715391786 2.288453902432107 0 0 0
189 1 1 0.5897 3.039439714100999 22.673447834001244 1.4111123231339244 0 0 0
344 1 1 0.5897 1.6753479563268665 18.3182448700083 2.3237614376842117 0 0 0
817 1 2 -1.1794 7.531582977536586 22.59007507539649 1.9359273824463903 0 0 0
345 1 1 0.5897 0.7378521634952255 18.755768484091163 1.2185650400055097 0 0 0
413 1 1 0.5897 0.7774491586879784 21.47275592158283 4.807643141746541 0 0 0
695 1 1 0.5897 1.0478124473538313 20.48178701911411 2.7192878326702354 0 0 0
227 1 1 0.5897 4.637731651977288 18.237769356568307 2.5416178443945463 0 0 0
694 1 2 -1.1794 0.9003479401308896 21.366686849419672 3.053147048901766 0 0 0
321 1 1 0.5897 9.031819515906589 18.197046125440828 2.423187243336701 0 0 0
602 1 1 0.5897 5.338113126482427 18.70496287490097 0.442373686341182 0 0 0
498 1 1 0.5897 7.815215679338814 22.449078989987896 0.23463335396753554 0 0 0
450 1 1 0.5897 6.860044945545891 17.625010010583672 2.569931443922522 0 0 0
32 1 1 0.5897 8.140554960285064 21.928263012844624 6.496540366620895 0 0 0
701 1 1 0.5897 3.007613916848042 22.319602937583525 7.597512080634108 0 0 0
248 1 1 0.5897 4.336150948843726 21.435936200013003 5.8981126581600964 0 0 0
309 1 1 0.5897 8.293131961944153 17.707638088067363 6.01485875779509 0 0 0
101 1 1 0.5897 5.863452893567535 18.287963844585548 9.53442173887785 0 0 0
240 1 1 0.5897 3.559866635056867 17.877513386009973 6.138625765442276 0 0 0
555 1 1 0.5897 5.100458311377185 20.297362435194117 10.157637070637026 0 0 0
403 1 2 -1.1794 0.6996548921792339 18.54234064188193 9.412176973512567 0 0 0
31 1 2 -1.1794 7.364285521301975 22.36537646943482 6.846665148137022 0 0 0
33 1 1 0.5897 6.627488758554136 21.8902651311448 6.4624284281626965 0 0 0
412 1 2 -1.1794 0.5936370115763916 21.655855073575125 5.728959731839664 0 0 0
100 1 2 -1.1794 5.044704627937058 18.72680252751372 9.303499673091565 0 0 0
87 1 1 0.5897 8.158632343379365 21.94230231745155 9.751817684823829 0 0 0
185 1 1 0.5897 8.190676427934518 18.00666842632549 9.669909041944418 0 0 0
383 1 1 0.5897 3.7126054616484447 17.89412670666715 10.151365888280328 0 0 0
340 1 2 -1.1794 0.7132037839104112 19.06503311200705 6.6736190734072505 0 0 0
700 1 2 -1.1794 2.9474249797650094 22.44483319458316 6.650508689213939 0 0 0
94 1 2 -1.1794 0.6673901652002338 21.119460538675746 10.281586840441934 0 0 0
386 1 1 0.5897 5.985097445853664 17.98098571796524 6.246375618688638 0 0 0
404 1 1 0.5897 1.5132551242171057 18.181941393045207 9.764897964971947 0 0 0
702 1 1 0.5897 2.0382610971183475 22.233978595407805 6.437868836349727 0 0 0
405 1 1 0.5897 0.6576984282986258 19.430943616414616 9.765554326819448 0 0 0
247 1 2 -1.1794 5.203841883870856 21.08284479790086 5.701360472606186 0 0 0
385 1 2 -1.1794 5.226712200653729 18.451875748575652 6.591860276462804 0 0 0
387 1 1 0.5897 5.26765976828273 19.312168927112744 6.174157908246063 0 0 0
37 1 2 -1.1794 2.97052365742149 22.401172604364675 9.467055269907203 0 0 0
342 1 1 0.5897 0.6746244998244741 18.894025124813716 7.614573719824727 0 0 0
414 1 1 0.5897 0.6662608588768753 20.805187781631794 6.161785621523085 0 0 0
39 1 1 0.5897 3.6471482497032697 21.962671316320822 9.982933785393415 0 0 0
553 1 2 -1.1794 5.092824772949678 21.10063427775772 10.678145968440031 0 0 0
554 1 1 0.5897 5.864265785490473 21.58479763890869 10.383667510471495 0 0 0
85 1 2 -1.1794 7.329235663200476 22.39731455289664 9.605786764900975 0 0 0
86 1 1 0.5897 7.214496830880546 22.388043656892414 8.655593472807192 0 0 0
341 1 1 0.5897 1.4949221512795 18.599072092629918 6.376888774305715 0 0 0
102 1 1 0.5897 5.019652436668621 18.700173290828303 8.347055195103682 0 0 0
38 1 1 0.5897 2.1583562911644627 21.955734008551737 9.708344441861795 0 0 0
184 1 2 -1.1794 7.471210346620753 17.618422659774758 10.167776212701929 0 0 0
88 1 2 -1.1794 5.253749134536617 21.25976785855829 13.353980345337693 0 0 0
381 1 1 0.5897 1.391748198785187 21.74676041884095 13.35520444206254 0 0 0
90 1 1 0.5897 5.300059631819111 20.364100162154095 13.688481125479367 0 0 0
763 1 2 -1.1794 5.432523641746268 18.6957382091896 14.248713015095438 0 0 0
738 1 1 0.5897 3.6868885396945887 21.96717763326005 13.81454066602747 0 0 0
89 1 1 0.5897 5.0144004387253895 21.159729961230873 12.432658035213631 0 0 0
736 1 2 -1.1794 2.8881180040285144 22.41882057668959 14.087007487520921 0 0 0
789 1 1 0.5897 6.859184618761453 22.10886532448589 13.525542747514018 0 0 0
765 1 1 0.5897 6.194026907617194 18.26818491953326 13.856857692537334 0 0 0
787 1 2 -1.1794 7.618088000602326 22.629278112777307 13.789190825011424 0 0 0
503 1 1 0.5897 1.620607859296416 18.399057284381747 13.718472100425817 0 0 0
764 1 1 0.5897 4.684646135989038 18.184692938395344 13.939239752745554 0 0 0
474 1 1 0.5897 5.433552229675596 18.90945281770402 16.061506870779308 0 0 0
350 1 1 0.5897 2.8083198696692455 22.599786664110283 16.003827528742526 0 0 0
788 1 1 0.5897 7.592748430958832 22.622869280132363 14.745973128245824 0 0 0
380 1 1 0.5897 0.7056971842926367 20.397278920765267 13.340432415745907 0 0 0
379 1 2 -1.1794 0.6476802583256456 21.279987981375122 12.974772099131927 0 0 0
502 1 2 -1.1794 0.7495449527092607 18.72325100315272 13.947377345419188 0 0 0
504 1 1 0.5897 0.7505411641793965 18.759086529305797 14.903853929632458 0 0 0