LAMMPS data file via write_data, version 30 Jul 2021, timestep = 14250000

972 atoms
2 atom types
648 bonds
1 bond types
324 angles
1 angle types

-0.002268284549119315 20.002269284552646 xlo xhi
-0.023700366319722832 20.023701366325703 ylo yhi
0.03503067123781989 20.66496732875198 zlo zhi

Masses

1 1.008
2 15.999

Pair Coeffs # lj/cut/tip4p/long/omp

1 0 0
2 0.21084 3.1668

Bond Coeffs # harmonic/omp

1 450 0.9572

Angle Coeffs # harmonic/omp

1 55 104.52

Atoms # full

33 11 1 0.5897 1.5904527878884418 1.8383685809030696 1.7954677863478554 0 0 0
11 4 1 0.5897 0.9937098002995156 3.273975840518074 3.365053600039258 0 0 0
10 4 2 -1.1794 1.059191451374678 4.106294477869449 3.833194505240116 0 0 0
12 4 1 0.5897 1.9947120366872837 4.211257006306037 4.0064103348126086 0 0 0
674 225 1 0.5897 1.7672857918750016 5.259746058499583 0.5865285725102524 0 0 1
24 8 1 0.5897 2.7686189454430514 1.0655599182493911 4.512251397479846 0 0 0
140 47 1 0.5897 0.8104752406673426 9.239831896918545 2.7361314682490256 0 0 0
18 6 1 0.5897 4.157203224608196 3.2078684959062476 3.3296611067892505 0 0 0
31 11 2 -1.1794 0.7839011167201434 1.8161185346007171 2.3104435437375783 0 0 0
110 37 1 0.5897 3.654735312750108 9.136274334750091 0.571711039008125 0 0 0
139 47 2 -1.1794 0.7076823690114427 8.689967784523155 1.9594149734092126 0 0 0
17 6 1 0.5897 4.249722786967628 4.516165328101846 2.5736207267742865 0 0 0
20 7 1 0.5897 0.906628602409681 5.255244350367786 2.5455977102017706 0 0 0
15 5 1 0.5897 4.024186224907423 6.8884441523116005 1.9019876263125572 0 0 0
3 1 1 0.5897 3.655167749776231 2.091476424750668 0.6932994962153173 0 0 0
19 7 2 -1.1794 0.8081351915652469 5.867850201595471 1.816749576254238 0 0 0
4 2 2 -1.1794 4.191220545625623 1.3635301123599288 3.3211299996656782 0 0 0
16 6 2 -1.1794 3.8363404542771335 4.109649033179304 3.3352440823027822 0 0 0
112 38 2 -1.1794 4.3035919863815995 8.578732913138918 3.426749786017146 0 0 0
13 5 2 -1.1794 4.362760078038343 6.102786488495856 1.4726704728537152 0 0 0
14 5 1 0.5897 3.6734180865618553 5.848601846149697 0.8591436435036763 0 0 0
111 37 1 0.5897 2.2002424348554417 9.029680478852024 0.9776445332866425 0 0 0
236 79 1 0.5897 0.7809176593402464 0.12005603325520661 1.9151028420726 0 1 0
32 11 1 0.5897 0.09119410823281442 2.0137538985076855 1.6801211440745858 0 0 0
113 38 1 0.5897 3.4815706131534787 8.307362328240828 3.83521284823781 0 0 0
5 2 1 0.5897 4.496964943200462 0.8608541690768993 2.5661151742121415 0 0 0
141 47 1 0.5897 0.6430204439230677 7.798939882696353 2.303029139584112 0 0 0
132 44 1 0.5897 1.1888265798104323 7.639967169191749 4.900053636616769 0 0 0
1 1 2 -1.1794 2.731324436948675 2.119595977745449 0.4444496499700462 0 0 0
6 2 1 0.5897 4.809978440083929 1.1485461684624068 4.0190850050907585 0 0 0
109 37 2 -1.1794 2.770495941216944 9.07545073847448 0.21034108463654932 0 0 0
130 44 2 -1.1794 2.126686476221741 7.49203878568609 4.778719306629579 0 0 0
114 38 1 0.5897 4.984407455840138 8.201512733098197 3.9838926429933372 0 0 0
2 1 1 0.5897 2.5604437038013343 3.043166494918611 0.2600989915590457 0 0 0
9 3 1 0.5897 4.99493528971904 4.515083148398902 4.766937012895966 0 0 0
673 225 2 -1.1794 2.503386469796438 4.9941964442447695 0.03530236184437996 0 0 1
325 109 2 -1.1794 2.467977361770731 2.647573022454469 7.341424003297254 0 0 0
326 109 1 0.5897 2.3853600996863373 1.9213277409512128 6.723405940986575 0 0 0
327 109 1 0.5897 3.3728661253245167 2.5986455482386526 7.649648098254523 0 0 0
356 119 1 0.5897 1.3229541857555642 2.010421895372642 8.519589721933961 0 0 0
27 9 1 0.5897 2.446683587530741 4.413542638550802 6.68794823618246 0 0 0
25 9 2 -1.1794 2.404919549234885 5.369584882585446 6.667650876312729 0 0 0
355 119 2 -1.1794 0.8108179673761515 1.6834009411754123 9.2591792496194 0 0 0
343 115 2 -1.1794 0.968541594317551 6.046391628724562 8.801594340902804 0 0 0
344 115 1 0.5897 1.114114065260006 5.572775005799458 9.620545119148682 0 0 0
433 145 2 -1.1794 2.1222083442221553 9.18737888908523 7.34985512107839 0 0 0
437 146 1 0.5897 3.9424251350725013 7.347072939094638 9.476296300017799 0 0 0
438 146 1 0.5897 3.9810637470426977 8.78249706414838 9.955629616268647 0 0 0
337 113 2 -1.1794 4.345509529810706 6.013070241243341 8.320856550856359 0 0 0
435 145 1 0.5897 2.4724096740962462 8.821096903295407 6.537816950530538 0 0 0
468 156 1 0.5897 3.9533868547702578 9.397272955592035 7.353835619168641 0 0 0
342 114 1 0.5897 4.341703578134491 4.732048047245749 9.743897753741113 0 0 0
463 155 2 -1.1794 0.22404175504965437 8.63049443124744 9.276155714170537 0 0 0
554 185 1 0.5897 4.56791979788353 0.15501236467022367 8.807943361950946 0 1 0
345 115 1 0.5897 0.7744808115678319 6.943149744285925 9.074180926479864 0 0 0
26 9 1 0.5897 1.8976928354590945 5.604191490506875 7.444674227726942 0 0 0
464 155 1 0.5897 1.043402824646241 8.821361106478042 8.819606867789313 0 0 0
339 113 1 0.5897 3.7567264357098282 5.617475814856475 7.678215268593864 0 0 0
466 156 2 -1.1794 4.878233939650442 9.424685018484114 7.108627760744954 0 0 0
436 146 2 -1.1794 3.9929094367435845 7.878754185016166 10.270636511552379 0 0 0
560 187 1 0.5897 0.9010380597484536 -0.015363690312056763 8.93839516754585 0 1 0
328 110 2 -1.1794 3.93910662457562 1.329608443114922 10.24912071824912 0 0 0
335 112 1 0.5897 1.2078084791630126 3.1893793369495684 10.220652316045939 0 0 0
102 34 1 0.5897 0.4270827528682537 0.6644862712627876 5.452645669963445 1 0 0
341 114 1 0.5897 4.101502162020432 3.2446743920258023 9.891092743661902 0 0 0
22 8 2 -1.1794 2.215404098070016 0.7835148899328025 5.240684659683483 0 0 0
81 27 1 0.5897 0.06646639971993966 4.5695283206620285 5.317414599715284 1 0 0
131 44 1 0.5897 2.3053506679888636 6.681281113972397 5.255108629812249 0 0 0
649 217 2 -1.1794 2.2267624174531893 2.8638122837921154 13.92913851656844 0 0 0
650 217 1 0.5897 2.1164053331924726 2.1651605229850395 13.284233230165768 0 0 0
651 217 1 0.5897 1.5354699560193108 2.707880444397882 14.572566905028834 0 0 0
405 135 1 0.5897 0.22427506553828894 4.605066127346673 11.96787597601559 1 0 0
350 117 1 0.5897 3.227896401425928 5.827791474441086 13.815868412652948 0 0 0
792 264 1 0.5897 4.285883129306672 9.315962127842134 14.302896112281237 0 0 0
668 223 1 0.5897 1.3084288075332848 5.941758251077098 14.874363072575527 0 0 0
348 116 1 0.5897 2.131092799209211 0.011485484389148204 12.415381222461182 0 0 0
683 228 1 0.5897 4.106421848390337 2.811672133473754 14.242635645756117 0 0 0
351 117 1 0.5897 2.148463744767957 4.785610194620027 13.614611588027238 0 0 0
757 253 2 -1.1794 2.0767601186516544 9.356820712683197 14.117334936718162 0 0 0
347 116 1 0.5897 0.9591621655516267 0.9454682504176083 12.200696595041608 0 0 0
330 110 1 0.5897 4.610192295864287 1.1505767530383342 10.907765000968428 0 0 0
349 117 2 -1.1794 2.305453956835764 5.729189890233397 13.580075197335246 0 0 0
346 116 2 -1.1794 1.9048797125311097 0.8752922456294554 12.070650557910964 0 0 0
455 152 1 0.5897 2.547002157793889 7.683995993395132 11.100705218210425 0 0 0
759 253 1 0.5897 1.3010471174428673 9.175113323775092 13.586819192983869 0 0 0
456 152 1 0.5897 2.051437692992661 6.790326725454755 12.217671278688053 0 0 0
454 152 2 -1.1794 1.7589606019885669 7.453913107702397 11.592919766069576 0 0 0
336 112 1 0.5897 2.3101726041274504 4.083087763153266 10.747820434491947 0 0 0
340 114 2 -1.1794 4.08359353050304 4.066489532222845 10.381488318928266 0 0 0
334 112 2 -1.1794 1.3602397473758316 4.0362152311772395 10.639977879779597 0 0 0
329 110 1 0.5897 3.116683972537932 1.3316038267888142 10.738846096620918 0 0 0
885 295 1 0.5897 0.8460954184766966 0.6296339934648295 15.488610975706225 0 1 0
661 221 2 -1.1794 4.597409312546344 5.804723009034432 15.315517084752186 0 0 0
664 222 2 -1.1794 3.8867937427556485 4.039251333506101 17.366867774151412 0 0 0
671 224 1 0.5897 2.1359623576461475 1.2334072489162335 19.495726886245762 0 0 0
653 218 1 0.5897 3.065098335659055 1.2340845661698912 17.595798448649504 0 0 0
670 224 2 -1.1794 1.8534782700679706 0.7748532676494418 18.70443618322656 0 0 0
665 222 1 0.5897 2.935904118981088 4.137095101106814 17.415688693255937 0 0 0
761 254 1 0.5897 4.385942877473031 8.814504081548717 17.004812506493185 0 0 0
666 222 1 0.5897 4.019657994644487 3.1637296409714515 17.00355545534766 0 0 0
652 218 2 -1.1794 3.906140654623375 1.248349742382858 17.139013883124118 0 0 0
672 224 1 0.5897 0.9034036820301008 0.8899024746735238 18.686620213743144 0 0 0
658 220 2 -1.1794 1.136863264969596 4.194016909465688 17.495276030545845 0 0 0
663 221 1 0.5897 4.4046400992324415 6.49157938532313 15.953664547272282 0 0 0
787 263 2 -1.1794 1.0068009185078182 8.67742562489253 16.59818161388883 0 0 0
788 263 1 0.5897 1.0580322496112478 9.498985300161394 17.086641512682906 0 0 0
681 227 1 0.5897 0.15436057681366414 2.8986708190356003 16.29845807984366 0 0 0
660 220 1 0.5897 0.9875313484682613 4.95734726417431 16.937400691331124 0 0 0
659 220 1 0.5897 0.7294411632877413 4.423728190921825 18.330408237671076 0 0 0
760 254 2 -1.1794 4.2864880514590284 7.865987832618322 17.086125009834507 0 0 0
762 254 1 0.5897 4.826544437946662 7.631910302774973 17.84093543198266 0 0 0
679 227 2 -1.1794 0.08612597832261865 2.3245608781815847 15.535608667068507 0 0 0
779 260 1 0.5897 2.272488125717427 7.822674382962167 19.39321516312764 0 0 0
675 225 1 0.5897 2.480552392098036 5.601267896934151 19.925541552871397 0 0 0
780 260 1 0.5897 2.489921754157464 7.373040766268027 17.964080847216255 0 0 0
778 260 2 -1.1794 2.057997665853862 7.119813561724641 18.77988234615694 0 0 0
654 218 1 0.5897 3.831581176010015 0.5606974141839971 16.477362070229205 0 0 0
662 221 1 0.5897 4.555641278439031 4.991353029300852 15.818387297266222 0 0 0
858 286 1 0.5897 0.3098303957133295 7.510628593968366 18.637152992455967 1 0 0
677 226 1 0.5897 4.930133691483739 0.9065272107639394 18.47363997082251 0 0 0
669 223 1 0.5897 0.7566715189524461 6.939420220451476 15.870367556769908 0 0 0
789 263 1 0.5897 1.6172733179200878 8.792667908804866 15.87001592491587 0 0 0
667 223 2 -1.1794 0.6624179161072392 6.033975701760024 15.574626848159603 0 0 0
120 40 1 0.5897 1.612183485238607 11.333170731046717 3.110214535186352 0 0 0
127 43 2 -1.1794 1.3104756249493033 12.432571944338381 1.5786968867802085 0 0 0
228 76 1 0.5897 0.4281963717729278 17.532617466223098 4.388355723824297 0 0 0
222 74 1 0.5897 4.33626762186501 14.665873500318991 2.704742042553518 0 0 0
221 74 1 0.5897 3.8832741054461213 15.937399780142316 3.390136126138328 0 0 0
118 40 2 -1.1794 1.6079425931844806 10.633451012519883 3.7633141741963745 0 0 0
124 42 2 -1.1794 4.244886628381679 11.212522241639267 3.7748247410680005 0 0 0
232 78 2 -1.1794 3.8435743875888986 17.69972344505913 3.5657324377347357 0 0 0
128 43 1 0.5897 0.41090802031967233 12.29383576411294 1.2824640203515334 0 0 0
234 78 1 0.5897 4.0088125513085515 18.335780894021088 2.8697893425643075 0 0 0
119 40 1 0.5897 2.447148747822477 10.721781899924306 4.215134052741512 0 0 0
248 83 1 0.5897 1.27264116225296 15.426917070720265 3.000869936797159 0 0 0
217 73 2 -1.1794 2.81796172449901 15.921713749605667 0.24096920205345804 0 0 0
249 83 1 0.5897 1.636732598339586 15.454844425052865 1.531711861720048 0 0 0
220 74 2 -1.1794 4.058018381785357 15.010558630231747 3.5532531586863025 0 0 0
129 43 1 0.5897 1.3209919834030899 13.334172842417798 1.8999471741880471 0 0 0
230 77 1 0.5897 4.31852626390547 19.282234041880802 0.7454370558433352 0 0 0
219 73 1 0.5897 3.7604434377294766 15.801872322118719 0.3575126659726793 0 0 0
122 41 1 0.5897 4.579546168205468 12.477999877518496 0.9226703471791436 0 0 0
235 79 2 -1.1794 0.8336397872251962 19.22357408689827 1.7652382514834641 0 0 0
126 42 1 0.5897 4.4505363189090215 10.320840716659138 3.4941023986533115 0 0 0
240 80 1 0.5897 2.496706473371446 14.55786501670017 4.53560608982223 0 0 0
233 78 1 0.5897 2.889954589502143 17.625242337493997 3.6013062212007014 0 0 0
227 76 1 0.5897 1.0038963037031035 18.224818060101732 3.1712786994198585 0 0 0
226 76 2 -1.1794 1.1530717424107313 17.48881296780044 3.764771144667333 0 0 0
247 83 2 -1.1794 0.9778103969582451 15.12402819572039 2.1421220328816775 0 0 0
890 297 1 0.5897 2.2075440735808676 18.8979000005963 0.7004488911282052 0 0 1
229 77 2 -1.1794 4.759468917825015 19.54949592089322 1.5518628894750932 0 0 0
125 42 1 0.5897 4.801206693482513 11.357494551468799 4.5400994877865575 0 0 0
123 41 1 0.5897 4.868739380065576 12.225252566093486 2.38700199208048 0 0 0
238 80 2 -1.1794 1.722456737328572 14.430162174521861 5.083737364102991 0 0 0
783 261 1 0.5897 2.3941411367680194 11.98097575502033 0.23223804366546758 0 0 1
188 63 1 0.5897 0.09034898222620359 11.04529891636472 5.136330068466142 1 0 0
133 45 2 -1.1794 2.1043669486476757 12.001494896291389 6.741162358116132 0 0 0
134 45 1 0.5897 1.506889492431379 12.088658569743616 7.483880897510058 0 0 0
135 45 1 0.5897 2.9676343635825253 12.20202115921729 7.102772713940537 0 0 0
561 187 1 0.5897 1.1985993406895272 18.66157674447583 9.508553595172167 0 0 0
559 187 2 -1.1794 0.8640059948806017 19.099468180858924 8.72595879817859 0 0 0
573 191 1 0.5897 0.70533913410044 14.628352180080014 9.136025060837085 0 0 0
434 145 1 0.5897 2.135097468001009 10.134355124508971 7.211155004445076 0 0 0
543 181 1 0.5897 2.3318628614347015 15.498097530921449 6.423190223714108 0 0 0
446 149 1 0.5897 4.278021491876846 13.618531935231212 8.504069260610764 0 0 0
571 191 2 -1.1794 0.711959068981756 15.584543485106144 9.093339416995311 0 0 0
450 150 1 0.5897 3.8854319096756313 11.44255436906785 9.484974714089184 0 0 0
451 151 2 -1.1794 0.31326918688711486 12.678107450934114 8.742755496805335 0 0 0
558 186 1 0.5897 4.626169153877635 18.229770594559337 9.76539649855105 0 0 0
541 181 2 -1.1794 2.6866483134187393 15.948718981240022 7.1895144480410185 0 0 0
445 149 2 -1.1794 4.335544402999578 12.757229879775934 8.090529178099576 0 0 0
453 151 1 0.5897 0.49303761907424914 12.001473051751962 9.395481189568756 0 0 0
576 192 1 0.5897 4.34866707662049 16.00096183660806 7.386999246072968 0 0 0
572 191 1 0.5897 1.27437312763336 15.78751641529941 8.34587481700201 0 0 0
542 181 1 0.5897 2.559147716992097 16.878542149126492 7.001509151397834 0 0 0
243 81 1 0.5897 3.5439554293355915 18.87032810006947 7.20790371122039 0 0 0
242 81 1 0.5897 2.0577707929048827 18.87200654908013 7.496167249006876 0 0 0
241 81 2 -1.1794 2.7113231218436487 18.519088979919363 6.892399028875261 0 0 0
553 185 2 -1.1794 4.843781068356873 19.33849032948535 8.501890920440246 0 0 0
552 184 1 0.5897 1.4442649432763155 16.820125914254778 10.198592184402683 0 0 0
544 182 2 -1.1794 4.1316288734570925 14.776959232839484 10.068361262181895 0 0 0
448 150 2 -1.1794 3.739627210483732 10.845509274647924 10.218788397953839 0 0 0
239 80 1 0.5897 1.8265662700236818 13.549834000064784 5.444760804219201 0 0 0
23 8 1 0.5897 2.511332099136266 19.94195852719364 5.436567816708788 0 -1 0
557 186 1 0.5897 4.5725294645626775 16.723967085629877 9.911874382551096 0 0 0
457 153 2 -1.1794 2.512934369550572 11.963202273845878 13.579296130044789 0 0 0
458 153 1 0.5897 1.94385441024825 12.475443416482051 14.153720522313083 0 0 0
459 153 1 0.5897 3.3839441965016985 12.047410837200418 13.96720700559531 0 0 0
563 188 1 0.5897 1.9850122481094192 13.39585554480274 12.11136449317561 0 0 0
562 188 2 -1.1794 1.7353252302257913 14.123903922061563 11.542322468846356 0 0 0
444 148 1 0.5897 2.0421487937671796 10.80061434999154 10.79503839379569 0 0 0
449 150 1 0.5897 4.433448517231778 11.05839368145611 10.842898720472029 0 0 0
621 207 1 0.5897 0.13534236525605545 17.951093691554462 11.75486850619809 1 0 0
865 289 2 -1.1794 2.771688686985473 15.940343695942465 13.37480080386616 0 0 0
550 184 2 -1.1794 1.7122158823992668 17.6104583501708 10.667390111033084 0 0 0
546 182 1 0.5897 4.812003962981382 14.56773150218156 10.708292147824196 0 0 0
879 293 1 0.5897 3.961373462600889 19.37193624366534 14.39286596476944 0 0 0
564 188 1 0.5897 1.9196499552791457 14.907446726538968 12.06028155422981 0 0 0
551 184 1 0.5897 2.6683288839153136 17.56779989967907 10.682829784448415 0 0 0
867 289 1 0.5897 2.388402257293466 15.83455294414354 14.245504513587559 0 0 0
565 189 2 -1.1794 2.660879133654581 18.61757966485816 13.389263508538408 0 0 0
866 289 1 0.5897 3.716836953519461 15.931063273211711 13.52590449383347 0 0 0
566 189 1 0.5897 2.7187583185320365 17.66232769292439 13.407606338778496 0 0 0
877 293 2 -1.1794 4.5777200625969945 19.490906942396972 15.115441197022621 0 0 0
567 189 1 0.5897 2.045531628643982 18.834215275724947 14.08971565884954 0 0 0
443 148 1 0.5897 0.7233565019834548 10.154072901245934 10.428571844885678 0 0 0
758 253 1 0.5897 2.3361860736677196 10.24358608130867 13.867254314412087 0 0 0
442 148 2 -1.1794 1.0974612110179482 10.880985195775581 10.926313411122031 0 0 0
896 299 1 0.5897 0.4911733251118665 16.134040855977023 15.233029743748293 0 0 0
556 186 2 -1.1794 4.4421972917257175 17.537065150178417 10.399814877387122 0 0 0
545 182 1 0.5897 3.316980879152905 14.762172615492434 10.570700076254866 0 0 0
883 295 2 -1.1794 0.8773286610575968 19.72736780113029 15.37318584482602 0 0 0
888 296 1 0.5897 2.2685713426249365 13.366103046230412 18.96951186215497 0 0 0
774 258 1 0.5897 4.4356416038980475 11.167388801197276 16.77806737447885 0 0 0
889 297 2 -1.1794 2.6299087068343194 18.754786861048267 20.483431072354033 0 0 0
768 256 1 0.5897 1.1091580412309598 11.999215420185477 17.046919668604055 0 0 0
878 293 1 0.5897 4.5658702547903545 18.65473431408665 15.581139607948902 0 0 0
766 256 2 -1.1794 1.1820739616351918 11.21317895336388 17.588244467078745 0 0 0
218 73 1 0.5897 2.727391371716829 16.82168671248803 20.557791562356325 0 0 -1
965 322 1 0.5897 0.4537602099306037 14.29254081196111 18.521761276606984 1 0 0
772 258 2 -1.1794 4.088826299057365 10.699706846014601 17.537765789122933 0 0 0
886 296 2 -1.1794 2.162365989519884 14.26091944678692 18.64669885395079 0 0 0
882 294 1 0.5897 4.107255883020255 16.823411680628055 17.179496248102357 0 0 0
773 258 1 0.5897 3.164413798755445 10.945977988246845 17.569702334101773 0 0 0
869 290 1 0.5897 3.4569207818345817 14.906760921423484 17.26701527538558 0 0 0
767 256 1 0.5897 0.6717891576660109 11.413904416654297 18.372809384493372 0 0 0
887 296 1 0.5897 2.437843797335319 14.81404189002294 19.37770885836154 0 0 0
876 292 1 0.5897 1.2406311336937113 18.846171346969808 17.135845460685456 0 0 0
868 290 2 -1.1794 4.307949217527083 14.990479689058837 16.83694652010011 0 0 0
880 294 2 -1.1794 4.137557608677521 17.75225917650412 17.408632594445443 0 0 0
891 297 1 0.5897 2.253901268021681 19.424004715152925 19.911626400809883 0 0 0
874 292 2 -1.1794 1.385128594052942 18.052376794023477 17.650834074501393 0 0 0
897 299 1 0.5897 1.1919006318158187 16.43518982920714 16.540748496987142 0 0 0
881 294 1 0.5897 3.2729578186753074 17.937323875364022 17.775290498725827 0 0 0
771 257 1 0.5897 4.439658844299496 13.272516150786787 15.98199833503128 0 0 0
875 292 1 0.5897 0.7673741370757626 18.1226897888662 18.378607757641806 0 0 0
895 299 2 -1.1794 1.3213298149574397 16.00988965611605 15.693053598153615 0 0 0
775 259 2 -1.1794 0.7164466971982898 13.18661284207615 15.635436827281756 0 0 0
777 259 1 0.5897 0.7149825922828313 14.142418101033183 15.686652686191351 0 0 0
782 261 1 0.5897 3.296915837093184 10.9206247119475 20.268527716430857 0 0 0
781 261 2 -1.1794 3.107459547753777 11.858282506897595 20.23581375825859 0 0 0
870 290 1 0.5897 4.945425786819354 14.86157305620051 17.539209489682897 0 0 0
769 257 2 -1.1794 4.571237631749195 12.437290484199877 15.533421797519857 0 0 0
34 12 2 -1.1794 5.4479423526960025 2.5810629891080534 0.5716665514938813 0 0 0
48 16 1 0.5897 7.325404693554044 4.078348850872454 3.908127600170557 0 0 0
143 48 1 0.5897 6.063922890757261 9.416040748438807 1.437943318583394 0 0 0
68 23 1 0.5897 8.301078622781008 1.7603195695141467 1.5023326802083772 0 0 0
47 16 1 0.5897 7.664987189539424 3.2815743313691446 2.666509013372666 0 0 0
149 50 1 0.5897 9.669363736338978 8.003848456673058 3.5810908620258712 0 0 0
46 16 2 -1.1794 7.819923986993592 4.125870128416706 3.0899587099223282 0 0 0
67 23 2 -1.1794 7.615215107852462 1.580925109762399 2.1454637900679994 0 0 0
69 23 1 0.5897 6.796928405704132 1.723803625139857 1.669851264604502 0 0 0
56 19 1 0.5897 6.201342293931264 6.113003890308245 1.0386508235248508 0 0 0
167 56 1 0.5897 8.590956486150377 6.683858479238792 4.882537441476381 0 0 0
142 48 2 -1.1794 5.471870131421507 9.5307215885402 0.6946403423760913 0 0 0
175 59 2 -1.1794 7.662047337208041 8.786795367417753 2.081973072502282 0 0 0
55 19 2 -1.1794 7.119291062599402 6.175017400632941 1.3026636788805508 0 0 0
177 59 1 0.5897 8.269616102735348 8.870274915059996 1.347058031044224 0 0 0
57 19 1 0.5897 7.223681077547858 5.496080168430918 1.9692469664446506 0 0 0
176 59 1 0.5897 7.355175742251129 7.881222526123032 2.0379996223451107 0 0 0
711 237 1 0.5897 8.705726502140461 5.499019223213079 0.13419387475680666 0 0 1
166 56 2 -1.1794 8.276285073602951 7.5814455690184595 4.775334115077922 0 0 0
155 52 1 0.5897 8.252753214261668 9.890541264905409 3.675897019091398 0 0 0
53 18 1 0.5897 9.554456778785912 4.054580014119008 3.611789804819546 0 0 0
37 13 2 -1.1794 9.32569615412791 2.2698076973945422 0.17452611876869267 0 0 0
144 48 1 0.5897 5.681317064138475 8.804965410839094 0.10675981825342973 0 0 0
393 131 1 0.5897 7.499974886668556 1.0204841580826398 9.000287667154666 0 0 0
358 120 2 -1.1794 5.1062355265614086 2.640002326285841 7.556349559107736 0 0 0
361 121 2 -1.1794 9.28813487474071 2.8040696553123423 7.349960083252185 0 0 0
470 157 1 0.5897 8.329859994192606 8.74483898992887 7.777320416973379 0 0 0
359 120 1 0.5897 5.307969558026679 1.9866309648490397 6.886559070838043 0 0 0
58 20 2 -1.1794 8.726543315767781 0.7688611613336529 5.445355643320657 0 0 0
392 131 1 0.5897 8.044227240305414 2.3012453279619884 8.404272732068641 0 0 0
59 20 1 0.5897 9.000874398840258 1.4099463251199935 6.101070920078869 0 0 0
362 121 1 0.5897 9.182020777359478 3.5705124772624446 6.7864853277347725 0 0 0
391 131 2 -1.1794 7.310458263652861 1.9545306307968997 8.91179915942338 0 0 0
501 167 1 0.5897 6.342298254170549 9.082189519803798 8.616865413416889 0 0 0
381 127 1 0.5897 7.269083340895361 5.446005127152138 9.118055471341549 0 0 0
467 156 1 0.5897 5.041576861729281 8.577947958588243 6.693233878244582 0 0 0
360 120 1 0.5897 5.693464955721312 2.42885625079539 8.28215711358095 0 0 0
499 167 2 -1.1794 7.000828399795796 8.592583769965852 9.109631288057729 0 0 0
380 127 1 0.5897 6.848984100378474 6.791284056501401 8.565296410800928 0 0 0
62 21 1 0.5897 8.247609460600794 5.480618587163178 6.878752823106345 0 0 0
469 157 2 -1.1794 8.791671359960139 9.07822646924969 7.008037843074702 0 0 0
29 10 1 0.5897 6.6821192660970805 1.0282082836958617 5.35923129959934 0 0 0
8 3 1 0.5897 5.495805113244529 3.961790452478983 6.084079448263966 0 0 0
61 21 2 -1.1794 9.025181626547424 5.338688273218062 6.338902372203609 0 0 0
379 127 2 -1.1794 6.9947704826483275 5.880278244061472 8.31036154636215 0 0 0
338 113 1 0.5897 5.210437270046357 5.66917767470887 8.097567086099696 0 0 0
500 167 1 0.5897 7.358393469314349 9.228239353462756 9.729550748612116 0 0 0
168 56 1 0.5897 8.73328650716381 8.0785760369513 5.453708175376164 0 0 0
7 3 2 -1.1794 5.7903653318607216 4.403306165848417 5.287520636665507 0 0 0
137 46 1 0.5897 5.543281635406792 6.288527086245583 5.323230865989995 0 0 0
63 21 1 0.5897 9.757558382133269 5.586759301869906 6.903068744939951 0 0 0
471 157 1 0.5897 9.677513866081227 9.26172353920929 7.320706365775331 0 0 0
138 46 1 0.5897 6.6703174033804284 7.29581849948467 5.239747977391487 0 0 0
28 10 2 -1.1794 5.748223556840129 0.9307342483582857 5.545111843431163 0 0 0
371 124 1 0.5897 7.426731296333003 3.412129057307196 10.25975298502651 0 0 0
136 46 2 -1.1794 5.720899625189899 7.228902700601113 5.3414511510357645 0 0 0
30 10 1 0.5897 5.608707534700547 -0.015430697517569314 5.5837571127624015 0 0 0
793 265 2 -1.1794 9.442363015805212 9.01009412181671 14.406609383311741 0 0 0
386 129 1 0.5897 9.015763738071263 4.5442582173028985 14.28992661980477 0 0 0
385 129 2 -1.1794 9.27951171998844 5.418388324628024 14.57719898351288 0 0 0
462 154 1 0.5897 5.657770633580517 7.460864095712725 11.336859510919641 0 0 0
352 118 2 -1.1794 5.733084299788516 0.902432868838368 12.417577039643083 0 0 0
372 124 1 0.5897 7.1758579510196085 4.4838528075624 11.299117445770042 0 0 0
382 128 2 -1.1794 8.31283993588084 1.300299994674618 11.738494185959176 0 0 0
370 124 2 -1.1794 7.742582224939213 4.2645004250790475 10.559582192193766 0 0 0
331 111 2 -1.1794 5.724355410464235 4.610541139572067 12.342007685230627 0 0 0
686 229 1 0.5897 8.581445208975008 2.5520919129482116 14.415772523993647 0 0 0
490 164 2 -1.1794 8.97915167204908 7.247926350306864 12.335971767781015 0 0 0
383 128 1 0.5897 8.639196245640816 1.736678696312997 12.525427031505624 0 0 0
353 118 1 0.5897 6.653234442647933 0.9791200278801604 12.16530741000916 0 0 0
685 229 2 -1.1794 9.159611115561114 2.891219107453253 13.732465891856274 0 0 0
384 128 1 0.5897 9.087708400423303 1.186845589487898 11.188128604119044 0 0 0
333 111 1 0.5897 5.801789050507932 5.564046691026448 12.310036663155888 0 0 0
794 265 1 0.5897 9.222127471431673 8.45550434940392 13.658197946611926 0 0 0
791 264 1 0.5897 5.761773792639177 9.260457245030793 14.635266351218046 0 0 0
491 164 1 0.5897 9.484948161829394 7.406985972432504 11.539045612447419 0 0 0
387 129 1 0.5897 9.215368758037538 5.959208375131417 13.790044554602815 0 0 0
377 126 1 0.5897 9.51291977988986 3.909284828519593 10.72062435861015 0 0 0
684 228 1 0.5897 5.288715172751809 3.598340979477218 13.71808237855327 0 0 0
354 118 1 0.5897 5.6307243377083545 1.5193117321542737 13.142269544162316 0 0 0
492 164 1 0.5897 8.070413024613757 7.403132972538472 12.078436007259985 0 0 0
460 154 2 -1.1794 6.282215668553398 7.362334670544961 12.055581323842661 0 0 0
461 154 1 0.5897 5.8986429442423445 7.86120500805229 12.776832222763439 0 0 0
332 111 1 0.5897 5.2119225288331 4.385214298371727 11.56556614572946 0 0 0
790 264 2 -1.1794 5.1453540369792865 9.166317026994196 13.909057772502388 0 0 0
795 265 1 0.5897 9.408214804809685 9.902531525741885 14.062288225289176 0 0 0
717 239 1 0.5897 6.493421369020284 2.4370511489544127 15.422894205257899 0 0 0
824 275 1 0.5897 7.965544295586387 9.102373551200676 15.285036386432942 0 0 0
682 228 2 -1.1794 5.042949825951877 2.9530675475403068 14.380937409411432 0 0 0
705 235 1 0.5897 7.754474529497999 6.202506215000624 15.521123547927564 0 0 0
708 236 1 0.5897 7.444231758322767 0.8626822365416065 18.19113544025472 0 0 0
145 49 2 -1.1794 9.539621237873149 8.92982450855022 20.587458795507654 0 0 -1
657 219 1 0.5897 6.618159147523253 4.32754026298894 18.92504131425862 0 0 0
38 13 1 0.5897 8.952215146107646 2.0465805929254395 19.95187849634609 0 0 -1
785 262 1 0.5897 5.830898346746182 6.591705260176543 19.331381597830873 0 0 0
786 262 1 0.5897 6.924206279415711 7.469979874230852 18.76124082194962 0 0 0
695 232 1 0.5897 7.873294932546882 3.386801444020363 17.063667229597296 0 0 0
694 232 2 -1.1794 8.155906093752098 4.0407140984171726 17.702986359846758 0 0 0
656 219 1 0.5897 5.136331135897556 4.552166756885988 18.71149061474173 0 0 0
706 236 2 -1.1794 8.393119119574049 0.9199402320364243 18.302954816604743 0 0 0
815 272 1 0.5897 9.142216466672538 6.236285084098113 18.88039271575643 0 0 0
703 235 2 -1.1794 7.26607438552682 6.222981202743695 16.344078845177993 0 0 0
716 239 1 0.5897 7.574122273835911 1.6004806013586124 16.0741108323648 0 0 0
696 232 1 0.5897 8.05699089271311 4.877904828406195 17.249672375674876 0 0 0
825 275 1 0.5897 7.106861181155745 8.115498963347093 16.04697185778922 0 0 0
784 262 2 -1.1794 6.00575530115134 7.4833244048743275 19.03032391758417 0 0 0
814 272 2 -1.1794 8.844632592778455 7.114133474239528 18.641663979481688 0 0 0
676 226 2 -1.1794 5.448992456427881 0.7063768945216649 19.252699116055243 0 0 0
655 219 2 -1.1794 5.83270790238518 4.660334474148618 19.35924118801376 0 0 0
816 272 1 0.5897 9.131025363810915 7.669969836836502 19.366393351841463 0 0 0
704 235 1 0.5897 6.373168633931556 5.9799914988327485 16.09935562714654 0 0 0
146 49 1 0.5897 9.154284838156808 9.7008871480896 20.17137263149467 0 0 -1
715 239 2 -1.1794 7.420914918489837 2.44931598041667 15.659154107739917 0 0 0
823 275 2 -1.1794 7.090876459306455 8.989529990364225 15.657098671277321 0 0 0
35 12 1 0.5897 5.481927527323949 1.83713052800693 20.600285823521105 0 0 -1
707 236 1 0.5897 8.592814112382266 0.28289991317920693 18.98885329307305 0 0 0
709 237 2 -1.1794 9.460272437498409 5.0617516368666715 20.369584098089817 0 0 0
689 230 1 0.5897 9.999551044870069 0.7908888839766178 17.543178561329807 0 0 0
710 237 1 0.5897 9.333884007578408 4.134980597491191 20.572823688631047 0 0 0
702 234 1 0.5897 9.933450690894569 3.871528775176611 17.661858922126424 0 0 0
36 12 1 0.5897 5.496626004670045 3.350525735314888 20.63436708713454 0 0 -1
245 82 1 0.5897 5.298206813612863 14.480734567873778 4.747811590234239 0 0 0
163 55 2 -1.1794 8.011516541317041 12.563193483789115 2.1150978277284405 0 0 0
250 84 2 -1.1794 5.6488668399279955 15.772414409131992 0.48146390865298777 0 0 0
285 95 1 0.5897 8.009685249850845 14.529341017390175 2.142511586429995 0 0 0
164 55 1 0.5897 7.071581557035443 12.730272885553177 2.04578529420498 0 0 0
276 92 1 0.5897 9.069796077006806 14.396768349143137 4.222534202888792 0 0 0
819 273 1 0.5897 8.661569619519796 12.26966139115082 0.4321032889369717 0 0 1
263 88 1 0.5897 7.440140354076201 17.616228104805696 4.662010746948689 0 0 0
165 55 1 0.5897 8.080209789331521 11.82698668164739 2.7229373002640003 0 0 0
273 91 1 0.5897 7.701874920595363 18.30834485298624 2.682054433340304 0 0 0
251 84 1 0.5897 6.319438898089995 15.472046720606663 1.0949122563726332 0 0 0
156 52 1 0.5897 9.4030289938775 10.852180616406281 3.8855308923307907 0 0 0
264 88 1 0.5897 8.922038805292317 17.529840459959324 4.364746182758397 0 0 0
284 95 1 0.5897 7.809481463376012 15.858334275787884 2.83927654515891 0 0 0