LAMMPS data file via write_data, version 30 Jul 2021, timestep = 500000

3840 atoms
2 atom types
2560 bonds
1 bond types
1280 angles
1 angle types

-0.2353396649198416 49.69533866491988 xlo xhi
0.0025841634108996203 24.968643836587137 ylo yhi
-0.03293208768920941 23.05194708768839 zlo zhi

Masses

1 1.008
2 15.999

Atoms # full

1 1 2 -1.1794 4.060507387765932 1.6656261576311866 4.392609993133054 0 0 0
2 1 1 0.5897 4.0542360576484215 1.0304104563696064 5.108628483237107 0 0 0
3 1 1 0.5897 3.3057737045550333 1.427661181483193 3.854085297886716 0 0 0
4 2 2 -1.1794 2.5652499099967447 1.5065374936405023 2.046252223689969 0 0 0
6 2 1 0.5897 1.6187099450520668 1.5967778339581773 1.9357754442457618 0 0 0
7 3 2 -1.1794 5.70094815641479 4.541808461139423 3.6356878085885587 0 0 0
10 4 2 -1.1794 2.996579739799365 4.70844187153325 3.251138310055725 0 0 0
11 4 1 0.5897 2.7506158630162107 3.851495242133705 3.5995444856216503 0 0 0
12 4 1 0.5897 3.952058404182508 4.724839613210891 3.30663242623517 0 0 0
13 5 2 -1.1794 1.2757522606461087 2.854722390530249 4.670592397991338 0 0 0
14 5 1 0.5897 0.5951955175125814 3.2999277567353573 4.165726374551201 0 0 0
20 7 1 0.5897 4.957348018926798 2.9062859675877544 0.9420935484977694 0 0 0
21 7 1 0.5897 3.4496837960918856 2.987045246773622 0.8304633879253063 0 0 0
22 8 2 -1.1794 1.466995880933471 4.644393929261353 0.9680498033587892 0 0 0
23 8 1 0.5897 2.0442026855353617 4.784983135781458 1.7185840506465286 0 0 0
24 8 1 0.5897 1.6536244171670667 5.377211088564877 0.38121095051269177 0 0 0
30 10 1 0.5897 1.5316247578707174 1.112189194010179 4.742384574561353 0 0 0
46 16 2 -1.1794 6.059049058655193 1.6756476324408722 2.209148405423296 0 0 0
47 16 1 0.5897 5.463039538504158 1.1527444960007742 1.6728708541221902 0 0 0
48 16 1 0.5897 5.618670930824973 1.7484354476302337 3.05590026164895 0 0 0
245 82 1 0.5897 3.10622005347161 7.161987789335483 1.57462698357352 0 0 0
268 90 2 -1.1794 1.2093979780623108 6.307368185844168 4.992105716538618 0 0 0
269 90 1 0.5897 0.45818511477238855 6.12503708801162 4.4275780750575215 0 0 0
270 90 1 0.5897 1.9465056340285432 5.879422452138659 4.5564493391899585 0 0 0
5 2 1 0.5897 2.8025894465948404 0.7663616489660419 1.4876445613500753 0 0 0
287 96 1 0.5897 5.874673532335214 7.100356418624419 1.697705657720595 0 0 0
19 7 2 -1.1794 4.2567584396496345 3.314164977386738 0.43310863242058983 0 0 0
246 82 1 0.5897 1.7019194423270607 7.626471939339612 1.8974417925678588 0 0 0
25 9 2 -1.1794 4.4588359355537275 6.062319143861756 0.8547262672569709 0 0 0
244 82 2 -1.1794 2.621261973845604 7.878822376905695 1.9835417526136419 0 0 0
27 9 1 0.5897 4.259669288979194 5.135931052370938 0.719139942528057 0 0 0
241 81 2 -1.1794 4.504655130943638 7.834243283898685 4.275515709390444 0 0 0
286 96 2 -1.1794 6.262898692889659 7.826118416946037 2.1863695841758632 0 0 0
243 81 1 0.5897 3.6752169455220094 7.945567216178674 3.810859396751929 0 0 0
980 327 1 0.5897 4.315074408382923 2.9665854780384997 5.592564324179939 0 0 0
9 3 1 0.5897 6.027494404962308 3.8057073568034574 4.153142718464584 0 0 0
8 3 1 0.5897 6.2170389985956565 5.291393911404757 3.9323779187359684 0 0 0
242 81 1 0.5897 5.173595540346168 7.918304394934373 3.596032301673894 0 0 0
254 85 1 0.5897 1.240869848933121 8.170355443858739 4.869435216873471 0 0 0
28 10 2 -1.1794 1.6236833762628327 0.1661585013095436 4.855502366023762 0 0 0
256 86 2 -1.1794 -0.1994996491858012 7.703190503485355 1.825044600693386 0 0 0
15 5 1 0.5897 1.3237078242903455 3.34366381220648 5.4920846391749665 0 0 0
53 18 1 0.5897 6.617147849609532 4.579202302079045 1.942087256143013 0 0 0
219 73 1 0.5897 -0.15659961518929671 5.076506712816956 2.517998350674348 1 0 0
26 9 1 0.5897 4.688914129225621 6.388184955249463 -0.015381556825187395 0 0 0
16 6 2 -1.1794 -0.21895984774500094 1.7439275563890044 1.914966205706433 0 0 0
986 329 1 0.5897 4.543328256423819 6.834129386383032 5.789893093854313 0 0 0
988 330 2 -1.1794 1.240001447994958 0.17965188013432692 10.633271443216238 0 0 0
1178 393 1 0.5897 0.03379094360654189 4.902625971006561 8.327472902079899 1 0 0
1013 338 1 0.5897 6.60812505708904 4.680164071930356 7.53810378310169 0 0 0
1940 647 1 0.5897 4.608334015440239 2.874096064150457 11.336856286964318 0 0 0
1179 393 1 0.5897 -0.03406903479469209 5.710124649497517 9.606219639179903 1 0 0
1007 336 1 0.5897 6.137886476234491 2.1898853906258458 7.15742469768644 0 0 0
971 324 1 0.5897 2.7272914193590405 3.7509848967872843 9.368702708228406 0 0 0
1216 406 2 -1.1794 -0.11637981518322886 7.726507003734314 7.448443378734633 0 0 0
1247 416 1 0.5897 5.679693842594704 7.744398891899688 8.624952715567538 0 0 0
978 326 1 0.5897 0.9866139075494551 1.6682184966235254 7.710274709078431 0 0 0
968 323 1 0.5897 5.854175812107216 3.890204469064035 9.652247411817774 0 0 0
1946 649 1 0.5897 4.789441902053453 6.162502380737444 11.120353477749628 0 0 0
1706 569 1 0.5897 3.8749319484036526 0.4877943797944091 6.8123158190806175 0 1 0
976 326 2 -1.1794 0.0811502632517922 1.3597639664343266 7.674566874457486 0 0 0
1201 401 2 -1.1794 4.519977078703212 7.756575531820312 10.01820454991187 0 0 0
963 321 1 0.5897 4.234946159944538 1.2176586564694372 10.485057175745732 0 0 0
964 322 2 -1.1794 2.867077363685606 1.725298696171274 7.549174709985045 0 0 0
973 325 2 -1.1794 1.3129103564218843 2.9911425899436126 10.176507346576933 0 0 0
972 324 1 0.5897 2.5782843111010605 5.257376910639638 9.391300176019136 0 0 0
966 322 1 0.5897 3.162297658949422 1.8043774885873012 8.456258758345854 0 0 0
987 329 1 0.5897 3.8099879625396076 6.5828835215526285 7.09026331153698 0 0 0
983 328 1 0.5897 1.2039917728793583 5.193554032341685 6.611290886922203 0 0 0
1205 402 1 0.5897 1.8189585737251348 7.825322470041086 7.74430434332217 0 0 0
962 321 1 0.5897 5.076002899189706 1.614152628438201 9.290357540825418 0 0 0
1202 401 1 0.5897 3.763214188391329 7.96334590562201 9.46973864118479 0 0 0
1006 336 2 -1.1794 6.239893547445194 1.4546206371692452 7.761749026200681 0 0 0
969 323 1 0.5897 4.74114760847776 4.762995036450637 9.112453406675344 0 0 0
1248 416 1 0.5897 6.419778041221545 6.76692226563662 7.736845686381802 0 0 0
981 327 1 0.5897 4.4246642256417426 4.378487168222333 6.127765797198273 0 0 0
1228 410 2 -1.1794 1.560875706603981 6.409761772626401 10.551420365192378 0 0 0
967 323 2 -1.1794 5.679939663447402 4.762780769516465 9.299410767807387 0 0 0
970 324 2 -1.1794 3.0609755269561547 4.550821647071236 8.962305833226576 0 0 0
1204 402 2 -1.1794 2.7450149015260625 7.962275788872578 7.9441710465117765 0 0 0
1229 410 1 0.5897 1.648047889058041 7.321464289238784 10.829704143700154 0 0 0
965 322 1 0.5897 3.3443062400038612 2.410304306230047 7.0809165365785525 0 0 0
961 321 2 -1.1794 4.520040942396179 1.9785512697056404 9.979092560922096 0 0 0
982 328 2 -1.1794 1.232058272898472 4.364294108735375 7.088548775608771 0 0 0
1246 416 2 -1.1794 6.421599726918864 7.680185238875034 8.023532082346456 0 0 0
985 329 2 -1.1794 4.34893640844921 6.148628668929579 6.429055712078931 0 0 0
990 330 1 0.5897 1.1944790381975907 1.0918484601661633 10.346799972554141 0 0 0
984 328 1 0.5897 2.0794883804347277 4.372106293146119 7.533601290108589 0 0 0
979 327 2 -1.1794 4.582813570740664 3.464691198686291 6.364850863743538 0 0 0
975 325 1 0.5897 0.5981368875364479 3.522958371230174 9.826457754496616 0 0 0
974 325 1 0.5897 1.3597590252961924 3.2312857699551 11.10189439339028 0 0 0
1707 569 1 0.5897 5.2583358945622765 0.007203047118542445 6.42860088289675 0 1 0
1230 410 1 0.5897 1.4868616917068358 5.915649908761127 11.367869390758479 0 0 0
1259 420 1 0.5897 6.753267940909812 5.922145391782167 10.322150153048453 0 0 0
1921 641 2 -1.1794 4.244411657927571 1.0521220117981016 15.614470875985177 0 0 0
1922 641 1 0.5897 4.888802514337299 1.4069508467093466 15.00201559809949 0 0 0
1923 641 1 0.5897 4.034709444550879 1.7849440294975463 16.193459778990196 0 0 0
1924 642 2 -1.1794 2.509204200115344 1.7211078358693135 13.590870865997884 0 0 0
1925 642 1 0.5897 3.0289938228527777 1.2233145479566536 14.221949605846863 0 0 0
1926 642 1 0.5897 3.078174475898284 2.445070225307848 13.329320812362706 0 0 0
1927 643 2 -1.1794 5.745492352297687 4.649775242269653 14.876982341450564 0 0 0
1930 644 2 -1.1794 3.044239258818497 4.491604439539616 14.740269356538608 0 0 0
1931 644 1 0.5897 3.9950720241839734 4.575340064567684 14.812327534213152 0 0 0
1932 644 1 0.5897 2.7020816913330243 5.293846358880338 15.134705866246343 0 0 0
1933 645 2 -1.1794 1.3864892795824468 2.9155951491472893 16.445865199086406 0 0 0
1934 645 1 0.5897 1.851997161555257 3.1615807701550165 15.64648096621791 0 0 0
1935 645 1 0.5897 1.3492408621947285 1.959538183620518 16.41734908706441 0 0 0
1937 646 1 0.5897 0.7722702428796977 1.8206505373082438 13.723542970809559 0 0 0
1939 647 2 -1.1794 4.449678875739201 3.2313370310558334 12.210593627072015 0 0 0
1942 648 2 -1.1794 1.2233541098365004 4.785204644082681 12.831492080343606 0 0 0
1943 648 1 0.5897 1.980286700364934 4.59431267198583 13.3854510092266 0 0 0
1944 648 1 0.5897 0.5199886435966602 4.988834972388876 13.44798393042187 0 0 0
1947 649 1 0.5897 5.54061568592443 6.494592215714537 12.392096724118542 0 0 0
1966 656 2 -1.1794 6.0423780300526655 1.2771086349483076 13.300035755423128 0 0 0
1968 656 1 0.5897 5.6996969418656915 2.0220553296036665 12.80621120459488 0 0 0
2162 721 1 0.5897 4.201682290999695 7.084229009763433 16.29900682649447 0 0 0
2165 722 1 0.5897 3.4580134036604746 6.586903655045439 13.009039603056175 0 0 0
2188 730 2 -1.1794 1.272621355456023 6.527492561790006 16.34815812704575 0 0 0
2189 730 1 0.5897 0.7172573423393022 6.002468764449329 15.771820074300102 0 0 0
1945 649 2 -1.1794 4.964335812261683 5.836627678840617 12.003205234905097 0 0 0
1928 643 1 0.5897 6.091346210427129 4.449211548259835 14.007284522457187 0 0 0
2164 722 2 -1.1794 3.0234992107547436 7.378219564779877 13.327262894648916 0 0 0
2163 721 1 0.5897 3.679506666052766 7.792422672264914 15.067071092855347 0 0 0
2161 721 2 -1.1794 4.107508065437751 7.952873874142765 15.908076877318395 0 0 0
2207 736 1 0.5897 5.918379881252549 7.924969261283936 14.512165317287442 0 0 0
1929 643 1 0.5897 6.454114773357218 5.122200141681176 15.3139358094567 0 0 0
2178 726 1 0.5897 1.171959171066509 7.7307828748015135 13.406690157278101 0 0 0
1941 647 1 0.5897 4.368985116399467 4.175155283750933 12.07296889537983 0 0 0
2166 722 1 0.5897 3.402104146698971 8.086080857644975 12.805891490356542 0 0 0
2175 725 1 0.5897 1.3990407079886702 8.303065496977148 16.306479411997138 0 0 0
2206 736 2 -1.1794 6.2866679609946665 7.841602359454957 13.632603718604459 0 0 0
2190 730 1 0.5897 1.5028791249293685 5.935443712476922 17.06417717625436 0 0 0
1948 650 2 -1.1794 1.3479218045959103 0.026956373098168347 16.28737020071226 0 0 0
2176 726 2 -1.1794 0.2777446506491219 8.05953558680692 13.499343498242922 0 0 0
1936 646 2 -1.1794 -0.17911127562463858 1.9081158082820684 13.782792237552801 0 0 0
1965 655 1 0.5897 6.768477898293943 2.8966012155536833 16.10756118556084 0 0 0
2666 889 1 0.5897 4.829395671575092 0.005183486056090203 12.44797734618676 0 1 0
3626 1209 1 0.5897 4.259480293956172 0.19060737937976313 17.09087381434631 0 1 0
3137 1046 1 0.5897 0.13452220281436233 7.137242601190293 18.710833257826508 0 0 0
3098 1033 1 0.5897 0.019621168028401248 4.530515290931617 19.994720479907407 1 0 0
3099 1033 1 0.5897 0.2298610648348522 5.0074827967685644 21.41603512055783 1 0 0
2925 975 1 0.5897 6.676484010702035 3.196324911721869 21.801959194890834 0 0 0
746 249 1 0.5897 4.884930129884785 0.09469572683869237 22.663689865853783 0 1 -1
2896 966 2 -1.1794 -0.23026819590435813 1.487841450093309 19.331780600722567 0 0 0
2886 962 1 0.5897 1.6454274512045317 1.5191834827133561 19.354067628529364 0 0 0
2884 962 2 -1.1794 2.571081590407786 1.717281063093756 19.211919505014734 0 0 0
2891 964 1 0.5897 2.9563709620627647 3.9384453591232873 20.970941374100107 0 0 0
3150 1050 1 0.5897 2.1550501364913086 6.179448391492168 21.55632896454648 0 0 0
2901 967 1 0.5897 5.1272613559828555 2.4491883788513045 18.04498599623959 0 0 0
3148 1050 2 -1.1794 1.4629989986655891 6.464180751293993 22.153188563424905 0 0 0
2905 969 2 -1.1794 4.562626490261928 5.811916216479063 17.759555975527434 0 0 0
2892 964 1 0.5897 4.072504820695769 4.840877244262946 20.489445093914853 0 0 0
2899 967 2 -1.1794 4.476260076505033 3.0077516073754262 17.62017858024749 0 0 0
2887 963 2 -1.1794 5.84948698344499 4.587368415452718 20.770500574964665 0 0 0
3166 1056 2 -1.1794 6.2630614903304895 7.463585128256522 19.3595410408493 0 0 0
3167 1056 1 0.5897 5.797202816547261 6.837273901765017 18.805509210645397 0 0 0
2902 968 2 -1.1794 1.4034801411003768 4.781025340285947 18.483536468696805 0 0 0
2881 961 2 -1.1794 4.374976493528765 1.6776638926814116 21.273778724974754 0 0 0
2885 962 1 0.5897 2.929109967083604 0.921577595665621 18.818326356851237 0 0 0
2903 968 1 0.5897 1.4514781455664787 4.067653402259974 17.847122505726638 0 0 0
3149 1050 1 0.5897 1.4907361808199653 7.420189773841606 22.114165850724447 0 0 0
3125 1042 1 0.5897 2.159142680990498 7.896439132243512 19.352914675841603 0 0 0
2909 970 1 0.5897 1.1024628874093998 1.0036865780936064 22.380433062578895 0 0 0
2907 969 1 0.5897 3.8696262217327826 6.001749643278238 18.391981736561597 0 0 0
2893 965 2 -1.1794 1.5610611744461318 2.8192989869798266 22.040351914122013 0 0 0
2890 964 2 -1.1794 3.1202152285439895 4.794199884140995 20.574609898312424 0 0 0
3124 1042 2 -1.1794 3.0966959380682857 7.766683271183277 19.49589391085818 0 0 0
2906 969 1 0.5897 4.645031114929622 4.85835505052387 17.772841148466334 0 0 0
2882 961 1 0.5897 3.592693712515023 1.6989342769346307 20.72256146182297 0 0 0
2894 965 1 0.5897 0.7890176059772174 3.0750609529047077 21.53557947362701 0 0 0
2889 963 1 0.5897 6.2731365649872295 5.3150582133531605 21.225728439323667 0 0 0
2926 976 2 -1.1794 6.185567204885964 1.3750056186049076 19.33029868497958 0 0 0
2927 976 1 0.5897 5.744187684518027 0.67731840084435 18.84588134852497 0 0 0
2900 967 1 0.5897 3.6829752470901145 2.8923591622802163 18.14329009017724 0 0 0
2904 968 1 0.5897 2.0685118721989872 4.564681944598414 19.137121891461035 0 0 0
2888 963 1 0.5897 6.376004729368563 4.458751361756142 19.981536772353067 0 0 0
3168 1056 1 0.5897 5.836735587620024 7.3919675172350185 20.2135527662643 0 0 0
3121 1041 2 -1.1794 4.800664191208673 7.611953255470556 21.64765131417768 0 0 0
2928 976 1 0.5897 5.523450655305012 1.699195556064624 19.940831692076742 0 0 0
2883 961 1 0.5897 4.166661158854878 2.254872404721175 22.00839213279749 0 0 0
3123 1041 1 0.5897 4.12276718112351 7.695957596498988 20.97709514757748 0 0 0
2895 965 1 0.5897 1.454507354434532 3.2616269484156444 22.882494584287485 0 0 0
2908 970 2 -1.1794 1.0946793737961362 0.08818625576026683 22.659790173891338 0 0 0
3136 1046 2 -1.1794 0.25174978009600557 7.889250411770264 19.29132650181255 0 0 0
2898 966 1 0.5897 -0.14118778742835048 2.3476178572850346 18.920578517375205 0 0 0
3126 1042 1 0.5897 3.518478199322014 8.311879794576956 18.83174602738628 0 0 0
247 83 2 -1.1794 6.022567806477201 10.931006112592847 3.4789211518526906 0 0 0
250 84 2 -1.1794 3.409670533739058 10.728323323093205 3.7066087233627054 0 0 0
251 84 1 0.5897 2.984244315881838 10.912036825248608 2.8690633389928717 0 0 0
252 84 1 0.5897 4.34196790564577 10.863857978443553 3.537089724889838 0 0 0
253 85 2 -1.1794 1.2080744664067316 9.12415850961582 4.943121050910394 0 0 0
255 85 1 0.5897 2.0944566541506577 9.412329062124497 4.725028290617048 0 0 0
262 88 2 -1.1794 1.7575914752839015 10.971464463373298 1.3946642811970593 0 0 0
263 88 1 0.5897 1.8113889497294742 10.119174601817827 0.9622931372572339 0 0 0
264 88 1 0.5897 1.029334388080302 10.883081200953198 2.0095483709006676 0 0 0
267 89 1 0.5897 3.9071710583828265 12.681521043113374 0.9734127760611606 0 0 0
481 161 2 -1.1794 4.308855674866441 13.917709551914156 4.030954124625627 0 0 0
482 161 1 0.5897 4.489739338111777 14.428597779891936 4.8199357371553955 0 0 0
483 161 1 0.5897 5.052665006263249 14.09434068576136 3.454930497459976 0 0 0
484 162 2 -1.1794 2.7653579929470427 14.080728880797011 1.806488217206738 0 0 0
485 162 1 0.5897 1.809151625452778 14.115677475798911 1.8336143263647777 0 0 0
486 162 1 0.5897 3.0234180913711044 13.871194496247158 2.704102209861342 0 0 0
493 165 2 -1.1794 1.4698078039462095 15.532483472883717 4.834972822970187 0 0 0
494 165 1 0.5897 0.7329485358209126 15.694683811361978 4.245919165030911 0 0 0
495 165 1 0.5897 2.155420561569376 16.127379342641433 4.5311694224717565 0 0 0
501 167 1 0.5897 3.8637050100396575 15.46009015539996 1.1142521247761332 0 0 0
508 170 2 -1.1794 1.444286504500514 12.717269942116287 4.546374986146754 0 0 0
509 170 1 0.5897 2.3580039734207277 12.435818869790971 4.593173815870113 0 0 0
510 170 1 0.5897 1.4760822214797353 13.661876478668034 4.697874608198144 0 0 0
526 176 2 -1.1794 6.447417542809962 14.121136456221944 2.4339156865817886 0 0 0
527 176 1 0.5897 6.007045264193459 14.803335501979495 1.927043700127208 0 0 0
528 176 1 0.5897 6.256011484466787 13.310451514206669 1.9623333511939636 0 0 0
499 167 2 -1.1794 4.579337402969756 15.978486001729662 0.7462885465528779 0 0 0
249 83 1 0.5897 6.393572503287345 10.300187118543914 4.09589437650974 0 0 0
259 87 2 -1.1794 4.510017434862013 9.453841496663777 0.5551258386916006 0 0 0
261 87 1 0.5897 3.7195024534065855 9.183311645912838 1.022204502596227 0 0 0
260 87 1 0.5897 5.228004964521155 9.22243311079335 1.144360252635243 0 0 0
248 83 1 0.5897 6.36583238242061 10.663249160481444 2.6264585525065827 0 0 0
1221 407 1 0.5897 4.659447694049664 9.18702738490738 5.666908259361261 0 0 0
265 89 2 -1.1794 4.78820915911546 12.356798493173022 0.7873832497735869 0 0 0
503 168 1 0.5897 1.0698405027786198 16.41379837549004 0.5402751349815241 0 0 0
458 153 1 0.5897 0.2673354455527879 11.71606838062758 3.639104198393159 1 0 0
266 89 1 0.5897 4.651220234801232 11.472694412778775 0.44703781779902224 0 0 0
1227 409 1 0.5897 4.597898035664071 12.49409253047729 5.387143016728776 0 0 0
459 153 1 0.5897 0.11992874074384546 10.2731144760333 4.072781895681386 1 0 0
496 166 2 -1.1794 0.02084628096529456 14.19903726429628 1.8408218547654398 0 0 0
525 175 1 0.5897 6.8769369604861845 15.824801805055355 4.449136707442872 0 0 0
457 153 2 -1.1794 -0.21858469156388338 10.91393388131373 3.44748834210878 1 0 0
1449 483 1 0.5897 6.2106574622964414 16.390501149471753 9.823333244090867 0 0 0
1245 415 1 0.5897 6.611368284930956 9.870986599921327 10.209393070161498 0 0 0
1419 473 1 0.5897 0.10522588402075439 10.814438045255619 8.365281849872321 1 0 0
1203 401 1 0.5897 4.572684599855826 8.483738050141934 10.638433231828726 0 0 0
1206 402 1 0.5897 3.020656119726869 8.653888562195457 7.342568718322759 0 0 0
1455 485 1 0.5897 2.329510894255913 15.481454107892947 10.450828383446538 0 0 0
1219 407 2 -1.1794 4.643992461000143 9.545846989827925 6.554161008902181 0 0 0
1208 403 1 0.5897 5.996890617135251 10.927314542766032 8.478842958854814 0 0 0
1213 405 2 -1.1794 1.7162065554446824 9.077750878071283 10.813872969215913 0 0 0
1446 482 1 0.5897 3.2892739978948655 13.961138413565624 8.628250901949455 0 0 0
1445 482 1 0.5897 3.0413323573035105 13.209654855668532 7.337649922979085 0 0 0
1442 481 1 0.5897 5.253482610675964 14.127937053282833 9.443546041151212 0 0 0
1454 485 1 0.5897 0.9267184336100829 15.755302138275383 9.951637909301951 0 0 0
1210 404 2 -1.1794 3.0829495936927698 11.14086281051851 9.300829911337017 0 0 0
1225 409 2 -1.1794 4.472172879757057 12.273708475222834 6.310088180826795 0 0 0
1469 490 1 0.5897 1.0892057104916297 13.363053522982973 10.545685257271703 0 0 0
1224 408 1 0.5897 1.1336377862325295 10.28721670868544 6.274596112848834 0 0 0
1458 486 1 0.5897 0.8069031033502896 14.346455113683335 7.535606115146297 0 0 0
1212 404 1 0.5897 2.8590309752901955 11.119337428376001 8.370451646562598 0 0 0
1444 482 2 -1.1794 2.731859839780692 13.95654569672674 7.850112932753181 0 0 0
1207 403 2 -1.1794 5.6916579734868895 11.08168187557599 9.372831502833195 0 0 0
1222 408 2 -1.1794 1.3308403537369777 10.984854574636769 6.899608610680395 0 0 0
1220 407 1 0.5897 5.470745152091896 9.26022191779299 6.942964660600102 0 0 0
1215 405 1 0.5897 0.9900579949531241 9.36549427216553 10.260550069394593 0 0 0
1487 496 1 0.5897 5.81567213861527 13.202483226966049 7.362322215032066 0 0 0
1459 487 2 -1.1794 4.682373596276692 15.594781939423084 6.292072904567757 0 0 0
1470 490 1 0.5897 1.8374872795458557 12.060318977931995 10.358837756909162 0 0 0
1486 496 2 -1.1794 6.330229662745471 13.926412616389797 7.719266122313445 0 0 0
1443 481 1 0.5897 4.444547041664129 13.36274984724222 10.4692272852504 0 0 0
1488 496 1 0.5897 6.019456241038813 14.698083963025837 7.245786852991846 0 0 0
1460 487 1 0.5897 3.901880016785654 15.230656393200594 6.709812771824474 0 0 0
1211 404 1 0.5897 2.7475237357815327 10.314121262041835 9.647575379504056 0 0 0
1441 481 2 -1.1794 4.416420016034231 14.13747860168697 9.907769644072937 0 0 0
1209 403 1 0.5897 4.742839374556927 10.963979369942258 9.326179646432953 0 0 0
1226 409 1 0.5897 4.41450662616714 11.318327039246597 6.323001250393057 0 0 0
1468 490 2 -1.1794 1.0211579351260098 12.42154756588736 10.704368842339694 0 0 0
1453 485 2 -1.1794 1.4246415628453526 15.18009488280911 10.53254301212974 0 0 0
1223 408 1 0.5897 1.1623350820419072 11.794141302653204 6.4170145270454855 0 0 0
1456 486 2 -1.1794 -0.14312561071573093 14.27691493408796 7.629928210271584 0 0 0
1461 487 1 0.5897 4.527389068351215 16.53921971389535 6.2758358189125625 0 0 0
1418 473 1 0.5897 -0.015377162109122128 11.309151764195141 9.790955634886226 1 0 0
2421 807 1 0.5897 4.702238016873275 15.199037689195404 11.368060410371069 0 0 0
1464 488 1 0.5897 1.0895427204349613 16.61519656689621 6.50035542549053 0 0 0
2167 723 2 -1.1794 5.725357096132782 10.992150749580958 15.1824564026937 0 0 0
2170 724 2 -1.1794 2.9418539659616374 11.045497948059648 15.245694299651545 0 0 0
2171 724 1 0.5897 2.7189064735145028 10.94775885274924 14.319979323741512 0 0 0
2172 724 1 0.5897 3.8986068670281346 11.022972240778003 15.265813313443498 0 0 0
2173 725 2 -1.1794 1.2740669209471553 9.223522356448807 16.537529131343305 0 0 0
2174 725 1 0.5897 1.976025611993304 9.683868270989885 16.077537247508772 0 0 0
2182 728 2 -1.1794 1.5912457582383777 10.768871376348523 12.949580424322017 0 0 0
2184 728 1 0.5897 0.8159087648817915 10.738413022765108 13.51009934914084 0 0 0
2185 729 2 -1.1794 4.4548120709493455 12.238065049556011 12.480472766067919 0 0 0
2187 729 1 0.5897 3.641285393135619 12.586421052438181 12.84529055714695 0 0 0
2401 801 2 -1.1794 4.063666818812943 13.87672881969747 15.827501094651588 0 0 0
2402 801 1 0.5897 4.1938302279458455 14.620656169856002 16.415598850981915 0 0 0
2403 801 1 0.5897 4.213838328398839 13.107372895855756 16.376839099638467 0 0 0
2404 802 2 -1.1794 2.8243041896552787 14.169533737323505 13.538701131886684 0 0 0
2405 802 1 0.5897 3.4366624790315914 14.747468806153657 13.083440693965239 0 0 0
2406 802 1 0.5897 3.0974215235250995 14.204844038638575 14.455417192764497 0 0 0
2413 805 2 -1.1794 1.21906746497899 15.21565264284801 16.010159998982672 0 0 0
2414 805 1 0.5897 1.8465600361721397 15.791899425493767 15.573756933400485 0 0 0
2418 806 1 0.5897 0.9252730779293563 13.986402885148554 13.560016014349983 0 0 0
2419 807 2 -1.1794 4.794157625181811 15.55826891135286 12.250506577541678 0 0 0
2428 810 2 -1.1794 1.250665981516093 12.684381659125862 16.708503320975147 0 0 0
2429 810 1 0.5897 1.3888819431569883 13.601652249357176 16.472379934772242 0 0 0
2430 810 1 0.5897 2.0512088576194043 12.2410355966753 16.42770655402601 0 0 0
2446 816 2 -1.1794 6.162591871211105 13.771565617620864 13.916752864917228 0 0 0
2447 816 1 0.5897 5.596255424077718 13.684998977600298 14.68356293013123 0 0 0
2448 816 1 0.5897 5.842826498993922 14.555117880922419 13.469497998712495 0 0 0
2415 805 1 0.5897 0.3835299403484099 15.678313878090306 15.946133131172264 0 0 0
2168 723 1 0.5897 6.168756134021889 11.57837551780102 15.79562455911148 0 0 0
2183 728 1 0.5897 1.652327815056229 11.683496238888182 12.67394945350097 0 0 0
2180 727 1 0.5897 5.279364199393224 9.325452049028966 12.656953465669787 0 0 0
2169 723 1 0.5897 6.255341826807485 11.032154087232653 14.386376586523673 0 0 0
2186 729 1 0.5897 5.146910826542783 12.713440956425794 12.940119199747668 0 0 0
2179 727 2 -1.1794 4.42766070197707 9.573345464292041 12.297200236834005 0 0 0
2181 727 1 0.5897 4.352775593536362 10.509721259267831 12.481148316648605 0 0 0
2423 808 1 0.5897 1.3664068263803228 16.087780116416404 12.145880656320452 0 0 0
2379 793 1 0.5897 0.1895428228007583 10.224012830869432 15.557804167111076 1 0 0
2378 793 1 0.5897 0.19056858276769673 11.734154000573614 15.664579547356528 1 0 0
2416 806 2 -1.1794 0.013679252194297192 13.695188245359265 13.538223778315912 0 0 0
2205 735 1 0.5897 6.808164052404903 9.419435751003382 16.074680269581222 0 0 0
1214 405 1 0.5897 1.5999489067868222 9.560133872786949 11.632411399496338 0 0 0
2444 815 1 0.5897 6.746377861102813 15.550816274208582 16.1881652558181 0 0 0
2420 807 1 0.5897 4.695303842269085 16.50348866595347 12.13634419913203 0 0 0
2377 793 2 -1.1794 -0.18976832122384954 11.010804055349398 15.166234810402548 1 0 0
3363 1121 1 0.5897 5.400962088957623 13.881334852403105 21.163054357721165 0 0 0
3122 1041 1 0.5897 4.639508333057285 8.342605079032982 22.244648888986376 0 0 0
3405 1135 1 0.5897 6.721037400788222 15.874453688882141 21.74181274913805 0 0 0
3131 1044 1 0.5897 2.6573273933774915 11.601151946869816 20.85877969152226 0 0 0
3375 1125 1 0.5897 1.2579887659086695 14.15299160451834 22.069585834071162 0 0 0
3379 1127 2 -1.1794 4.547396222968523 15.720544296261462 18.003662445740616 0 0 0
3135 1045 1 0.5897 2.2187702424357494 9.617574717301315 21.543586329360906 0 0 0
3406 1136 2 -1.1794 6.426587579887779 14.174465134562741 19.533162514329007 0 0 0
3140 1047 1 0.5897 4.7538885078163995 8.947783423943582 17.325304991428176 0 0 0
3376 1126 2 -1.1794 0.1760383448024712 14.271621416169733 19.307701930901793 0 0 0
3372 1124 1 0.5897 2.4332196453803068 16.040108273643952 20.90755453214453 0 0 0
3127 1043 2 -1.1794 6.006706933884247 10.809087622802124 20.66219674789162 0 0 0
3139 1047 2 -1.1794 4.730867261282781 9.554758290983502 18.065082472512074 0 0 0
3129 1043 1 0.5897 6.333476955129398 11.627091437719677 21.03680952771765 0 0 0
3146 1049 1 0.5897 4.665990892177 11.292439365462108 18.152187915465433 0 0 0
3364 1122 2 -1.1794 3.01138953546317 13.999390193876359 19.387059444602308 0 0 0
3165 1055 1 0.5897 6.774227442692013 9.371798489175513 21.615727543112627 0 0 0
3366 1122 1 0.5897 3.3993720319397864 13.277955692000498 18.89184022068453 0 0 0
3132 1044 1 0.5897 2.518629417666909 10.843032721444347 19.5557570996122 0 0 0
3142 1048 2 -1.1794 0.8433302179757267 10.720571456296188 18.695421030450866 0 0 0
3362 1121 1 0.5897 4.66975779636352 13.573423816918229 22.452397602973036 0 0 0
3374 1125 1 0.5897 0.34476863248459066 15.25698339087243 21.58051649468817 0 0 0
3380 1127 1 0.5897 3.7820992414345067 15.439289750199565 18.5051376910464 0 0 0
3141 1047 1 0.5897 5.189672125619472 9.094247371368537 18.767691087757385 0 0 0
3365 1122 1 0.5897 3.62703599566301 14.157596290555768 20.10273323997182 0 0 0
3388 1130 2 -1.1794 1.5405563496650705 12.247205970239367 22.059756036367475 0 0 0
3130 1044 2 -1.1794 3.081640473965688 10.929345251720877 20.325042865847806 0 0 0
3134 1045 1 0.5897 0.7286296937832795 9.46700860119586 21.764587929490844 0 0 0
3143 1048 1 0.5897 1.03094968776163 10.065497360061277 18.023184219268998 0 0 0
3145 1049 2 -1.1794 4.59854859201228 12.23970708001519 18.03226863561631 0 0 0
3128 1043 1 0.5897 5.071354572723087 10.962895882357381 20.52898942824637 0 0 0
3408 1136 1 0.5897 6.018986999659093 14.814087223753834 18.94922510677567 0 0 0
3377 1126 1 0.5897 1.1079286504364645 14.11441482088989 19.15554522860004 0 0 0
3373 1125 2 -1.1794 1.1334785605193176 15.101573570496209 22.100176724116338 0 0 0
3144 1048 1 0.5897 0.902565906821081 11.558734342056221 18.236934384875838 0 0 0
3133 1045 2 -1.1794 1.5771128100452096 9.198566448231261 22.11713370077993 0 0 0
3389 1130 1 0.5897 0.7284878342650513 11.784264494337034 21.85359075047628 0 0 0
3147 1049 1 0.5897 5.44893706539977 12.578230614513677 18.31247513193032 0 0 0
3361 1121 2 -1.1794 4.597837712359771 14.081022539353535 21.644075178500422 0 0 0
3383 1128 1 0.5897 1.083663845749074 16.308543122944414 17.83235268309904 0 0 0
3390 1130 1 0.5897 1.7996820880203277 11.907442809882546 22.916277009734465 0 0 0
500 167 1 0.5897 4.841187413053998 15.501265673241647 23.043820947709882 0 0 -1
491 164 1 0.5897 2.2836120081351527 18.15585298319796 3.946928076908796 0 0 0
504 168 1 0.5897 1.051284271904155 17.920445757767304 0.6872337546004609 0 0 0
721 241 2 -1.1794 4.151610391539235 20.201106964190906 4.132401497478739 0 0 0
722 241 1 0.5897 4.0339460210981555 20.971106658926736 4.688714462537239 0 0 0
723 241 1 0.5897 4.9997001376290795 20.33753687392595 3.7100252809647114 0 0 0
724 242 2 -1.1794 2.5256616427062424 20.12211797226152 1.8079513843409802 0 0 0
725 242 1 0.5897 2.5259384983651967 21.002250460946073 1.431645990292247 0 0 0
726 242 1 0.5897 3.0479928431533923 20.202201281457185 2.6060637815961445 0 0 0
727 243 2 -1.1794 5.910064320060509 23.286322808144185 3.5331528312572407 0 0 0
730 244 2 -1.1794 3.1941859040817957 23.350294239939082 3.3039728262382773 0 0 0
731 244 1 0.5897 2.940276130607483 24.074609120771427 3.875926283231488 0 0 0
732 244 1 0.5897 4.138370515162087 23.261434233781856 3.4339939002443285 0 0 0
733 245 2 -1.1794 1.2871444883753416 21.905215907330778 5.02868991000716 0 0 0
735 245 1 0.5897 1.8264047689083114 22.30608511875804 4.346972061929533 0 0 0
738 246 1 0.5897 0.6071327836060255 20.298745505960724 2.206140813258338 0 0 0
741 247 1 0.5897 4.828823650660205 21.740883670729644 1.348063272171601 0 0 0
742 248 2 -1.1794 1.0227595180787898 23.258821550700702 1.6903647277564675 0 0 0
743 248 1 0.5897 1.937547744683481 23.166451177564163 1.9566535581814637 0 0 0