LAMMPS data file via write_data, version 30 Jul 2021, timestep = 3750000

972 atoms
2 atom types
648 bonds
1 bond types
324 angles
1 angle types

0.125809117924641 19.87419188207226 xlo xhi
-0.11006806243531386 20.110069062438868 ylo yhi
-0.08848155063278895 20.788479550634133 zlo zhi

Masses

1 1.008
2 15.999

Pair Coeffs # lj/cut/tip4p/long/omp

1 0 0
2 0.21084 3.1668

Bond Coeffs # harmonic/omp

1 450 0.9572

Angle Coeffs # harmonic/omp

1 55 104.52

Atoms # full

10 4 2 -1.1794 1.6672449415232582 4.476960345371293 3.715656753986849 0 0 0
31 11 2 -1.1794 0.9459154314586272 2.6746611657124424 1.7225766951594914 0 0 0
33 11 1 0.5897 1.513262131655385 2.204942604089775 1.111260100877908 0 0 0
236 79 1 0.5897 0.9435339148345243 0.888619975906545 1.925260044872942 0 1 0
12 4 1 0.5897 2.621557694111156 4.54981340742957 3.7284173220849253 0 0 0
23 8 1 0.5897 2.7356191629834474 0.8102554148618548 4.2239777270168055 0 0 0
16 6 2 -1.1794 4.529017478417346 3.979172208321015 3.759188337475923 0 0 0
11 4 1 0.5897 1.4896985863767165 3.75498110037936 3.112760976668249 0 0 0
4 2 2 -1.1794 4.129841949934801 1.177384332740477 3.052571285443572 0 0 0
18 6 1 0.5897 4.225417924056636 3.1381194080434827 3.417581999183481 0 0 0
22 8 2 -1.1794 2.103285133902167 0.8729818878994932 4.939840808807776 0 0 0
5 2 1 0.5897 4.222293690447426 0.35437546123030844 2.572639079554774 0 0 0
17 6 1 0.5897 4.79425025391506 4.471984272674085 2.982628491140873 0 0 0
6 2 1 0.5897 4.844366691889267 1.1654440949773246 3.689397591206695 0 0 0
3 1 1 0.5897 3.7935549492174934 2.140647696006758 0.20686448315578948 0 0 0
81 27 1 0.5897 0.25261526246454424 4.538357176985948 5.013370284309911 1 0 0
102 34 1 0.5897 0.2704729006890455 0.7684285755250855 5.063155498944063 1 0 0
235 79 2 -1.1794 0.9271562853076545 -0.05637889041712181 1.7738328182885206 0 1 0
1 1 2 -1.1794 2.892861104267532 2.28372124644248 -0.08378390308442903 0 0 0
356 119 1 0.5897 1.66978789134119 2.2745676945860893 8.058559984126207 0 0 0
355 119 2 -1.1794 1.088378787730437 1.8961456912642167 8.718085383237735 0 0 0
27 9 1 0.5897 2.9932054364220178 4.765279625556019 6.266290477199582 0 0 0
325 109 2 -1.1794 2.7310157289948513 2.881237070610028 6.724221361139642 0 0 0
326 109 1 0.5897 2.631022594446995 2.5143852593770246 5.845767779523937 0 0 0
327 109 1 0.5897 3.5868433348714013 2.5694963725093642 7.018496809068633 0 0 0
342 114 1 0.5897 4.327986268603654 4.401085468394873 9.689428213910965 0 0 0
330 110 1 0.5897 4.266162465397162 0.5187036902336172 9.43601855296131 0 0 0
328 110 2 -1.1794 4.010913394412259 1.2172583467160423 10.038609694170491 0 0 0
357 119 1 0.5897 0.21258759263950633 1.9762798755063256 8.340234236564685 0 0 0
335 112 1 0.5897 1.152501859874637 3.201557437856556 9.770322455371607 0 0 0
341 114 1 0.5897 3.9958758618605907 3.0247834502921274 10.225573389817557 0 0 0
24 8 1 0.5897 2.275869207654252 0.10234454195611287 5.480745776752126 0 0 0
651 217 1 0.5897 1.814248418979667 1.8287802203893506 14.92319655824601 0 0 0
350 117 1 0.5897 2.458879114942569 4.445521420562599 13.26629516554429 0 0 0
650 217 1 0.5897 2.5113863476194758 1.3485383372631419 13.66809724493772 0 0 0
336 112 1 0.5897 2.190051968611406 4.010148101834798 10.519683941726147 0 0 0
340 114 2 -1.1794 3.9832238855273983 3.9523863828223593 10.461474592228344 0 0 0
348 116 1 0.5897 2.6762801950788373 0.6452050094186966 11.168554720577456 0 0 0
683 228 1 0.5897 4.3713502877394905 2.553849998899218 14.397479493170524 0 0 0
649 217 2 -1.1794 2.4998151244417577 2.067903419138332 14.299478332052674 0 0 0
347 116 1 0.5897 1.263058941314621 0.5139461715834206 11.695262079875008 0 0 0
334 112 2 -1.1794 1.2459285281981884 3.9302888986999083 10.383897247675694 0 0 0
346 116 2 -1.1794 2.1786935918504504 0.39141318225562005 11.945877297804435 0 0 0
329 110 1 0.5897 4.590235001144836 1.1073714922569249 10.792634050956377 0 0 0
332 111 1 0.5897 4.941627861065181 4.516972011875864 11.976213319644705 0 0 0
654 218 1 0.5897 4.479024827937945 0.2617248320245623 16.972391582613447 0 0 0
653 218 1 0.5897 3.4464259493121365 0.7289183519435406 17.9760799057614 0 0 0
681 227 1 0.5897 0.8908371692671878 2.507044817006817 16.474598901632227 0 0 0
652 218 2 -1.1794 4.297930119843912 0.9580716872379698 17.603706066214233 0 0 0
671 224 1 0.5897 1.0207709981275186 0.7051696289622139 18.973597151710766 0 0 0
659 220 1 0.5897 0.5402638710205703 3.9390066743209475 18.03164929009684 0 0 0
664 222 2 -1.1794 3.9118164810375164 3.708027514732045 17.863288252107726 0 0 0
658 220 2 -1.1794 1.2191840084226369 4.011103424612759 17.360774954766594 0 0 0
665 222 1 0.5897 2.981940316692732 3.910624028347967 17.760875622358157 0 0 0
672 224 1 0.5897 2.2461182962720034 1.451327787281163 19.456999877425375 0 0 0
670 224 2 -1.1794 1.9771529153351532 0.6662384003061546 18.979999857730437 0 0 0
666 222 1 0.5897 3.9792723108003187 2.7769043332512675 17.651880962916433 0 0 0
679 227 2 -1.1794 0.5245314961325162 1.7495697915459651 16.018193571435255 0 0 0
660 220 1 0.5897 0.8967445148553302 4.687051273463094 16.76467551129866 0 0 0
662 221 1 0.5897 4.503938499682613 4.768103902093857 16.349688554044665 0 0 0
2 1 1 0.5897 2.8171263723705673 3.2338331676655385 20.705074604574943 0 0 -1
884 295 1 0.5897 0.7679451097812695 -0.10773859439215627 15.723911901829306 0 1 0
114 38 1 0.5897 3.3922508853563165 7.549618674515242 3.612231661861056 0 0 0
139 47 2 -1.1794 1.3573286168515846 9.060685587692397 1.542615021669512 0 0 0
113 38 1 0.5897 4.8576200419169115 7.45667798710702 3.9808884152015187 0 0 0
141 47 1 0.5897 1.5128402731183406 8.116779373766775 1.5753199678076253 0 0 0
140 47 1 0.5897 1.4794610969218727 9.355477182243078 2.445068435570642 0 0 0
14 5 1 0.5897 4.313483646420984 5.294854921443824 1.03730949643331 0 0 0
19 7 2 -1.1794 1.006549734882734 6.3217204531959075 1.6905109606199344 0 0 0
20 7 1 0.5897 1.2689547792717015 5.733500004780364 2.3985965652709273 0 0 0
112 38 2 -1.1794 4.266251531369901 7.478063843038152 3.228520625330582 0 0 0
132 44 1 0.5897 1.0003576659701365 7.856505536588171 4.744461660829358 0 0 0
110 37 1 0.5897 2.328401629958906 9.572711564686593 0.1926473879799232 0 0 0
674 225 1 0.5897 2.062107258715489 5.602123401972166 0.36468544806870223 0 0 1
130 44 2 -1.1794 1.9419954389516565 7.950946950740493 4.888085439394615 0 0 0
15 5 1 0.5897 4.877826953044605 6.303013882734005 2.015605465302196 0 0 0
126 42 1 0.5897 4.619358105273057 9.326807406348118 3.273065063254432 0 0 0
26 9 1 0.5897 2.25808270477968 5.764675572929684 7.133906066305214 0 0 0
433 145 2 -1.1794 2.9628985779747246 9.224087768318794 7.129454668774588 0 0 0
343 115 2 -1.1794 0.8684833696128791 5.962973396893155 8.336283066897241 0 0 0
435 145 1 0.5897 2.6360619969516357 8.854663258038883 6.30911015463106 0 0 0
339 113 1 0.5897 4.510576715413527 5.623309226355396 7.504754828278091 0 0 0
345 115 1 0.5897 0.8659639769218361 6.858058199624092 8.675509265556531 0 0 0
468 156 1 0.5897 4.674427469990373 9.155193684564356 7.4541776544512315 0 0 0
463 155 2 -1.1794 0.6607646020947713 8.688765150424105 8.658932330137299 0 0 0
464 155 1 0.5897 1.4151784671487795 9.011468672258028 8.166020878224709 0 0 0
344 115 1 0.5897 0.8206688862588569 5.410495345082734 9.116501893494961 0 0 0
437 146 1 0.5897 4.256981293284466 7.373178857461789 9.188444275553904 0 0 0
436 146 2 -1.1794 3.9800214839115746 7.844538151312786 9.974175543659808 0 0 0
337 113 2 -1.1794 4.793570189527936 5.718265182150446 8.414241514800663 0 0 0
438 146 1 0.5897 3.954171131078222 8.763137921476744 9.70635207797757 0 0 0
131 44 1 0.5897 2.192805834623606 7.159092638032554 5.363817219910292 0 0 0
25 9 2 -1.1794 2.842332075388028 5.703889572090472 6.378119607511367 0 0 0
443 148 1 0.5897 1.2104738505742771 9.63769034600347 10.06375132657429 0 0 0
792 264 1 0.5897 4.056020699382317 9.158523006841467 14.432291965515542 0 0 0
351 117 1 0.5897 3.681831709537349 5.170459228861684 13.786634359064175 0 0 0
454 152 2 -1.1794 1.8036281873890527 7.322087220572553 11.493979315064522 0 0 0
455 152 1 0.5897 2.6081005577196152 7.48839409137173 11.002674877754782 0 0 0
456 152 1 0.5897 2.000312191455846 6.548030185426654 12.021612788330362 0 0 0
757 253 2 -1.1794 2.333975855913489 9.12741323295256 13.87165287100883 0 0 0
759 253 1 0.5897 2.4570321422150148 8.573231874829615 13.100946723718206 0 0 0
668 223 1 0.5897 1.6306358929224019 5.886434077985062 14.941165512267741 0 0 0
789 263 1 0.5897 1.2700242746297457 8.96437899618992 15.34769843984078 0 0 0
349 117 2 -1.1794 2.817163983014597 5.322212460611738 13.40513021416911 0 0 0
790 264 2 -1.1794 4.996107346333625 9.249061630908896 14.276545585420159 0 0 0
760 254 2 -1.1794 4.419244461266268 7.730962894452706 17.24561050525802 0 0 0
780 260 1 0.5897 2.8685465622915207 7.507778495938908 18.192978901003862 0 0 0
778 260 2 -1.1794 2.2942709279462705 7.415218302405951 18.953171912178465 0 0 0
761 254 1 0.5897 4.409242829001931 8.6878634734684 17.22346783601868 0 0 0
779 260 1 0.5897 2.484492125253886 8.182790496074812 19.49253286646814 0 0 0
858 286 1 0.5897 0.5696556609536476 7.307974112866875 18.676425441955587 1 0 0
675 225 1 0.5897 2.9319145580810635 5.675872339778097 20.004780624139993 0 0 0
788 263 1 0.5897 0.9580309749336322 9.264573249011958 16.79839923713075 0 0 0
787 263 2 -1.1794 0.6699845154240028 8.732619267826875 16.05656603089219 0 0 0
663 221 1 0.5897 4.46443938058257 6.248179113071065 16.03381363388399 0 0 0
669 223 1 0.5897 0.9189548365133845 6.973952286924064 15.71746293575897 0 0 0
109 37 2 -1.1794 2.9451744366903085 9.686505711183965 20.34650972875034 0 0 -1
661 221 2 -1.1794 4.608619628741379 5.391823953352118 15.631163740396008 0 0 0
111 37 1 0.5897 3.785049058250679 9.39209388470523 20.698883535644207 0 0 -1
673 225 2 -1.1794 2.703623323904953 5.102601706357286 20.73654648673036 0 0 0
667 223 2 -1.1794 0.939405783189014 6.025720313563892 15.5884685491171 0 0 0
222 74 1 0.5897 4.47234198192785 13.68061410070062 2.329084505244957 0 0 0
220 74 2 -1.1794 4.31017415981337 14.132475338170465 3.157199773411229 0 0 0
120 40 1 0.5897 1.16624867251777 11.396463074197834 3.0715486885345045 0 0 0
221 74 1 0.5897 4.194462740761644 15.050260717852783 2.911153053275409 0 0 0
118 40 2 -1.1794 1.4065566764418371 10.766189365105275 3.75070659879349 0 0 0
127 43 2 -1.1794 1.1454892198932098 12.609068236946948 1.7376962200060102 0 0 0
119 40 1 0.5897 2.3569859967246547 10.848506295844386 3.8290352866402073 0 0 0
240 80 1 0.5897 2.9209633244272206 13.92856028350137 4.3458638023444145 0 0 0
783 261 1 0.5897 2.248943730879301 12.578464834701325 0.43435936991710355 0 0 1
129 43 1 0.5897 0.9525836780487891 13.446798585135037 2.158706917695927 0 0 0
238 80 2 -1.1794 2.236547835565664 13.873590737836603 5.012731663553253 0 0 0
122 41 1 0.5897 4.577824269319867 11.313510539826176 2.0392058722864794 0 0 0
124 42 2 -1.1794 4.276092309154442 10.217227741191174 3.3477250836040464 0 0 0
123 41 1 0.5897 4.192838898543735 11.913497340096054 0.7036325257697469 0 0 0
121 41 2 -1.1794 4.890004452236748 11.910862790568112 1.3595283676212655 0 0 0
125 42 1 0.5897 4.791455057610156 10.615071343209749 4.049421097217033 0 0 0
128 43 1 0.5897 0.33105647599008137 12.369539704250842 1.2954851902973188 0 0 0
133 45 2 -1.1794 3.0067241624166177 11.90473843584413 7.038786000761782 0 0 0
134 45 1 0.5897 2.4216648000742533 12.043998395921921 7.783466174035762 0 0 0
135 45 1 0.5897 3.8606161460187667 12.211393514341761 7.343846562407818 0 0 0
450 150 1 0.5897 4.5967361389982955 11.196170842777848 9.726225722848094 0 0 0
451 151 2 -1.1794 1.1223272942609666 12.396812452650922 8.845994986956807 0 0 0
573 191 1 0.5897 1.1409995239875868 14.353432226540843 9.192977056598467 0 0 0
434 145 1 0.5897 3.058777043421958 10.159417942758633 6.950092159786161 0 0 0
453 151 1 0.5897 1.0866325931251584 11.874846374823678 9.64758374303877 0 0 0
544 182 2 -1.1794 4.518965993301888 14.917432327023109 10.299043135636982 0 0 0
446 149 1 0.5897 4.914791391203653 13.463573102062742 8.809013395343614 0 0 0
239 80 1 0.5897 2.607759958380862 13.310374419873755 5.691824552863867 0 0 0
452 151 1 0.5897 0.2090832700260421 12.476296425642575 8.570496862094014 0 0 0
317 106 1 0.5897 0.3817253502399105 14.253707163561762 5.141398719091785 1 0 0
442 148 2 -1.1794 1.4576673349506188 10.295113091263167 10.714099735978895 0 0 0
562 188 2 -1.1794 2.2419251843171226 13.83249048571228 11.8664559029442 0 0 0
642 214 1 0.5897 0.19951175020365797 13.993027455428468 11.822556757350851 1 0 0
563 188 1 0.5897 2.2489674267575315 13.082312033650744 12.460969779348433 0 0 0
457 153 2 -1.1794 2.361821536448595 11.790838041522363 13.687330775179275 0 0 0
458 153 1 0.5897 1.5916023920334041 11.958453844738981 14.230368424660398 0 0 0
459 153 1 0.5897 3.102811499140505 12.048307918803504 14.235861290424332 0 0 0
444 148 1 0.5897 2.4120361578079215 10.238852096463933 10.761439720757801 0 0 0
449 150 1 0.5897 4.629871737838359 10.784755786734568 11.182793216024336 0 0 0
545 182 1 0.5897 3.7441141601273205 14.515125101437897 10.691454516607386 0 0 0
448 150 2 -1.1794 4.0807851149592675 10.75253846433457 10.3994187311082 0 0 0
564 188 1 0.5897 2.4266811965555006 14.585404739200266 12.42792482833158 0 0 0
769 257 2 -1.1794 4.519078120601966 12.52189618368403 15.135591640162552 0 0 0
758 253 1 0.5897 2.3509530869275777 10.021286159172409 13.529675581527883 0 0 0
869 290 1 0.5897 3.4341745930019796 14.696518413010242 17.70925130581522 0 0 0
773 258 1 0.5897 3.3703378763419067 10.56949425487921 17.402976433172537 0 0 0
767 256 1 0.5897 1.2152310070415477 10.977309480673222 18.6383848448527 0 0 0
868 290 2 -1.1794 4.239163825340464 14.8041303042802 17.20264862967671 0 0 0
772 258 2 -1.1794 4.294876317389514 10.538227621600269 17.157098608744082 0 0 0
888 296 1 0.5897 2.315001947957172 13.615200126375255 19.109891702770323 0 0 0
774 258 1 0.5897 4.403880401389054 11.262346062701138 16.540685106958403 0 0 0
766 256 2 -1.1794 1.5857264791582169 10.683261643380844 17.806228460256918 0 0 0
886 296 2 -1.1794 2.004105835268597 14.437514032683508 18.731227733545577 0 0 0
768 256 1 0.5897 1.134009197903515 11.20655816442821 17.14414384441273 0 0 0
782 261 1 0.5897 2.809442588642582 11.561047138390263 20.340439612473872 0 0 0
775 259 2 -1.1794 0.5985544451023928 12.60353121121671 15.713777930178773 0 0 0
870 290 1 0.5897 4.920915891974425 14.413943154522258 17.749635171012837 0 0 0
781 261 2 -1.1794 2.7843554924195235 12.500582711093287 20.521775023171745 0 0 0
771 257 1 0.5897 4.265215158587967 13.32003886074135 15.59903187096725 0 0 0
777 259 1 0.5897 0.7761693763828096 13.544046190299444 15.705233302864386 0 0 0
217 73 2 -1.1794 2.609463856493991 15.944232065045934 0.1901953884159195 0 0 0
234 78 1 0.5897 3.1905644314009343 17.28638395726704 3.607829569876578 0 0 0
230 77 1 0.5897 4.282791575109342 19.0198117631846 0.7121536879258524 0 0 0
227 76 1 0.5897 1.4264785434450913 18.78583577352156 2.867659269874345 0 0 0
226 76 2 -1.1794 1.5486189282401313 18.015971654386355 3.423198883835942 0 0 0
232 78 2 -1.1794 4.083778125682061 16.98160945318411 3.448123052492735 0 0 0
233 78 1 0.5897 4.432871961730887 17.591569655631368 2.7982556282782247 0 0 0
249 83 1 0.5897 1.6360492583033375 15.734773880732021 1.4741832574039364 0 0 0
248 83 1 0.5897 1.1630625978975888 16.19513666005379 2.836619557241433 0 0 0
219 73 1 0.5897 3.5497414376252663 15.801088316493368 0.2979712279824225 0 0 0
229 77 2 -1.1794 4.779382901632898 18.963964197942403 1.5285542119444928 0 0 0
247 83 2 -1.1794 0.98964621242455 15.54638102469003 2.154537468665539 0 0 0
228 76 1 0.5897 0.9363691814409639 18.143374659560372 4.147868435021723 0 0 0
890 297 1 0.5897 1.7692973416291229 19.231211251556438 0.5243291775158528 0 0 1
218 73 1 0.5897 2.5278248060188773 16.882005584818902 0.016487323221767103 0 0 0
241 81 2 -1.1794 2.815980584091367 18.962890835546652 6.4720787630993355 0 0 0
543 181 1 0.5897 2.524202271222097 15.361592037396415 6.053586269847297 0 0 0
243 81 1 0.5897 2.176058502248688 18.937168102557283 7.183433420341739 0 0 0
553 185 2 -1.1794 4.639189894182471 19.341422119615828 8.569476389084873 0 0 0
571 191 2 -1.1794 1.0295027137459256 15.24010946434624 8.85003594411195 0 0 0
559 187 2 -1.1794 0.700237965235178 19.14756321805574 8.26656282631988 0 0 0
242 81 1 0.5897 2.988238358609632 18.04307011339279 6.2708135283691995 0 0 0
558 186 1 0.5897 4.306467628493202 18.006572424338316 10.014981548107285 0 0 0
541 181 2 -1.1794 2.47935893586234 16.0975384146427 6.664000538354166 0 0 0
576 192 1 0.5897 4.2732767578965225 15.77293801855373 6.937351423454802 0 0 0
542 181 1 0.5897 1.965422816680305 15.76724107861446 7.4008655985366545 0 0 0
555 185 1 0.5897 4.147338343778668 19.079403834912455 7.791218195443908 0 0 0
572 191 1 0.5897 1.1225795379813661 15.80701806488146 9.615679725706938 0 0 0
551 184 1 0.5897 1.0430666829348156 17.9894669397354 9.67408950926717 0 0 0
561 187 1 0.5897 0.9840910619093699 19.984794300011842 8.633617801740147 0 0 0
567 189 1 0.5897 2.8971460519225944 19.105211351926123 12.927379434063697 0 0 0
879 293 1 0.5897 4.074178224609772 19.106446615939372 15.300210681328206 0 0 0
552 184 1 0.5897 2.188284309523938 17.64612451623998 10.602766991208243 0 0 0
565 189 2 -1.1794 3.135178622551979 18.631281667432535 13.724189198923952 0 0 0
566 189 1 0.5897 2.9182425499742912 17.718501130845667 13.534388858383398 0 0 0
866 289 1 0.5897 3.6398300432369775 15.679223021217004 13.983529530927349 0 0 0
865 289 2 -1.1794 2.7491031071018828 15.82033479815742 13.662708147669745 0 0 0
556 186 2 -1.1794 3.9595719941515326 17.430251085612436 10.695967875222111 0 0 0
867 289 1 0.5897 2.186635064530415 15.532569213772945 14.381787803586464 0 0 0
885 295 1 0.5897 1.5492873335876092 19.284407984158406 14.726009238750294 0 0 0
550 184 2 -1.1794 1.2325924802924424 17.674707553055192 10.55796182200297 0 0 0
557 186 1 0.5897 4.1684436571689005 16.546903408026967 10.39211533740765 0 0 0
883 295 2 -1.1794 0.7862848505607714 19.252848476406346 15.30311943071141 0 0 0
874 292 2 -1.1794 1.0676536205597649 17.38006108974997 17.65330685301842 0 0 0
897 299 1 0.5897 0.9961134052301963 15.917372173914469 16.487868887221065 0 0 0
876 292 1 0.5897 1.021774081114188 18.038937719376197 16.96046553899689 0 0 0
882 294 1 0.5897 3.8366371904328775 16.691756990096692 17.787687598294525 0 0 0
880 294 2 -1.1794 3.7301068156808714 17.542064324764546 18.214162854055616 0 0 0
881 294 1 0.5897 2.7881108069426683 17.70921710980295 18.18419536872782 0 0 0
889 297 2 -1.1794 2.2751254150375515 18.770454439180117 20.731889294234783 0 0 0
878 293 1 0.5897 4.395564650618762 18.321625091624984 16.55428345805543 0 0 0
877 293 2 -1.1794 4.755396763866413 18.980824138407055 15.96079773004648 0 0 0
891 297 1 0.5897 2.3244312519174084 19.387148291400216 20.00148033163627 0 0 0
875 292 1 0.5897 0.3769720820475799 17.629107285779195 18.267449655464407 0 0 0
895 299 2 -1.1794 0.7083784476061719 15.449350111291949 15.704013794028443 0 0 0
887 296 1 0.5897 2.2056456803399076 15.098215300548663 19.39384347244763 0 0 0
68 23 1 0.5897 8.166020630860334 2.0159124559121055 1.581847081764258 0 0 0
48 16 1 0.5897 7.987488688829523 4.294278421406464 4.806474373212832 0 0 0
67 23 2 -1.1794 7.560869233306193 2.0118899769380234 2.3234429194576482 0 0 0
46 16 2 -1.1794 8.315559261194522 4.272304639021613 3.9075011741327974 0 0 0
47 16 1 0.5897 7.839688837648865 3.550915855755512 3.4959200330306253 0 0 0
58 20 2 -1.1794 8.696066174041594 0.4535356877886393 5.051008407415113 0 0 0
69 23 1 0.5897 6.692558157617436 1.9584917070287595 1.9242935869429902 0 0 0
41 14 1 0.5897 9.829391741684455 1.0662427499402551 3.6827900833462732 0 0 0
29 10 1 0.5897 7.029648087227863 0.5208665222411794 5.002278886523939 0 0 0
37 13 2 -1.1794 8.968287475521661 2.6627385600765585 0.0597733714956242 0 0 0
273 91 1 0.5897 7.507761157258246 -0.08868251513286696 2.250109396409829 0 1 0
28 10 2 -1.1794 6.091365680471503 0.3347217616222724 4.967847418161132 0 0 0
39 13 1 0.5897 9.902004651079528 2.604261712367939 0.26220239046017096 0 0 0
36 12 1 0.5897 5.8244929660637075 3.119051502678718 0.07838836250286524 0 0 0
34 12 2 -1.1794 5.53973226029684 2.3233728332380896 0.527905169612373 0 0 0
35 12 1 0.5897 5.798485633135504 1.6114459891971378 -0.057300048633537756 0 0 0
391 131 2 -1.1794 7.599593231812887 1.5246971154470028 9.06049437007651 0 0 0
7 3 2 -1.1794 6.2934106531119935 4.380464273494947 6.08619696773675 0 0 0
361 121 2 -1.1794 9.241153833732431 2.84836951577976 7.189266017218708 0 0 0
392 131 1 0.5897 8.211213562025927 2.033049490756173 8.527817458523021 0 0 0
8 3 1 0.5897 6.20976593482025 3.5763130829932037 6.598629982838481 0 0 0
359 120 1 0.5897 5.989383728403597 1.6208495075538798 7.764172117747535 0 0 0
362 121 1 0.5897 9.231816685337186 3.8051189164064 7.161020618289045 0 0 0
393 131 1 0.5897 7.764394288019956 0.6149228254061976 8.81273420573677 0 0 0
360 120 1 0.5897 5.607261030526672 1.3662950135919085 6.321552950179156 0 0 0
381 127 1 0.5897 7.73678497043984 4.84360770573853 9.467085153892164 0 0 0
59 20 1 0.5897 8.755027509899067 1.1574694131976455 5.696965741174657 0 0 0
358 120 2 -1.1794 5.36155149292021 1.8811960785176074 7.09016346453759 0 0 0
9 3 1 0.5897 5.67044555717849 4.272951946878965 5.367452188309025 0 0 0
684 228 1 0.5897 5.422470417620497 3.284389490615506 13.589240907198967 0 0 0
686 229 1 0.5897 8.70001395172341 2.7905861898015267 14.4598223199665 0 0 0
372 124 1 0.5897 7.102086731351517 3.7166502940177932 11.499597139203106 0 0 0
353 118 1 0.5897 6.779802156966935 0.8220151774820873 11.965725712997514 0 0 0
382 128 2 -1.1794 8.704208895429302 0.6071868989655638 12.27356633910282 0 0 0
685 229 2 -1.1794 9.128508663178165 3.111202590291407 13.666193080951862 0 0 0
384 128 1 0.5897 9.211406575974138 0.6791548466525293 11.464990013707954 0 0 0
354 118 1 0.5897 5.679431346033679 1.3363767393299735 12.869349782992442 0 0 0
331 111 2 -1.1794 5.632910623184112 4.800123744296171 12.57470939609818 0 0 0
383 128 1 0.5897 8.749790258227065 1.4799858330949531 12.663937908269059 0 0 0
717 239 1 0.5897 6.777764169624696 2.324928994948199 15.197518421005446 0 0 0
682 228 2 -1.1794 5.292834441491868 2.5135559571534256 14.141735714199987 0 0 0
352 118 2 -1.1794 5.8356830640327315 0.76917199679067 12.114284002915973 0 0 0
370 124 2 -1.1794 7.775453039134255 3.5567043573425137 10.83838145653809 0 0 0
377 126 1 0.5897 9.68134453004493 3.6869732815697613 10.488256507083829 0 0 0
386 129 1 0.5897 9.212067616482877 4.845125215355478 13.873529390443842 0 0 0
371 124 1 0.5897 7.57593734454129 2.684269644525151 10.498814736503908 0 0 0
702 234 1 0.5897 9.665085878465176 3.6358592850829736 18.025245891955446 0 0 0
706 236 2 -1.1794 8.721509711360428 0.6282692107791537 18.961231993659556 0 0 0
716 239 1 0.5897 7.319692674606643 1.073930386569094 15.8556087677419 0 0 0
694 232 2 -1.1794 7.823761213697414 3.6226463187548363 17.91782215976045 0 0 0
696 232 1 0.5897 7.7949857821168775 4.514257225844899 17.570747073628443 0 0 0
708 236 1 0.5897 7.764429840040058 0.6419543309366865 18.966239105665476 0 0 0
657 219 1 0.5897 6.669947325081049 4.066065392441499 19.281322722598645 0 0 0
677 226 1 0.5897 5.389213085621689 0.5533241318618258 18.855353085726478 0 0 0
715 239 2 -1.1794 7.529442291474666 1.9927355071048898 15.688215469690508 0 0 0
695 232 1 0.5897 7.656094790969365 3.064107483130831 17.15875288453007 0 0 0
655 219 2 -1.1794 5.8586020579632665 4.404571475875583 19.65996370784189 0 0 0
676 226 2 -1.1794 6.105046215518684 0.3547667280420869 19.459007952542457 0 0 0
38 13 1 0.5897 8.810064203657582 1.9443722329419706 20.324219863259266 0 0 -1
710 237 1 0.5897 8.907410420223489 4.375233888933759 20.24167553675548 0 0 0
656 219 1 0.5897 5.178509399826821 4.1511763957126 19.035853546362084 0 0 0
707 236 1 0.5897 8.954892389374935 -0.06278524479418124 19.581094251332217 0 0 0
56 19 1 0.5897 6.8764169006800735 5.683927704253562 1.8432374039401402 0 0 0
155 52 1 0.5897 7.910149842222223 9.819289758033703 3.1818282937262587 0 0 0
177 59 1 0.5897 8.101696108061944 8.892881954796126 1.1906062030683358 0 0 0
55 19 2 -1.1794 7.792350869988423 5.961143067749504 1.8642189230344293 0 0 0
711 237 1 0.5897 8.783406140936153 5.558229959959431 0.30125474180863926 0 0 1
176 59 1 0.5897 7.5207127601981 7.735255785187446 1.9743860199359755 0 0 0
143 48 1 0.5897 6.106457079811212 8.89750977525613 0.9704483591845747 0 0 0
175 59 2 -1.1794 7.5861791107994945 8.690221652002505 1.9712565578261776 0 0 0
142 48 2 -1.1794 5.4614734048035745 8.90713216405976 0.26324306472564873 0 0 0
57 19 1 0.5897 8.173359606605354 5.475551684825471 2.5958505517992294 0 0 0
166 56 2 -1.1794 8.919092588823997 7.655603770972471 5.045165099267325 0 0 0
13 5 2 -1.1794 5.113989335716918 5.526446783442271 1.5082450778862824 0 0 0
147 49 1 0.5897 9.98217816196108 9.460800610419987 -0.003334966014085991 0 0 0
470 157 1 0.5897 8.687858210143508 8.972124669848215 8.04641403130381 0 0 0
466 156 2 -1.1794 5.628977288046663 9.128908520727013 7.520154894122349 0 0 0
379 127 2 -1.1794 7.676051355313769 5.5334500724929985 8.80626087404229 0 0 0
167 56 1 0.5897 9.168283606002019 6.862626688099647 5.5198587477204155 0 0 0
499 167 2 -1.1794 7.20627879030104 8.078263275964218 9.385602567877315 0 0 0
501 167 1 0.5897 6.600319336460329 8.388379875215035 8.712633223341738 0 0 0
469 157 2 -1.1794 9.112722881211132 9.26203133733464 7.239142748545369 0 0 0
138 46 1 0.5897 7.035556717136237 7.264862176792199 5.148817659746467 0 0 0
500 167 1 0.5897 7.202921166192989 8.768985284253075 10.04828676086885 0 0 0
380 127 1 0.5897 7.793728684454113 6.34685758070615 9.29695073871054 0 0 0
62 21 1 0.5897 8.804362828183029 5.601357204668806 7.477107637551569 0 0 0
338 113 1 0.5897 5.747244390462716 5.782612556766969 8.363354300138448 0 0 0
168 56 1 0.5897 8.889190214020834 8.33755700020707 5.71619034892114 0 0 0
467 156 1 0.5897 5.887825206399303 8.393954211971634 6.9641890295875495 0 0 0
61 21 2 -1.1794 9.41684949513901 5.591616725889486 6.741572239405597 0 0 0
137 46 1 0.5897 6.307727178424587 6.123357855916396 5.826437247714465 0 0 0
136 46 2 -1.1794 6.183680403302206 7.017692121104823 5.508584390875538 0 0 0
791 264 1 0.5897 5.4018579204312385 9.003497277057013 15.108003866128945 0 0 0
387 129 1 0.5897 9.057648855288043 6.289960346992222 13.448600592942341 0 0 0
385 129 2 -1.1794 9.276749416127075 5.741836715084361 14.202135712652256 0 0 0
462 154 1 0.5897 5.367781317378717 7.624775202894693 11.48596154607767 0 0 0
461 154 1 0.5897 5.423107539453155 8.005560245436392 12.950177781812076 0 0 0
460 154 2 -1.1794 5.855992959805943 7.460812792543993 12.292821676798932 0 0 0
490 164 2 -1.1794 8.904391447202888 7.616511929579475 12.140110766838175 0 0 0
491 164 1 0.5897 9.509177769521955 7.666394853495096 11.399849327201167 0 0 0
492 164 1 0.5897 8.100611391998758 7.252399270736451 11.76918715516336 0 0 0
794 265 1 0.5897 8.75705205879797 8.75801854139143 13.499489849924531 0 0 0
333 111 1 0.5897 5.644554261641784 5.753846342231123 12.493883791190505 0 0 0
793 265 2 -1.1794 8.893879539527713 9.332232894006255 14.253019883893826 0 0 0
705 235 1 0.5897 7.843493091489605 5.990015538713462 15.374762135650435 0 0 0
824 275 1 0.5897 7.785317138158138 8.849848095941475 15.464683093230889 0 0 0
825 275 1 0.5897 7.152066281327102 7.696696799972662 16.213785780002432 0 0 0
823 275 2 -1.1794 7.1225601014998485 8.649370393340204 16.12558667168161 0 0 0
816 272 1 0.5897 9.035081383460897 8.114535336651066 18.91577378436506 0 0 0
784 262 2 -1.1794 6.260830842172695 7.087204265561053 19.070198191157456 0 0 0
785 262 1 0.5897 6.28523385840183 6.13901694823439 19.19864936710949 0 0 0
786 262 1 0.5897 7.1131825410150755 7.299917043573065 18.690113626554407 0 0 0
814 272 2 -1.1794 9.091113357290713 7.332850011215871 18.366181997552232 0 0 0
815 272 1 0.5897 9.23523876944099 6.615453539589987 18.983285614347484 0 0 0
144 48 1 0.5897 5.713642432949548 8.17657275452368 20.57545009166482 0 0 -1
762 254 1 0.5897 5.120441226164736 7.512431341758271 17.859447528255163 0 0 0
703 235 2 -1.1794 7.234243079205425 6.040620751778183 16.111279293093144 0 0 0
145 49 2 -1.1794 9.079390145665615 9.391855468018095 20.563093752006637 0 0 -1
709 237 2 -1.1794 9.026966036156237 5.324062463790653 20.282608971474072 0 0 0
704 235 1 0.5897 6.426946165150071 5.645164544720603 15.782512592531141 0 0 0
164 55 1 0.5897 6.90925935421772 12.18872152803053 1.7853246846834046 0 0 0
819 273 1 0.5897 8.84272299058229 12.497140889190513 0.3444157651589572 0 0 1
246 82 1 0.5897 5.3814841701496565 13.850167367919475 4.738011239647575 0 0 0
165 55 1 0.5897 8.198169186878697 11.871091102826822 2.5131141248734408 0 0 0
156 52 1 0.5897 9.172405762395096 10.36295017922194 3.8166785286036564 0 0 0
163 55 2 -1.1794 7.831170997473163 12.440923608648594 1.8372113278834519 0 0 0
154 52 2 -1.1794 8.219403444754114 10.451239564458547 3.830869966302384 0 0 0
276 92 1 0.5897 9.257576301822116 14.419587029421635 4.43897515578691 0 0 0
284 95 1 0.5897 7.830871563963252 14.454646548172462 2.4311362264682885 0 0 0
116 39 1 0.5897 6.884210718102585 10.58939827393581 4.992923079919195 0 0 0
275 92 1 0.5897 7.884775559197249 13.964404852786574 4.886198526575469 0 0 0
170 57 1 0.5897 9.767592040506264 12.624615963974337 6.2446965741780645 0 0 0
487 163 2 -1.1794 7.838759901272315 12.631064205210778 8.958735829377455 0 0 0
245 82 1 0.5897 6.0959030125347855 12.806848133037004 5.570499358084764 0 0 0
117 39 1 0.5897 6.159284752138186 10.412273900095471 6.31013694948111 0 0 0
169 57 2 -1.1794 9.787542109827452 12.039503217239053 7.0019770874035325 0 0 0
488 163 1 0.5897 8.404292269442005 12.393753589046568 8.223828131697742 0 0 0
489 163 1 0.5897 8.154249940104464 13.49105235311984 9.236402809764675 0 0 0
171 57 1 0.5897 9.163620923091374 11.346397174485917 6.786220122865272 0 0 0
244 82 2 -1.1794 5.968610556715406 13.751929042340608 5.487598998419749 0 0 0
447 149 1 0.5897 6.151049101426365 12.60625618593736 8.640716164926364 0 0 0