LAMMPS (30 Jul 2021)
  using 1 OpenMP thread(s) per MPI task
package omp 0
using multi-threaded neighbor list subroutines
echo both

include		in.partitions
variable        pid world 0
include		in.temp
variable        temperature equal 263.66
variable	tempDamp equal 100.0
include		in.pressure
variable        pressure equal 4875.0
variable        pressureDamp equal 1000.0 # This is 1 ps
include		in.seed
variable        seed world 745823

units		real
atom_style	full

read_restart	restart.lmp.${pid}
read_restart	restart.lmp.0
Reading restart file ...
  restart file = 30 Jul 2021, LAMMPS = 30 Jul 2021
  restoring atom style full from restart
  orthogonal box = (0.040938597 0.044287458 -0.18386319) to (19.959062 19.955714 20.883861)
  4 by 4 by 4 MPI processor grid
  restoring pair style lj/cut/tip4p/long/omp from restart
  restoring bond style harmonic/omp from restart
  restoring angle style harmonic/omp from restart
  972 atoms
  648 bonds
  324 angles
Finding 1-2 1-3 1-4 neighbors ...
  special bond factors lj:    0        0        0       
  special bond factors coul:  0        0        0       
     2 = max # of 1-2 neighbors
     1 = max # of 1-3 neighbors
     1 = max # of 1-4 neighbors
     2 = max # of special neighbors
  special bonds CPU = 1.063 seconds
  read_restart CPU = 1.499 seconds
include 	in.setup
variable	out_freq equal 1000
variable	out_freq2 equal 10000
variable	out_freq3 equal 1000

timestep	2.0

neigh_modify    delay 7 every 1

include		in.tip4p
# This is TIP4P/Ice

# create groups ###
group ox type 2
324 atoms in group ox
group hy type 1
648 atoms in group hy

# set charges - beside manually ###
set group ox charge -1.1794
Setting atom values ...
  324 settings made for charge
set group hy charge 0.5897
Setting atom values ...
  648 settings made for charge

# ### TIP3P Potential Parameters ###
pair_style lj/cut/tip4p/long/omp 2 1 1 1 0.1577 8.5
pair_coeff 1 1*2 0.000 0.000
pair_coeff 2 2 0.21084 3.1668
bond_style  harmonic
bond_coeff  1 450 0.9572
angle_style harmonic
angle_coeff 1 55 104.52
kspace_style pppm/tip4p/omp 1.0e-5
pair_modify tail yes

thermo          ${out_freq}
thermo          1000
thermo_style    custom step temp pe etotal epair emol press lx ly lz vol pxx pyy pzz pxy pxz pyz enthalpy

restart 	${out_freq3} restart.lmp.${pid} restart2.lmp.${pid}
restart 	1000 restart.lmp.${pid} restart2.lmp.${pid}
restart 	1000 restart.lmp.0 restart2.lmp.${pid}
restart 	1000 restart.lmp.0 restart2.lmp.0


include         in.dump
dump            myDump all atom ${out_freq2} dump.water.${pid}
dump            myDump all atom 10000 dump.water.${pid}
dump            myDump all atom 10000 dump.water.0
dump            myDump2 all dcd ${out_freq2} dump.dcd
dump            myDump2 all dcd 10000 dump.dcd
dump_modify     myDump append yes
dump_modify     myDump2 append yes


variable natoms 	equal  "count(all)"                        # NUMBER ATOMS
variable H      	equal  "enthalpy/v_natoms"                 # ENTHALPY-per-atom
variable Vol      	equal  "vol/v_natoms"                 # volume-per-atom
fix AVG all 		ave/time ${out_freq} 1 ${out_freq} v_Vol v_H file vol_enthalpy.dat
fix AVG all 		ave/time 1000 1 ${out_freq} v_Vol v_H file vol_enthalpy.dat
fix AVG all 		ave/time 1000 1 1000 v_Vol v_H file vol_enthalpy.dat


timer           timeout 02:55:00 every 1000
New timer settings: style=normal  mode=nosync  timeout=02:55:00

fix 		1 all shake 1e-6 200 0 b 1 a 1
       0 = # of size 2 clusters
       0 = # of size 3 clusters
       0 = # of size 4 clusters
     324 = # of frozen angles
  find clusters CPU = 0.585 seconds
fix             2 all nph aniso ${pressure} ${pressure} ${pressureDamp}
fix             2 all nph aniso 4875 ${pressure} ${pressureDamp}
fix             2 all nph aniso 4875 4875 ${pressureDamp}
fix             2 all nph aniso 4875 4875 1000
fix             3 all temp/csvr ${temperature} ${temperature} ${tempDamp} ${seed}
fix             3 all temp/csvr 263.66 ${temperature} ${tempDamp} ${seed}
fix             3 all temp/csvr 263.66 263.66 ${tempDamp} ${seed}
fix             3 all temp/csvr 263.66 263.66 100 ${seed}
fix             3 all temp/csvr 263.66 263.66 100 745823


run             250000
PPPM initialization ...
  extracting TIP4P info from pair style
  using 12-bit tables for long-range coulomb (../kspace.cpp:340)
  G vector (1/distance) = 0.37229
  grid = 24 24 25
  stencil order = 5
  estimated absolute RMS force accuracy = 0.003421236
  estimated relative force accuracy = 1.030295e-05
  using double precision FFTW3
  3d grid and FFT values/proc = 2366 288
Last active /omp style is kspace_style pppm/tip4p/omp
Neighbor list info ...
  update every 1 steps, delay 7 steps, check yes
  max neighbors/atom: 2000, page size: 100000
  master list distance cutoff = 10.8154
  ghost atom cutoff = 10.8154
  binsize = 5.4077, bins = 4 4 4
  1 neighbor lists, perpetual/occasional/extra = 1 0 0
  (1) pair lj/cut/tip4p/long/omp, perpetual
      attributes: half, newton on, omp
      pair build: half/bin/newton/omp
      stencil: half/bin/3d
      bin: standard
Per MPI rank memory allocation (min/avg/max) = 9.228 | 9.232 | 9.238 Mbytes
Step Temp PotEng TotEng E_pair E_mol Press Lx Ly Lz Volume Pxx Pyy Pzz Pxy Pxz Pyz Enthalpy 
 3500000    274.37611   -4668.9944   -4139.8369   -4668.9944            0    5851.5006    19.918124    19.911426    21.067724    8355.4226    5692.5775    6997.3594    4864.5649   -259.67451    725.65206    418.11672   -3426.8008 
 3501000     264.9387   -4690.6143   -4179.6578   -4690.6143            0     4721.388    20.073508      19.9434    20.657069    8269.7272    5158.2854    4878.2666    4127.6119    424.13364    205.67563    145.02939   -3610.2325 
 3502000    261.45016   -4679.0759   -4174.8473   -4679.0759            0     4956.477     20.21243    20.061988    20.619229    8361.1287     5005.641    4779.2081    5084.5818    20.486275   -888.77625    605.65455    -3570.462 
 3503000    266.68569   -4694.6046   -4180.2788   -4694.6046            0    5307.0296    20.019872    19.976275    20.792239    8315.2834    4274.9884    5462.2993     6183.801   -608.54926    14.289343     -555.916    -3536.696 
 3504000    244.67051   -4690.5171   -4218.6494   -4690.5171            0    2517.3232    20.055395    19.895138    20.984697    8372.9959    3096.8157    2558.1402    1897.0137    467.47467    121.74251   -765.97692   -3911.2552 
 3505000    258.24872   -4669.7609   -4171.7065   -4669.7609            0    5627.7571    20.156456    19.955422    20.674756    8316.0195    5545.8737    5805.6014    5531.7961    525.21848   -630.66894   -102.42315   -3489.1687 
 3506000    267.06606   -4669.2083    -4154.149   -4669.2083            0    5242.9766    19.994056    19.947049    20.743608    8273.0162    3705.9111    6778.6572    5244.3614   -678.81162      645.842    550.67646   -3521.5657 
 3507000    266.80855   -4687.8586   -4173.2959   -4687.8586            0    5122.3972    19.874863    19.971189    20.989711    8331.3337    6903.0253    3967.8812    4496.2852    258.70765    75.952534   -442.18827   -3550.9043 
 3508000    263.33399   -4679.4107    -4171.549   -4679.4107            0    4719.4569     20.20481    19.759205    21.048985    8403.4067    1993.3825    7779.9374    4385.0507    408.58554    1638.8993   -1632.6944   -3593.1556 
 3509000    272.29526   -4667.4283    -4142.284   -4667.4283            0    5876.1298    20.038294    19.984541    20.869428      8357.29    6377.4401    6310.2517    4940.6978    -861.9309    171.37054   -650.64238   -3426.0866 
 3510000    280.81158   -4689.5281   -4147.9594   -4689.5281            0    4283.6937    20.104931    20.016665    20.618297    8297.4968    4861.0517    3783.8535    4206.1761    62.738577    917.94959   -1235.3343   -3629.5875 
 3511000    264.79109   -4691.8792   -4181.2073   -4691.8792            0      3919.09    20.027225    20.244381    20.624068    8361.7966    4160.2841      3572.08     4024.906   -575.00694    1502.6901    983.98873   -3703.2812 
 3512000    256.63866   -4622.7121   -4127.7629   -4622.7121            0     3170.044    20.190641     20.02478    20.774762    8399.5094    586.03089    4990.6823     3933.419    -290.1724   -350.31907    145.85274   -3739.4381 
 3513000     268.7325   -4650.7586   -4132.4854   -4650.7586            0    5388.9595    20.080031    19.872278    20.950408     8359.966    5834.8709    6357.7406    3974.2669   -386.92157    1759.0831   -800.63813   -3475.4552 
 3514000    265.82473     -4690.88   -4178.2147     -4690.88            0    6244.5603    19.981354    19.834571    21.000655     8323.013    6098.4367    8409.8496    4225.3946   -79.763998    605.05593    261.84507   -3420.2337 
 3515000    263.42391   -4687.9516   -4179.9165   -4687.9516            0    2757.8182    20.141723    20.159604    20.768513    8433.0373    3536.6813    1026.0775    3710.6958    183.44578    315.34929   -96.686379   -3840.7401 
 3516000    251.50348   -4655.0009   -4169.9553   -4655.0009            0    4685.0883    20.332235     19.82737    20.858134    8408.6387    3170.4129    5876.2026    5008.6494   -263.86417    441.09761    161.56918   -3595.4165 
 3517000     264.3888   -4689.5219   -4179.6259   -4689.5219            0    4938.5682    19.968658    19.966475    20.906476    8335.4898    3795.9066    7707.1013    3312.6966   -218.46626     222.0648   -609.07703    -3579.271 
 3518000    257.82386   -4702.8616   -4205.6266   -4702.8616            0    2460.4378    20.071939    20.053015    20.859866    8396.1567    1113.9396    2487.4522    3779.9215   -626.24398    803.44147    118.27044   -3904.3476 
 3519000    254.11028    -4658.517    -4168.444    -4658.517            0    5031.1538    20.071263    19.971003    20.681851    8290.1806    5591.2417    4451.7686     5050.451   -553.54778    805.72576   -199.14316   -3560.1585 
 3520000    256.47004   -4675.7248   -4181.1008   -4675.7248            0    4512.5817    20.095317    20.254921    20.396858     8302.114    3992.5148    3333.5702      6211.66   -82.810039    654.94228    1084.0002   -3634.7272 
 3521000    260.61597   -4700.5078    -4197.888   -4700.5078            0    6021.0139     20.16616    19.746691    20.787642    8277.9495    5899.4936    7221.3652     4942.183    58.960212    1497.1909   -229.46472   -3470.9986 
 3522000    265.30503   -4682.1669   -4170.5038   -4682.1669            0    5269.2582    19.819443     20.15342    20.695268    8266.3016    6546.3129    4196.9936    5064.4681   -265.52115    218.01306   -306.23676   -3535.2656 
 3523000    255.48705    -4693.969   -4201.2408    -4693.969            0    6129.3235    19.992858    19.909924    20.733434    8253.0738    5600.3021    5756.3681    7031.3003    46.790375    1890.2591    151.91523   -3463.4994 
 3524000    283.64676   -4669.7855   -4122.7489   -4669.7855            0    5688.7775    19.756302    20.333461    20.728842    8327.0661    8897.7014    2115.5047    6053.1266     654.4597    427.89287    2068.2798   -3431.8939 
 3525000    283.95782   -4684.3751   -4136.7385   -4684.3751            0    4602.9676    19.883172    20.080855    20.881521    8337.3877    5029.6547    5138.1057    3641.1425   -206.33458    783.49111    323.46886   -3577.0534 
 3526000    274.91341   -4664.9604   -4134.7668   -4664.9604            0     5199.866    19.888163     20.15865     20.63412    8272.6005    5647.9925    5254.8232    4696.7822   -408.93135    443.10293    2002.8979   -3507.4165 
 3527000    271.34206   -4657.1262   -4133.8202   -4657.1262            0    3705.6466    20.384382    19.814723    20.774317    8390.9724    4263.2727    3441.7241     3411.943    128.27798   -43.987046   -575.83582   -3680.3464 
 3528000    256.48375   -4678.4395    -4183.789   -4678.4395            0    5351.6246     19.78749    20.128269    20.757509    8267.4647    6862.4212    4868.2101    4324.2424    3.6740002   -306.20269    537.67068   -3538.5303 
 3529000    272.83549   -4693.5572    -4167.371   -4693.5572            0    5920.0923    20.171153     19.83368    20.759324    8305.1453    5432.1275     7408.444    4919.7053   -537.46967     -1010.12    732.35116   -3450.3174 
 3530000    259.56738    -4653.844   -4153.2465    -4653.844            0    5774.9982    20.110864    20.020985    20.657433    8317.4941    6745.0779    4442.3311    6137.5857    -882.6992    1402.2094     50.92591   -3452.7269 
 3531000    265.84873   -4662.7798   -4150.0681   -4662.7798            0    6523.2199    20.002677    20.019858    20.814304    8335.1037    6652.8689    6758.4317    6158.3593    59.884316   -623.73563   -1119.9012   -3357.1124 
 3532000    264.87591   -4669.3417   -4158.5063   -4669.3417            0    6470.0936    19.956673    19.902822     20.89767    8300.4315    6986.8297    6241.1971     6182.254    -72.79622    804.50397   -263.16796   -3375.2802 
 3533000    265.03464   -4682.7718   -4171.6302   -4682.7718            0    5235.1584    20.003742    20.122375    20.706514     8334.844    5620.5885    3379.7766      6705.11    15.896641    658.27675   -698.26772   -3535.2698 
 3534000    253.59313   -4679.6442   -4190.5685   -4679.6442            0     5508.676    20.151495    20.121632    20.464728    8298.0578    5562.3184    3507.7014    7456.0081   -19.730112    927.47786    1838.8119    -3523.916 
 3535000    261.41815   -4719.0457   -4214.8788   -4719.0457            0    6521.8352    19.968459    19.863393    20.818849    8257.6162    5710.0175    7888.9125    5966.5755   -289.49624     745.8198    264.85324   -3429.4617 
 3536000    251.45521   -4693.8502   -4208.8977   -4693.8502            0    3043.7151    20.028324    19.912239    21.028253    8386.2516     2641.701    4193.9294     2295.515    332.23024   -1380.3393    1069.2927   -3836.6365 
 3537000    270.51913   -4686.9519    -4165.233   -4686.9519            0    6328.0612    20.002241    19.892519    20.628819    8208.1031     6799.919    7577.6244    4606.6403    106.14893    309.36059   -1096.1022   -3407.7213 
 3538000    269.31879   -4681.5882   -4162.1843   -4681.5882            0    3338.4453    20.030799     20.15518    20.778745    8388.8856    2159.2042    4713.8802    3142.2516    311.83926   -578.77391    777.27245   -3753.7479 
 3539000    255.75105   -4681.5305   -4188.2931   -4681.5305            0    5560.1784     20.07937    19.996913    20.597971    8270.6091    6501.5642    5539.0377    4639.9333   -389.58002    494.39069   -474.33575   -3517.6336 
 3540000    254.85086   -4663.8441   -4172.3428   -4663.8441            0    5914.4009    19.976023    20.187472    20.573123    8296.4286    4457.4162    6782.3268    6503.4596    183.20035   -1069.3278   -1521.4551   -3456.7304 
 3541000    263.26469   -4674.6246   -4166.8966   -4674.6246            0    4165.3298    20.075188    19.990964    20.743304    8324.7517    4180.3544    5742.7492    2572.8857     107.1192    40.423703   -605.12383   -3661.1923 
 3542000     265.6956   -4686.3387   -4173.9224   -4686.3387            0     4624.647    20.112703    20.083461    20.658384    8344.5962    4457.8344    3876.1596    5539.9471   -176.13042    315.21903   -317.06661    -3611.115 
 3543000    272.86886   -4682.7409   -4156.4904   -4682.7409            0     5806.615    20.163562    19.721711    20.894213    8308.7916     7216.213    4649.5567    5554.0754    209.62208   -1270.1938   -1143.5332   -3452.8726 
 3544000    249.26731    -4684.592    -4203.859    -4684.592            0    5279.7847    19.895656    20.077073    20.741345    8285.0584    5432.1087     6234.846    4172.3993    175.01606   -104.43442   -913.78765   -3565.9075 
 3545000    263.61859   -4714.4799   -4206.0693   -4714.4799            0    6060.4427    20.092898    19.986564    20.475686    8222.7895      4130.96    7043.3949    7006.9731    882.72778    103.05961   -1229.1627   -3479.2953 
 3546000    250.51065   -4670.2503   -4187.1194   -4670.2503            0    3585.1185     20.18412    20.056435    20.587616    8334.3096    3051.7073    3000.4283    4703.2199   -511.32939    1354.4084   -277.44108   -3751.3578 
 3547000    266.12435   -4693.1186   -4179.8754   -4693.1186            0    6968.8208    19.982436    19.916223    20.761151    8262.4117     8420.859     5686.965    6798.6383    450.56415   -304.06474    -1647.521   -3340.1408 
 3548000     262.1719   -4712.2921   -4206.6715   -4712.2921            0    5434.7799    19.936005     19.90014    20.936804    8306.2434    6157.2867    5612.6537    4534.3994    781.67291   -1059.2741   -708.25545    -3548.313 
 3549000    264.31091   -4670.9615   -4161.2156   -4670.9615            0    4078.3403    20.224872    19.887873    20.711044    8330.5969     2692.371    4747.3791    4795.2708   -47.151443   -312.87237   -409.47484    -3665.725 
 3550000    254.00812   -4690.0715   -4200.1955   -4690.0715            0    5736.9618    20.007141     20.05903    20.843827    8365.1247    7112.6036    4196.8963    5901.3856   -482.63622    23.145367    604.68261   -3500.3047 
 3551000    281.41341    -4641.337   -4098.6076    -4641.337            0    5247.6488    19.785897    20.212549     20.87825    8349.7008    6209.4383    4644.8821     4888.626   -75.965239    846.59695   -786.47692   -3459.5918 
 3552000    267.40131   -4715.9408   -4200.2349   -4715.9408            0    5459.9971    20.250523    19.887869    20.629519    8308.3275    5284.8325    5122.1732    5972.9856    56.595538    247.54739    214.44816   -3538.6556 
 3553000    260.80429     -4716.55   -4213.5669     -4716.55            0     6283.056    19.924072    19.933753    20.653682    8202.8478    5506.1151    7280.0442    6063.0088   -92.510067    144.77476    1461.1222   -3461.9242 
 3554000     267.2262   -4661.5315   -4146.1633   -4661.5315            0    4274.1223    20.078162    20.034123    20.775748    8357.0104    4544.2742    2902.9669    5375.1256   -40.537418    1954.4424    584.59242     -3625.24 
 3555000    257.98227   -4662.2102   -4164.6696   -4662.2102            0    6857.8229    19.783435     20.13631    20.901265    8326.3404    9125.1865    5650.0164    5798.2657     616.4937   -374.27685    -909.7351   -3331.9164 
 3556000     273.8295   -4660.0598   -4131.9566   -4660.0598            0    6257.1969    19.953115    20.042408    20.858789    8341.6065    7455.3561    4589.5885    6726.6461    628.72976    397.44468    1119.2596    -3370.745 
 3557000    261.67216   -4702.3453   -4197.6885   -4702.3453            0    5005.6851    19.825323    19.845049    21.117857    8308.4936    5885.0022    4472.9126    4659.1405    1009.1673   -251.84205   -147.73685   -3591.1453 
 3558000    263.71342   -4676.3243   -4167.7308   -4676.3243            0    4287.4047    20.166254    19.894525    20.814117    8350.5829    3967.2924    4288.0707    4606.8509    169.01181    182.17564   -937.48597   -3645.5905 
 3559000    259.09047   -4682.8112   -4183.1335   -4682.8112            0    5072.6463    19.889854    20.225431    20.683499    8320.5758    5152.0266    5198.5429    4867.3694   -197.99254    1253.2961   -1536.9569   -3567.5828 
 3560000    263.48984    -4691.715   -4183.5527    -4691.715            0    4372.2975    20.130446    19.952333    20.798545    8353.7226    3287.2241    5307.2013    4522.4671    304.38534   -411.89935   -479.40819   -3650.8736 
 3561000    265.34516   -4684.2138   -4172.4733   -4684.2138            0    4565.5308     20.02485    20.029359    20.863548    8368.0542    5916.6323    3864.0122    3915.9478    114.71556     313.7059    822.76911   -3615.2983 
 3562000    272.98384     -4645.57   -4119.0977     -4645.57            0    5721.0222    19.841654    19.919646    21.010089    8304.0009    6013.9465     6234.058     4915.062   -17.765917    401.93836    908.75117   -3426.2514 
 3563000    269.30226   -4653.8161   -4134.4441   -4653.8161            0    5896.9397    19.941693     19.70973    21.011133    8258.3288    6665.3676    6395.0853    4630.3662   -186.75394    566.30379    107.15808   -3424.2211 
 3564000    263.75644   -4686.1922   -4177.5157   -4686.1922            0     5193.001    20.042106    19.989724    20.892209    8370.1749    5276.9308    4541.1241    5760.9481   -401.46537    227.36412      399.968   -3543.6039 
 3565000    259.51739   -4684.8122   -4184.3111   -4684.8122            0    5418.0833    20.018989    20.114296    20.689448    8330.9761    6834.6299    4412.8509    5006.7691    485.18187     757.1189   -438.18768   -3526.0208 
 3566000    279.59762   -4663.3855    -4124.158   -4663.3855            0    3667.4415    20.132303    20.167862    20.597489    8363.1062    4071.2686    3320.1189     3610.937   -955.42011    744.36509   -117.60562   -3676.8499 
 3567000    264.16873   -4686.6169   -4177.1453   -4686.6169            0    4471.8551     19.87974    20.249224    20.598386    8291.8662    4641.0739    3763.7493    5010.7422    774.44013   -696.07359   -232.92845   -3636.3712 
 3568000    263.54407   -4688.4683   -4180.2014   -4688.4683            0    4455.7917    20.094871     19.96939     20.82044    8354.8742    2917.2271    6137.0549    4313.0929   -1043.0997   -397.77904   -240.68787   -3637.2754 
 3569000    253.18895   -4701.6397   -4213.3435   -4701.6397            0    4813.2179    20.199386    19.627175    21.046012    8343.8362    6777.2725    3977.9151    3684.4661    823.51899   -423.73196    744.52753   -3627.6408 
 3570000    271.06549   -4693.2825   -4170.5099   -4693.2825            0    3395.3615    19.953437    20.144514    20.743765    8338.0038    4477.5426    2288.9629    3419.5789    136.80041    178.11863   -1107.7698   -3757.6297 
 3571000    278.85073   -4695.5286   -4157.7416   -4695.5286            0     5843.185    20.232225    19.872358    20.612565    8287.5294     5086.512    7311.2332    5131.8098    507.36376    117.28611   -680.68775   -3451.5043 
 3572000     275.9296   -4646.4584   -4114.3049   -4646.4584            0    4865.1772    19.982619    20.071086    20.990471    8418.7085    7750.5231    1669.2162    5175.7924   -665.49383    -503.6104    128.85324   -3516.9671 
 3573000    261.52091   -4708.0561    -4203.691   -4708.0561            0     5513.899    20.011534    19.738408    21.001819    8295.6306    6458.0248    6392.9633    3690.7089    180.48751    1351.2268    -780.0355   -3536.6015 
 3574000    256.11308   -4692.2221   -4198.2865   -4692.2221            0     5785.891    20.108224    20.116408    20.579978    8324.7087    7187.7532    4208.5507    5961.3692    -633.3371    128.42796   -896.04454   -3495.8369 
 3575000    261.36099   -4691.7681   -4187.7115   -4691.7681            0    4135.3206    20.224393    20.000506    20.598316    8331.9797    3781.9142    4895.6757    3728.3718   -120.88354    1101.6449   -84.515428   -3685.2147 
 3576000    261.88833   -4683.1629   -4178.0893   -4683.1629            0    5049.6771    19.981102    19.925022    20.934137    8334.3803    6068.9507    4939.2911    4140.7896     78.22172   -1336.4899    1240.3065   -3564.3092 
 3577000    247.46966   -4703.9383   -4226.6722   -4703.9383            0    2274.9671    19.992007    20.121821    21.010555    8452.0337    2223.2639    2003.2502    2598.3872    116.39579   -294.66469   -144.22057   -3946.2501 
 3578000    261.40596    -4636.575   -4132.4316    -4636.575            0    4821.1577    20.138454     19.99659    20.546677    8274.1549    3782.0614    4796.4693    5884.9422   -565.48427   -1663.5084   -303.28552   -3550.6622 
 3579000    247.84731   -4681.0602   -4203.0658   -4681.0602            0    4796.1963    20.189242    19.982875    20.704715    8353.0917    3353.5693    5536.7353    5498.2841    358.87449    273.91154    1457.2646   -3618.7871 
 3580000    270.28649   -4665.4391   -4144.1689   -4665.4391            0    5545.8815    20.239978    20.006593    20.369835    8248.4184    1385.9639    7461.3305    7790.3502   -522.45105     348.9695    285.47359   -3477.0286 
 3581000     260.7198   -4656.6821   -4153.8621   -4656.6821            0    4322.4285    19.947817    20.040251     20.78651    8309.5999    5229.6924    4148.1161     3589.477    454.77281   -777.15961   -385.99753   -3630.0399 
 3582000    257.73566   -4701.7836   -4204.7187   -4701.7836            0    3128.8263    20.236465    19.949556    20.859883    8421.3119    3708.5419    3248.0192    2429.9177    356.15666    202.62477    363.49133   -3820.4482 
 3583000     258.1508   -4651.7831   -4153.9175   -4651.7831            0    6301.2655    19.845579    20.342089    20.584382    8309.9258    5223.8535    6713.6206    6966.3223   -395.09943   -982.20766   -22.704689   -3390.2562 
 3584000       260.96   -4635.6587   -4132.3754   -4635.6587            0    4558.8605    19.877629    20.219467    20.765299    8345.8863    4413.5983    3552.9799    5710.0033   -136.39129   -180.79323    1130.9119   -3577.4883 
 3585000    265.38988    -4706.128   -4194.3013    -4706.128            0    2844.8228    20.056811    19.883116    20.953429    8356.0576    3299.9837       2745.5    2488.9848    90.043505    1439.8291   -192.02381   -3847.6183 
 3586000    261.51582   -4689.6535   -4185.2983   -4689.6535            0    6438.7195    19.986349    20.046259    20.708377    8296.8424    7054.2622    6566.9901    5694.9062   -7.5533702    421.35942    505.24865   -3406.2072 
 3587000    255.11883   -4685.2111    -4193.193   -4685.2111            0    6234.5251     19.83838    20.137026    20.816721    8315.9879    7441.3902    6084.2235    5177.9615    431.13826    918.80651    1263.6204   -3437.0689 
 3588000    270.39376   -4694.8157   -4173.3386   -4694.8157            0    4112.4893    20.284474     19.81125    20.744649    8336.4607    2973.8036    5064.9862     4298.678   -194.76181   -910.02543   -223.04954   -3673.3474 
 3589000    250.70573   -4715.4997   -4231.9926   -4715.4997            0    4330.2918      19.9445    20.188352    20.865724    8401.5128    4313.3162    4692.0618    3985.4973    421.83598    556.33177   -907.00205    -3701.413 
 3590000     279.4004   -4736.0591    -4197.212   -4736.0591            0    4492.9595    20.070074    19.892807    20.794216    8302.0932      6102.51    2719.9197    4656.4487   -67.789448    -1352.059   -246.64589   -3653.2156 
 3591000    257.74086   -4692.9489    -4195.874   -4692.9489            0    4654.7843    19.882641    19.947469    20.972423    8317.8384    5808.4528    3944.0719    4211.8283   -472.58305    777.53765    704.83233   -3631.2154 
 3592000    260.44053   -4685.1131   -4182.8316   -4685.1131            0    4440.9758    19.976156    20.110307    20.742825    8332.9453    5312.0444     4872.983    3137.9001     309.2969    161.21656   -719.23567   -3643.1311 
 3593000     267.6881   -4677.2235   -4160.9645   -4677.2235            0     4746.045    20.105164    20.023814    20.859863    8397.8071    2788.9926    7472.0214     3977.121    373.34751   -1134.6211    270.57095   -3579.7002 
 3594000    269.03779     -4700.18    -4181.318     -4700.18            0    4814.3599    19.989741    19.999686    20.792563    8312.6284    6316.0025    4003.2981    4123.7791    82.219941    1261.1921   -407.61758   -3597.6676 
 3595000     252.3877   -4705.6543   -4218.9034   -4705.6543            0    4831.4462    19.930452    20.256985    20.557234    8299.5899    6154.1968    2226.5539    6113.5879    208.30404   -1755.1239    968.14223   -3634.1003 
 3596000    261.28067   -4668.9177    -4165.016   -4668.9177            0    2790.0443    20.100751    20.007258    20.910707    8409.4692    3227.4128    2578.4636    2564.2565    -275.8218   -114.91185   -731.24658   -3822.8352 
 3597000    264.21698   -4684.3939   -4174.8292   -4684.3939            0    6651.1664    19.915504    19.843093    20.801378     8220.397    8081.6885     7080.433    4791.3777   -917.67632     639.0929     66.97159   -3377.4471 
 3598000    257.88001   -4679.9069   -4182.5636   -4679.9069            0    4323.9592     19.97166    20.273446     20.62273    8350.0272    4629.9557    3746.2836    4595.6383    143.64561    212.93165     -905.839   -3656.0066 
 3599000    262.26715   -4688.8403    -4183.036   -4688.8403            0      4989.92    20.116482    19.969105    20.701965    8316.1475    3571.8753    5414.7413    5983.1436   -352.08495    463.37337    1082.2227   -3577.8462 
 3600000     256.2152   -4667.4806    -4173.348   -4667.4806            0    5271.7577    19.861864    19.935614    20.889308    8271.2977    6234.1121    5899.4451    3681.7157   -9.2951325   -512.21282    1623.9365   -3537.4244 
 3601000    262.05117    -4720.248   -4214.8603    -4720.248            0    5525.7378    19.837351    19.910333    20.840824    8231.4641    4395.1861    7141.3388    5040.6885    77.731494   -441.14391   -795.31514   -3551.5095 
 3602000    258.82323   -4669.0356   -4169.8733   -4669.0356            0     4753.515    20.066862    20.136504    20.631577    8336.7347    5416.1487    2726.2276    6118.1689     104.3279    1249.7079    525.03001    -3591.928 
 3603000    258.11723   -4660.1219   -4162.3211   -4660.1219            0    5097.5585    20.182538    20.063564    20.653818    8363.4258    3853.6232    5040.9138    6398.1386   -661.11956   -701.90988    169.17204   -3540.5618 
 3604000    272.32121   -4682.8202   -4157.6258   -4682.8202            0    5199.2619    20.016326    20.039142    20.802222    8343.9795    5505.6685    6126.1804    3965.9369    442.35476   -178.93546   -592.87027    -3524.936 
 3605000    258.90925    -4618.277   -4118.9488    -4618.277            0    4752.6933     19.91122    19.867594    21.121612    8355.4568    4009.4128    6699.2748    3549.3924    14.018813    101.91351   -515.02775   -3539.8057 
 3606000    270.37307   -4729.8683   -4208.4311   -4729.8683            0    4913.0297    19.993085    20.000753    20.860747    8341.7278    5327.2446    4725.7997     4686.045   -50.180819    1036.6959    1003.6526   -3610.7338 
 3607000    261.24597   -4678.3827   -4174.5479   -4678.3827            0    4096.5183     20.10858    20.004954    20.812099    8372.1083    5770.6786    3383.6444    3135.2317    -174.5359   -657.22063    843.02641   -3674.3687 
 3608000    276.99594   -4689.5333   -4155.3234   -4689.5333            0    5603.0136    20.237764    20.073759    20.460073    8311.8637     3323.996    6688.9794    6796.0654   -320.29977   -489.95038    337.11247    -3476.126 
 3609000    260.90915   -4680.4694   -4177.2842   -4680.4694            0    4209.4826    20.054827    20.214926    20.598311    8350.6961    5362.3468    1986.5834    5279.5174    308.54619     73.93196    94.269942   -3664.6267 
 3610000    269.87083   -4670.3985   -4149.9299   -4670.3985            0    3824.7068    19.919012    19.980635    21.031889    8370.5765    3700.7558    4771.9291    3001.4355    109.69834    577.52515   -460.34399   -3683.0239 
 3611000    274.61169   -4665.0807    -4135.469   -4665.0807            0    4787.8108    19.937412    20.051891    20.856895    8338.2283    6263.5426    3328.6653    4771.2244   -676.73225    951.56397    336.06579   -3553.2496 
 3612000    271.15551   -4681.8387   -4158.8925   -4681.8387            0    5420.7625    20.154233    19.782516    20.871398    8321.4561    4867.5809    7432.5241    3962.1825   -643.78228   -544.50928    725.01882   -3501.0293 
 3613000    259.61302   -4704.8199   -4204.1344   -4704.8199            0    5022.4188    19.982754    20.074722     20.78763    8338.9212    6002.7017    4204.7979    4859.7569    497.62089   -138.92413   -1692.6281   -3593.3349 
 3614000    263.19813   -4670.7039   -4163.1042   -4670.7039            0    5893.6491    20.209957    19.974497    20.545199    8293.7625    6198.9916    5025.0031    6456.9527    332.42454    867.62589    68.563418   -3450.2318 
 3615000    257.69969   -4678.8713   -4181.8758   -4678.8713            0    3764.2874    19.900006    20.291404    20.671528    8347.1438    6065.2824    1784.0408     3443.539    -226.9701    146.57504    1144.7492    -3723.632 
 3616000    260.72014    -4708.918   -4206.0973    -4708.918            0    4914.1387    19.873739    20.109219    20.826554    8323.2358    6131.4083    5083.4824    3527.5255   -467.21493    732.86919   -390.89475   -3609.5903 
 3617000    264.31739   -4718.1387   -4208.3804   -4718.1387            0     7149.149    20.071824    19.862435    20.740755    8268.8269    6622.3235    7618.8244     7206.299   -17.096456    467.38479   -797.74954   -3346.2477 
 3618000    249.65046   -4676.1885   -4194.7166   -4676.1885            0     6213.126    20.081069    20.023674    20.543694    8260.5533     6214.826    5863.0867    6561.4652    871.37065   -1420.9773    -887.3602   -3446.2107 
 3619000    257.83866   -4694.5106   -4197.2471   -4694.5106            0    4644.8956    19.981636    20.090368    20.727893    8320.9731    5462.1727    3719.6226    4752.8916   -183.01167    317.98507     201.5612   -3633.5757 
 3620000    260.12819   -4670.5833   -4168.9043   -4670.5833            0    6424.6216    19.948099    19.938011    20.823303    8281.9571     5074.475    7729.2707     6470.119    1144.6723    569.88664    850.85499   -3392.9137 
 3621000    255.99068   -4700.0813   -4206.3818   -4700.0813            0    3106.5449    19.995114    20.156797    20.716758    8349.6296    2376.4422    3875.5898    3067.6027    3.5099536   -779.92269   -371.66324   -3828.0954 
 3622000    278.00631   -4679.5967   -4143.4382   -4679.5967            0    5039.3816    20.165185    19.925104    20.684818    8311.0237    2559.9796    8102.5344    4455.6308    128.19297   -559.56985   -444.33474    -3532.626 
 3623000    273.17366   -4709.1143    -4182.276   -4709.1143            0    5074.6336    20.182545    19.888366    20.739644    8324.8484    3688.5806    5751.6379    5783.6823   -420.64229   -189.29173    1061.2064   -3566.1679 
 3624000    268.78085   -4696.6677   -4178.3012   -4696.6677            0    4914.0325    19.723641    20.247441    20.794641    8304.4077    8355.7635     868.7626    5517.5713   -894.34532   -1579.0629    296.11077   -3583.1565 
 3625000    270.88369   -4662.2882   -4139.8662   -4662.2882            0     4660.153    20.079683    19.682508    21.032909    8312.5953    3779.3302     6645.771    3555.3578    274.49157    498.10133    440.10431   -3574.9127 
 3626000    261.14591   -4709.2444   -4205.6026   -4709.2444            0    3269.2554    19.963899    20.133301    20.741487    8336.8163    4078.7559    2062.4166    3666.5938    274.39723    548.70586     423.5248   -3808.1137 
 3627000    275.86871   -4713.3903   -4181.3543   -4713.3903            0    2771.6302    20.448281    19.963308    20.583304      8402.42    209.73942     4923.278    3181.8731    418.71668    769.61874    284.66081   -3841.7169 
 3628000    256.21269   -4688.2058   -4194.0781   -4688.2058            0     5611.249    19.976393    19.944842    20.789752    8283.1776    5564.1916    5688.1298    5581.4256    812.98439    400.38158   -424.49431     -3516.23 
 3629000    265.32381   -4646.4968   -4134.7975   -4646.4968            0     5822.261     20.08058    19.935317    20.764383    8312.2465     5286.871     6814.172      5365.74   -205.89218   -1230.3219   -1079.7139   -3428.9905 
 3630000    258.24086   -4724.3142    -4226.275   -4724.3142            0    2855.3567    20.110946    19.923138    20.945844    8392.4373    1657.1148    4354.0831    2554.8722   -28.893902    568.76561   -115.17266   -3876.7933 
 3631000    257.06793   -4716.2019   -4220.4248   -4716.2019            0    3587.8965    20.010699    20.099872    20.726146    8336.3147     4199.957    2002.7247    4561.0078   -742.47814     880.3535   -334.16389   -3784.2206 
 3632000     280.8153   -4694.5536   -4152.9776   -4694.5536            0    4815.2373    20.265116    19.912261    20.822843    8402.5226    2948.6399    5544.9176    5952.1544    102.49985    138.39766   -115.08168    -3562.908 
 3633000    281.14202   -4684.2288   -4142.0227   -4684.2288            0    5428.2592    19.988437    20.059591     20.88059     8372.279    5288.0936    6821.2262    4175.4577   -880.05907    1310.5029   -480.39968   -3479.2263 
 3634000    249.54764   -4669.2539   -4187.9802   -4669.2539            0    7162.2191     19.94288    19.872841    20.715199    8209.8825    7687.1851    6068.5232     7730.949    -853.5949   -954.32917    -234.4516   -3330.4283 
 3635000    285.65435   -4737.2589   -4186.3505   -4737.2589            0    5247.9857    20.168946    20.023844    20.547941    8298.4877    4398.0438    5531.5815    5814.3316   -281.79122   -468.84488   -1539.1887   -3551.2134 
 3636000    274.46042   -4704.2448   -4174.9248   -4704.2448            0    3999.5893    20.038486    20.034104    20.740529    8326.3498    3077.3501    5211.2535    3710.1642    697.79699    928.25097   -433.58295   -3689.2496 
 3637000    264.14188   -4705.9373   -4196.5175   -4705.9373            0    3281.0482    20.055367    20.117569    20.717487    8358.7857     2177.864    3920.2312    3745.0495    -318.4002   -887.28043      991.759   -3796.5435 
 3638000    265.61885   -4703.2126   -4190.9443   -4703.2126            0    6282.8393    19.843536    20.099569    20.797711    8295.0946    6398.0712    6850.3217    5600.1249    -258.7079   -159.37859   -299.82457    -3430.875 
 3639000    241.63292   -4682.8127   -4216.8032   -4682.8127            0    5321.7756    20.220068    19.940056    20.481984    8258.1163    2225.2392    6903.9689    6836.1186    30.422088   -116.60308    643.48996   -3575.8691 
 3640000    274.71653   -4694.4879    -4164.674   -4694.4879            0    4645.4037    20.082683     20.20699     20.61665    8366.4546    4545.3769    4492.3979    4898.4363   -111.96529    1504.1482   -20.419117   -3597.8597 
 3641000    264.24268    -4690.806   -4181.1918    -4690.806            0    5185.2644    20.004745    20.046004    20.719647    8308.8934    5443.0749    5916.9689    4195.7494   -777.15081   -135.03086     1090.071   -3552.8586 
 3642000    262.26775   -4683.9668   -4178.1614   -4683.9668            0    4307.0618    20.229875    19.876133    20.728638     8334.813    2296.9902    5724.6198    4899.5753    594.46699    48.542786   -889.94008   -3654.6178 
 3643000    255.19725   -4681.8137   -4189.6444   -4681.8137            0    5282.5169    19.935947    19.988776    20.835994    8303.0432    4893.9453    4952.4559    6001.1497   -350.34035    211.13661   -1333.2315   -3549.9772 
 3644000    270.02384   -4699.2144   -4178.4507   -4699.2144            0    6023.8213    19.962294    20.014386    20.769702    8298.1825    4466.0266    6447.0343     7158.403     776.5685     -234.473    690.49778    -3449.445 
 3645000     261.1155   -4683.3159   -4179.7327   -4683.3159            0    4587.8464    20.166682    19.986556    20.699009    8342.9944     3262.284    6389.8089    4111.4464    205.61962   -764.49565    648.36937    -3621.511 
 3646000    259.22733   -4699.4859   -4199.5442   -4699.4859            0    5142.3428     19.86607    20.146463    20.640489     8260.965    4241.1852    5282.7653    5903.0778    725.44292   -844.75124    889.75684   -3580.0066 
 3647000    238.92916   -4674.9062   -4214.1112   -4674.9062            0    3941.9514     20.07201    19.950491    20.979352    8401.1073    3041.0682    5518.4324    3266.3536    447.43115   -539.49515    161.51198   -3731.1373 
 3648000    261.23763   -4700.7209   -4196.9022   -4700.7209            0    6010.9009    19.947621    19.845297    20.987976     8308.436    7040.2469    5061.7279     5930.728    126.12492   -401.62565    768.54917   -3468.5612 
 3649000    274.47091   -4685.4478   -4156.1076   -4685.4478            0    5630.8286    19.906216    20.065248    20.691784    8264.7778    3636.0629    7038.9205    6217.5025   -717.40777    374.84091    766.73585   -3477.4052 
 3650000    254.13991   -4676.2309   -4186.1007   -4676.2309            0    6363.0306     20.01013    20.021936    20.656132    8275.7045    6253.0649    6335.0808    6500.9462    114.06287   -729.78776    497.74685   -3418.1296 
 3651000    287.34817   -4694.7679   -4140.5928   -4694.7679            0    5868.8636    20.092894    19.989514    20.689766     8309.986    4533.6562    6113.1513    6959.7833    110.33832     1026.671    446.94241   -3429.3298 
 3652000    269.74465   -4672.5964   -4152.3712   -4672.5964            0    4404.8537    19.996261    20.177252    20.663992    8337.2927    5019.4324    3746.7032    4448.4254    32.888149   -209.21304    178.19643   -3616.7812 
 3653000     261.1688   -4681.7213   -4178.0353   -4681.7213            0    3418.0474    20.187432    19.971918    20.754003    8367.6347    1740.7774    5375.1878    3138.1768    484.67841   -402.46209   -1376.6744   -3760.9194 
 3654000    257.09474    -4668.836   -4173.0072    -4668.836            0    4637.0415    19.939858    20.041784    20.829638    8324.1552    4351.7743    6187.1662    3372.1841    425.76659   -1655.6913   -739.15644   -3610.0738 
 3655000    255.89682   -4671.3598   -4177.8413   -4671.3598            0    4998.8003    20.031381    19.944799    20.842373    8326.9836    3957.1733    5824.5638    5214.6637   -85.072043    1035.2534    136.52206   -3570.7844 
 3656000    253.84109   -4688.3974   -4198.8435   -4688.3974            0    4366.5598    19.957683    19.817892    21.031875    8318.5108    3672.2825    5392.1214    4035.2753   -207.03377    392.14434    717.14041   -3669.1058 
 3657000    268.38456    -4689.143   -4171.5408    -4689.143            0    3689.3848    19.972339    20.004907    20.851268    8331.0155    4451.7582     4208.163    2408.2332     240.3237    1478.0427    1097.6143   -3723.2831 
 3658000    253.28592   -4700.3073   -4211.8241   -4700.3073            0     4875.055    20.167236    20.102659    20.599495    8351.3456    6091.3893    5010.0473    3523.7283    14.436276   -502.03887     403.0656   -3618.0628 
 3659000    250.90511    -4686.739   -4202.8474    -4686.739            0    5312.7147    20.094036    20.147212    20.580359    8331.7282    6470.9597    3289.1812    6178.0031   -32.429137    346.35056   -475.49382    -3557.301 
 3660000    259.01127   -4674.0657   -4174.5407   -4674.0657            0    4653.4393    20.091189    19.908952    20.809838     8323.821    4406.3903    5254.4905    4299.4372     71.09035     1485.266   -448.14479   -3609.6393 
 3661000    254.37746   -4689.6783     -4199.09   -4689.6783            0    4322.1145    19.937516    19.964772    21.021348    8367.5045    3969.5403    6624.5409    2372.2624    494.51342    329.50195   -748.91513    -3671.656 
 3662000    259.41601    -4671.343   -4171.0374    -4671.343            0    4130.2199    19.791571    20.122619    20.872126    8312.4961    5917.2984    3558.8259    2914.5354   -267.24824    -1304.627    766.11592    -3670.334 
 3663000    273.50517   -4693.1618    -4165.684   -4693.1618            0     4640.406    20.192251    19.996399    20.582861    8310.7895     4059.317    5281.3794    4580.5215   -449.44239    219.07674   -784.47632   -3603.2467 
 3664000    263.85262   -4692.2431   -4183.3811   -4692.2431            0    5205.8748    20.238891    20.068606    20.520084    8334.5672    4191.3106     5857.724    5568.5897   -313.90781    99.827345    396.08918   -3550.6012 
 3665000    254.88996   -4673.2369   -4181.6601   -4673.2369            0    4795.1474    20.076203    19.721242    21.050611    8334.5194    4734.0345    5532.3048    4119.1028    -342.7922    1094.6366   -1018.1516    -3598.808 
 3666000    257.26413   -4645.6846   -4149.5291   -4645.6846            0    5551.8375    20.045267    19.979392    20.947197    8389.1901    7905.6625    5229.9534    3519.8964   -156.87291    404.96395   -798.81945   -3470.2743 
 3667000    263.36496   -4683.9869   -4176.0654   -4683.9869            0    5268.3352    20.136829    19.953626    20.669394    8305.0195    6244.2228    4261.7146    5299.0682     -186.379    85.066053    641.23916   -3537.9636 
 3668000    268.39898   -4666.7309   -4149.1009   -4666.7309            0    4528.1147    20.149811    20.122196    20.646195    8371.1744    2816.9362    5519.7249     5247.683   -606.12184   -6.4699784    505.49549    -3596.286 
 3669000    274.91813   -4658.7357    -4128.533   -4658.7357            0    4337.0559     19.76988    20.214431     20.84264    8329.4875    5351.0435    3734.5681     3925.556   -115.85158    1073.8679    1453.4932   -3601.6803 
 3670000    271.01757   -4682.8081   -4160.1279   -4682.8081            0    5134.6573    20.104572    19.879639    20.733068    8286.4192    6953.1654     2894.597    5556.2095   -185.76709    360.50608    12.937165   -3539.6101 
 3671000     264.5655   -4674.1927   -4163.9559   -4674.1927            0    3702.9788    20.101479    20.059296    20.828045    8398.3157    4162.9964    3217.0728    3728.8671    -839.4181   -51.193783    352.71487    -3710.412 
 3672000    250.61742   -4679.5623   -4196.2255   -4679.5623            0    4791.2567    20.222569    20.118833    20.531799    8353.4546    6164.5267    3629.4431    4579.8003   -166.68387    969.36488   -457.71079   -3612.5232 
 3673000    258.95467   -4706.8588   -4207.4429   -4706.8588            0    5135.5683    20.197208    19.736094    20.737325    8266.1881    3133.6424    6339.8762    5933.1864    209.12029    378.98149   -1758.5361   -3588.3303 
 3674000    270.87573    -4694.411   -4172.0044    -4694.411            0    5302.6795    19.861557    20.114063    20.901263    8349.9834    6405.2101    4974.4519    4528.3764   -806.21096    261.82971  -0.54911985   -3526.2656 
 3675000    265.62193   -4693.7534   -4181.4791   -4693.7534            0    5626.1226     20.15674    19.913339    20.604565    8270.4252    5665.1926    5588.2917    5624.8836    478.59452   -248.95253   -540.42675   -3502.8806 
 3676000    265.98944    -4718.375    -4205.392    -4718.375            0    5556.9576    19.935725    20.146368    20.542598    8250.5744    5149.6936    4711.1726    6810.0066    142.82612    1574.1278   -861.20518   -3536.7446 
 3677000    267.12028    -4690.447   -4175.2831    -4690.447            0    3182.5461    20.303524    20.107152    20.591662    8406.4645    2160.9113    3572.2142    3814.5128    273.28684    406.45939   -1444.6974    -3785.104 
 3678000    269.49718   -4696.2788   -4176.5308   -4696.2788            0    3675.6517    19.997455    20.024516    20.901443    8369.7604    2809.7433    4562.9547    3654.2569    711.92288    2025.4076   -1520.2617   -3727.8647 
 3679000    269.94445   -4668.2542   -4147.6436   -4668.2542            0    4823.2366    20.266833    19.757086    20.778219    8319.8807    3011.9816    6391.9504    5065.7779    329.06646    391.21449    1066.0001   -3562.4069 
 3680000    273.29321   -4677.2648   -4150.1958   -4677.2648            0     6405.211    19.926526    20.028823    20.668481    8248.8913    6400.2617    6442.6874    6372.6839    304.90872    1852.8569    796.81616   -3379.6386 
 3681000      265.719   -4705.3926   -4192.9311   -4705.3926            0    3480.9295    19.945845    20.156139    20.909009    8406.0745    5497.7807    1400.7975    3544.2104    157.58267    875.17004   -1710.4995   -3766.1901 
 3682000    256.65945   -4677.1672   -4182.1779   -4677.1672            0     4576.571    20.050935    19.912847    20.939407     8360.502    6566.1145    4074.0014     3089.597    541.64305    70.942215   -305.56753   -3624.1596 
 3683000    261.72112   -4719.7091   -4214.9579   -4719.7091            0    3215.4069    20.572537    19.939357    20.555511    8431.9358    128.32481    5925.1569    3592.7389   -863.28918   -247.79337    807.90735   -3819.5556 
 3684000    250.21345   -4687.5304   -4204.9727   -4687.5304            0    3893.3246    20.141925    20.108815    20.687163    8378.9266    2128.5508    6154.6144    3396.8085    484.05812    51.188307      107.703   -3729.2161 
 3685000    269.85499   -4676.3832   -4155.9451   -4676.3832            0     4489.891    19.950138    20.259018    20.821178    8415.2999    6224.3446    2858.5012    4386.8273    152.10794   -548.65984   -644.83705   -3604.9075 
 3686000    277.37145   -4694.5779   -4159.6438   -4694.5779            0    3405.1613    20.372673    19.846976    20.847326    8429.3232    1266.9992    4763.5673    4184.9174   -496.43214    1298.0363   -41.317774    -3741.037 
 3687000     253.1442   -4687.1119    -4198.902   -4687.1119            0    5440.5617    19.989072    20.191431    20.624269    8324.1193    7446.6619    2560.7824    6314.2409    171.28841    685.12795    188.83425   -3538.4247 
 3688000    264.92919   -4665.1634   -4154.2251   -4665.1634            0    4992.6792    20.187362    20.110688    20.450569    8302.5576    3501.6069    5500.3045    5976.1263   -839.54471    619.99978    1521.4799   -3549.6901 
 3689000    248.07202   -4687.0438    -4208.616   -4687.0438            0    4769.7455    20.164949    19.979694    20.715221    8345.9454    3610.0156     4996.585    5702.6359   -336.55606    389.20424    271.09768   -3628.0567 
 3690000    279.06785   -4668.6887   -4130.4829   -4668.6887            0    4778.7137    19.993778    19.921955    20.882619    8317.8635    5441.7856    4753.3002    4141.0554   -745.54822    747.15413    335.57239    -3550.789 
 3691000     255.8948   -4649.9343   -4156.4197   -4649.9343            0    4415.9127    19.834468    20.014627    20.956883    8319.4522     5830.942    3707.0278    3709.7683   -129.73352    1147.1959    175.65312    -3620.634 
 3692000    259.06677   -4668.6774   -4169.0453   -4668.6774            0    4907.3904    20.166083     20.09695     20.59912    8348.3446    5122.1826    3382.5671    6217.4214     540.7273    1163.5062   -345.09544   -3571.5605 
 3693000    278.93382    -4711.102   -4173.1547    -4711.102            0    4138.9939    20.093936     20.07483    20.779286    8381.9969    3593.2433    5019.5447    3804.1938    551.72245    1498.1077   -728.94807   -3667.1924 
 3694000    255.93414   -4652.1555    -4158.565   -4652.1555            0    4065.6201     20.04115     19.87794    21.065906     8392.168    4504.5811    5401.5956    2290.6835   -38.591066    -356.4092   -1040.6892   -3660.9691 
 3695000    262.03319    -4681.983     -4176.63    -4681.983            0    5147.5741     20.07225    19.901767    20.707292    8272.0088    6201.5336    3949.7816     5291.407     1250.442    71.450164   -213.84037    -3555.633 
 3696000    264.44386   -4690.9684   -4180.9662   -4690.9684            0    4902.3178    19.985334    20.044832    20.783912    8326.0905    4064.0709     7150.422    3492.4605    61.749063    1446.3828   -711.48272   -3585.6901 
 3697000      264.924   -4683.8403    -4172.912   -4683.8403            0    5188.1996    20.056582    19.734567    20.898123    8271.6435    4185.5407    7207.3042     4171.754    248.70043    254.17225   -476.69707   -3547.0417 
 3698000     261.2843   -4683.6059   -4179.6971   -4683.6059            0    4215.0997    20.055516    20.145334    20.782173    8396.5189    5119.5187    3399.1832    4126.5974    269.09953   -462.13354    646.79131   -3663.5387 
 3699000    256.74045   -4641.4216   -4146.2761   -4641.4216            0    5037.4928    19.909915    20.146673    20.837016    8358.1132    4649.0419     5213.875    5249.5614    255.02717    154.95615     892.4397   -3532.2333 
 3700000    266.59345   -4702.6732   -4188.5253   -4702.6732            0    5907.2078    19.785087    20.165845    20.845349    8316.9395    7264.7134    3177.2106    7279.6994   -96.714206   -374.94792    -306.2591   -3472.0163 
 3701000    261.66497   -4689.8476   -4185.2047   -4689.8476            0    3559.3125    20.262157    19.987988    20.632697    8356.2369    2945.3251     4672.746    3059.8665   -192.73829   -1494.7205    689.20974   -3751.4415 
 3702000    265.66267   -4681.3536   -4169.0008   -4681.3536            0    4837.1864    20.037564    20.037995    20.716801    8318.0568    3630.1765    5360.7981    5520.5846    448.66917    619.55736   -2118.7811   -3582.2001 
 3703000    249.34878   -4683.6544   -4202.7643   -4683.6544            0    5895.7761     20.00068    19.988688    20.812667    8320.6408     7465.384    5681.6165    4540.3277    173.90852   -848.67116    182.41554   -3487.3236 
 3704000    249.43911   -4682.9568   -4201.8925   -4682.9568            0    4499.0324    20.116068    20.167263    20.585578    8351.2817     5588.156    2278.5198    5630.4215   -373.26314    484.37146   -494.77425   -3653.9334 
 3705000    259.37902   -4715.8078   -4215.5736   -4715.8078            0    5650.2833    20.043864    19.956511    20.681285    8272.6297     5092.959    6187.7058    5670.1851    452.30887   -340.07177    1060.5471   -3533.8792 
 3706000    265.99696   -4718.5279   -4205.5304   -4718.5279            0     4608.118     19.93497    19.930132    20.976361    8334.0463     2778.533    6094.4312    4951.3897   -68.188021   -543.12773    586.59798   -3645.4436 
 3707000    273.37202   -4700.0947   -4172.8738   -4700.0947            0    5231.7511    20.116709    19.855335    20.868576    8335.4103    5533.1048    4722.6737    5439.4747   -70.543456   -1220.6188    693.14431   -3536.8843 
 3708000    268.66708   -4679.4493   -4161.3022   -4679.4493            0    4548.3081    19.772197    20.137759    20.811731    8286.5598    5712.8359    3523.5724    4408.5161   -1454.2368   -938.98232    970.76548   -3611.6348 
 3709000    264.03393   -4692.4745   -4183.2629   -4692.4745            0    4437.4141    20.029642    20.148868    20.688312    8349.2776    3212.1296    5700.8222    4399.2905   -110.18385    19.160504    328.80468   -3642.9383 
 3710000    269.51035   -4668.0249   -4148.2515   -4668.0249            0    4335.8698    20.382026     20.01422    20.471444    8350.9232    1212.6561     6170.513    5624.4403    89.851899    1169.9837   -713.71851   -3620.1874 
 3711000    269.83382   -4685.6504   -4165.2532   -4685.6504            0     7246.429    20.027955    19.938871    20.672686    8255.3233    7611.9926    6042.4732    8084.8212   -529.69895   -594.94708   -1893.2672   -3292.8163 
 3712000    266.59372   -4697.7003   -4183.5519   -4697.7003            0    2955.4094     20.01613    19.950847    21.006914    8388.8744    4366.3731    2678.5874    1821.2676   -249.18674   -720.15823    61.830783   -3821.9779 
 3713000    265.20655   -4654.5919   -4143.1187   -4654.5919            0    4892.7235    20.133692    20.018572    20.690566    8339.2866     3287.938    6973.0631    4417.1694    246.77378    168.82545    135.18652    -3548.066 
 3714000    271.07766   -4695.3428   -4172.5468   -4695.3428            0     5643.462    20.230963    19.928435    20.541764    8281.8526     4691.933      6673.12     5565.333   -13.848716    1145.5301   -169.84568   -3490.9163 
 3715000    242.57924   -4693.6773   -4225.8428   -4693.6773            0    6298.6144    19.849473     20.02288    20.852607    8287.7357    6086.5859    7091.8916    5717.3658    213.76018    392.26534    449.44212   -3464.5411 
 3716000    260.69157   -4695.7229   -4192.9573   -4695.7229            0    4986.5918    20.085244    19.722255     20.91514    8285.0369    4049.4127    7321.9669     3588.396   -57.935163   -633.05743   -520.31388   -3590.4336 
 3717000    254.15283   -4707.5414   -4217.3862   -4707.5414            0     5683.131    19.816004    20.035551     20.88176    8290.5715    5155.4688    6768.3071     5125.617    141.80667   -215.53539    -362.5339   -3530.2418 
 3718000    258.33382   -4642.2352   -4144.0167   -4642.2352            0    6392.0256    20.103195    20.015823     20.58769    8284.1156    5095.2205    7639.6832    6441.1731    386.51855    430.80213    580.54634   -3371.7621 
 3719000    260.45964   -4667.6746   -4165.3563   -4667.6746            0    3914.1945    20.083794    20.111642    20.696629    8359.7427    3848.5049    3563.6557    4330.4227    341.49162    559.91474   -1825.7873   -3688.1445 
 3720000    269.49118   -4728.5454    -4208.809   -4728.5454            0    6208.5184    19.993457    20.316256    20.339564    8261.7719    6521.1421    4365.7589    7738.6541     156.5931    365.71663   -1020.0609    -3460.748 
 3721000    255.85848   -4683.5648   -4190.1202   -4683.5648            0    4961.6359    19.830668    20.061474    21.009251    8358.1612    6074.0244    3814.9904     4995.893   -634.13994   -319.06744   -491.64602   -3585.3206 
 3722000    260.74409   -4706.9359    -4204.069   -4706.9359            0    5062.4236    20.083568    19.883109    20.931307    8358.3684    5157.4751     4398.625    5631.1708    178.24545    429.28654   -868.52457   -3586.9685 
 3723000    254.16284   -4685.7787   -4195.6043   -4685.7787            0    5150.1615    20.067923    19.912996    20.753525    8293.3672    5240.0828    5792.7118    4417.6899     360.9655   -30.273058   -784.77544    -3572.691 
 3724000    259.02807   -4683.4041   -4183.8467   -4683.4041            0    4548.2362    19.967274    19.919808    20.987844    8347.7946    5386.9142    3862.8984    4394.8958   -242.63334   -72.609047    797.73993   -3630.1261 
 3725000    269.16614   -4723.3797   -4204.2702   -4723.3797            0    4742.0995    19.950561    20.001346     20.81361    8305.4227    5239.4482    4660.1557    4326.6945    102.75925   -1409.0564   -1336.8425   -3629.8783 
 3726000    261.19717   -4683.9433   -4180.2026   -4683.9433            0    5166.8571    20.416262    19.853642    20.691099    8386.8712    4873.2725    4433.2769     6194.022     152.3739   -1273.7501    437.29873   -3548.2241 
 3727000    281.18803   -4658.6772   -4116.3825   -4658.6772            0    2751.2426    20.184102    20.139783    20.668718    8401.9048    3942.8102    1319.9852    2990.9325   -89.341617   -141.77028    307.83437    -3779.264 
 3728000    283.10416   -4697.3145   -4151.3243   -4697.3145            0    3942.7968    20.035687     20.13231    20.614913     8315.327    4237.7209    2884.1703     4706.499    445.80204    86.230465    412.66338   -3673.1793 
 3729000     266.6526   -4687.2941   -4173.0321   -4687.2941            0    5713.0872    20.092464    19.924492    20.942103    8383.7967    5470.3003    6332.8994    5336.0618   -185.40565    628.98169    661.76523   -3474.4982 
 3730000    265.70295   -4655.1137   -4142.6833   -4655.1137            0    4173.4646    20.111579    19.949719     20.86387    8371.0094    3844.9211       3719.5    4955.9727    449.62601   -437.94628    184.33018   -3633.1759 
 3731000    271.45793   -4673.5742   -4150.0447   -4673.5742            0    4111.6849    19.816797    20.065897    20.867248    8297.6901    5520.8422    2719.7829    4094.4295   -369.45752   -697.27852    -412.7083   -3652.4762 
 3732000    259.37961   -4669.4945   -4169.2591   -4669.4945            0    6541.0921    20.089969    19.923754    20.691351    8282.0775    5931.4572    7008.0598    6683.7593   -630.58564   -1276.8594    1200.5866   -3379.1893 
 3733000    255.88756   -4684.7107     -4191.21   -4684.7107            0     4685.912    20.180963    20.161093    20.631309    8394.2663    3647.1981    5334.6689     5075.869    279.28775    421.36793   -352.38388   -3617.5524 
 3734000    265.08095   -4673.2559   -4162.0249   -4673.2559            0    4252.5081    20.067083    20.198835     20.63862    8365.4869     5687.025    2158.0236    4912.4756   -485.58553    61.264143    509.67683   -3643.2103 
 3735000    251.80101   -4687.4725   -4201.8531   -4687.4725            0    3356.1616    20.138763    19.815216    20.808021     8303.523    3211.3748    3676.9265    3180.1836    1115.1977    505.30176    1281.5095   -3795.4274 
 3736000    267.11638   -4709.1103   -4193.9539   -4709.1103            0    4915.2165    19.865885    20.109272    20.779497    8301.1696    5926.1079    3323.5958    5495.9459    169.56328    912.05921   -985.21741   -3598.8979 
 3737000    263.93935   -4680.9357   -4171.9064   -4680.9357            0     4775.163    19.945974    19.873528    21.059542    8347.9367    6623.9241    2666.9558    5034.6092   -258.13868    1692.5451   -27.698667    -3590.549 
 3738000    272.91068   -4683.1873   -4156.8561   -4683.1873            0    5229.3715    19.936696    19.984699    20.744766    8265.3136    5090.1857      5218.94    5378.9888     524.9119    -694.8899   -831.65808   -3526.5018 
 3739000    259.58355   -4695.7202   -4195.0915   -4695.7202            0    3219.0386    19.998123    19.808593    21.247402    8416.8322    4013.2103    4109.9681    1533.9375    -370.1309    -312.0031   -476.71518   -3799.9517 
 3740000    267.61831   -4688.7085   -4172.5841   -4688.7085            0    3421.2172    20.060478    20.073374    20.842979    8393.0819    2896.4978    4363.2286    3003.9251    523.00927    2409.4959   -866.46196   -3753.8117 
 3741000     252.3951    -4685.473   -4198.7078    -4685.473            0    4269.3789    20.200053    20.133706    20.655746    8400.7321    3752.0864    4285.8474    4770.2029   -134.16812   -320.75763    1052.0199   -3675.6403 
 3742000    268.99188   -4690.1307   -4171.3572   -4690.1307            0    6189.8923    19.940019    19.997302    20.708955    8257.6247    8517.7703    4372.9958     5678.911    295.57904    -877.8308    314.53855   -3425.9147 
 3743000    260.25531   -4661.6776   -4159.7533   -4661.6776            0    5101.2484    19.953156    20.144899     20.99864    8440.4938    5726.9049    4969.0783    4607.7621   -97.287648   -16.697059   -211.15932   -3531.8103 
 3744000    260.90527   -4659.1858   -4156.0081   -4659.1858            0    6752.0359    19.943742    19.818742    21.012333    8305.3322    7942.7361    5534.1007    6779.2709   -230.32965    914.92067    1165.3168   -3338.1694 
 3745000    274.31447   -4659.2592   -4130.2207   -4659.2592            0    3387.1022    19.944024    20.166349    20.883202    8399.1847    3570.1863    2445.6656    4145.4548   -72.481146   -743.39301    609.99067   -3715.3227 
 3746000    269.50347   -4677.6555   -4157.8954   -4677.6555            0    3650.7351    19.773287    20.180883    20.818268    8307.3716    5756.0686    842.76954    4353.3672   -860.50655   -791.90971   -889.21678   -3715.5924 
 3747000    259.89933   -4683.0613   -4181.8236   -4683.0613            0    4457.5534    20.204689     19.97588    20.585565    8308.4665    2020.9601    7147.3826    4204.3174   -42.928299    30.072674   -806.51093   -3641.6998 
 3748000    253.06421   -4639.5112   -4151.4556   -4639.5112            0    3992.9253    20.059168    20.153882     20.84162    8425.6439    4704.3343    3179.1879    4095.2537   -244.77752    1411.8415    527.61224   -3660.8075 
 3749000    258.77607   -4698.1892   -4199.1178   -4698.1892            0    5928.3338    20.152451    19.773726    20.830465    8300.7119    5046.3573    5288.6933    7449.9508   -59.355607   -91.824537    385.54978   -3481.4493 
 3750000    265.74281   -4645.5436   -4133.0362   -4645.5436            0    4946.5261    19.748383    20.220137    20.876961    8336.4839    5395.1563    5215.3917    4229.0302   -399.68092   -317.23219   -1803.1504   -3531.6422 
Loop time of 470.574 on 64 procs for 250000 steps with 972 atoms

Performance: 91.803 ns/day, 0.261 hours/ns, 531.266 timesteps/s
99.1% CPU use with 64 MPI tasks x 1 OpenMP threads

MPI task timing breakdown:
Section |  min time  |  avg time  |  max time  |%varavg| %total
---------------------------------------------------------------
Pair    | 20.255     | 28.061     | 36.138     |  77.4 |  5.96
Bond    | 0.26932    | 0.27771    | 0.2876     |   0.8 |  0.06
Kspace  | 191.28     | 203.36     | 222.72     |  43.2 | 43.22
Neigh   | 3.2723     | 3.7225     | 4.8472     |  20.8 |  0.79
Comm    | 94.918     | 109.66     | 116.05     |  48.5 | 23.30
Output  | 1.1395     | 1.1451     | 1.1593     |   0.8 |  0.24
Modify  | 114.18     | 116.83     | 120.16     |  11.8 | 24.83
Other   |            | 7.52       |            |       |  1.60

Nlocal:        15.1875 ave          20 max          11 min
Histogram: 5 0 11 8 9 11 13 4 2 1
Nghost:        2226.20 ave        2267 max        2195 min
Histogram: 8 5 6 10 8 13 4 7 1 2
Neighs:        4719.31 ave        6701 max        3252 min
Histogram: 6 5 8 11 11 10 5 5 1 2

Total # of neighbors = 302036
Ave neighs/atom = 310.73663
Ave special neighs/atom = 2.0000000
Neighbor list builds = 8384
Dangerous builds = 0

unfix		3
unfix		2
unfix		1

write_data	data.final.${pid}
write_data	data.final.0
System init for write_data ...
PPPM initialization ...
  extracting TIP4P info from pair style
  using 12-bit tables for long-range coulomb (../kspace.cpp:340)
  G vector (1/distance) = 0.37231924
  grid = 24 24 25
  stencil order = 5
  estimated absolute RMS force accuracy = 0.0034197314
  estimated relative force accuracy = 1.029842e-05
  using double precision FFTW3
  3d grid and FFT values/proc = 2366 288
Last active /omp style is kspace_style pppm/tip4p/omp
WARNING: Not all mixed pair coeffs generated from mixing. Use write_data with 'pair ij' option to store all pair coeffs. (../write_data.cpp:312)

write_restart   restart.lmp.${pid}
write_restart   restart.lmp.0
System init for write_restart ...
PPPM initialization ...
  extracting TIP4P info from pair style
  using 12-bit tables for long-range coulomb (../kspace.cpp:340)
  G vector (1/distance) = 0.37231924
  grid = 24 24 25
  stencil order = 5
  estimated absolute RMS force accuracy = 0.0034197314
  estimated relative force accuracy = 1.029842e-05
  using double precision FFTW3
  3d grid and FFT values/proc = 2366 288
Last active /omp style is kspace_style pppm/tip4p/omp
Total wall time: 0:07:54
