LAMMPS data file via write_data, version 30 Jul 2021, timestep = 42750000

1008 atoms
2 atom types
672 bonds
1 bond types
336 angles
1 angle types

-3.0793230403180445 14.689322039872252 xlo xhi
-0.05351318171650732 22.63351218170601 ylo yhi
0.06643112604812274 19.163566873954487 zlo zhi
-0.3171508421324614 -6.709789833727602 0.15965803168542478 xy xz yz

Masses

1 1.008
2 15.999

Pair Coeffs # lj/cut/tip4p/long/omp

1 0 0
2 0.21084 3.1668

Bond Coeffs # harmonic/omp

1 450 0.9572

Angle Coeffs # harmonic/omp

1 55 104.52

Atoms # full

21 7 1 0.5897 1.1811030965850762 2.207321687823186 0.9189124544781003 0 0 0
55 19 2 -1.1794 -0.5339091028886207 4.167851805705155 3.5262318949310414 0 0 0
56 19 1 0.5897 -1.2001074332584225 3.65803073327401 3.0652023580562737 0 0 0
57 19 1 0.5897 0.17302801955390557 4.270750428501048 2.8891646685956203 0 0 0
121 41 2 -1.1794 -2.4255320023744122 2.5567647513089216 2.511718459941851 1 0 0
122 41 1 0.5897 -2.351885490658096 2.1264900866375567 1.659835192677442 1 0 0
86 29 1 0.5897 -2.2654923396094175 1.635160084825108 4.060853029071788 1 0 0
31 11 2 -1.1794 1.3579876703502043 1.0450193212580408 2.3331920713958083 0 0 0
32 11 1 0.5897 1.1432078522324112 1.3436006556688127 3.2169113921130195 0 0 0
123 41 1 0.5897 -3.3316568794032078 2.8630620285593116 2.548336257121789 1 0 0
46 16 2 -1.1794 1.8034765885920576 4.7369172251841505 2.291524338040452 0 0 0
33 11 1 0.5897 0.6746433990094793 0.40883684436987366 2.122061540364499 0 0 0
71 24 1 0.5897 3.1357834443194808 0.6536636530413412 1.9287981161092507 0 0 0
158 53 1 0.5897 -4.2421346471049475 4.5172997811500855 4.419069566291647 1 0 0
482 161 1 0.5897 -1.0672697175203574 0.024926883847075157 0.932815979198957 1 1 0
47 16 1 0.5897 1.9439500559455745 5.275488889828883 1.5128538407978647 0 0 0
53 18 1 0.5897 4.427553791058067 2.976755122423226 2.7764170315327275 0 0 0
6 2 1 0.5897 3.6851956921751707 1.6318881815513482 4.474528544370095 0 0 0
48 16 1 0.5897 1.945591014360347 5.3346241529026095 3.025578612127028 0 0 0
52 18 2 -1.1794 3.656271170290122 3.0697077427886676 3.3356237784869345 0 0 0
78 26 1 0.5897 0.19035510144542211 2.8072497625498203 4.415262017008193 0 0 0
54 18 1 0.5897 3.067523109212349 3.638702171586761 2.8398593076837946 0 0 0
602 201 1 0.5897 -0.4367765708994442 5.323791001431014 0.37309404629860715 1 0 1
70 24 2 -1.1794 3.917843785398528 0.44088359401393484 1.4195414839220486 0 0 0
527 176 1 0.5897 4.078465796305507 1.9520549894967179 0.45661729609399143 0 0 1
16 6 2 -1.1794 5.533240232025612 4.932019705696061 0.12490880564271603 0 0 0
101 34 1 0.5897 -2.5490025884609464 4.596831177795894 0.17064349358592235 1 0 0
76 26 2 -1.1794 0.7815861334370884 2.118022350700983 4.717871879186013 0 0 0
163 55 2 -1.1794 -2.074658458623791 1.2489915092778303 0.09927035046179071 1 0 0
134 45 1 0.5897 -2.072253269308772 2.641723523379236 6.191649555694398 1 0 0
135 45 1 0.5897 -1.6305057980782531 3.8550708274130017 6.9820127230242095 1 0 0
60 20 1 0.5897 2.8440931987079257 3.6181903354697935 6.68257950993027 0 0 0
34 12 2 -1.1794 -0.026735728521518176 1.267545788364954 7.251776458723939 0 0 0
35 12 1 0.5897 0.1647781120077556 1.9167561049449546 7.928629875839693 0 0 0
36 12 1 0.5897 -0.8807307574392551 0.9108546654592089 7.496101874715414 0 0 0
159 53 1 0.5897 -3.289533974691797 4.52924974063557 5.595633029631761 1 0 0
669 223 1 0.5897 -5.269119738031298 1.7185128950488997 8.935637344544915 1 0 0
124 42 2 -1.1794 -5.003837752122198 2.576130719078421 7.435299822904534 1 0 0
58 20 2 -1.1794 2.1153995551262827 4.051901686789641 6.238633192101349 0 0 0
59 20 1 0.5897 1.7446862325270125 3.3768616622463967 5.670139034698041 0 0 0
87 29 1 0.5897 -3.2545695026495287 1.1189098234158943 5.084068320775402 1 0 0
43 15 2 -1.1794 -0.27295589645144824 5.018455746519367 7.2292652228085625 0 0 0
126 42 1 0.5897 -4.086624713138116 2.820572164551627 7.311957857307764 1 0 0
45 15 1 0.5897 0.6025136460121296 4.712368605528391 6.99241227844683 0 0 0
133 45 2 -1.1794 -2.4115087672843996 3.3817881129473775 6.695104635752058 1 0 0
522 174 1 0.5897 2.105202493488 5.396370496257864 9.048290184795933 0 0 0
401 134 1 0.5897 2.2282267713429764 0.3079437542693542 8.918753647039244 0 1 0
5 2 1 0.5897 3.2081577900857736 0.282765079012914 4.968512580964062 0 0 0
98 33 1 0.5897 -3.98645864194397 5.287269724242458 8.690298249605712 1 0 0
77 26 1 0.5897 0.36985890020749945 1.7809816611416864 5.5135130827060115 0 0 0
69 23 1 0.5897 -2.7082556276352427 1.1153216125135959 8.858633746638379 0 0 0
67 23 2 -1.1794 -2.460882507362053 0.3926124884057604 8.281776777514516 0 0 0
44 15 1 0.5897 -0.19143124727303373 5.296093713255916 8.141692354577938 0 0 0
4 2 2 -1.1794 3.880706822848799 0.9479679636505127 5.114955387711103 0 0 0
85 29 2 -1.1794 -2.3178582450457474 1.2465420679518597 4.93399150539838 1 0 0
157 53 2 -1.1794 -3.7753066768878694 5.109064553067838 5.009128964980819 1 0 0
125 42 1 0.5897 -5.498813083029168 3.2994984243756256 7.05073729765285 1 0 0
97 33 2 -1.1794 -4.01831900666184 4.810813719022367 9.519817746880628 1 0 0
24 8 1 0.5897 0.8893682563625487 3.5055298216037607 9.558806557581631 0 0 0
22 8 2 -1.1794 0.17189020299818392 2.879900374968791 9.458502298724794 0 0 0
574 192 2 -1.1794 0.5009478020656459 0.645522505711997 11.141160163667507 0 0 0
986 329 1 0.5897 -4.428961985397679 0.21074856411374177 10.70161550467384 1 1 0
560 187 1 0.5897 -4.916769339583809 3.9408794516514694 12.619726346437874 0 0 0
576 192 1 0.5897 -0.22073462016357404 0.7508733746498563 11.76108035341835 0 0 0
23 8 1 0.5897 0.35830557085921066 2.195927646410735 10.101576452673124 0 0 0
523 175 2 -1.1794 -2.5522343034363284 2.5885553383781734 10.016272053450232 0 0 0
627 209 1 0.5897 -6.9406396049600225 2.894209282048694 12.106366913015812 1 0 0
525 175 1 0.5897 -1.657431566095707 2.823149283818378 9.770266703542777 0 0 0
535 179 2 -1.1794 -2.023730909607636 1.0832143703984651 12.247349326016517 0 0 0
536 179 1 0.5897 -2.198338243743552 1.573015178160763 13.051008594657858 0 0 0
537 179 1 0.5897 -2.2171736911741196 1.7014256896540678 11.54271521838572 0 0 0
667 223 2 -1.1794 -5.48596280011987 1.1412042802498483 9.667631988741162 1 0 0
625 209 2 -1.1794 -6.040661365703136 2.610908242159064 11.945099791558436 1 0 0
556 186 2 -1.1794 0.5294610049735766 3.5274237266080544 13.034644492739707 0 0 0
561 187 1 0.5897 -3.864692014151908 3.72680806488431 13.687039554148912 0 0 0
668 223 1 0.5897 -5.668079258401639 1.7351041263950713 10.395896644979247 1 0 0
558 186 1 0.5897 -0.2910084912430655 3.844076236074401 12.656794349120535 0 0 0
559 187 2 -1.1794 -4.265796300729965 4.406181579080443 13.145098929556706 0 0 0
550 184 2 -1.1794 -1.675034040377346 4.887644614994191 12.19276905115884 0 0 0
552 184 1 0.5897 -2.6094219864432695 4.758208717373389 12.355252350253352 0 0 0
626 209 1 0.5897 -5.865277972948427 1.9667996208860843 12.631017993275057 1 0 0
557 186 1 0.5897 0.2814978065516982 2.7424950911646335 13.523047838044606 0 0 0
99 33 1 0.5897 -3.9219878779430113 5.488026584149067 10.189434300867019 1 0 0
524 175 1 0.5897 -3.069210691062485 3.3680542843035934 9.813084004057169 0 0 0
662 221 1 0.5897 -7.717230246898198 4.652850499161381 13.957835149871629 1 0 0
589 197 2 -1.1794 -5.757545996520269 1.1244718650089118 14.208467634811894 1 0 0
587 196 1 0.5897 -1.1448287172788816 5.527539723838768 10.500852172772605 0 0 0
575 192 1 0.5897 1.1191236024150975 0.06760610298617199 11.588415524134334 0 0 0
551 184 1 0.5897 -1.4066020627025262 5.5387120292837775 12.841108283252318 0 0 0
520 174 2 -1.1794 2.2263855471911462 4.693430236704993 9.686493140642797 0 0 0
580 194 2 -1.1794 -2.6074713390105106 2.5866393375860635 14.378898706642683 0 0 0
661 221 2 -1.1794 -7.129098844008082 5.301849042547301 14.344077015607272 1 0 0
606 202 1 0.5897 -5.995274229882213 4.5902632584164405 9.637097645995695 1 0 0
547 183 2 -1.1794 -3.6857731916498517 5.024961313180752 16.771384440101148 0 0 0
581 194 1 0.5897 -2.9462082619853946 2.0928270900046835 15.12558668923971 0 0 0
510 170 1 0.5897 0.35166416211580476 1.4570097411063434 15.392168964025393 0 0 0
630 210 1 0.5897 -8.341464354846668 2.0034861312242307 16.161945060572414 1 0 0
582 194 1 0.5897 -2.0354605331513334 3.2480898157892595 14.76821419407248 0 0 0
563 188 1 0.5897 -1.0582404022504743 5.142118479500363 15.328659419043257 0 0 0
639 213 1 0.5897 -6.004511293830458 4.044751989162009 15.206439398157965 1 0 0
20 7 1 0.5897 -5.699743879228878 2.0284144091730805 18.550432317785305 0 0 -1
538 180 2 -1.1794 -3.2974374324356663 1.2790470753619076 16.71953327128395 0 0 0
539 180 1 0.5897 -3.150069727981709 1.8864270877983467 17.44455571035442 0 0 0
905 302 1 0.5897 -2.082196618449589 0.10570860445816763 17.33691492562707 0 1 0
540 180 1 0.5897 -4.178041199782109 0.935207410183498 16.869688670581553 0 0 0
638 213 1 0.5897 -6.4641955010723375 3.0852823405969088 16.28335694816732 1 0 0
549 183 1 0.5897 -4.3125622863299515 4.3318336752122875 16.56411633108663 0 0 0
562 188 2 -1.1794 -1.208946135292269 4.363130102270784 15.86400210703704 0 0 0
526 176 2 -1.1794 -2.8352364441368323 2.8391238547764024 18.966033795951823 0 0 0
564 188 1 0.5897 -2.001981141790983 4.563390050057558 16.36121855138442 0 0 0
637 213 2 -1.1794 -5.685147293548671 3.370284958428157 15.805793963084323 1 0 0
164 55 1 0.5897 -8.458553162773251 1.8802504218943303 18.42990392542173 1 0 -1
628 210 2 -1.1794 -8.135414921741276 2.599459330816319 16.88211496564604 1 0 0
590 197 1 0.5897 -5.546733633267507 1.802407771881915 14.850531913631375 1 0 0
165 55 1 0.5897 -9.427385736762186 0.7932105334074913 18.84405676187642 1 0 -1
571 191 2 -1.1794 -5.670666258224962 0.38109647549056913 17.69080077640273 0 0 0
528 176 1 0.5897 -3.7671285295289465 3.0069401682747405 19.10621727521519 0 0 0
629 210 1 0.5897 -8.72474185582547 3.342830965795008 16.754547744707704 1 0 0
508 170 2 -1.1794 0.40585186855569777 1.1569264200836578 14.484830975239449 0 0 0
601 201 2 -1.1794 -7.457952436272865 4.801824846735961 18.874648259247145 1 0 0
603 201 1 0.5897 -6.796096432522093 4.112696688889663 18.931598189684784 1 0 0
548 183 1 0.5897 -3.771344123043886 5.649160530163591 16.050848228492345 0 0 0
19 7 2 -1.1794 -5.546440746285799 2.762917850063403 19.14481335173908 0 0 -1
18 6 1 0.5897 -1.6369402648454852 4.256888869426981 19.135995632511484 0 0 -1
593 198 1 0.5897 -7.623354149874824 0.8537349030373321 14.46333038308389 1 0 0
591 197 1 0.5897 -5.186619451555977 0.3911693308602416 14.437520900334423 1 0 0
289 97 2 -1.1794 -2.843094796597027 9.845986967516142 2.568763689754344 1 0 0
255 85 1 0.5897 -2.5874165063536125 8.94876715680747 4.047317485404136 1 0 0
146 49 1 0.5897 -1.2384859317308972 6.558668968076193 2.142908497538278 1 0 0
147 49 1 0.5897 -0.9429399128529061 7.389476125786217 0.9124433721262949 1 0 0
332 111 1 0.5897 -2.3095080054933246 9.178369966319432 0.9503121854928598 1 0 0
145 49 2 -1.1794 -0.5545949631567497 6.739634234580062 1.4981289323513016 1 0 0
112 38 2 -1.1794 -3.0693150322483 6.374773853290893 2.6652749062859957 1 0 0
291 97 1 0.5897 -3.702398306772701 10.221617701908647 2.760423454952572 1 0 0
290 97 1 0.5897 -2.22039833251052 10.520403398018786 2.8402139800903448 1 0 0
188 63 1 0.5897 0.8628481712747922 9.867089957024112 1.2263816974097275 0 0 0
200 67 1 0.5897 0.5697343898977869 7.941006687296278 2.2540009246700716 0 0 0
9 3 1 0.5897 -0.9069910553318112 5.794407291704057 4.379470216671606 0 0 0
224 75 1 0.5897 -0.45777353224302075 11.072281172527353 3.9781036500248197 0 0 0
187 63 2 -1.1794 0.9082651561246404 10.34835975984193 0.4002784804938359 0 0 0
10 4 2 -1.1794 1.922583848874881 6.367884232234502 4.56567866649022 0 0 0
199 67 2 -1.1794 1.1193355389183344 8.624231290254246 2.6379633637093947 0 0 0
113 38 1 0.5897 -3.25712674210509 6.003181857471079 3.5271286475431722 1 0 0
220 74 2 -1.1794 3.4862406296736808 10.847878969938954 3.52593605747148 0 0 0
245 82 1 0.5897 0.8255833875959304 9.44274547488021 4.114677692616845 0 0 0
114 38 1 0.5897 -3.240118853365563 5.659126638223277 2.052933629771814 1 0 0
239 80 1 0.5897 3.7308226478708306 8.754062267386255 1.271573860760104 0 0 0
240 80 1 0.5897 3.4121648143830745 7.2850685762963385 1.0916076779425539 0 0 0
189 63 1 0.5897 1.84290261373559 10.503861963486418 0.26421002554843165 0 0 0
238 80 2 -1.1794 3.666667543264886 7.9290272222260985 1.7525408843829764 0 0 0
201 67 1 0.5897 2.0151690763487906 8.313579335838742 2.5067621708144 0 0 0
174 58 1 0.5897 3.3632719061507474 9.18779076843719 4.396387960956685 0 0 0
331 111 2 -1.1794 -1.9152090001738753 8.731490749206689 0.20125771161428127 1 0 0
221 74 1 0.5897 4.220178682348299 10.707976962304793 2.9276125574703484 0 0 0
222 74 1 0.5897 2.81987284640112 11.27976646982528 2.991516312538758 0 0 0
696 232 1 0.5897 4.24644874947084 10.962169777188539 0.22538646279794172 0 0 1
694 232 2 -1.1794 3.687312620994623 10.1858875245539 0.19398401675202934 0 0 1
12 4 1 0.5897 0.9885476742981938 6.508547104735397 4.720700327514023 0 0 0
173 58 1 0.5897 3.015504160837196 7.7764693283249064 4.819419543352815 0 0 0
244 82 2 -1.1794 0.6486956529607015 10.045723504473825 4.836757662635089 0 0 0
191 64 1 0.5897 0.42194170874615766 9.814032243956252 8.77121315396294 0 0 0
8 3 1 0.5897 -0.6310893016536263 6.0919439027596285 5.837986270466834 0 0 0
109 37 2 -1.1794 -4.223988142205161 6.37545387315363 7.349676641734205 1 0 0
111 37 1 0.5897 -5.153357030372643 6.567354725914565 7.474897669473286 1 0 0
293 98 1 0.5897 -4.107089515429925 10.567712649237523 7.391557635950491 1 0 0
65 22 1 0.5897 2.4188497849314174 7.502742866034932 8.62132402692691 0 0 0
292 98 2 -1.1794 -5.033757708732468 10.431603430467174 7.589045144982331 1 0 0
7 3 2 -1.1794 -0.8175355449220421 6.516979887856871 5.0008944843513214 0 0 0
246 82 1 0.5897 0.41710833023436233 9.478312617438824 5.571970617111883 0 0 0
294 98 1 0.5897 -5.0338950960571545 9.895042758732547 8.381652866249233 1 0 0
837 279 1 0.5897 -5.952449173080408 8.301382237628841 9.286482975161684 1 0 0
64 22 2 -1.1794 2.1265947473771085 6.833802481534625 8.002132400203546 0 0 0
110 37 1 0.5897 -4.167690903658815 6.033201906203166 6.457517423073631 1 0 0
202 68 2 -1.1794 0.2585899834097827 8.653768638176672 7.1706757769773795 0 0 0
203 68 1 0.5897 -0.5710523849526088 8.2871045979796 7.476394985570752 0 0 0
204 68 1 0.5897 0.8922911332278409 7.946504015041068 7.290579197890246 0 0 0
588 196 1 0.5897 -1.312820717212067 6.586924907272326 9.432633414240497 0 0 0
235 79 2 -1.1794 -2.0949887412725476 7.893115943714047 8.303873849570188 0 0 0
236 79 1 0.5897 -2.8610181481333212 7.489897492813098 7.895357108137592 0 0 0
237 79 1 0.5897 -2.4478132992134802 8.634185036848306 8.796395806172487 0 0 0
302 101 1 0.5897 -2.2711320951941603 10.017742800176386 6.088959278559332 1 0 0
301 101 2 -1.1794 -2.511212707182069 10.807619253923226 6.573434345227354 1 0 0
66 22 1 0.5897 2.927505291268769 6.5460344709383484 7.563989204543792 0 0 0
303 101 1 0.5897 -1.6786288468910984 11.155807465538114 6.892568282907466 1 0 0
172 58 2 -1.1794 3.614094744626062 8.498401552869991 5.0111664741339395 0 0 0
11 4 1 0.5897 2.174156109577111 5.701128215695118 5.204639089625211 0 0 0
228 76 1 0.5897 1.7219759375038226 11.205739781018533 5.883702203556057 0 0 0
257 86 1 0.5897 -4.4225837855953465 8.660295525396453 5.131529423658509 1 0 0
253 85 2 -1.1794 -2.582378092928842 8.603498845354496 4.94001572525658 1 0 0
254 85 1 0.5897 -2.0153800752825948 7.833565096516343 4.896279149929392 1 0 0
513 171 1 0.5897 -4.123093135826139 6.018392236574004 14.064209274763265 0 0 0
794 265 1 0.5897 -5.3699328317120925 10.624736644218558 12.476302769997384 1 0 0
835 279 2 -1.1794 -5.375375618364161 8.858745295399505 9.80861847720602 1 0 0
750 250 1 0.5897 -3.3489507063489006 10.791490911080931 14.079884010537166 0 0 0
742 248 2 -1.1794 0.37768539168167603 7.974940242761246 11.432533776617937 0 0 0
724 242 2 -1.1794 0.5697123227681402 10.927324279242985 12.905095781610077 0 0 0
616 206 2 -1.1794 -6.531657041701684 6.551306888593888 12.018243288741909 1 0 0
693 231 1 0.5897 -2.5852947848233883 9.85600135194127 10.712673803660667 0 0 0
649 217 2 -1.1794 -3.840821431371713 6.963350290027026 11.139114495022113 1 0 0
650 217 1 0.5897 -3.2340808155778915 7.470594467260276 11.678430248142822 1 0 0
651 217 1 0.5897 -4.65330095490631 6.944625160089425 11.644830176771137 1 0 0
795 265 1 0.5897 -5.792386341943908 9.615751522243597 11.429628667583865 1 0 0
744 248 1 0.5897 0.013725050643770498 7.234998717972076 10.946420076496366 0 0 0
793 265 2 -1.1794 -6.012365462916906 9.936280636657848 12.304338932152747 1 0 0
691 231 2 -1.1794 -2.5188920399352646 10.175149720547614 9.812736937349646 0 0 0
759 253 1 0.5897 -5.939142613605011 8.98099360739886 13.743387401533168 1 0 0
703 235 2 -1.1794 -2.2158001738778053 8.798638759704641 12.252689670933803 0 0 0
704 235 1 0.5897 -1.275478701264868 8.684031474132244 12.115216595160657 0 0 0
705 235 1 0.5897 -2.279564354791005 9.319384807189033 13.053333139012189 0 0 0
743 248 1 0.5897 0.4726587137934355 8.667898014113412 10.779151818373617 0 0 0
678 226 1 0.5897 0.320209203720232 9.463990725493373 13.968233342647887 0 0 0
836 279 1 0.5897 -4.724122654623642 8.25775801112262 10.170355939381217 1 0 0
663 221 1 0.5897 -6.808584792437427 5.809115682967642 13.598363368089826 1 0 0
618 206 1 0.5897 -6.657931673297237 5.887438729173669 11.340290255900642 1 0 0
617 206 1 0.5897 -7.28115566063134 7.138738809689974 11.921445994126488 1 0 0
726 242 1 0.5897 -0.15956190560909 11.345356085878292 12.447278588310928 0 0 0
692 231 1 0.5897 -1.5883923993728497 10.365531896934268 9.693683825462506 0 0 0
192 64 1 0.5897 0.817812592358552 10.832260943156852 9.819325444676071 0 0 0
809 270 1 0.5897 -7.6183620609672165 10.501894714878262 12.745094072825855 1 0 0
516 172 1 0.5897 -0.5019099549315396 7.2950155851155625 14.26889540753995 0 0 0
514 172 2 -1.1794 -1.1148599459377033 6.560577612348448 14.23518211974793 0 0 0
515 172 1 0.5897 -1.9779816283767397 6.963855251407544 14.328013290603177 0 0 0
190 64 2 -1.1794 0.2495249350544646 10.07550234607935 9.675728135412893 0 0 0
586 196 2 -1.1794 -0.6496114703299996 6.060215647978957 9.878619836212971 0 0 0
797 266 1 0.5897 -7.157542313051534 10.71800432645972 16.928298550484342 1 0 0
695 232 1 0.5897 -2.9845084761963667 10.059117256317048 18.378560797693407 0 0 0
741 247 1 0.5897 -6.015300734594912 8.957992125169312 18.2485506923967 0 0 0
613 205 2 -1.1794 -7.760574965062085 6.585824501082141 16.759383216217746 1 0 0
740 247 1 0.5897 -6.395678207531912 7.777944283249958 17.379739741258152 0 0 0
568 190 2 -1.1794 -1.3430012101597733 7.373452753906859 17.651138471734598 0 0 0
333 111 1 0.5897 -8.36911183246638 9.597338448369335 18.70514318962559 1 0 -1
614 205 1 0.5897 -7.670182152628119 5.852750254305241 17.36811056274864 1 0 0
758 253 1 0.5897 -5.689640082100631 9.264810324036752 15.209372269933409 1 0 0
615 205 1 0.5897 -7.541628930057399 6.215930427177125 15.904110376830452 1 0 0
569 190 1 0.5897 -1.5040567461217513 6.647935822067864 18.2543019295984 0 0 0
749 250 1 0.5897 -2.932568693754167 9.847629615926724 15.187755442096366 0 0 0
798 266 1 0.5897 -8.397286345613754 9.915326074755795 16.59552080066184 1 0 0
84 28 1 0.5897 -3.8794082920083586 5.847555759327653 18.392388407585408 0 0 -1
796 266 2 -1.1794 -8.053447521931073 10.552367710527568 17.221816547417067 1 0 0
706 236 2 -1.1794 -3.2286464952889595 9.159243419545351 16.792801447151867 0 0 0
707 236 1 0.5897 -4.080480891558514 8.765351100160595 16.98111815381799 0 0 0
708 236 1 0.5897 -2.6010486886258395 8.448896820080332 16.925882791424037 0 0 0
739 247 2 -1.1794 -5.64017161849932 8.2223457333795 17.764447030787895 0 0 0
83 28 1 0.5897 -4.798901471940177 7.003014889858024 18.72601874570735 0 0 -1
511 171 2 -1.1794 -3.8771692372770614 6.738746987570021 14.644639672824876 0 0 0
805 269 2 -1.1794 -5.643228523743438 10.98677579932175 16.003740429268746 1 0 0
676 226 2 -1.1794 0.36058350776008563 8.74751749234342 14.601598859289489 0 0 0
762 254 1 0.5897 -7.703695454326629 8.6040377714244 14.830527649323498 1 0 0
512 171 1 0.5897 -4.6291856566004075 7.330586352299718 14.624508532670166 0 0 0
570 190 1 0.5897 -0.5637983236874824 7.110064190051496 17.16154514262591 0 0 0
731 244 1 0.5897 -1.7207788121771248 11.402293876899586 15.42039096308307 0 0 0
748 250 2 -1.1794 -2.6059689437144575 10.278714716413733 14.398047851650343 0 0 0
82 28 2 -1.1794 -4.201343646336111 6.371317154833071 19.126072049732926 0 0 -1
757 253 2 -1.1794 -5.885999367654303 8.554417533189786 14.598575134732021 1 0 0
280 94 2 -1.1794 -3.613792333367651 13.977675506916887 2.677674375159907 1 0 0
281 94 1 0.5897 -3.640573024440165 13.576415682593323 3.5462433077775075 1 0 0
282 94 1 0.5897 -2.7005918620498797 14.240598785754303 2.562861078791172 1 0 0
500 167 1 0.5897 -1.7640089692561542 15.89879457121661 0.7187893308866686 1 0 0
367 123 2 -1.1794 0.883507416433277 16.456874758680115 2.5052302345683204 0 0 0
250 84 2 -1.1794 2.2810284170585735 13.836070500425366 0.19716804049315673 0 0 0
313 105 2 -1.1794 -1.1005049481304932 14.70908017886598 1.8657823380492904 1 0 0
315 105 1 0.5897 -0.7175266314385986 14.007667531189504 1.3389021437330153 1 0 0
180 60 1 0.5897 1.733461260115206 13.634611771347432 4.010647993436386 0 0 0
223 75 2 -1.1794 -0.979152171790461 11.642317034982673 3.4129702196669043 0 0 0
225 75 1 0.5897 -1.1324749386800357 12.42692316922588 3.9394110376880778 0 0 0
314 105 1 0.5897 -0.35582902460463783 15.257133061351848 2.1135172538405778 1 0 0
184 62 2 -1.1794 5.3083580475166094 12.509026352899168 0.3793015245790343 0 0 0
423 141 1 0.5897 -2.5095059334327976 16.57570326800544 4.081965855391974 1 0 0
216 72 1 0.5897 0.6457025148005853 12.272189497323044 2.552396481999961 0 0 0
368 123 1 0.5897 1.8039619918937806 16.199249533941824 2.453990792215536 0 0 0
406 136 2 -1.1794 3.4653938431361793 15.642041467870587 1.8871004931431443 0 0 0
407 136 1 0.5897 4.28815742477125 15.211401659643403 2.1190696444539583 0 0 0
215 72 1 0.5897 1.6528431214431922 13.01549388721537 1.7009681215887296 0 0 0
252 84 1 0.5897 2.7447509917705037 14.456680010228535 0.7593949350134265 0 0 0
408 136 1 0.5897 3.7282523849764893 16.38473730632244 1.3435577938072762 0 0 0
214 72 2 -1.1794 1.5489369954147634 12.589082574721655 2.5515645281287274 0 0 0
369 123 1 0.5897 0.7854026134474217 16.823225338374257 3.384104909703578 0 0 0
269 90 1 0.5897 -3.6423791864738524 12.825709748774978 1.1802820202296567 1 0 0
499 167 2 -1.1794 -2.4267168376963184 16.38384348002583 0.22714205496714096 1 0 0
771 257 1 0.5897 -0.15929154358471953 11.815678997214302 0.2916937779058762 1 0 1
268 90 2 -1.1794 -3.3334902263503867 12.36026270123805 0.40297632700585523 1 0 0
769 257 2 -1.1794 -0.6620434885031967 12.62036383128661 0.1656039058389629 1 0 1
770 257 1 0.5897 -1.5766215996435426 12.341454252697401 0.21038224454778826 1 0 1
404 135 1 0.5897 -1.8353110425197539 15.839587843812208 7.66537363648258 0 0 0
326 109 1 0.5897 -3.304244863255979 12.077822401740187 5.53880454011534 1 0 0
340 114 2 -1.1794 3.3130687670642365 16.250892305700912 5.262958632545861 0 0 0
327 109 1 0.5897 -4.19123596499665 13.274997168722095 5.806889598531868 1 0 0
405 135 1 0.5897 -2.6781730666495114 16.327828707376792 8.824304067789067 0 0 0
211 71 2 -1.1794 -0.40120897619401674 12.366823965832882 7.464007972457838 0 0 0
227 76 1 0.5897 1.324059612975864 12.0367747465441 7.084960699898991 0 0 0
213 71 1 0.5897 -0.5314591904487611 13.008635934344655 6.765989271182015 0 0 0
212 71 1 0.5897 -0.5631914791484509 12.854422462089532 8.271643798965618 0 0 0
756 252 1 0.5897 -1.7347483191893351 14.371395910060253 9.258451006584075 0 0 0
232 78 2 -1.1794 1.7978672237751816 14.469532494295358 8.231543231750482 0 0 0
175 59 2 -1.1794 -0.8930192939327863 13.838306329030036 5.208212728907034 0 0 0
234 78 1 0.5897 1.2434834149723049 14.994882879191383 7.65463745276337 0 0 0
370 124 2 -1.1794 -0.05245715604643664 16.239559075064303 7.228673264999418 0 0 0
179 60 1 0.5897 2.0258286980077944 13.216068611243996 5.435799974843566 0 0 0
277 93 2 -1.1794 -4.584150532079102 13.90228205575825 7.436548622142341 1 0 0
278 93 1 0.5897 -3.994252550732408 14.622026056194413 7.660725757538314 1 0 0
325 109 2 -1.1794 -3.881697938018916 12.704679717597461 5.1031947617179245 1 0 0
372 124 1 0.5897 0.08971394600623306 16.695193379057415 6.399022808786268 0 0 0
403 135 2 -1.1794 -2.60880490783115 15.619313188929407 8.18440354647839 0 0 0
341 114 1 0.5897 2.819361371262241 15.439926577339243 5.141167413570888 0 0 0
267 89 1 0.5897 -4.112276864686491 12.814995216917195 8.820049422381576 1 0 0
279 93 1 0.5897 -5.451593108722497 14.213478950444852 7.695268805930031 1 0 0
1004 335 1 0.5897 -5.492251572561207 16.835136874181405 9.079426398457828 1 0 0
226 76 2 -1.1794 2.075799135461434 11.807730514983012 6.538460337374749 0 0 0
177 59 1 0.5897 -0.0031911477931361176 14.180182315567546 5.121171475968771 0 0 0
233 78 1 0.5897 2.609570669156808 14.347938300426263 7.739019291521324 0 0 0
176 59 1 0.5897 -1.442060597609437 14.617530666142732 5.295205818227646 0 0 0
371 124 1 0.5897 0.07083496476380358 16.913724227728952 7.896943926423928 0 0 0
690 230 1 0.5897 1.7476102643051163 13.031595173985652 9.400967130921394 0 0 0
425 142 1 0.5897 -4.222731493887265 16.03936365000164 5.14068910385163 1 0 0
421 141 2 -1.1794 -2.4246444943173575 16.17869890630766 4.948757424128177 1 0 0
422 141 1 0.5897 -2.3460243581948226 16.922114694721277 5.546614484957672 1 0 0
178 60 2 -1.1794 1.8464481134475257 13.984686885968587 4.894355741734073 0 0 0
754 252 2 -1.1794 -1.0795669687498428 13.869024393490138 9.742737597165945 0 0 0
728 243 1 0.5897 -3.454483951240354 12.064141887355763 12.54368350495635 0 0 0
755 252 1 0.5897 -0.5201498151907198 14.531777821006216 10.14782624102171 0 0 0
718 240 2 -1.1794 -1.672325541802131 12.376883205388928 11.949644369744219 0 0 0
912 304 1 0.5897 1.0313288481787906 15.307088282705713 11.623312950853279 0 0 0
720 240 1 0.5897 -1.437475300387975 12.962622631175142 12.66939457708531 0 0 0
688 230 2 -1.1794 1.8873443231552347 12.322161134181078 10.028098936872853 0 0 0
871 291 2 -1.1794 -2.1201174822465365 16.443785355565897 12.26464951311091 0 0 0
831 277 1 0.5897 -7.647436781671348 12.095158902456399 14.1554258429469 1 0 0
784 262 2 -1.1794 -6.545292717260548 13.96672073870221 12.062109168567721 1 0 0
729 243 1 0.5897 -4.417743674244985 12.669157994442015 13.54267863725444 0 0 0
911 304 1 0.5897 -0.3150134229268273 15.989059867348047 11.742312972822765 0 0 0
910 304 2 -1.1794 0.3672172711387889 15.766043249019438 11.109024916468046 0 0 0
1005 335 1 0.5897 -5.058459438811898 15.918262589008712 10.203171302343852 1 0 0
727 243 2 -1.1794 -4.270747556607191 11.88681077440105 13.011086454738132 0 0 0
719 240 1 0.5897 -1.5619108810147555 12.908776061955852 11.161597128484244 0 0 0
786 262 1 0.5897 -6.728866717659518 13.539763515063745 12.898856659092155 1 0 0
817 273 2 -1.1794 -4.106802385568409 14.79783093854862 11.26732423517432 1 0 0
818 273 1 0.5897 -4.897419755464165 14.6035763380089 11.770716228948421 1 0 0
819 273 1 0.5897 -3.916198546919318 13.986151349676376 10.797104492370803 1 0 0
873 291 1 0.5897 -2.6904865299168987 15.700231613535296 12.06953325679249 0 0 0
725 242 1 0.5897 0.9233455282985643 11.613957529522885 13.470573921565967 0 0 0
1003 335 2 -1.1794 -5.822475439471192 16.374712199671464 9.850856768004162 1 0 0
785 262 1 0.5897 -7.261051672301322 14.592229870506642 11.949789605760133 1 0 0
773 258 1 0.5897 -6.782488837706948 12.899742620828567 10.736051431846075 1 0 0
682 228 2 -1.1794 -1.1878148563215554 13.96603913695317 14.15670785783658 0 0 0
774 258 1 0.5897 -5.8043697308556865 12.230612412826671 9.79399429912906 1 0 0
265 89 2 -1.1794 -3.9306482055631133 12.56165348251277 9.725031329477863 1 0 0
846 282 1 0.5897 0.13458258056262373 16.92195828864305 14.06280897581302 0 0 0
684 228 1 0.5897 -0.6930931637842814 14.751840823609395 14.38915171897939 0 0 0
266 89 1 0.5897 -3.395301289470422 11.771712278788456 9.650212310210188 1 0 0
926 309 1 0.5897 -5.2146955803161745 15.487793198718808 14.378670611866873 1 0 0
925 309 2 -1.1794 -5.94003748825811 16.100546119201027 14.257796437277424 1 0 0
738 246 1 0.5897 -0.5675748341670168 14.51960012133827 17.29249568290528 0 0 0
683 228 1 0.5897 -1.0410532622710518 13.365284085902672 14.88723943304747 0 0 0
717 239 1 0.5897 -2.839708455023679 12.424408325030663 16.914455438445177 0 0 0
783 261 1 0.5897 -8.654524975737521 14.292594339073583 16.923394833593 1 0 0
930 310 1 0.5897 -7.730030775393161 16.036805991554182 14.43301527294733 1 0 0
681 227 1 0.5897 -3.8659839186838196 13.689407923515962 15.649246005608473 0 0 0
830 277 1 0.5897 -7.400182103067083 13.154859110555227 15.208011768373563 1 0 0
185 62 1 0.5897 -1.4576559801454412 13.3948872269432 18.855482397192787 0 0 -1
715 239 2 -1.1794 -3.7685396389011565 12.620039199042587 17.037911403121992 0 0 0
716 239 1 0.5897 -3.816554922521525 13.017617748549128 17.907329272829674 0 0 0
874 292 2 -1.1794 -3.448673646834898 16.596949710134155 16.964307005601015 0 0 0
907 303 2 -1.1794 -5.867075505913734 15.803209005014613 17.855364669700013 0 0 0
875 292 1 0.5897 -3.2850960576599606 17.025484633990526 16.12422516507552 0 0 0
876 292 1 0.5897 -2.75848247249787 15.93761594613244 17.035735438586 0 0 0
736 246 2 -1.1794 -1.3470222212474354 14.858019728901525 17.733146555009167 0 0 0
909 303 1 0.5897 -5.084656413099823 16.03892432902192 17.35689990357314 0 0 0
781 261 2 -1.1794 -7.753985405757188 13.994137283265895 16.796162821403676 1 0 0
782 261 1 0.5897 -7.536695867187184 13.534445261277599 17.607092406391654 1 0 0
730 244 2 -1.1794 -1.3180437056676126 12.005486641529075 16.045096947984312 0 0 0
908 303 1 0.5897 -6.408591260107218 15.314782892588987 17.235291146398527 0 0 0
844 282 2 -1.1794 0.2789186089941511 16.240871644712033 14.719624614930703 0 0 0
251 84 1 0.5897 -5.051169599309309 14.533765665555897 18.80513783057681 0 0 -1
737 246 1 0.5897 -1.0168147548226543 15.547922935660276 18.30872207682702 0 0 0