LAMMPS data file via write_data, version 30 Jul 2021, timestep = 17500000

972 atoms
2 atom types
648 bonds
1 bond types
324 angles
1 angle types

0.010448012129931072 19.989552987871484 xlo xhi
0.016797509713502023 19.983203490284126 ylo yhi
0.2406426849714265 20.459355315037513 zlo zhi

Masses

1 1.008
2 15.999

Pair Coeffs # lj/cut/tip4p/long/omp

1 0 0
2 0.21084 3.1668

Bond Coeffs # harmonic/omp

1 450 0.9572

Angle Coeffs # harmonic/omp

1 55 104.52

Atoms # full

4 2 2 -1.1794 4.23399509999298 1.510022559684644 3.3873018165044253 0 0 0
5 2 1 0.5897 4.29494866730727 1.0382723866019616 2.5567142334212885 0 0 0
236 79 1 0.5897 0.9024996159441613 0.29763875535178913 2.172443100497639 0 1 0
10 4 2 -1.1794 1.1975962076662607 3.9358884635303815 4.1858842107335885 0 0 0
11 4 1 0.5897 1.20773759171643 3.1835591653812108 3.594174249838357 0 0 0
12 4 1 0.5897 2.1211262927339263 4.113265751109197 4.3644033671734785 0 0 0
16 6 2 -1.1794 3.8855380530353165 4.1129669739201615 3.895003870905048 0 0 0
18 6 1 0.5897 4.107970249424806 3.207152754682278 3.679835188932164 0 0 0
23 8 1 0.5897 2.6549836103319047 0.9039636581392105 4.300881413897975 0 0 0
31 11 2 -1.1794 0.979462339818688 2.096326685244261 2.2411054055969526 0 0 0
33 11 1 0.5897 1.623660208003237 2.1494616552481363 1.5351705556415272 0 0 0
17 6 1 0.5897 4.161420656834407 4.616324020285237 3.1290558583629315 0 0 0
3 1 1 0.5897 3.564930138337037 2.5889339936206532 0.2796834307080629 0 0 0
32 11 1 0.5897 0.15409244152853357 2.3580894856801526 1.8331030582309715 0 0 0
6 2 1 0.5897 4.966868964626561 1.178259297220087 3.9059827163499223 0 0 0
9 3 1 0.5897 4.962921485675563 4.920034650165517 5.08721302799626 0 0 0
22 8 2 -1.1794 1.9985263738074621 0.6911506525129545 4.9641637354284835 0 0 0
356 119 1 0.5897 1.4008572897067422 2.1771851640664748 8.35098169051524 0 0 0
330 110 1 0.5897 4.036454388778288 1.0700114366503428 9.517482537473228 0 0 0
325 109 2 -1.1794 2.5367547407357187 2.493737847334013 7.036279600997162 0 0 0
326 109 1 0.5897 2.3312655032342344 1.9360767608753806 6.285981205198294 0 0 0
327 109 1 0.5897 3.4647888983175976 2.3333974085097324 7.207412493199145 0 0 0
341 114 1 0.5897 3.8711627048769066 3.6743072359244278 9.967460173244351 0 0 0
355 119 2 -1.1794 0.820032109618997 2.039258505237569 9.099156876557153 0 0 0
27 9 1 0.5897 2.650871976130229 4.186241323152124 6.630595716172094 0 0 0
340 114 2 -1.1794 3.7012091194309633 4.584965476293978 10.208526080536721 0 0 0
561 187 1 0.5897 1.0050481004948235 0.13205062001870582 9.102014225496065 0 1 0
335 112 1 0.5897 0.9013781674304384 3.3393900081037104 10.238164740785342 0 0 0
328 110 2 -1.1794 4.050455134715233 1.8906739896251554 10.009982339476524 0 0 0
102 34 1 0.5897 0.18838667438348494 0.7943397822528098 5.310031995236086 1 0 0
683 228 1 0.5897 4.351150770116462 2.7800808570482247 14.250870311557199 0 0 0
329 110 1 0.5897 4.6753763884442785 1.7349077656309766 10.718048470873855 0 0 0
346 116 2 -1.1794 2.118664359677759 0.6189216467157233 11.562330242021318 0 0 0
347 116 1 0.5897 1.2095739700233685 0.808744187691949 11.330465032037662 0 0 0
348 116 1 0.5897 2.6359283967814866 1.0754732908787688 10.898870830385697 0 0 0
350 117 1 0.5897 2.4457437425388022 4.2707716447147375 13.33979624276501 0 0 0
649 217 2 -1.1794 2.587683262306791 2.4221448906342298 13.559095977193824 0 0 0
650 217 1 0.5897 2.4391606930278447 1.751412345977298 12.892566534928026 0 0 0
651 217 1 0.5897 1.9447079551388124 2.228937424599904 14.241310710648465 0 0 0
334 112 2 -1.1794 0.9852102460449518 4.173956624862136 10.699393647333956 0 0 0
336 112 1 0.5897 1.9245625048250468 4.357897382718038 10.693911452053323 0 0 0
332 111 1 0.5897 4.978221388533146 4.787533215463442 11.50865985510406 0 0 0
652 218 2 -1.1794 4.174861768817745 1.2448718616976433 16.88403745176874 0 0 0
653 218 1 0.5897 3.2872464616487878 1.0660369160908818 17.194486171246474 0 0 0
654 218 1 0.5897 4.303219566209115 0.6333809363796776 16.158955354919694 0 0 0
658 220 2 -1.1794 1.3535687498684221 4.079172982761356 17.425758730883757 0 0 0
679 227 2 -1.1794 0.7951034973039253 2.0905021371069656 15.590868074050624 0 0 0
664 222 2 -1.1794 4.145312007107757 3.960146524399474 17.376144847937837 0 0 0
665 222 1 0.5897 3.229745855639504 4.015259963744699 17.649856555421948 0 0 0
666 222 1 0.5897 4.2792965460855354 3.0347052532207712 17.171435453564147 0 0 0
670 224 2 -1.1794 1.8176319389629088 0.8868154337921639 18.268991882137975 0 0 0
671 224 1 0.5897 2.074795475189421 1.50120928550755 18.956435415310082 0 0 0
672 224 1 0.5897 0.861423317294905 0.8686517176427011 18.308758636805322 0 0 0
681 227 1 0.5897 0.9615492174158516 2.6567207952977037 16.344425721148916 0 0 0
659 220 1 0.5897 0.6712190961670705 4.259407537806289 18.07234375675695 0 0 0
2 1 1 0.5897 2.4471888890876823 3.5441902842781814 20.137685705036585 0 0 -1
884 295 1 0.5897 0.5782988815048098 0.30990639113656304 15.4194796352354 0 1 0
1 1 2 -1.1794 2.6360154899143873 2.6149770932322016 20.26890183043097 0 0 -1
660 220 1 0.5897 1.109712388443123 4.607724193851063 16.665952900191595 0 0 0
662 221 1 0.5897 4.318632890467893 4.927772935436516 15.858724279821852 0 0 0
110 37 1 0.5897 1.9192678141266093 9.298811719340788 0.8240045093853484 0 0 0
141 47 1 0.5897 1.1694962747977231 7.7207916560875525 2.391187967391122 0 0 0
139 47 2 -1.1794 0.8772589903533781 8.59227597442317 2.1239701451843187 0 0 0
114 38 1 0.5897 3.630907408229245 8.054738048360493 3.970687824348494 0 0 0
15 5 1 0.5897 4.532143082228241 6.717741336314536 2.2732889981796287 0 0 0
14 5 1 0.5897 4.135056047945218 5.731264488370069 1.1957981076661008 0 0 0
21 7 1 0.5897 0.19071368636593372 5.6899570847335035 2.0998835077590883 0 0 0
19 7 2 -1.1794 1.1349293737893034 5.729710120439881 2.251899922225063 0 0 0
140 47 1 0.5897 1.1865026781378278 9.172855627667056 2.8192894295928297 0 0 0
112 38 2 -1.1794 4.400799944305018 8.314291243792619 3.4646296602692406 0 0 0
674 225 1 0.5897 2.138654338266519 5.479566831989755 0.7092731685304169 0 0 1
111 37 1 0.5897 3.346313326780686 9.261590595196017 0.3199853510249157 0 0 0
13 5 2 -1.1794 4.7254724945351825 5.841060380771254 1.9411191614248335 0 0 0
132 44 1 0.5897 1.286214023700458 7.476800468349798 5.046010324347864 0 0 0
20 7 1 0.5897 1.2850652204609965 5.134233323744841 2.9860902182760314 0 0 0
130 44 2 -1.1794 2.2388798843675675 7.408513653176806 5.109296633351783 0 0 0
131 44 1 0.5897 2.394002648747312 6.529971705772753 5.456240285483648 0 0 0
464 155 1 0.5897 1.508428711226737 8.981438736903732 8.542119406570887 0 0 0
342 114 1 0.5897 3.949723740220871 5.088816097014347 9.433585138975404 0 0 0
437 146 1 0.5897 4.163684445335463 7.644233167152598 9.577697647303529 0 0 0
344 115 1 0.5897 0.8374267257882434 5.490624922295998 9.500008366797694 0 0 0
435 145 1 0.5897 2.6638560065996395 8.71600044990448 6.59983764267705 0 0 0
433 145 2 -1.1794 2.8846081696565165 9.306972074662262 7.319700423431609 0 0 0
463 155 2 -1.1794 0.765125790341044 8.640482474015347 9.039573809939016 0 0 0
345 115 1 0.5897 0.8185702381929331 6.836157317190196 8.806341019979413 0 0 0
337 113 2 -1.1794 4.3315601621553315 6.3533866679412645 8.315744205567906 0 0 0
343 115 2 -1.1794 0.7985381016164323 5.89489951469555 8.633305429876499 0 0 0
468 156 1 0.5897 4.777736096181184 9.234607904829712 7.785373544727456 0 0 0
339 113 1 0.5897 3.8741878276627357 6.024645062878917 7.541872544951912 0 0 0
26 9 1 0.5897 2.0303264695201624 5.372842197005246 7.336886736590924 0 0 0
25 9 2 -1.1794 2.6186072534019273 5.142853691783913 6.617730926986386 0 0 0
465 155 1 0.5897 0.011636218060389152 8.76852737665602 8.463352889904527 0 0 0
443 148 1 0.5897 1.022090294947611 9.850179890006705 10.243105468554695 0 0 0
757 253 2 -1.1794 2.71597586368043 9.191949144915943 14.108266193903136 0 0 0
668 223 1 0.5897 1.2698060639719821 5.528071590570465 14.695692813917326 0 0 0
792 264 1 0.5897 4.718047344791903 8.972231514952492 14.237128414105372 0 0 0
759 253 1 0.5897 2.4918078797499614 8.602040480146895 13.388592783601593 0 0 0
349 117 2 -1.1794 2.465387582095518 5.218458335017182 13.473273575145173 0 0 0
454 152 2 -1.1794 2.020472261119148 7.5077200966192725 11.994233649914605 0 0 0
455 152 1 0.5897 2.7611495637296715 7.655054262503466 11.406122467436695 0 0 0
456 152 1 0.5897 2.2489518716382366 6.710898250546303 12.472904941137793 0 0 0
351 117 1 0.5897 3.262496791409393 5.372944515204022 13.980165830655553 0 0 0
533 178 1 0.5897 0.20372341002996416 7.4843401504998255 11.939837885041987 1 0 0
789 263 1 0.5897 1.4866878645829127 8.768867047041232 15.242860270934278 0 0 0
661 221 2 -1.1794 4.455319857248467 5.6844228365171565 15.28861035802155 0 0 0
667 223 2 -1.1794 0.6236710645158922 5.730801618325919 15.372138154578266 0 0 0
436 146 2 -1.1794 4.290396476205654 8.002920117420356 10.4559763494962 0 0 0
438 146 1 0.5897 4.158855334495256 8.945319245471877 10.351689153250339 0 0 0
858 286 1 0.5897 0.4680045569594041 7.4115141919925165 18.478091926493082 1 0 0
788 263 1 0.5897 0.9739584171835953 9.110117240042024 16.62570480865376 0 0 0
787 263 2 -1.1794 0.8454419595429471 8.499052096611601 15.90026410329901 0 0 0
779 260 1 0.5897 2.335788576121003 8.16542689052792 19.156715898686734 0 0 0
780 260 1 0.5897 2.8361313392014402 7.689899638487462 17.80943673235731 0 0 0
675 225 1 0.5897 2.514107083703873 6.043616577382129 19.574287436457073 0 0 0
760 254 2 -1.1794 4.31496923015656 7.919633054851856 16.88616842490693 0 0 0
761 254 1 0.5897 4.29329404206845 8.865401079564863 16.74002875028943 0 0 0
778 260 2 -1.1794 2.192199613552028 7.493862294875396 18.489943406985034 0 0 0
669 223 1 0.5897 0.833822178315001 6.624001174826935 15.644757279549214 0 0 0
762 254 1 0.5897 4.762523929518661 7.816771093379073 17.72595136835939 0 0 0
663 221 1 0.5897 4.343417368061079 6.441531978863845 15.863494432019397 0 0 0
673 225 2 -1.1794 2.7916311507970297 5.405996086438881 20.23201875061891 0 0 0
109 37 2 -1.1794 2.4568022908572087 9.498641217111254 20.27638191881978 0 0 -1
222 74 1 0.5897 4.160552760707178 14.058343999941762 2.7560918888915076 0 0 0
118 40 2 -1.1794 1.4055191134089264 10.545080927264603 3.8398853085688103 0 0 0
119 40 1 0.5897 2.2812144072382563 10.850193830334991 4.077160650553432 0 0 0
120 40 1 0.5897 1.0856786924966213 11.196042464011173 3.215256515431285 0 0 0
238 80 2 -1.1794 1.7963845983029332 14.16669091868006 5.256049441772337 0 0 0
220 74 2 -1.1794 3.8106186280250265 14.566899871902981 3.487586272995684 0 0 0
124 42 2 -1.1794 4.166189838632835 11.007193906215887 3.8980921480432213 0 0 0
240 80 1 0.5897 2.3797913896601504 14.229699668664743 4.499870475568752 0 0 0
127 43 2 -1.1794 0.8710560578127798 12.653910412227656 1.9306763440133627 0 0 0
129 43 1 0.5897 0.9471172077523741 13.544061359830385 2.2742989131595306 0 0 0
123 41 1 0.5897 4.026153305136975 12.534419780746045 1.2947326722290307 0 0 0
122 41 1 0.5897 4.656422861227475 12.002975205191806 2.5643739542385675 0 0 0
783 261 1 0.5897 2.1071252067174746 12.516664016665196 0.4861419942861931 0 0 1
121 41 2 -1.1794 4.826036079179821 12.578484390878305 1.8186008698852667 0 0 0
125 42 1 0.5897 4.6356236411804455 11.235127158435429 4.7004695201712305 0 0 0
317 106 1 0.5897 0.12054635982919137 13.741428076102196 4.964374268429978 1 0 0
126 42 1 0.5897 4.314669822690084 10.06752606391938 3.791861437027628 0 0 0
188 63 1 0.5897 0.16899475307673667 10.71261972194786 5.193588564577188 1 0 0
133 45 2 -1.1794 2.680307857667754 12.047108733255888 6.81933957459819 0 0 0
134 45 1 0.5897 2.050487854835499 12.20501167842172 7.52257864507912 0 0 0
135 45 1 0.5897 3.535504181404527 12.174992892880855 7.229810542504719 0 0 0
445 149 2 -1.1794 4.850379006118508 12.354333677262218 8.576977709583732 0 0 0
573 191 1 0.5897 0.6376631342573628 14.695486956125556 9.283068174935506 0 0 0
446 149 1 0.5897 4.693052393847805 13.193497797550927 9.009750378772521 0 0 0
450 150 1 0.5897 4.313652408462192 11.025098092896405 9.780069670274978 0 0 0
451 151 2 -1.1794 0.9394387423163875 12.7720896467945 8.947007874533412 0 0 0
453 151 1 0.5897 0.9882345494508236 12.08929198615667 9.616043843195158 0 0 0
239 80 1 0.5897 2.1741975523341606 13.470315648591198 5.793214552514713 0 0 0
434 145 1 0.5897 2.847291855514844 10.181546723342276 6.932404802629202 0 0 0
452 151 1 0.5897 0.031176390402329446 12.748430013027127 8.645800975482194 0 0 0
544 182 2 -1.1794 4.184946926164867 14.444805562476084 10.150740013891314 0 0 0
758 253 1 0.5897 2.7520186792797623 10.05945605678035 13.705273332645318 0 0 0
642 214 1 0.5897 0.1491706496841129 14.084967079149768 11.90507425196993 1 0 0
457 153 2 -1.1794 2.6417068189189696 11.767932091293948 13.345902446030344 0 0 0
458 153 1 0.5897 1.9649359058584734 12.05672249416113 13.958082922263275 0 0 0
459 153 1 0.5897 3.4663989060137164 11.95000638290735 13.796393092198816 0 0 0
442 148 2 -1.1794 1.1873795403698846 10.6636028934446 10.719843593700274 0 0 0
769 257 2 -1.1794 4.737232915234918 12.480542015219967 15.097934920769598 0 0 0
562 188 2 -1.1794 1.9431984999219178 14.053953121677829 11.796044297266208 0 0 0
563 188 1 0.5897 2.158915352543294 13.27303473199555 12.30581858071838 0 0 0
564 188 1 0.5897 2.1920271180989155 14.785628755922561 12.360794555082581 0 0 0
449 150 1 0.5897 4.608252983527421 10.941636137583297 11.262561040719374 0 0 0
545 182 1 0.5897 3.364064153889972 14.182142968728485 10.567126138433771 0 0 0
444 148 1 0.5897 2.1393953347427503 10.69774880311884 10.813357439240098 0 0 0
775 259 2 -1.1794 0.8118805788416007 12.673043194586363 15.319774382322585 0 0 0
512 171 1 0.5897 0.08028860137302374 11.299104561464636 12.00950391880456 1 0 0
448 150 2 -1.1794 4.005387928528821 10.621691049283266 10.591473025129712 0 0 0
546 182 1 0.5897 4.826936436088728 14.438581096834424 10.860645421125511 0 0 0
766 256 2 -1.1794 1.4006534988571409 10.960987051829079 17.28751547192954 0 0 0
870 290 1 0.5897 4.83568260630128 14.43199349042158 17.62276885536235 0 0 0
768 256 1 0.5897 1.1568972149622507 11.5728341538229 16.592955178008037 0 0 0
772 258 2 -1.1794 4.1782853963009225 10.712306603372122 17.132650572278838 0 0 0
773 258 1 0.5897 3.250875840466105 10.801806155439847 17.352021044082104 0 0 0
774 258 1 0.5897 4.3163280138647835 11.332073254870735 16.416400914221292 0 0 0
965 322 1 0.5897 0.189557234607758 14.335283753806543 18.566091669314705 1 0 0
767 256 1 0.5897 0.7985728188897488 11.159789918358772 18.00453964723725 0 0 0
869 290 1 0.5897 3.3378593943720314 14.472961833092038 17.40650412986962 0 0 0
886 296 2 -1.1794 1.976588121408947 14.330085002933124 18.53420567630085 0 0 0
888 296 1 0.5897 2.1852968033255005 13.495922588413135 18.954775845207934 0 0 0
868 290 2 -1.1794 4.171852873036248 14.531173431484394 16.94037692014799 0 0 0
771 257 1 0.5897 4.6358271020986574 13.264022464652097 15.63841357157198 0 0 0
777 259 1 0.5897 0.9551615775314074 13.529107933487037 15.72338022053686 0 0 0
782 261 1 0.5897 2.7508429078470944 11.363706177148766 19.96442378831509 0 0 0
781 261 2 -1.1794 2.8146740104412977 12.30994894342253 20.09427915731933 0 0 0
890 297 1 0.5897 1.8946416139812416 18.90256017327027 0.40595391991783414 0 0 1
248 83 1 0.5897 0.8329600943495694 16.04607236765091 3.0044788417712556 0 0 0
249 83 1 0.5897 1.3634120353553032 15.533691373504823 1.682465919296954 0 0 0
235 79 2 -1.1794 0.8606691620387926 19.3668493878293 1.8414299099076537 0 0 0
226 76 2 -1.1794 1.390183593323826 17.496998316127584 3.8749970523832062 0 0 0
227 76 1 0.5897 1.299456311385302 18.24410115385546 3.283529920440018 0 0 0
228 76 1 0.5897 0.6815976254017013 17.605685115080394 4.50924309672285 0 0 0
221 74 1 0.5897 3.956682659561581 15.47920487987559 3.2373223886861173 0 0 0
230 77 1 0.5897 3.9824556560856816 19.098278149632907 0.7911606147872787 0 0 0
232 78 2 -1.1794 4.149447732498802 17.292348305805277 3.42605084710635 0 0 0
233 78 1 0.5897 4.356839412064462 17.959762762504884 2.7720260061695754 0 0 0
234 78 1 0.5897 3.254997226949091 17.49481748557932 3.7002268924570703 0 0 0
247 83 2 -1.1794 0.7604347754865256 15.313646865168206 2.3925082726413636 0 0 0
219 73 1 0.5897 3.382796913276467 15.902387643362363 0.6743621249458085 0 0 0
229 77 2 -1.1794 4.411227703616053 19.39419960207669 1.5941003183713596 0 0 0
217 73 2 -1.1794 2.5047341309172673 16.007983201463226 0.30819371779104365 0 0 0
543 181 1 0.5897 2.0936660921307673 15.319025227562355 6.535022947908772 0 0 0
576 192 1 0.5897 4.221743244470178 15.922153866149985 7.568364518683921 0 0 0
559 187 2 -1.1794 0.9010232415334841 19.21906797796785 8.738550362861629 0 0 0
241 81 2 -1.1794 2.729346200337143 18.568811229949663 6.805509086886538 0 0 0
242 81 1 0.5897 2.6140675606792887 17.623970607479308 6.704019543175905 0 0 0
243 81 1 0.5897 2.0036978412097524 18.840100599140587 7.367668750084881 0 0 0
541 181 2 -1.1794 2.3996004072405897 15.917090875173646 7.216851866366552 0 0 0
542 181 1 0.5897 1.7117258316120623 15.894580523037435 7.882046819617804 0 0 0
572 191 1 0.5897 0.6956944762350659 16.114514479886807 9.807480459669947 0 0 0
558 186 1 0.5897 4.230867595171356 17.79375031822656 9.861806794177783 0 0 0
555 185 1 0.5897 3.8906289492285735 19.106733597861556 7.9911177856576 0 0 0
571 191 2 -1.1794 0.35306172702372435 15.587804666520709 9.085436510198145 0 0 0
553 185 2 -1.1794 4.2723191773343645 19.2747856566033 8.852619801143303 0 0 0
551 184 1 0.5897 1.5357313417445093 18.06768024267915 10.013818340958421 0 0 0
24 8 1 0.5897 2.3782188864610028 19.926520731142435 5.451672103802576 0 -1 0
557 186 1 0.5897 4.198275403649612 16.304915874749792 10.134546560360382 0 0 0
885 295 1 0.5897 1.1150819521623234 19.0688136017765 14.680738438807255 0 0 0
866 289 1 0.5897 3.4155723183243505 15.886683299530725 13.906215578434765 0 0 0
879 293 1 0.5897 3.8324156820598994 19.07637516231213 14.68562011230358 0 0 0
867 289 1 0.5897 2.010369687944835 15.657364436892715 14.420665382786229 0 0 0
550 184 2 -1.1794 1.5818290566425424 17.436439316086826 10.731868869093873 0 0 0
552 184 1 0.5897 2.5186053428403703 17.326458820000955 10.894943567054252 0 0 0
565 189 2 -1.1794 2.538974009507071 18.87205568913107 13.610358727738186 0 0 0
566 189 1 0.5897 2.613752619906903 17.94666057253271 13.377231552037607 0 0 0
567 189 1 0.5897 2.4819322558166346 19.327368477754977 12.770373535508895 0 0 0
865 289 2 -1.1794 2.4968691694931446 16.061538855648312 13.702247209003868 0 0 0
556 186 2 -1.1794 4.299922210986028 17.151982637998902 10.568599365176357 0 0 0
883 295 2 -1.1794 0.49902275451543415 19.32377867126067 15.367475695196578 0 0 0
621 207 1 0.5897 0.10718395716871258 17.951606187375656 11.705049600007612 1 0 0
896 299 1 0.5897 0.19182433845267027 15.664633091184951 15.363924553929946 0 0 0
877 293 2 -1.1794 4.541393181553297 19.100322982457453 15.328229844603612 0 0 0
881 294 1 0.5897 3.126483670227369 17.465999540866274 17.407077685361596 0 0 0
897 299 1 0.5897 1.2660179381080783 15.963990530901299 16.3877614093234 0 0 0
891 297 1 0.5897 2.2461251385658936 19.326489826493315 19.214581998937877 0 0 0
882 294 1 0.5897 3.962761798288795 16.290262112020784 16.94854035464262 0 0 0
880 294 2 -1.1794 4.032153830887526 17.191701670187655 17.2629729381962 0 0 0
874 292 2 -1.1794 1.3100473749828627 17.638559695209025 17.35794014896429 0 0 0
875 292 1 0.5897 0.6002173082032973 17.726443318846613 17.994007914747154 0 0 0
876 292 1 0.5897 1.204343026973997 18.390423990485687 16.775055453876735 0 0 0
878 293 1 0.5897 4.356857724734521 18.368114196559763 15.916483284363977 0 0 0
889 297 2 -1.1794 2.50121418233618 18.717638924284373 19.907706342758924 0 0 0
895 299 2 -1.1794 0.9066380059023247 15.256506192646142 15.852466356614165 0 0 0
218 73 1 0.5897 2.4415051584036958 16.940471097517733 20.320093496018156 0 0 -1
887 296 1 0.5897 2.206395669348019 14.991914157848795 19.186414660988216 0 0 0
69 23 1 0.5897 6.455924446046175 2.210173296815646 1.8840369508575316 0 0 0
58 20 2 -1.1794 8.763531483736772 0.7261931578250339 5.165696750938459 0 0 0
68 23 1 0.5897 7.9685264095877555 2.2654405448265074 1.853801344628434 0 0 0
67 23 2 -1.1794 7.227887670675401 2.123425476937292 2.4432687712715273 0 0 0
46 16 2 -1.1794 7.925931632501463 4.3619569890745495 4.07975111360663 0 0 0
47 16 1 0.5897 7.587830877362856 3.5609648154467948 3.679294368981411 0 0 0
48 16 1 0.5897 7.261187214479194 4.607646727101804 4.7231228142120125 0 0 0
53 18 1 0.5897 9.691704132539758 4.04735782554771 4.156363265697694 0 0 0
37 13 2 -1.1794 9.15363800786882 2.7992139390749475 0.48302003258843723 0 0 0
34 12 2 -1.1794 5.3535108815839845 2.405373414065096 0.5442498577208652 0 0 0
273 91 1 0.5897 7.236306635296642 0.2815865945455271 2.329150085068904 0 1 0
29 10 1 0.5897 7.080859299359001 0.638019638762898 5.285048074993802 0 0 0
28 10 2 -1.1794 6.124784326025597 0.5916050780094495 5.2818858670249895 0 0 0
8 3 1 0.5897 5.684800111901071 4.387798976257645 6.306762232664391 0 0 0
391 131 2 -1.1794 7.334757612409621 1.856541679393027 8.904649374339593 0 0 0
393 131 1 0.5897 7.229616419010887 0.9070589099781228 8.965806778620067 0 0 0
377 126 1 0.5897 9.438754759875582 4.103054479930408 10.075039755983623 0 0 0
361 121 2 -1.1794 9.399651431697658 2.543192187799175 6.986403340361152 0 0 0
392 131 1 0.5897 7.919918967817566 1.9856161898519415 8.158277141511782 0 0 0
362 121 1 0.5897 9.300929448874196 3.4679049533232633 6.759565142854718 0 0 0
358 120 2 -1.1794 5.367958481943124 2.681692259063258 7.0705865299538795 0 0 0
359 120 1 0.5897 5.883154263099129 2.3653731841458194 7.812637347661435 0 0 0
360 120 1 0.5897 5.5512629531616815 2.058017839794001 6.3680274381652575 0 0 0
371 124 1 0.5897 7.532107375194691 3.221456788780348 10.05218933319809 0 0 0
59 20 1 0.5897 8.978171685368558 1.4673157000736117 5.732160667935169 0 0 0
352 118 2 -1.1794 5.648078957056331 1.0311641370513638 12.184155775148636 0 0 0
353 118 1 0.5897 6.571518656962128 1.100518150574311 11.941913640283131 0 0 0
370 124 2 -1.1794 7.755027192337797 4.036259912654972 10.502366161042477 0 0 0
386 129 1 0.5897 8.692539098706972 4.652954052947101 13.604028345235704 0 0 0
372 124 1 0.5897 7.081204950054413 4.130517520144639 11.175588112087736 0 0 0
685 229 2 -1.1794 8.712819640590633 2.631258572869856 13.650476411950313 0 0 0
382 128 2 -1.1794 8.447886915834125 0.747683555766612 11.705073083283429 0 0 0
383 128 1 0.5897 8.811178469332278 1.3339960037915073 12.368738193366319 0 0 0
384 128 1 0.5897 8.944418363649714 0.9467939543139984 10.91138079646261 0 0 0
354 118 1 0.5897 5.578559414291189 1.5164623495472964 13.006219689298886 0 0 0
686 229 1 0.5897 8.257305262989837 2.3074494820427374 14.427509636518536 0 0 0
687 229 1 0.5897 9.633955514991838 2.664326251474652 13.908554984833186 0 0 0
684 228 1 0.5897 5.424131764356878 3.6246960079597486 13.597244760048715 0 0 0
682 228 2 -1.1794 5.296784899876771 2.9281736183445553 14.241325326610852 0 0 0
331 111 2 -1.1794 5.720630101965616 4.743806623959834 12.111229260486112 0 0 0
717 239 1 0.5897 6.475651455020267 2.375987923146375 15.35542418911331 0 0 0
657 219 1 0.5897 6.688483326514826 4.562000190070621 18.867225831793935 0 0 0
38 13 1 0.5897 8.992149384090336 2.160384250736297 20.00746548977637 0 0 -1
715 239 2 -1.1794 7.233203455357892 2.1002421630945607 15.871450742776164 0 0 0
35 12 1 0.5897 5.598709226699989 1.7568178073490262 20.103071698417235 0 0 -1
676 226 2 -1.1794 6.019814792748136 0.4737204092163178 18.820930686211565 0 0 0
696 232 1 0.5897 7.670804849243574 4.77211269787422 17.10707254827303 0 0 0
694 232 2 -1.1794 7.941964021810986 4.0587392985845945 17.684800910838618 0 0 0
695 232 1 0.5897 7.713480134012513 3.26198621335338 17.20602426670313 0 0 0
716 239 1 0.5897 7.173928798600042 1.1450938398774926 15.893278682570187 0 0 0
706 236 2 -1.1794 8.707502241708905 0.9236675161562351 18.705807853185288 0 0 0
708 236 1 0.5897 7.755137904074511 0.9567587907691453 18.615523213681474 0 0 0
655 219 2 -1.1794 5.916912210684339 4.627209522213244 19.42990678890322 0 0 0
677 226 1 0.5897 5.379464559031103 0.6731845897614097 18.13805336623875 0 0 0
710 237 1 0.5897 8.945190321652554 4.465543241686393 20.204162996509762 0 0 0
702 234 1 0.5897 9.67447231543497 4.1472392805332845 17.46464247186766 0 0 0
656 219 1 0.5897 5.175968154070048 4.5049785494819705 18.83641963272347 0 0 0
707 236 1 0.5897 8.870785171655823 0.14897660410612468 19.243798205691945 0 0 0
689 230 1 0.5897 9.976328531228148 1.26549529427691 17.413624809058525 0 0 0
36 12 1 0.5897 5.55460088726897 3.2486618702949452 20.357134520624893 0 0 -1
143 48 1 0.5897 5.6153455626481135 9.120120931578793 1.3584915666019957 0 0 0
176 59 1 0.5897 7.380140625268064 7.959671070314664 2.416535588347714 0 0 0
142 48 2 -1.1794 5.060871926429226 9.143590119031654 0.5786533854143836 0 0 0
711 237 1 0.5897 8.604837859815364 5.776009333559456 0.6628061966178497 0 0 1
175 59 2 -1.1794 7.260102549395993 8.907273864060796 2.4791433342045286 0 0 0
55 19 2 -1.1794 7.535884611874197 6.22800231555068 2.0173762357240888 0 0 0
56 19 1 0.5897 6.628484522772151 6.008679242256255 1.805817540860718 0 0 0
177 59 1 0.5897 7.874449328096137 9.269700797823619 1.840868609776487 0 0 0
57 19 1 0.5897 7.738848974087931 5.694417390059606 2.7856579850377976 0 0 0
166 56 2 -1.1794 8.860814282816152 7.37893518994713 5.058826107585795 0 0 0
138 46 1 0.5897 7.152195914186489 7.728141078253271 5.242104023405157 0 0 0
113 38 1 0.5897 5.13571561552953 8.190844333179212 4.065331015014191 0 0 0
145 49 2 -1.1794 9.031135701635186 9.503990464563925 0.4978781658274461 0 0 0
147 49 1 0.5897 9.955564928034777 9.26816642414714 0.5756935961829213 0 0 0
155 52 1 0.5897 7.823810805224951 9.851332949383284 3.824366022682527 0 0 0
167 56 1 0.5897 9.019300536457374 6.52400619817086 5.45913240010161 0 0 0
501 167 1 0.5897 6.685926932652594 8.65630652274638 8.77875285781745 0 0 0
380 127 1 0.5897 7.258319084464729 6.708127827535974 8.767096854386375 0 0 0
467 156 1 0.5897 5.829014164640368 8.733425523495436 6.818216149302803 0 0 0
499 167 2 -1.1794 7.3233095589315305 8.310392394109439 9.403470046582832 0 0 0
61 21 2 -1.1794 9.163719034466563 5.191673361746777 6.6204257115844305 0 0 0
338 113 1 0.5897 5.215972528123055 5.994677747086464 8.24226932723219 0 0 0
469 157 2 -1.1794 9.188338339925497 8.98461784994938 7.342213094866825 0 0 0
500 167 1 0.5897 7.431055822769858 9.009563800571671 10.048253224657964 0 0 0
470 157 1 0.5897 8.807442665965343 8.713391789656308 8.177364212783445 0 0 0
466 156 2 -1.1794 5.707803549103472 9.310467090098397 7.572205130183669 0 0 0
62 21 1 0.5897 8.468358318449615 5.412675606215396 7.239939847621758 0 0 0
379 127 2 -1.1794 7.135439143041385 5.830900689359927 8.404256078807105 0 0 0
137 46 1 0.5897 5.943482651231915 6.875625571682941 5.56489964102694 0 0 0
381 127 1 0.5897 7.238781669050412 5.244488642856921 9.153661003303418 0 0 0
168 56 1 0.5897 9.09767376051999 8.009905068193207 5.7385083480688435 0 0 0
136 46 2 -1.1794 6.207447175420838 7.778494601951126 5.387545721036916 0 0 0
63 21 1 0.5897 9.971174205439999 5.454785327302608 7.062014129952385 0 0 0
7 3 2 -1.1794 5.717163375588816 5.0859236784291895 5.652710746097666 0 0 0
385 129 2 -1.1794 8.775996730262783 5.5654064003205415 13.881046699713014 0 0 0
794 265 1 0.5897 9.312506102809634 8.840931741782606 13.309737020198991 0 0 0
790 264 2 -1.1794 5.611992369106607 9.107089871017783 13.922637956613622 0 0 0
791 264 1 0.5897 6.1487912184091185 9.100395670864886 14.715055454748839 0 0 0
333 111 1 0.5897 5.939968967744358 5.658541809443109 12.288542534037264 0 0 0
793 265 2 -1.1794 9.451668540412706 9.46014918784266 14.026243027593567 0 0 0
491 164 1 0.5897 9.567768465139727 7.81215985641816 11.093868656987194 0 0 0
387 129 1 0.5897 8.859547527197904 6.0575557703374106 13.06437709789525 0 0 0
460 154 2 -1.1794 6.414862450486569 7.280744764727545 12.123950614905334 0 0 0
461 154 1 0.5897 6.186522932041541 7.904031118466359 12.813533711405958 0 0 0
492 164 1 0.5897 8.209825631715132 7.693753189277137 11.752479313024832 0 0 0
490 164 2 -1.1794 9.14618930972977 7.724460753466659 11.948673982693888 0 0 0
705 235 1 0.5897 7.746438335734207 5.812962480122572 15.168480723708738 0 0 0
462 154 1 0.5897 5.883820162412975 7.547789618625931 11.373734786524736 0 0 0
824 275 1 0.5897 8.207667186473303 8.945684042396907 15.221461000813656 0 0 0
814 272 2 -1.1794 8.71989898762994 7.7358818500682 18.718633956283245 0 0 0
786 262 1 0.5897 6.823112982670835 7.659780133057076 18.887202782684405 0 0 0
815 272 1 0.5897 8.927260787656571 6.864095307292606 19.05519183421307 0 0 0
825 275 1 0.5897 7.606168585443363 7.914598513084947 16.15253189728476 0 0 0
785 262 1 0.5897 5.900991506456875 6.508585090079238 19.228438297104912 0 0 0
823 275 2 -1.1794 7.520523536963144 8.827359781737377 15.877206145752915 0 0 0
816 272 1 0.5897 8.923674020328237 8.32756054355329 19.442908264889493 0 0 0
797 266 1 0.5897 9.977397020944462 7.771070955800347 17.168478254537007 0 0 0
784 262 2 -1.1794 5.905660440641137 7.45152229396252 19.06368498079171 0 0 0
144 48 1 0.5897 5.467987680638181 8.521311973382511 20.19470793186469 0 0 -1
709 237 2 -1.1794 9.047433755238652 5.413063878086935 20.114363235265603 0 0 0
703 235 2 -1.1794 7.169851987919661 5.924204502842043 15.92433614646162 0 0 0
704 235 1 0.5897 6.290681667473286 5.764435828998205 15.581172504146522 0 0 0
154 52 2 -1.1794 8.185722591414367 10.557896351975415 4.359173220426758 0 0 0
819 273 1 0.5897 8.5079099346917 12.457464436493378 0.8453668765497181 0 0 1
156 52 1 0.5897 9.103859217887042 10.6132804425388 4.094262137023042 0 0 0
163 55 2 -1.1794 7.49942814891982 12.503773637363855 2.41196008003251 0 0 0
164 55 1 0.5897 6.545881253430096 12.50490956092471 2.3283477498747884 0 0 0
165 55 1 0.5897 7.6789981839488135 11.865934549448166 3.1026872027041876 0 0 0
285 95 1 0.5897 7.815099540613132 14.510187000847797 2.470115368804793 0 0 0
276 92 1 0.5897 9.08752047707414 13.972647495950973 4.547486265092545 0 0 0
275 92 1 0.5897 7.6734883596608565 14.075270240977835 5.0783975776119155 0 0 0
246 82 1 0.5897 5.132905939014542 14.26679743924484 4.759150688049992 0 0 0