LAMMPS data file via write_data, version 30 Jul 2021, timestep = 28250000

864 atoms
2 atom types
576 bonds
1 bond types
288 angles
1 angle types

0.16014460447957823 18.04742779552476 xlo xhi
0.035299418893787404 23.593878381123012 ylo yhi
0.2162137081791684 21.996982091815937 zlo zhi

Masses

1 1.00794
2 15.9994

Atoms # full

707 1 1 0.5897 3.158892164524035 1.8501430701981258 3.877208126094855 0 0 0
706 1 2 -1.1794 3.050506936041124 1.8795410352811885 2.9266576466728336 0 0 0
30 1 1 0.5897 5.457536676468713 3.8354718084110724 2.443303511913386 0 0 0
708 1 1 0.5897 2.237253221164723 2.366238831025996 2.792802064291008 0 0 0
29 1 1 0.5897 4.594958541110919 2.592981226246608 2.381547382381354 0 0 0
28 1 2 -1.1794 5.454142739697682 2.9312706798113273 2.1294565211178007 0 0 0
3 1 1 0.5897 0.6600673790052943 4.021358299695926 2.701661533696904 0 0 0
137 1 1 0.5897 5.3458301862749185 5.759438153319591 3.8226363340048155 0 0 0
495 1 1 0.5897 8.380804817978191 1.9913265008743588 2.7898724307302447 0 0 0
494 1 1 0.5897 6.871890430716773 1.942755927869626 2.6774187885900433 0 0 0
493 1 2 -1.1794 7.615226749982417 1.498565818615056 3.085235016622492 0 0 0
1 1 2 -1.1794 0.7028502383698805 3.1250381799916616 2.3687020096827753 0 0 0
846 1 1 0.5897 7.682338633294537 1.8121338889146432 4.905512337601214 0 0 0
136 1 2 -1.1794 5.412450318953451 5.600598526268098 2.8811120122659766 0 0 0
20 1 1 0.5897 0.6122023621493824 3.0736148701645125 0.4453459533709533 0 0 0
188 1 1 0.5897 2.960347191944294 0.12302791069770566 2.5445475435090597 0 1 0
668 1 1 0.5897 5.34076181001719 2.9866423546577248 0.23132444338723288 0 0 0
83 1 1 0.5897 4.592486369352093 2.917151765902049 6.0194831357454195 0 0 0
35 1 1 0.5897 0.5980972343396145 3.884629946390017 9.790038902767275 0 0 0
82 1 2 -1.1794 5.307768548737577 3.421802966288268 6.406590888219672 0 0 0
183 1 1 0.5897 0.6785616383767642 4.83098223850947 6.206788867094687 0 0 0
674 1 1 0.5897 3.7152578115150074 2.356361050577051 9.95214734675293 0 0 0
356 1 1 0.5897 7.594704870442153 1.0991128929524887 9.907156048506039 0 0 0
34 1 2 -1.1794 0.6503466565014888 2.962107848638951 9.540444906043481 0 0 0
686 1 1 0.5897 5.346780931352051 5.14002519736444 5.88456136298984 0 0 0
784 1 2 -1.1794 0.8876588312795037 3.1762373858296726 6.8187084011081485 0 0 0
673 1 2 -1.1794 3.0048217760115694 1.9274164517479644 10.429062715545024 0 0 0
489 1 1 0.5897 2.993226619256796 0.9324984526380979 6.072125805281086 0 0 0
274 1 2 -1.1794 5.214241867547808 3.186955541244109 9.32097045720475 0 0 0
678 1 1 0.5897 5.126831786617256 4.863577327625045 9.884574160488443 0 0 0
488 1 1 0.5897 2.246907577036413 2.2495262853780296 6.068378561141177 0 0 0
36 1 1 0.5897 1.4986604595440958 2.6707765939068957 9.874620517860054 0 0 0
355 1 2 -1.1794 7.574933548778054 2.009509314808094 10.201884105028173 0 0 0
844 1 2 -1.1794 7.582392312947022 1.8731330718363899 5.855477233613392 0 0 0
84 1 1 0.5897 6.102305067578299 2.9756925008224933 6.113553706960575 0 0 0
276 1 1 0.5897 6.063365924803918 2.8265746565684493 9.576499707049718 0 0 0
675 1 1 0.5897 2.956846381330195 1.0499035179930143 10.049917992178953 0 0 0
275 1 1 0.5897 5.253494728772697 3.239723100216003 8.36608067997407 0 0 0
845 1 1 0.5897 7.381124690425749 0.979659617613882 6.133466119155025 0 0 0
785 1 1 0.5897 0.8330745320781692 3.018236695950299 7.7611501221791395 0 0 0
487 1 2 -1.1794 2.9990749931751766 1.8046360386532285 5.677880166497441 0 0 0
676 1 2 -1.1794 5.145156080195749 5.757742988198605 10.225484647537252 0 0 0
176 1 1 0.5897 9.08721008733607 2.823735035534651 9.810922330744319 0 0 0
419 1 1 0.5897 8.952322682538005 2.9127870081312723 6.550615652036385 0 0 0
112 1 2 -1.1794 0.4418537487490227 5.61153318723132 10.265453794274316 0 0 0
181 1 2 -1.1794 0.6120494168287751 5.665680277689165 5.743165812509359 0 0 0
166 1 2 -1.1794 3.4035109806859714 1.4904853042592467 13.129937484186092 0 0 0
167 1 1 0.5897 3.2337946093642747 1.627113558716647 12.1979141102825 0 0 0
457 1 2 -1.1794 5.200183807264086 3.171413693069673 14.290698497414864 0 0 0
458 1 1 0.5897 6.047400230915062 2.9079607360175035 13.931496934819478 0 0 0
459 1 1 0.5897 4.55941715725244 2.669431925214083 13.787132567707266 0 0 0
762 1 1 0.5897 4.947582946034474 4.758735466173462 13.384767755624166 0 0 0
594 1 1 0.5897 8.297837042559708 2.4621996981581233 13.370417424634578 0 0 0
168 1 1 0.5897 2.662663111017495 1.9050497252195258 13.572052784898474 0 0 0
468 1 1 0.5897 1.1617139155829306 2.894538671716429 15.046754021168786 0 0 0
466 1 2 -1.1794 1.126898192497192 2.9194473784875403 14.090558379481902 0 0 0
593 1 1 0.5897 7.518139047133464 1.1648100913945445 13.349531472199873 0 0 0
592 1 2 -1.1794 7.452698778698505 2.0909900332480666 13.117189119978983 0 0 0
365 1 1 0.5897 0.7730946895992051 4.650360621372024 13.347619506814183 0 0 0
71 1 1 0.5897 5.185829580267234 3.0843958842150396 15.99887632816653 0 0 0
113 1 1 0.5897 0.5089577419552381 5.663484133853568 11.218834572032724 0 0 0
357 1 1 0.5897 7.479116965107698 1.9519869319075311 11.152487166582247 0 0 0
467 1 1 0.5897 0.3944996499970941 2.347124594310184 13.86210196845318 0 0 0
760 1 2 -1.1794 5.002477978732247 5.676010637598797 13.117054710561163 0 0 0
761 1 1 0.5897 5.104720513514604 5.642708718417739 12.165954263966636 0 0 0
364 1 2 -1.1794 0.7046612321530371 5.52427155542269 12.96332625017769 0 0 0
754 1 2 -1.1794 7.448663545485047 1.4288212329496224 17.704775577498758 0 0 0
21 1 1 0.5897 0.5972833830030306 3.798673281682186 20.8973211877148 0 0 0
360 1 1 0.5897 8.91642248604721 2.585610883944975 21.009600568819103 0 0 0
755 1 1 0.5897 7.4149457766786995 1.4161549386808898 18.66124796582492 0 0 0
290 1 1 0.5897 3.033347418434532 0.7253763241212247 17.646142632517925 0 0 0
42 1 1 0.5897 7.391249650609165 0.8254275576057348 20.736285460767338 0 0 0
289 1 2 -1.1794 3.0041637065983346 1.6279105439254384 17.963424007235016 0 0 0
41 1 1 0.5897 6.722377342424228 2.178489441773333 20.620553568704988 0 0 0
143 1 1 0.5897 5.075061626219789 4.906076790845226 20.80093678827895 0 0 0
569 1 1 0.5897 2.0403725256591843 2.0566591686489155 20.940638089174215 0 0 0
291 1 1 0.5897 2.2179175203010413 1.9980123231859637 17.56215541239323 0 0 0
570 1 1 0.5897 2.838706279581074 1.5706870936105186 19.749755746373324 0 0 0
40 1 2 -1.1794 7.530446036760121 1.7127161652230622 20.405493602195495 0 0 0
599 1 1 0.5897 8.956321332892403 2.4980814693472535 17.195965626794912 0 0 0
667 1 2 -1.1794 5.304993098936113 3.0723971150951934 21.059462720211695 0 0 0
70 1 2 -1.1794 5.292391141108557 3.055351374671711 16.949633876178805 0 0 0
568 1 2 -1.1794 2.847741771768023 1.5989613863832535 20.706447894212584 0 0 0
756 1 1 0.5897 6.713180897730351 1.9840544039421213 17.44605912316168 0 0 0
669 1 1 0.5897 4.462986749698896 2.6881783581607435 20.815373353765164 0 0 0
278 1 1 0.5897 5.343319221654731 4.734092842736987 17.610671626535996 0 0 0
72 1 1 0.5897 4.5394936689711525 2.5525310713781915 17.2602418343255 0 0 0
19 1 2 -1.1794 0.5877235846320548 2.9220298449763127 21.281361807783735 0 0 0
134 1 1 0.5897 0.8136386119160536 3.726023058180447 17.139110787437 0 0 0
648 1 1 0.5897 0.46913938342938605 5.425242959906644 19.2296022767319 0 0 0
646 1 2 -1.1794 0.37219929344002445 5.395108673115379 20.18135626598698 0 0 0
571 1 2 -1.1794 0.7481289631654017 5.628263646085246 17.360782904609227 0 0 0
277 1 2 -1.1794 5.41742869159104 5.66223466353656 17.832347658416065 0 0 0
133 1 2 -1.1794 0.8893123486625231 2.8304192615196695 16.810086485811514 0 0 0
144 1 1 0.5897 5.3974036105163 5.81654439878337 19.635266566845882 0 0 0
142 1 2 -1.1794 5.186603479307544 5.827913063186574 20.56885599684476 0 0 0
647 1 1 0.5897 1.1791028207267982 5.785332329025603 20.517223060417802 0 0 0
253 1 2 -1.1794 3.1416219159048135 7.063521942919774 2.0631630733788273 0 0 0
123 1 1 0.5897 2.9514219563094137 8.794041424691995 2.717908224219685 0 0 0
121 1 2 -1.1794 2.977029978046161 9.671355486555035 3.099674636282752 0 0 0
122 1 1 0.5897 2.899281453432644 9.525217873424374 4.042401029266568 0 0 0
44 1 1 0.5897 1.4436896071507022 10.51729061699821 2.5762151721595874 0 0 0
218 1 1 0.5897 5.8707651593745025 10.65077381800781 2.5648852968205693 0 0 0
396 1 1 0.5897 0.7853907569974928 11.01396383922767 0.4507801545447219 0 0 0
219 1 1 0.5897 4.361798703706178 10.622507238524104 2.6833809045474117 0 0 0
43 1 2 -1.1794 0.6293531520649602 10.926873441950516 2.284202394717175 0 0 0
415 1 2 -1.1794 7.45274057384089 7.176365931734343 2.405022533758849 0 0 0
417 1 1 0.5897 8.180999192580408 6.651658581013359 2.7374050973765893 0 0 0
254 1 1 0.5897 2.938379413122604 7.02057923763779 1.1288245367508598 0 0 0
217 1 2 -1.1794 5.08683744434596 11.166298356630262 2.375539790764457 0 0 0
66 1 1 0.5897 7.41709147799304 9.893529592320936 3.9964933169760686 0 0 0
65 1 1 0.5897 7.323468120815291 8.947310069601768 2.818573682764815 0 0 0
64 1 2 -1.1794 7.333320962460021 9.877654760472486 3.0431473536047933 0 0 0
416 1 1 0.5897 6.686703404816126 6.610061121336358 2.49822401958406 0 0 0
255 1 1 0.5897 2.373081715122315 6.688771570363137 2.493383654091728 0 0 0
162 1 1 0.5897 7.4565218881163995 7.106332267333113 0.5175184305797558 0 0 1
138 1 1 0.5897 4.678136699393473 6.084723861314865 2.503523781026798 0 0 0
363 1 1 0.5897 5.22923675662912 11.108013192677864 0.5193420820732516 0 0 1
773 1 1 0.5897 8.952882776135143 10.612043674563479 2.369552522095362 0 0 0
595 1 2 -1.1794 0.8652450044666771 5.942035194278426 3.0408035885239655 0 0 0
597 1 1 0.5897 0.7977982075145906 6.038560706204612 3.990689114607949 0 0 0
685 1 2 -1.1794 5.30555432735167 6.038094642805242 5.556153054944565 0 0 0
256 1 2 -1.1794 2.903505210195046 9.567725043588547 10.497940250160324 0 0 0
12 1 1 0.5897 3.0260531993786794 7.821965702507428 6.339848733113881 0 0 0
10 1 2 -1.1794 3.013912618108606 6.900856660691897 6.599650674643441 0 0 0
794 1 1 0.5897 2.030641744589034 10.102872371670507 6.076481909912218 0 0 0
526 1 2 -1.1794 7.536422065553646 6.764645596623419 9.219598963510212 0 0 0
577 1 2 -1.1794 5.242675817976169 10.732866858179204 6.850841448519029 0 0 0
145 1 2 -1.1794 7.594182915167362 7.1440883691347095 6.57379152976434 0 0 0
551 1 1 0.5897 0.6656126408916468 10.901810208348248 7.514289568516374 0 0 0
714 1 1 0.5897 7.488886005641289 8.83259976655881 6.121640511592874 0 0 0
580 1 2 -1.1794 5.252456328239944 10.771552775831198 9.604064098235813 0 0 0
650 1 1 0.5897 2.8395455951230115 7.0825341986248 8.453363502221148 0 0 0
822 1 1 0.5897 8.180565756842876 9.825370867382901 10.160024502923921 0 0 0
527 1 1 0.5897 7.478300503265785 7.639976862450322 9.602348362041061 0 0 0
15 1 1 0.5897 1.4467993446087482 10.243320123175968 9.754379978601998 0 0 0
582 1 1 0.5897 5.267383919261678 10.64449666073774 8.6554916345224 0 0 0
820 1 2 -1.1794 7.423696360885662 9.364133312219746 10.521414842031446 0 0 0
581 1 1 0.5897 5.959156542461793 10.21539984442946 9.931824297685056 0 0 0
147 1 1 0.5897 7.640954289194126 6.86134330799734 7.487026532180732 0 0 0
649 1 2 -1.1794 2.771429985912757 7.0438917549922815 9.407305442826567 0 0 0
528 1 1 0.5897 8.275255640006542 6.354691428997362 9.669294474853597 0 0 0
13 1 2 -1.1794 0.7633137315551987 10.76745115095613 9.33690748063385 0 0 0
258 1 1 0.5897 3.6544854308889385 9.97124056409542 10.062759588174652 0 0 0
114 1 1 0.5897 1.24871996604991 6.01518471216646 9.945749945420156 0 0 0
257 1 1 0.5897 2.878207996017338 8.674850689940659 10.154119398139693 0 0 0
146 1 1 0.5897 6.808441792643635 6.71852995375011 6.230749793944404 0 0 0
578 1 1 0.5897 5.939010052957765 10.305041838661133 6.352600333581355 0 0 0
550 1 2 -1.1794 0.693360471779898 10.936106337820531 6.558146017174541 0 0 0
795 1 1 0.5897 3.5331884430254403 10.02808968056139 6.245591841992465 0 0 0
651 1 1 0.5897 3.5195234205817107 6.512703143646005 9.679981885531003 0 0 0
11 1 1 0.5897 2.1755282637700137 6.571292160303534 6.276093301367113 0 0 0
687 1 1 0.5897 4.491329779033669 6.388517262729122 5.91728752102556 0 0 0
713 1 1 0.5897 8.297350734894748 10.110847282683222 6.185439482957744 0 0 0
712 1 2 -1.1794 7.540971312695597 9.714396090103435 5.753127263396119 0 0 0
677 1 1 0.5897 5.971115930375899 6.119912632628692 9.904851003335027 0 0 0
579 1 1 0.5897 5.241598912171924 11.636228727514371 6.534595871669965 0 0 0
165 1 1 0.5897 9.02572256597482 6.3631427765610225 6.037807167656707 0 0 0
14 1 1 0.5897 0.9193672474060647 11.658390042613183 9.649882919424835 0 0 0
793 1 2 -1.1794 2.8000591617285084 9.606827303003506 5.797011974050617 0 0 0
826 1 2 -1.1794 7.255129425011164 7.026919474188534 13.97733071487961 0 0 0
827 1 1 0.5897 6.440441616458644 6.623082602869619 13.678378425699947 0 0 0
332 1 1 0.5897 2.944502577411198 7.929406093541778 13.706217453528991 0 0 0
797 1 1 0.5897 3.0742040855249053 9.678061305932527 12.297012799163733 0 0 0
796 1 2 -1.1794 3.1399146483029203 9.653453584345765 13.251592365130112 0 0 0
798 1 1 0.5897 2.306638847509056 10.010482400503573 13.558781253861067 0 0 0
722 1 1 0.5897 4.559521663709351 10.638833275587118 13.735106062654088 0 0 0
261 1 1 0.5897 0.6950790770277924 10.729872922319615 14.82167857363222 0 0 0
723 1 1 0.5897 5.432282966329423 11.124774230571548 14.872579520834549 0 0 0
828 1 1 0.5897 7.196452956155616 7.00698231180678 14.932476671014882 0 0 0
259 1 2 -1.1794 0.6890245810325418 10.734701508161763 13.86455255753257 0 0 0
331 1 2 -1.1794 2.8773384872827683 7.066034446558568 14.113865301524202 0 0 0
225 1 1 0.5897 2.934660450810505 7.008571638462477 15.944940095296602 0 0 0
721 1 2 -1.1794 5.374764557304736 11.106098630822197 13.9173384700478 0 0 0
475 1 2 -1.1794 7.520849453482763 9.701692445993816 13.223828843868224 0 0 0
476 1 1 0.5897 6.662636163079365 10.084748303909278 13.405254463650527 0 0 0
477 1 1 0.5897 7.436023298917822 8.786166685413114 13.489714317761921 0 0 0
333 1 1 0.5897 3.66485735128631 6.6035136330655595 13.82741486054796 0 0 0
366 1 1 0.5897 1.4616309945075558 5.997922731022091 13.308026483104923 0 0 0
821 1 1 0.5897 7.507208459577469 9.47149184224472 11.468856700448395 0 0 0
851 1 1 0.5897 8.788380683035655 6.013336670729166 13.402000540533388 0 0 0
104 1 1 0.5897 8.84695115655979 10.657735311264924 13.807593356059934 0 0 0
445 1 2 -1.1794 0.7225793244079733 10.909905062520746 16.630922520186555 0 0 0
141 1 1 0.5897 7.497793314619869 8.799225058253914 20.772168915690298 0 0 0
361 1 2 -1.1794 5.161804341643333 10.951804895239182 21.358203249815677 0 0 0
9 1 1 0.5897 6.767420263720205 10.030909732573065 17.470247145888756 0 0 0
4 1 2 -1.1794 2.6953399679890175 6.786680512480243 21.179109010106973 0 0 0
627 1 1 0.5897 2.306519607241722 10.174935992164501 17.41341482246078 0 0 0
394 1 2 -1.1794 0.7014251330714589 11.040325110820287 21.278448560178497 0 0 0
522 1 1 0.5897 7.526735386756593 7.907519388275358 17.021021106070418 0 0 0
140 1 1 0.5897 6.779868319580786 10.131948769019374 20.769763198302453 0 0 0
161 1 1 0.5897 6.670694844707827 6.558942319783208 21.125884648052796 0 0 0
690 1 1 0.5897 2.141591252396579 9.989881193297467 20.802962859577807 0 0 0
625 1 2 -1.1794 3.0949589501353607 9.730729599288418 17.725222908731247 0 0 0
688 1 2 -1.1794 2.8886666404678154 9.45910511709808 20.52670235084837 0 0 0
462 1 1 0.5897 8.895709531593587 6.15666778041722 20.75901640148819 0 0 0
679 1 2 -1.1794 5.401590353216852 10.944888855556224 16.807020932677215 0 0 0
689 1 1 0.5897 3.645498790483191 9.878442838692463 20.93601397156708 0 0 0
521 1 1 0.5897 6.7814143871065795 6.593203302475414 17.114003051358555 0 0 0
626 1 1 0.5897 2.9712715088600854 9.658454837969101 18.6715975793348 0 0 0
139 1 2 -1.1794 7.563303073496962 9.693612227274611 20.437711248490114 0 0 0
6 1 1 0.5897 2.6257644795638346 7.714807369811999 20.955909695232183 0 0 0
287 1 1 0.5897 8.940375913726637 10.535278129313573 20.902135313103933 0 0 0
8 1 1 0.5897 7.536937899892252 9.504593315499076 18.662940752059612 0 0 0
7 1 2 -1.1794 7.539307842290088 9.51628630365011 17.70585904959757 0 0 0
160 1 2 -1.1794 7.456877328544859 7.060223707787412 21.342241958273377 0 0 0
5 1 1 0.5897 3.5359615890312135 6.513841853903725 20.811553029010177 0 0 0
520 1 2 -1.1794 7.544522862220701 7.003489275421216 16.707188917400643 0 0 0
224 1 1 0.5897 3.099776129506898 7.944544713432423 17.123203107472794 0 0 0
680 1 1 0.5897 4.5595096197397105 10.604324031201871 17.108844398290607 0 0 0
279 1 1 0.5897 4.6049659221238715 6.051711496903742 17.50925769540829 0 0 0
223 1 2 -1.1794 3.1266337171957064 7.01854771565434 16.88259232538091 0 0 0
246 1 1 0.5897 8.946448665638329 10.60100024946762 17.169329466840086 0 0 0
711 1 1 0.5897 9.030529777823721 6.122768580017199 17.50397391913862 0 0 0
572 1 1 0.5897 1.5771870641835244 6.106545352639176 17.369610998606316 0 0 0
200 1 1 0.5897 5.14046125518794 13.35495637191371 4.989108710504315 0 0 0
173 1 1 0.5897 4.504107378121459 14.14694747864399 2.819427724571461 0 0 0
172 1 2 -1.1794 5.2316036898157465 13.699226448805119 3.2512396874770206 0 0 0
374 1 1 0.5897 0.9257496356137019 13.522049270754414 3.95669450425854 0 0 0
558 1 1 0.5897 3.1838462989927563 14.896333071766804 1.1013398673913075 0 0 0
556 1 2 -1.1794 3.14511674670166 15.124413329615383 2.0301104387175757 0 0 0
557 1 1 0.5897 2.3515539179786553 14.695160811659736 2.349747049561695 0 0 0
478 1 2 -1.1794 7.611180632786546 14.918503095739178 2.1820935838858677 0 0 0
174 1 1 0.5897 5.172476131834106 12.794474418352838 2.9446323231405818 0 0 0
293 1 1 0.5897 3.2463051582410882 16.768383184098973 2.628468172706716 0 0 0
479 1 1 0.5897 8.368498615380213 14.47751718395859 2.567059016555551 0 0 0
449 1 1 0.5897 7.655555159491865 16.659488617549293 2.591871729078248 0 0 0
480 1 1 0.5897 6.854627988852837 14.470741203011501 2.560655686789359 0 0 0
373 1 2 -1.1794 0.9447500646251998 13.596245496871896 3.002613825884959 0 0 0
308 1 1 0.5897 7.641214437825327 17.547533601469652 4.609024425099868 0 0 0
292 1 2 -1.1794 3.1145533889373915 17.636804801740062 3.008688503619023 0 0 0
448 1 2 -1.1794 7.734645493881445 17.57073211840902 2.8737708426349236 0 0 0
294 1 1 0.5897 3.049168736886922 17.479037892143033 3.9504890123111225 0 0 0
307 1 2 -1.1794 7.450003534191551 17.468062245143955 5.543510431633503 0 0 0
45 1 1 0.5897 0.7484027246974807 11.857895435263911 2.4716181076446953 0 0 0
238 1 2 -1.1794 2.9206239113771066 17.27623436990237 5.632173628168247 0 0 0
317 1 1 0.5897 7.471577765963789 15.023801674179877 0.27116302347121035 0 0 0
384 1 1 0.5897 2.9886461373176347 16.87051222364358 10.164363739775201 0 0 0
656 1 1 0.5897 1.5287609290223085 14.00495607295923 6.243367219661049 0 0 0
454 1 2 -1.1794 5.157655001159782 13.485797720478924 10.180304386246657 0 0 0
552 1 1 0.5897 0.6618690691199891 11.869901557469703 6.350508406635043 0 0 0
811 1 2 -1.1794 3.007131896441377 15.100390181182759 9.524210557878854 0 0 0
456 1 1 0.5897 5.166929652266093 12.553570858129012 9.96363609673034 0 0 0
813 1 1 0.5897 2.2098518565570586 14.596782641726461 9.688206855167001 0 0 0
17 1 1 0.5897 3.11197162669489 14.962671986800396 7.823457306898689 0 0 0
766 1 2 -1.1794 0.9405333247500364 13.351878183461938 10.27030113733662 0 0 0
184 1 2 -1.1794 7.265692923199343 17.54969961805191 10.24505010153889 0 0 0
377 1 1 0.5897 6.723060437373092 14.361612367620896 9.625827863852294 0 0 0
239 1 1 0.5897 2.861350537166512 16.458679076674365 6.126315984377534 0 0 0
519 1 1 0.5897 8.22142637232339 14.251697902100641 6.246601617727416 0 0 0
812 1 1 0.5897 3.7142437943080564 14.542778475283626 9.848571846175448 0 0 0
18 1 1 0.5897 3.6866872041346936 14.374220810026674 6.552581534165947 0 0 0
376 1 2 -1.1794 7.4385584960604465 14.91876101528589 9.319555149787325 0 0 0
16 1 2 -1.1794 2.9270288228650663 14.84785854530487 6.891388640762144 0 0 0
517 1 2 -1.1794 7.403102348762322 14.678793549309214 6.499791244142194 0 0 0
186 1 1 0.5897 7.349808543317309 16.651310814240603 9.925816537742776 0 0 0
378 1 1 0.5897 7.399454653612861 14.856622799479416 8.365223559906916 0 0 0
518 1 1 0.5897 7.431807009242489 15.530190466552806 6.063447646872861 0 0 0
201 1 1 0.5897 5.916064045109173 13.845965147327156 6.192866889633359 0 0 0
655 1 2 -1.1794 0.7649519852129909 13.666887871128992 5.775941808128292 0 0 0
199 1 2 -1.1794 5.153444673345601 13.323040765841665 5.945639435776735 0 0 0
59 1 1 0.5897 8.983789408538422 14.059449497476095 9.865275912713464 0 0 0
240 1 1 0.5897 3.743293336325507 17.671670082870378 5.920313446858558 0 0 0
296 1 1 0.5897 7.744207906216427 15.059325091459165 14.996988861380053 0 0 0
232 1 2 -1.1794 2.885809783066862 14.732961130113289 13.967142681794199 0 0 0
234 1 1 0.5897 2.959903087792337 14.828864614622661 14.916592623817966 0 0 0
606 1 1 0.5897 3.3239219451513753 16.633939826950716 13.400322706908995 0 0 0
427 1 2 -1.1794 5.3020754435005575 13.776756438954793 13.016374220646089 0 0 0
233 1 1 0.5897 3.722592855936447 14.353933005125596 13.6982121299447 0 0 0
639 1 1 0.5897 1.433785051318821 14.011329156697837 13.144643819236517 0 0 0
429 1 1 0.5897 6.014105160316198 14.255074319467246 13.44108614305693 0 0 0
428 1 1 0.5897 5.411696153286874 12.872490779798476 13.310262952545099 0 0 0
638 1 1 0.5897 0.7967368716703067 12.646328442319234 13.294618130409862 0 0 0
637 1 2 -1.1794 0.630519905424632 13.526093094525317 12.956288668427543 0 0 0
295 1 2 -1.1794 7.664292368749921 15.169362426913334 14.049536576903886 0 0 0
270 1 1 0.5897 7.784206229361844 16.823785361515107 13.382431679325672 0 0 0
297 1 1 0.5897 8.382967177049386 14.651861370648072 13.686384699524869 0 0 0
604 1 2 -1.1794 3.226272548214004 17.57983918558306 13.291625443507018 0 0 0
455 1 1 0.5897 5.275482983904189 13.512682950119483 11.129797127965878 0 0 0
269 1 1 0.5897 7.743261293080945 17.54680015381146 12.053069757140827 0 0 0
268 1 2 -1.1794 7.839703867911816 17.696559118959044 12.99350152266952 0 0 0
767 1 1 0.5897 0.8438187978489984 13.507990444305806 11.209685633606501 0 0 0
157 1 2 -1.1794 7.253678443127402 17.488791653717875 20.277302196298955 0 0 0
664 1 2 -1.1794 2.9957556850256943 14.975891582883067 21.04595028715433 0 0 0
823 1 2 -1.1794 3.2129991430164684 14.997739413523176 16.670217146758603 0 0 0
50 1 1 0.5897 7.644422024227593 15.568244401692425 17.160696498967983 0 0 0
824 1 1 0.5897 3.988774140856571 14.51857982223419 16.96132274272113 0 0 0
452 1 1 0.5897 0.7182203420333481 12.624497815746228 20.728233685620296 0 0 0
125 1 1 0.5897 5.284897459076206 13.60577892240964 18.464225821668617 0 0 0
124 1 2 -1.1794 5.328952112230379 13.59170952175453 17.508182351308054 0 0 0
684 1 1 0.5897 4.467779000379462 14.056981715609428 20.435491780243026 0 0 0
51 1 1 0.5897 8.456410429034898 14.296897201572508 17.034464491034957 0 0 0
666 1 1 0.5897 2.8872257498507827 15.873834179964465 20.7328877407858 0 0 0
316 1 2 -1.1794 7.303786129943302 14.950289342597546 21.112473364279655 0 0 0
52 1 2 -1.1794 1.1033841172614134 13.55657150242616 17.423247194237597 0 0 0
318 1 1 0.5897 7.3156322474181525 15.853218064416573 20.79520508818676 0 0 0
665 1 1 0.5897 2.2422658311769474 14.504983974115888 20.690029572167983 0 0 0
584 1 1 0.5897 3.1645083001263843 16.680789678289408 17.304300443378384 0 0 0
683 1 1 0.5897 5.967366323921218 13.933753737111736 20.602552251041754 0 0 0
126 1 1 0.5897 6.205851969003317 13.9163417637373 17.30355385922934 0 0 0
682 1 2 -1.1794 5.198868417354634 13.456663996825387 20.28956486498274 0 0 0
716 1 1 0.5897 2.991102133967864 17.554651255126473 19.415816529961866 0 0 0
53 1 1 0.5897 1.042385356939576 13.50707450132191 18.377170370727832 0 0 0
451 1 2 -1.1794 0.7747906926002126 13.434579948576134 20.22162336265853 0 0 0
825 1 1 0.5897 2.479860944942264 14.540391869777242 17.081939205218756 0 0 0
715 1 2 -1.1794 2.8887057424373412 17.536136982666598 20.367293894311192 0 0 0
159 1 1 0.5897 7.369631607212198 17.46076811065746 19.327613402410364 0 0 0
610 1 2 -1.1794 7.586747016435777 17.325388116756393 17.66359082224615 0 0 0
583 1 2 -1.1794 3.214193555459196 17.56147835102678 17.675783316769504 0 0 0
362 1 1 0.5897 5.030717924535502 11.821021830958015 20.979565691469677 0 0 0
117 1 1 0.5897 8.811333526530772 14.059661408973453 20.436140700450323 0 0 0
54 1 1 0.5897 0.32698024372797363 14.049747397744694 17.15841220184747 0 0 0
612 1 1 0.5897 8.333635523323863 17.66339744880085 17.16954161545237 0 0 0
446 1 1 0.5897 0.7704249238554824 11.838016738263835 16.859819991128987 0 0 0
681 1 1 0.5897 5.370913729288668 11.87879246043232 17.014287225409785 0 0 0
49 1 2 -1.1794 7.6370982403823495 14.702975488367487 16.75161175732009 0 0 0
267 1 1 0.5897 5.765351713952482 21.897362516989247 2.9068222970230786 0 0 0
696 1 1 0.5897 1.4402033432961796 21.964436358139203 2.9843758284996054 0 0 0
266 1 1 0.5897 4.252427375217653 21.916367025552802 2.957031370964965 0 0 0
265 1 2 -1.1794 5.012938431408675 21.409856107193974 3.242046164171287 0 0 0
344 1 1 0.5897 1.7149535989648568 18.674452710629026 2.6543058998180227 0 0 0
228 1 1 0.5897 5.320517460002678 19.80673264791318 2.6387927195009215 0 0 0
345 1 1 0.5897 0.7882509066960447 19.03930836136289 1.514213201123702 0 0 0
817 1 2 -1.1794 7.401042058257904 22.544424161573012 2.1400754487533455 0 0 0
249 1 1 0.5897 5.212846718699097 21.223416437426394 5.086702756942029 0 0 0
226 1 2 -1.1794 5.398434359479063 18.937087487288473 2.246708020566412 0 0 0
187 1 2 -1.1794 2.916631000471508 22.74058693173047 2.3752880645964716 0 0 0
695 1 1 0.5897 0.5924283294970852 20.713795360744776 2.890749242073813 0 0 0
694 1 2 -1.1794 0.5882313924466722 21.607029696306917 3.2345406235744973 0 0 0
818 1 1 0.5897 8.15115781109844 22.047998344679677 2.467260271080348 0 0 0
343 1 2 -1.1794 0.8584922862477297 19.059362071914414 2.46857169822705 0 0 0
189 1 1 0.5897 2.9255349972725875 22.667741116717387 1.4209554332944165 0 0 0
413 1 1 0.5897 0.5810020382420278 21.743751743572226 5.054005473561853 0 0 0
227 1 1 0.5897 4.623771751942204 18.46556875644258 2.5528628637869755 0 0 0
450 1 1 0.5897 6.906942565220324 17.975045834481826 2.613743571310075 0 0 0
602 1 1 0.5897 5.244053063115414 18.890628958305392 0.4226478559628966 0 0 0
498 1 1 0.5897 7.319701077805247 22.46094811709449 0.34069609908306536 0 0 0
819 1 1 0.5897 7.5724331407677035 23.445729693478963 2.412756383944123 0 -1 0
555 1 1 0.5897 5.39523941623641 20.75208614044852 9.833737444599072 0 0 0
342 1 1 0.5897 0.8687583248950526 19.00169634596292 7.616837477921589 0 0 0
87 1 1 0.5897 8.510495474079116 22.517107712828583 9.487744610392179 0 0 0
37 1 2 -1.1794 3.0752176607582014 23.023893994727572 9.413072299625483 0 0 0
86 1 1 0.5897 7.598407585646438 22.901076002240856 8.342145914938525 0 0 0
248 1 1 0.5897 4.469094178808905 21.77087577502443 6.286205483154837 0 0 0
32 1 1 0.5897 8.122174679513948 22.285156895372545 6.294395525738181 0 0 0
404 1 1 0.5897 1.5400572862851047 18.324062288376787 9.69929549433979 0 0 0
39 1 1 0.5897 3.9551868758429265 22.743847121655456 9.66490109305774 0 0 0
553 1 2 -1.1794 5.468364362827154 21.663794481937472 10.11576197808698 0 0 0
701 1 1 0.5897 2.9331944797234084 22.977251057533238 7.555348344726546 0 0 0
340 1 2 -1.1794 0.9043662713054742 19.212502748592307 6.683866578581936 0 0 0
387 1 1 0.5897 5.211845275160777 19.536983888115408 6.4060814589729596 0 0 0
102 1 1 0.5897 5.0594047248215475 18.9100359299483 8.505493620866478 0 0 0
700 1 2 -1.1794 3.0121726170925576 22.899493781579743 6.604636975924131 0 0 0
385 1 2 -1.1794 5.191459193855852 18.61717005351172 6.669906276859399 0 0 0
702 1 1 0.5897 2.202319142851142 22.468887774732586 6.330987073839634 0 0 0
38 1 1 0.5897 2.4908356039780783 22.419812950802417 9.871022935131345 0 0 0
101 1 1 0.5897 5.918795629929328 18.539298061871044 9.695324665912864 0 0 0
341 1 1 0.5897 1.598766134402028 18.65213041566917 6.337540359959434 0 0 0
33 1 1 0.5897 6.609177616886296 22.28087701035748 6.345882557539466 0 0 0
185 1 1 0.5897 8.072699237599084 17.980815781335252 9.963859459604604 0 0 0
85 1 2 -1.1794 7.695565711896998 22.979080363072548 9.291156673805856 0 0 0
554 1 1 0.5897 6.255453451243918 21.987992742151413 9.678070707858529 0 0 0
414 1 1 0.5897 0.7176045523575516 20.855110594133244 6.271895049709251 0 0 0
386 1 1 0.5897 5.978577578712779 18.237925646213206 6.279026280142106 0 0 0
31 1 2 -1.1794 7.373337930041848 22.803670761903007 6.588587277506716 0 0 0
100 1 2 -1.1794 5.128777838327889 19.02256823684928 9.453475090900303 0 0 0
247 1 2 -1.1794 5.231918886929587 21.2461519825698 6.043402043705151 0 0 0
405 1 1 0.5897 0.7802642802456433 19.63334858672156 9.706488045752065 0 0 0
94 1 2 -1.1794 1.0946420307443354 21.380915632727735 10.445343734815518 0 0 0
403 1 2 -1.1794 0.7255598478170808 18.728202336923047 9.40022591335881 0 0 0
383 1 1 0.5897 3.7477409417242766 18.17996700900654 10.190336578701276 0 0 0
412 1 2 -1.1794 0.6146363681515452 21.76998271846943 6.010204834639558 0 0 0
95 1 1 0.5897 0.24392127118956422 21.719317565135512 10.166147437687927 1 0 0
382 1 2 -1.1794 3.018452140085486 17.719468399943466 10.60535381118706 0 0 0
309 1 1 0.5897 8.068128670376618 18.06403331151145 5.9664639400351005 0 0 0
380 1 1 0.5897 1.008014739827114 20.35273837404531 13.58834889860896 0 0 0
88 1 2 -1.1794 5.4537302314818 21.63633415524135 12.879048854122935 0 0 0
381 1 1 0.5897 1.7948256276903505 21.638775838675592 13.451822690437645 0 0 0
90 1 1 0.5897 5.572448174411472 20.770270356822188 13.268820724564643 0 0 0
763 1 2 -1.1794 5.566201073308042 19.06481841448052 13.959028318338742 0 0 0
738 1 1 0.5897 3.9703120382537764 22.111152128878125 13.814984817519786 0 0 0
89 1 1 0.5897 5.565617232298267 21.493910729074116 11.93919169822615 0 0 0
764 1 1 0.5897 4.831879376274491 18.505027722673972 13.70691406476013 0 0 0
474 1 1 0.5897 5.5088955598652465 18.783894599676856 15.712623753958644 0 0 0
765 1 1 0.5897 6.339294315882332 18.61404439122684 13.619471943571261 0 0 0
350 1 1 0.5897 3.1525308353151953 22.618830659111993 15.925138153323376 0 0 0
736 1 2 -1.1794 3.185363056293904 22.53914901682475 14.156825272745618 0 0 0
787 1 2 -1.1794 7.640545829442964 23.003079123774675 13.747714721807792 0 0 0