LAMMPS data file via write_data, version 30 Jul 2021, timestep = 21500000

972 atoms
2 atom types
648 bonds
1 bond types
324 angles
1 angle types

-0.03431511530339293 20.03431611530658 xlo xhi
0.030154153503753278 19.96984684650186 ylo yhi
0.13404006049707995 20.565957939501523 zlo zhi

Masses

1 1.008
2 15.999

Pair Coeffs # lj/cut/tip4p/long/omp

1 0 0
2 0.21084 3.1668

Bond Coeffs # harmonic/omp

1 450 0.9572

Angle Coeffs # harmonic/omp

1 55 104.52

Atoms # full

33 11 1 0.5897 1.2220054269926965 2.266376462254281 1.684193220127104 0 0 0
11 4 1 0.5897 1.2122421416324372 3.136407245829814 3.7379176523783544 0 0 0
10 4 2 -1.1794 1.3219696054953565 4.043368815487988 4.023865124725539 0 0 0
16 6 2 -1.1794 4.016951245364868 4.418289880819597 3.4873892191908573 0 0 0
31 11 2 -1.1794 0.5861294523822882 1.9456854894738063 2.323761276132128 0 0 0
110 37 1 0.5897 3.4712486480126548 9.651727633802377 0.6566603608390016 0 0 0
5 2 1 0.5897 4.366678866524641 0.9597623508821459 2.799947687539792 0 0 0
4 2 2 -1.1794 4.399382002981167 1.6707555117850652 3.4400691408029487 0 0 0
19 7 2 -1.1794 0.323217386587722 6.072317927035216 2.1665477605334993 0 0 0
20 7 1 0.5897 0.4162100917425135 5.352392408739339 2.790550197166548 0 0 0
15 5 1 0.5897 4.373611385729522 6.529668920602183 1.9651464483126075 0 0 0
18 6 1 0.5897 4.153247565527139 3.4885374735587935 3.304740243603532 0 0 0
22 8 2 -1.1794 2.1442731400906747 0.9007349863536133 5.1331895399606005 0 0 0
12 4 1 0.5897 2.219716397814809 4.265815402502192 3.777270565429972 0 0 0
674 225 1 0.5897 1.6171397873729856 5.826375809764839 0.5560368189812159 0 0 1
141 47 1 0.5897 0.6725090550067364 7.85635090786378 2.490610226844757 0 0 0
140 47 1 0.5897 0.9099818619311654 9.25059792049288 3.030944602542483 0 0 0
17 6 1 0.5897 4.184585709093827 4.85415067855925 2.6518032950836843 0 0 0
3 1 1 0.5897 3.4387389149608323 2.6625606658828858 0.3414027205366627 0 0 0
24 8 1 0.5897 2.8582213279976165 1.1755441488215865 4.557857608252006 0 0 0
13 5 2 -1.1794 4.652344418273075 5.813239585362641 1.3947431363274094 0 0 0
113 38 1 0.5897 3.281295360621777 7.722270268739772 3.8637222376782323 0 0 0
114 38 1 0.5897 4.724146507645751 7.8547549688978355 4.302411637710676 0 0 0
112 38 2 -1.1794 4.161554233492331 7.893497371031711 3.52897569785843 0 0 0
111 37 1 0.5897 2.1034011562538244 9.586606393392335 1.3021475564056044 0 0 0
139 47 2 -1.1794 0.5777923112593499 8.781895153826948 2.2652607492393306 0 0 0
14 5 1 0.5897 3.9547885920002144 5.739782598705239 0.7433874290181178 0 0 0
1 1 2 -1.1794 2.489692784606292 2.780566831951769 0.3816294114235951 0 0 0
9 3 1 0.5897 4.962983761367516 4.862314002149528 4.912905077090748 0 0 0
102 34 1 0.5897 0.39429177415184347 0.6091474733730352 4.92223057066835 1 0 0
126 42 1 0.5897 4.5813179219372095 9.987068836853958 3.7287990830233437 0 0 0
236 79 1 0.5897 0.7386645490363561 0.3476031619818798 1.8040869496621328 0 1 0
132 44 1 0.5897 0.780542169537524 7.351927539084138 5.082778735295803 0 0 0
130 44 2 -1.1794 1.735636862858464 7.307458338585617 5.037861874422584 0 0 0
109 37 2 -1.1794 2.536734910017359 9.708040800324657 0.4573108987046296 0 0 0
325 109 2 -1.1794 2.421465514600109 2.764298511886009 7.2613854209043005 0 0 0
326 109 1 0.5897 2.1988718395049918 2.3252469181005497 6.44045542416219 0 0 0
327 109 1 0.5897 3.36314488666269 2.624328308332478 7.3607110434507295 0 0 0
356 119 1 0.5897 1.0477547628578834 2.341667769331256 8.341159063707725 0 0 0
468 156 1 0.5897 4.504556111888584 9.285151615255744 7.460994459136424 0 0 0
343 115 2 -1.1794 0.116265700770106 5.475765548944232 8.89031257552069 0 0 0
27 9 1 0.5897 2.188220158775261 4.5484521647309055 7.005679019514048 0 0 0
344 115 1 0.5897 0.4213619834043574 4.867175816977248 9.563264209142412 0 0 0
434 145 1 0.5897 2.6529318693677895 9.857430619182459 6.999523602660249 0 0 0
26 9 1 0.5897 1.5049475230562857 5.736149052082677 7.649639221286316 0 0 0
131 44 1 0.5897 1.949215221052804 6.424425639002506 5.339542828614261 0 0 0
437 146 1 0.5897 4.038512540892181 7.753818147635741 9.568220767993079 0 0 0
25 9 2 -1.1794 2.230210857024569 5.502637270203241 7.070232743556296 0 0 0
560 187 1 0.5897 0.5801667985407936 0.16628170514805243 8.898237119417022 0 1 0
355 119 2 -1.1794 0.3033028848894059 2.1804552002815476 8.920844040165687 0 0 0
463 155 2 -1.1794 0.8312255742848448 8.181756815896637 9.039408597546286 0 0 0
339 113 1 0.5897 3.7481573453230714 5.834223508563458 7.921117577249404 0 0 0
342 114 1 0.5897 3.9314166749682933 4.787412007984554 10.02460936667717 0 0 0
345 115 1 0.5897 0.4895499803837242 6.320187662114924 9.143253955911751 0 0 0
435 145 1 0.5897 2.5868086543206066 8.48976542318145 6.353540424482535 0 0 0
433 145 2 -1.1794 2.8800733197468644 8.939166769486738 7.1461785937009985 0 0 0
464 155 1 0.5897 1.5105851382980038 8.268841612394118 8.370718166667688 0 0 0
23 8 1 0.5897 2.4218193963459065 0.04876904764402923 5.470034457985526 0 0 0
443 148 1 0.5897 1.1003777907133883 9.719543291058422 10.0048763540632 0 0 0
337 113 2 -1.1794 4.406854313839886 5.871359481237591 8.614653259640876 0 0 0
554 185 1 0.5897 4.521368953909147 0.14847272611718015 8.827218373361083 0 1 0
465 155 1 0.5897 0.03700616865950224 8.511350381472353 8.618942014821698 0 0 0
438 146 1 0.5897 4.099402422217221 9.115426095571646 10.22740887274272 0 0 0
649 217 2 -1.1794 2.3859397073244026 2.897262971268795 13.570825849418396 0 0 0
650 217 1 0.5897 1.8758548664843535 2.6170815563245355 12.810845260031215 0 0 0
651 217 1 0.5897 1.8297351061033535 2.6916240118837367 14.322209977362865 0 0 0
350 117 1 0.5897 3.4003509395020624 5.828546327528465 14.217690880421516 0 0 0
683 228 1 0.5897 4.035189434771352 2.7980955686881535 14.304393830527156 0 0 0
330 110 1 0.5897 4.644749716271538 1.271535580642858 11.15921748068134 0 0 0
347 116 1 0.5897 0.7843136721562405 1.0021651461122918 11.74446252294589 0 0 0
349 117 2 -1.1794 2.598709540231503 5.593035766508555 13.750634884775458 0 0 0
757 253 2 -1.1794 2.834568956822289 8.887629063106512 14.204992856076023 0 0 0
341 114 1 0.5897 4.042749288209766 3.316458895945056 10.365480925487418 0 0 0
455 152 1 0.5897 2.7588190848438288 7.755470305128964 11.281786365607482 0 0 0
351 117 1 0.5897 2.5061552081319496 4.650898622397548 13.892694725217627 0 0 0
668 223 1 0.5897 1.0293696490113664 5.923882215565741 14.623328428907367 0 0 0
456 152 1 0.5897 2.356584441836417 6.7541919072156915 12.343763245654646 0 0 0
336 112 1 0.5897 1.981390157420177 4.112323106177969 11.023904574808817 0 0 0
334 112 2 -1.1794 1.0323871784472516 4.003889430235411 11.085869137208421 0 0 0
346 116 2 -1.1794 1.6842850183415488 0.9948070950857241 11.418558892505178 0 0 0
758 253 1 0.5897 2.5529037702310626 8.4068454840207 13.42664516342755 0 0 0
454 152 2 -1.1794 2.039662736144132 7.522656206309429 11.869041937604685 0 0 0
340 114 2 -1.1794 3.7586539177696388 4.1572859457083675 10.724187119045245 0 0 0
792 264 1 0.5897 4.77993123842937 8.824385772390876 14.479338168895458 0 0 0
348 116 1 0.5897 2.1158653252543527 0.3037838957855007 11.921105346835018 0 0 0
436 146 2 -1.1794 4.128478274536205 8.178453809177356 10.421375586503956 0 0 0
533 178 1 0.5897 0.12027947148761967 7.6962042528074655 11.78212140313977 1 0 0
661 221 2 -1.1794 4.804140675682066 5.934736584736815 15.336060851173201 0 0 0
682 228 2 -1.1794 4.924894300875854 2.8925083411114056 14.644596821778368 0 0 0
759 253 1 0.5897 2.857589322932129 9.803174340159948 13.926353328264252 0 0 0
329 110 1 0.5897 3.2180886547431204 1.3278805348592664 10.655885911613625 0 0 0
667 223 2 -1.1794 0.35130372278059635 5.969442455389966 15.297403568593749 0 0 0
332 111 1 0.5897 4.917190424582432 4.489199013374614 12.282807517712131 0 0 0
335 112 1 0.5897 0.8400192015473826 3.2500320971337002 10.528175437084696 0 0 0
789 263 1 0.5897 1.4900859609850698 8.69674269261504 15.32946149328719 0 0 0
328 110 2 -1.1794 4.126536626103261 1.3056233307427945 10.355130696629796 0 0 0
671 224 1 0.5897 2.0401931064234153 1.6041105074080855 19.504097452244558 0 0 0
653 218 1 0.5897 3.2391857359124407 1.0862525920169765 17.540654364602418 0 0 0
658 220 2 -1.1794 1.266920169665095 4.5687168361607435 17.593255054777472 0 0 0
665 222 1 0.5897 3.231210916160055 4.0212021390978006 17.475307139598343 0 0 0
670 224 2 -1.1794 1.8063211659871852 1.1033409453686238 18.722535395746796 0 0 0
652 218 2 -1.1794 3.9515508098587113 1.3008666608167412 16.938402091341715 0 0 0
664 222 2 -1.1794 4.153102400034219 3.966434969249203 17.223624903314814 0 0 0
666 222 1 0.5897 4.332432732460355 3.027514858281429 17.17207467584145 0 0 0
672 224 1 0.5897 0.8492834096155172 1.086300757591114 18.72590321510036 0 0 0
681 227 1 0.5897 0.7694945425565975 2.8366979751777586 16.663425139055462 0 0 0
787 263 2 -1.1794 0.997625595887317 8.511145695463041 16.129010940323834 0 0 0
654 218 1 0.5897 3.883252061228579 0.6465437956631352 16.24304372320379 0 0 0
788 263 1 0.5897 1.1590566850708812 9.268588266966349 16.691542568777948 0 0 0
660 220 1 0.5897 1.008772666055045 4.992304735446023 16.774576051277293 0 0 0
760 254 2 -1.1794 4.548109565435615 7.965966404350112 17.40279646556735 0 0 0
858 286 1 0.5897 0.5874276432348463 7.436617877149646 19.001359312142576 1 0 0
779 260 1 0.5897 2.9447583614360737 7.808241147063742 18.23932155752931 0 0 0
780 260 1 0.5897 2.492800204376979 8.469051023231867 19.524256689108306 0 0 0
778 260 2 -1.1794 2.3455887489461382 7.6972287868167895 18.977502777236197 0 0 0
659 220 1 0.5897 0.49380683779879575 4.637769194790362 18.153395106447725 0 0 0
662 221 1 0.5897 4.5191169004123815 5.168172057259775 15.833542009078483 0 0 0
675 225 1 0.5897 2.418460307484055 6.357773778546114 19.818547047741603 0 0 0
761 254 1 0.5897 4.608971793130436 8.920887307797544 17.374660364722445 0 0 0
663 221 1 0.5897 4.756061984168238 6.658090668063824 15.96120144684948 0 0 0
885 295 1 0.5897 0.9151243133332541 0.4732767824118003 15.729337135848205 0 1 0
679 227 2 -1.1794 0.7723448268000072 2.3224875498231308 15.856027473878871 0 0 0
2 1 1 0.5897 2.3453871364299994 3.6735819266712424 20.500375391884752 0 0 -1
669 223 1 0.5897 0.6460765288875827 6.662831963484397 15.887866633131507 0 0 0
673 225 2 -1.1794 2.3634680262693326 5.619507815606116 20.42541649689586 0 0 0
120 40 1 0.5897 1.59300759508732 11.372650915362932 3.0500623640634625 0 0 0
230 77 1 0.5897 3.872765930351751 19.21870754248677 0.5314979353503181 0 0 0
118 40 2 -1.1794 1.7153447159501118 10.727486594448441 3.7465689182492325 0 0 0
229 77 2 -1.1794 4.438369067407546 19.413887040282162 1.278667213000914 0 0 0
129 43 1 0.5897 1.0383533746001383 13.477091356674153 2.2678087758727816 0 0 0
228 76 1 0.5897 1.0285540232263233 17.5217066959408 4.541204200951002 0 0 0
221 74 1 0.5897 3.949189653560908 15.605213881991617 3.3209900607035094 0 0 0
119 40 1 0.5897 2.6351221699574157 10.815647746684098 3.9964849535805773 0 0 0
235 79 2 -1.1794 0.8304795458654475 19.341163101408853 1.6909427651356894 0 0 0
234 78 1 0.5897 4.417920167931323 18.104461216307882 2.5392538985062285 0 0 0
127 43 2 -1.1794 0.9537681825042995 12.579877356581639 1.944987943514617 0 0 0
240 80 1 0.5897 2.6419431593582194 14.07792970817783 4.567026096604191 0 0 0
122 41 1 0.5897 4.376262483453122 12.573378909395121 1.3535535591041155 0 0 0
227 76 1 0.5897 1.183701814238219 18.12841614790051 3.1628319496283854 0 0 0
226 76 2 -1.1794 1.5501326374215465 17.459252452079518 3.7410044372193885 0 0 0
220 74 2 -1.1794 4.012120369638665 14.748017659144988 3.7424192215566254 0 0 0
248 83 1 0.5897 1.1572965311509382 15.475197378258192 1.695215531990325 0 0 0
219 73 1 0.5897 3.15160639443764 15.62273553107921 0.5479472665204757 0 0 0
247 83 2 -1.1794 0.6421349377295221 15.295597888541371 2.4817309353179042 0 0 0
232 78 2 -1.1794 4.178541908028221 17.685444546034297 3.365920772213501 0 0 0
123 41 1 0.5897 4.680302815468545 12.021370553262113 2.7300524713656427 0 0 0
249 83 1 0.5897 0.7367673584212622 16.08428562032079 3.0159067865046736 0 0 0
222 74 1 0.5897 4.140154280152021 14.133882364911388 3.0193941369528 0 0 0
233 78 1 0.5897 3.2219645808054636 17.654492949658746 3.351150500799197 0 0 0
124 42 2 -1.1794 4.390901511759942 10.83881776841517 4.122007387092252 0 0 0
125 42 1 0.5897 4.943226031693831 10.871418887324866 4.9031003045284605 0 0 0
783 261 1 0.5897 2.2744708970080727 12.757978784019333 0.7225487567866278 0 0 1
890 297 1 0.5897 1.9473604635039006 18.773375899948043 0.2596093498500458 0 0 1
238 80 2 -1.1794 1.963986815635891 13.764234671877345 5.165558588760224 0 0 0
217 73 2 -1.1794 2.2375429993398774 15.856289646727701 0.3862110539011364 0 0 0
250 84 2 -1.1794 4.923391090214151 15.694563510519343 0.523817676846621 0 0 0
128 43 1 0.5897 0.09633348192358196 12.557531187449381 1.5201079695184212 0 0 0
317 106 1 0.5897 0.11117557935672076 13.474578267017401 4.986414323741009 1 0 0
133 45 2 -1.1794 2.7314064352663547 11.677549325621904 6.765344057793009 0 0 0
134 45 1 0.5897 2.018960484381966 12.071939936785782 7.268483348258051 0 0 0
135 45 1 0.5897 3.5257508454147826 11.928985926642682 7.236561312639325 0 0 0
571 191 2 -1.1794 0.7962775538416563 15.380319114529419 9.131288278613741 0 0 0
453 151 1 0.5897 0.9839967443059496 11.8914453077268 9.314535365118347 0 0 0
450 150 1 0.5897 4.212310448224173 11.46662023938999 10.024124608874303 0 0 0
572 191 1 0.5897 1.4307911706960108 15.575361814463253 8.44165388447202 0 0 0
239 80 1 0.5897 2.330650969355092 12.966269293811239 5.546564759131397 0 0 0
451 151 2 -1.1794 0.8083609925007919 12.462656749668492 8.56674038708468 0 0 0
558 186 1 0.5897 4.206762865234365 17.87061104061197 9.392299884553546 0 0 0
576 192 1 0.5897 4.338123050736107 15.707690662189938 7.589780524037706 0 0 0
445 149 2 -1.1794 4.793752058059919 12.475457850268231 8.617593711314132 0 0 0
556 186 2 -1.1794 4.006631115501657 17.453486969147228 10.230311993354462 0 0 0
561 187 1 0.5897 0.6246803515357177 18.657318420657305 9.336008294639594 0 0 0
543 181 1 0.5897 2.4290782930165284 15.302690006925294 6.354893832774942 0 0 0
446 149 1 0.5897 4.6806249717901895 13.370026854547568 8.939044416505313 0 0 0
242 81 1 0.5897 1.8357982390349328 18.88178110168687 7.224638900273639 0 0 0
241 81 2 -1.1794 2.543663379162253 18.57153097744834 6.659899694719306 0 0 0
541 181 2 -1.1794 2.5354621913249717 15.850055456643807 7.13293731799449 0 0 0
542 181 1 0.5897 2.769888707681329 16.71234143142697 6.789623005235051 0 0 0
243 81 1 0.5897 3.3448336394920686 18.83093077574705 7.114938166477484 0 0 0
573 191 1 0.5897 1.043873998909319 14.510957037495533 9.446379502102543 0 0 0
559 187 2 -1.1794 0.5282390728451151 19.211401436355594 8.561466773606043 0 0 0
553 185 2 -1.1794 4.675858057074633 19.3210401967168 8.275919997736679 0 0 0
544 182 2 -1.1794 4.080028542904581 14.704503115275244 10.174252405406964 0 0 0
557 186 1 0.5897 4.051531835769048 16.51479500312834 10.047993417858374 0 0 0
552 184 1 0.5897 1.1018740012008 16.893703360494747 10.021310566695211 0 0 0
457 153 2 -1.1794 2.8150843831101895 11.651508509867261 13.456652289348314 0 0 0
458 153 1 0.5897 2.118446762107551 12.155070609333372 13.877792306914774 0 0 0
459 153 1 0.5897 3.5663364695431032 11.744847286796045 14.042410825242712 0 0 0
563 188 1 0.5897 2.4757635597826404 13.246681362484864 12.347740976408048 0 0 0
546 182 1 0.5897 4.80742426678491 14.572114537004824 10.782207071561816 0 0 0
562 188 2 -1.1794 2.109980624015708 13.934826555265882 11.791878913970212 0 0 0
769 257 2 -1.1794 4.767433236668622 12.307728688958433 15.144564008298534 0 0 0
877 293 2 -1.1794 4.7265700646847515 18.95023595709017 15.158241286461308 0 0 0
550 184 2 -1.1794 1.3737690675439753 17.53410152434286 10.678781027465496 0 0 0
567 189 1 0.5897 1.9682471988039034 19.05931052284513 13.991801468507665 0 0 0
565 189 2 -1.1794 2.672645491641539 19.054023304747943 13.343687783248384 0 0 0
879 293 1 0.5897 4.066019432537478 19.08928777644077 14.479577048777408 0 0 0
865 289 2 -1.1794 2.9445753991338597 15.98657772840902 13.361234542097767 0 0 0
564 188 1 0.5897 2.275423178538274 14.745555033085333 12.27321495698154 0 0 0
551 184 1 0.5897 2.3303777297078816 17.514252094039847 10.651925765624956 0 0 0
545 182 1 0.5897 3.3224953871995795 14.325850187112046 10.620362952375759 0 0 0
867 289 1 0.5897 2.2785141919957588 15.935065388068491 14.046754082374287 0 0 0
866 289 1 0.5897 3.7329342585387497 15.623468111685167 13.764835500337195 0 0 0
566 189 1 0.5897 2.6570019702404823 18.168903942310685 12.97944066504738 0 0 0
444 148 1 0.5897 2.175795591718954 10.559623134979688 10.66046035964613 0 0 0
442 148 2 -1.1794 1.2278637606429117 10.502695722875034 10.54039823417589 0 0 0
641 214 1 0.5897 0.44765531481030313 13.695499226266264 11.926822529148593 1 0 0
512 171 1 0.5897 0.14531969833118621 10.670327707754991 12.008921613870369 1 0 0
449 150 1 0.5897 4.49711483834313 10.995608272182821 11.434453615170845 0 0 0
896 299 1 0.5897 0.21564638958998097 15.670302215277015 14.69092760182315 0 0 0
883 295 2 -1.1794 0.8046064428343052 19.50668628272883 15.441568163614345 0 0 0
621 207 1 0.5897 0.08435859405979129 18.14655603927259 11.813582399633638 1 0 0
777 259 1 0.5897 0.9821325775801879 13.867223120677945 15.195545613970745 0 0 0
776 259 1 0.5897 0.10733402497641534 12.714059661628701 14.751600099393938 0 0 0
775 259 2 -1.1794 0.9191875916290965 12.912279476606864 15.218347571324067 0 0 0
448 150 2 -1.1794 3.8976275779137226 10.865790669975228 10.69961822127166 0 0 0
895 299 2 -1.1794 1.0465560871922663 15.494118794180299 15.132265157699521 0 0 0
888 296 1 0.5897 2.2330982418589578 13.409721359167293 18.758981522074492 0 0 0
768 256 1 0.5897 1.224879227899508 11.639907500213278 16.73283159781161 0 0 0
767 256 1 0.5897 0.7890596678106998 11.061793702337683 18.06243389388007 0 0 0
773 258 1 0.5897 3.394947531900328 10.791815511393034 17.35954610170822 0 0 0
891 297 1 0.5897 2.2025316611348527 19.43344945061009 19.353142957722014 0 0 0
782 261 1 0.5897 2.774255019554241 11.530305637332535 20.42288371268029 0 0 0
886 296 2 -1.1794 1.817593694902041 14.201847969934486 18.41804811535087 0 0 0
772 258 2 -1.1794 4.337571837441113 10.769980136062538 17.52446839725426 0 0 0
781 261 2 -1.1794 2.9220232754197393 12.472087461165474 20.510108615923464 0 0 0
868 290 2 -1.1794 3.955052378873299 14.620813761730352 16.626730819083342 0 0 0
889 297 2 -1.1794 2.4332427631847118 18.664202944975777 19.874053459873082 0 0 0
875 292 1 0.5897 0.6117280590880064 17.54222719595773 17.94857248558005 0 0 0
869 290 1 0.5897 3.200072028361544 14.486492474782965 17.19961726599744 0 0 0
766 256 2 -1.1794 1.4294522715358808 10.946620881828744 17.36038846749645 0 0 0
887 296 1 0.5897 1.9561090909689203 14.85842938121629 19.1007259019972 0 0 0
774 258 1 0.5897 4.715116298191137 11.311285421344145 16.831097551235572 0 0 0
881 294 1 0.5897 2.993726679976561 17.500772814208027 17.42443058811544 0 0 0
897 299 1 0.5897 1.015702531658892 16.030056360463107 15.924819932647699 0 0 0
882 294 1 0.5897 3.9331891545952127 16.424098558635343 16.924122863814652 0 0 0
876 292 1 0.5897 1.0428258450163237 18.113318157019847 16.614378911395477 0 0 0
880 294 2 -1.1794 3.9226206101993193 17.30032118971092 17.309482542895736 0 0 0
874 292 2 -1.1794 1.2101442825177493 17.388927450515148 17.217372041282097 0 0 0
878 293 1 0.5897 4.3126159319136175 18.34772498563205 15.776255921296888 0 0 0
965 322 1 0.5897 0.12843207213498958 14.072910657115182 18.415180276205213 1 0 0
870 290 1 0.5897 4.711917198628073 14.564057776572854 17.209959006385816 0 0 0
218 73 1 0.5897 2.283037103241257 16.667043697534922 20.311211331484554 0 0 -1
771 257 1 0.5897 4.602006075151491 13.12803854554723 15.609414585345588 0 0 0
48 16 1 0.5897 7.1278739785294585 4.4880640294595695 4.748914466214429 0 0 0
176 59 1 0.5897 6.9686590375201645 8.36830684734217 3.080458535912419 0 0 0
56 19 1 0.5897 6.393681618287674 5.872969454889866 2.3009376577697616 0 0 0
47 16 1 0.5897 7.421525503955242 3.3393985767631644 3.8073550095899114 0 0 0
68 23 1 0.5897 7.908754949543688 2.0813519276608052 1.883250582622914 0 0 0
46 16 2 -1.1794 7.7310278046176295 4.209355731352662 4.059855155379756 0 0 0
69 23 1 0.5897 6.4114796324088585 2.2643852194583673 2.0116876547072002 0 0 0
67 23 2 -1.1794 7.193511748385735 2.0454962645931127 2.518379827722009 0 0 0
57 19 1 0.5897 7.721005194407133 5.590701702059382 2.972101650340404 0 0 0
39 13 1 0.5897 9.938828242814413 2.6124366189795514 0.3660994954015977 0 0 0
175 59 2 -1.1794 7.193765924273956 9.271040857782415 2.8551352331702513 0 0 0
142 48 2 -1.1794 5.2862334495909185 9.533016995640633 0.7886077783749584 0 0 0
55 19 2 -1.1794 7.297180974363945 6.184825326011567 2.3526632457753696 0 0 0
177 59 1 0.5897 7.774663000482644 9.191785485854401 2.098470351612689 0 0 0
34 12 2 -1.1794 5.217294453323121 2.572724866364569 0.5881597819743256 0 0 0
144 48 1 0.5897 5.921325807424871 9.464596833484329 1.5015030010225128 0 0 0
273 91 1 0.5897 7.116591952539058 0.12548019271192523 2.0528134100720323 0 1 0
6 2 1 0.5897 5.118337426541298 1.4334516541816387 4.025739783554085 0 0 0
711 237 1 0.5897 8.232126495575267 5.591967996027223 0.8294393706801847 0 0 1
143 48 1 0.5897 5.450384219744961 8.761609347082256 0.24608882973059087 0 0 0
53 18 1 0.5897 9.604923192630121 3.7349816038007373 4.021284410078561 0 0 0
37 13 2 -1.1794 8.987365897568624 2.521044033828858 0.3151926392348321 0 0 0
145 49 2 -1.1794 9.087167801117534 9.632251338326515 0.6335817161058959 0 0 0
28 10 2 -1.1794 6.090771837420646 0.7056336183264429 5.201428853438829 0 0 0
58 20 2 -1.1794 8.786010154319948 0.8839833978891785 5.06107841505247 0 0 0
29 10 1 0.5897 7.039766700289155 0.745103401114689 5.082832486412151 0 0 0
709 237 2 -1.1794 8.980363084068136 5.477972963626865 0.24343633941700915 0 0 1
36 12 1 0.5897 5.683658266914256 3.3874098783872766 0.40072384578391507 0 0 0
7 3 2 -1.1794 5.600660063179027 5.005900184927034 5.612152020319059 0 0 0
469 157 2 -1.1794 9.368807061112689 9.694381865769875 7.114052150500605 0 0 0
391 131 2 -1.1794 7.208843819994636 2.4677844148190684 9.12304177304608 0 0 0
393 131 1 0.5897 7.949939809487165 2.561467742952322 8.524503539621803 0 0 0
62 21 1 0.5897 8.284386598983712 5.502297233499264 7.2445596632100075 0 0 0
137 46 1 0.5897 6.007481370306421 6.870277713772692 5.71904579702246 0 0 0
381 127 1 0.5897 7.1678368983348735 5.397597246416937 9.183004486395593 0 0 0
8 3 1 0.5897 5.511907867597085 4.239621723300355 6.178972925114014 0 0 0
392 131 1 0.5897 7.155726236221638 1.5273774362669874 9.293897131046 0 0 0
362 121 1 0.5897 8.806601510648493 3.571177393910675 6.819731894834485 0 0 0
466 156 2 -1.1794 5.431137214801451 9.332233570536626 7.696489470262289 0 0 0
359 120 1 0.5897 6.008536589236143 2.5247481232636115 7.7888363123621165 0 0 0
470 157 1 0.5897 8.836868032757785 9.316262657667425 7.814293309774569 0 0 0
501 167 1 0.5897 6.656064361353068 8.73428685387946 8.799701651946124 0 0 0
467 156 1 0.5897 5.856136573719567 8.689928297377023 7.1280434678659 0 0 0
61 21 2 -1.1794 8.993650838580493 5.367320169603758 6.616084467144312 0 0 0
338 113 1 0.5897 5.244206569145304 5.863868988692618 8.150950117227 0 0 0
361 121 2 -1.1794 8.972884916218193 2.6917631190172124 7.159319563875266 0 0 0
360 120 1 0.5897 5.862990621534298 1.9156033008663569 6.410501442293302 0 0 0
500 167 1 0.5897 7.68828557585211 9.01053562838461 9.872156945924296 0 0 0
358 120 2 -1.1794 5.452798448656681 2.539409202000576 7.009605159918486 0 0 0
380 127 1 0.5897 7.182110931289735 6.810598778739408 8.639425622253482 0 0 0
379 127 2 -1.1794 7.133357832326633 5.894624554770719 8.365640073047057 0 0 0
499 167 2 -1.1794 7.521854333991087 8.46304803514871 9.104772347591673 0 0 0
363 121 1 0.5897 9.909400213038376 2.6839732886125893 7.357068986275811 0 0 0
59 20 1 0.5897 9.027045409992473 1.6724746791021392 5.5474381145722695 0 0 0
60 20 1 0.5897 9.093038423884664 0.161102372542791 5.608349917948776 0 0 0
136 46 2 -1.1794 6.18627393191515 7.797163535951864 5.559959623050391 0 0 0
167 56 1 0.5897 9.004264283749565 6.784110538159385 5.757850885560032 0 0 0
63 21 1 0.5897 9.793696016885773 5.468900366969548 7.13168456124185 0 0 0
168 56 1 0.5897 9.254648289317968 8.265469818438824 5.945353249851165 0 0 0
138 46 1 0.5897 7.141385759755765 7.857684567380311 5.541987688849344 0 0 0
371 124 1 0.5897 7.673919629984853 3.6947731475831103 10.34573606412128 0 0 0
166 56 2 -1.1794 8.859767471176331 7.634725743508701 5.343234054358341 0 0 0
491 164 1 0.5897 9.08485234151319 7.941818382555104 10.820714940424738 0 0 0
372 124 1 0.5897 7.180121301519763 4.525229258373452 11.511293953448483 0 0 0
377 126 1 0.5897 9.532581159219134 4.239939307478861 10.76270219045168 0 0 0
331 111 2 -1.1794 5.743144676820257 4.638852049948269 12.742849862025807 0 0 0
353 118 1 0.5897 6.3511285827913095 1.044198086886673 12.298850165985383 0 0 0
793 265 2 -1.1794 9.365480252871494 8.967773334601816 14.171196826142191 0 0 0
686 229 1 0.5897 8.420035076113106 2.6834855279535663 14.336896741958755 0 0 0
385 129 2 -1.1794 9.241714477051255 5.709882741873507 13.636930571106724 0 0 0
685 229 2 -1.1794 9.017187425981762 2.8637926373517333 13.61083606795404 0 0 0
383 128 1 0.5897 8.29905854762565 1.8199589267823348 12.406971684410696 0 0 0
352 118 2 -1.1794 5.457072963287166 0.8857018609815216 12.601743146322088 0 0 0
461 154 1 0.5897 5.92156665322363 7.56030694542363 13.002474893399041 0 0 0
462 154 1 0.5897 5.41531000926918 7.446725206698934 11.580216173883978 0 0 0
791 264 1 0.5897 6.004855681788015 8.792377434015169 15.368425079558039 0 0 0
386 129 1 0.5897 9.114711176725338 4.828303282116096 13.286127107199276 0 0 0
387 129 1 0.5897 9.348446483266928 6.263098922675017 12.863059762202658 0 0 0
333 111 1 0.5897 5.893428726367815 5.581114966541678 12.66594826543025 0 0 0
794 265 1 0.5897 8.901261681171398 8.541611694781805 13.45067253726507 0 0 0
460 154 2 -1.1794 6.1031947612824595 7.1311738659369945 12.166315567317953 0 0 0
492 164 1 0.5897 7.8357533332552585 7.636158812701566 11.619609037884045 0 0 0
370 124 2 -1.1794 7.747701697110337 4.563274706674586 10.741464791997503 0 0 0
384 128 1 0.5897 8.751178813423493 1.120411070988619 11.142739703873032 0 0 0
684 228 1 0.5897 5.263657110784231 3.6784535459053043 14.215779203643647 0 0 0
687 229 1 0.5897 9.886761897387947 2.672247287478424 13.962102739234325 0 0 0
354 118 1 0.5897 5.419096636668083 1.2990271809903966 13.46430940032253 0 0 0
490 164 2 -1.1794 8.708982178495766 8.020410708642286 11.697528652858564 0 0 0
382 128 2 -1.1794 8.075713537700683 1.0970620657508448 11.820573322622918 0 0 0
795 265 1 0.5897 9.427322571043918 9.885856917279186 13.9072440274039 0 0 0
790 264 2 -1.1794 5.727557910497794 8.958895175887855 14.467507321170629 0 0 0
705 235 1 0.5897 7.851371730413269 5.7597413482376645 14.942894837024228 0 0 0
707 236 1 0.5897 8.827361420023148 0.2598674987296947 19.054911909739815 0 0 0
657 219 1 0.5897 6.843998691233442 4.420209135323966 18.654285898759703 0 0 0
677 226 1 0.5897 5.0554700815147955 0.7980041509201597 18.437795469303005 0 0 0
694 232 2 -1.1794 8.23648063029538 4.017254772821651 17.763323492859755 0 0 0
762 254 1 0.5897 5.14373255827914 7.708096457425947 18.106317537936597 0 0 0
715 239 2 -1.1794 7.25545844833095 1.9506752889074692 15.705899957478447 0 0 0
823 275 2 -1.1794 7.5873507332455805 8.920801323605874 16.400893273030242 0 0 0
655 219 2 -1.1794 6.073048740259153 4.637466068644094 19.178360692949575 0 0 0
706 236 2 -1.1794 8.459597832844548 1.0261599662342997 18.61459669253992 0 0 0
824 275 1 0.5897 8.13037698325526 8.952845323495668 15.613295057488777 0 0 0
815 272 1 0.5897 8.833749490350792 6.763591380108586 19.470586492662434 0 0 0
695 232 1 0.5897 8.061362474433585 3.127285352509192 17.457329343920136 0 0 0
825 275 1 0.5897 7.686785315019654 8.025481856958741 16.72465920301373 0 0 0
38 13 1 0.5897 8.839530401922273 1.9774237096829361 19.973212297779355 0 0 -1
708 236 1 0.5897 7.513215184580011 0.8843696910801626 18.63661567932482 0 0 0
696 232 1 0.5897 7.976126781426526 4.577964415180756 17.03249085619541 0 0 0
784 262 2 -1.1794 6.0360521202624495 7.34689532235517 19.573808956726225 0 0 0
786 262 1 0.5897 6.968059615508609 7.554924205278366 19.508545076724417 0 0 0
716 239 1 0.5897 7.211497059595028 1.0167517451621468 15.91129350924379 0 0 0
816 272 1 0.5897 8.834808353581856 8.234208804736962 19.83042915819677 0 0 0
785 262 1 0.5897 6.006930276280664 6.391969937156718 19.634330858049204 0 0 0
676 226 2 -1.1794 5.77414424222438 0.6064444454877426 19.04034407578296 0 0 0
814 272 2 -1.1794 8.79608433343284 7.6378509917322255 19.08263914708519 0 0 0
703 235 2 -1.1794 7.432014232327445 5.7289596898678345 15.802811241242798 0 0 0
702 234 1 0.5897 9.92977389864972 4.373579083108153 17.165944064274804 0 0 0
656 219 1 0.5897 5.343367045509875 4.596409124771245 18.560218001312826 0 0 0
689 230 1 0.5897 9.944297124058227 1.399130645942961 17.572043500086096 0 0 0
717 239 1 0.5897 6.344833530363016 2.2077754580871747 15.561442980738088 0 0 0
710 237 1 0.5897 8.849134597305456 4.614388279845557 20.283720457702213 0 0 0
35 12 1 0.5897 5.455256093206546 1.9887436965026988 20.29989972201831 0 0 -1
704 235 1 0.5897 6.496738703293697 5.659714615106613 15.611336053024926 0 0 0
231 77 1 0.5897 5.314646893807542 19.159873817644197 0.989094665258914 0 0 0
275 92 1 0.5897 9.268405639750807 14.151103807078783 4.258796176066986 0 0 0
819 273 1 0.5897 8.81234878605827 12.690032183341915 0.7672152778066551 0 0 1
156 52 1 0.5897 9.261193013737481 11.191733043005312 4.101047181964621 0 0 0
164 55 1 0.5897 8.076930872165622 12.534883236935901 3.122913544857388 0 0 0
165 55 1 0.5897 6.985581314843738 12.865243397029674 2.127026654776752 0 0 0
163 55 2 -1.1794 7.904975303730535 13.039908437088153 2.3281251448424296 0 0 0
264 88 1 0.5897 8.535611083885328 17.51307020202904 4.1396446722348434 0 0 0
285 95 1 0.5897 7.770754521877462 14.805789367604822 1.9171506156469436 0 0 0
271 91 2 -1.1794 7.4948446209569815 19.265527968473044 1.6869715715646587 0 0 0
263 88 1 0.5897 7.059011198589993 17.515507280403895 4.473589440803577 0 0 0