LAMMPS data file via MDAnalysis

        2592  atoms
        1728  bonds
         864  angles
           0  dihedrals
           0  impropers

           2  atom types
           1  bond types
           1  angle types
           0  dihedral types
           0  improper types

0.000000 23.356001 xlo xhi
0.000000 21.465031 ylo yhi
0.000000 43.472630 zlo zhi
-9.208795 3.750980 5.688324 xy xz yz


Masses

1 1.008000
2 15.999000

Atoms

1 0 2 -1.179400 13.316543 17.742243 4.961904
2 0 1 0.589700 13.645430 18.442932 5.513195
3 0 1 0.589700 12.504730 18.076221 4.612214
4 0 2 -1.179400 -0.121227 4.180861 2.475674
5 0 1 0.589700 -0.678342 3.627619 3.008359
6 0 1 0.589700 -0.638119 4.384631 1.702284
7 0 2 -1.179400 4.716808 1.877706 0.347538
8 0 1 0.589700 7.944000 7.107597 43.533146
9 0 1 0.589700 4.766551 1.863355 1.303293
10 0 2 -1.179400 12.529250 21.720648 4.454158
11 0 1 0.589700 11.936116 20.990967 4.554962
12 0 1 0.589700 13.383460 21.322060 4.420787
13 0 2 -1.179400 19.517244 4.664125 1.702190
14 0 1 0.589700 19.929951 4.907542 2.526819
15 0 1 0.589700 20.233301 4.516057 1.098314
16 0 2 -1.179400 2.475566 0.269959 2.572729
17 0 1 0.589700 2.568443 1.178533 2.316778
18 0 1 0.589700 -5.878383 21.331730 2.115861
19 0 2 -1.179400 1.653589 6.451077 1.675843
20 0 1 0.589700 2.394246 6.009731 2.064958
21 0 1 0.589700 1.446024 5.937609 0.899373
22 0 2 -1.179400 -8.285495 20.472692 4.125286
23 0 1 0.589700 -7.725555 20.983704 3.554034
24 0 1 0.589700 -7.692358 19.973495 4.672101
25 0 2 -1.179400 18.843502 0.907242 5.700416
26 0 1 0.589700 9.563584 22.022532 4.860425
27 0 1 0.589700 19.022654 1.814460 5.491137
28 0 2 -1.179400 2.379437 2.966033 2.285704
29 0 1 0.589700 2.966274 3.706564 2.325245
30 0 1 0.589700 1.520074 3.353000 2.249527
31 0 2 -1.179400 -4.806141 19.588490 3.902378
32 0 1 0.589700 -5.326822 19.267111 4.631135
33 0 1 0.589700 -5.292360 19.346451 3.119762
34 0 2 -1.179400 20.937311 2.436394 3.043871
35 0 1 0.589700 21.245968 1.656470 3.488403
36 0 1 0.589700 20.330177 2.826761 3.660623
37 0 2 -1.179400 -2.781891 18.129974 5.023028
38 0 1 0.589700 -2.472405 18.644375 5.762985
39 0 1 0.589700 -3.521711 18.614492 4.688471
40 0 2 -1.179400 7.977196 3.443740 2.436867
41 0 1 0.589700 7.397281 2.884675 2.937259
42 0 1 0.589700 7.406892 3.947731 1.869840
43 0 2 -1.179400 12.981301 1.702776 0.333770
44 0 1 0.589700 12.999040 0.777153 0.539203
45 0 1 0.589700 13.286243 2.125855 1.132345
46 0 2 -1.179400 -2.903678 21.362875 4.460157
47 0 1 0.589700 -3.444829 20.613644 4.256354
48 0 1 0.589700 -2.031758 21.009211 4.523584
49 0 2 -1.179400 3.896464 5.078724 2.317481
50 0 1 0.589700 4.306993 5.336340 3.138825
51 0 1 0.589700 4.607257 5.010384 1.692971
52 0 2 -1.179400 1.775132 21.432503 3.110832
53 0 1 0.589700 10.599337 0.710453 2.629217
54 0 1 0.589700 2.361306 20.967640 2.526685
55 0 2 -1.179400 9.310178 6.111283 1.203004
56 0 1 0.589700 10.122890 5.649254 1.332739
57 0 1 0.589700 8.969289 5.765790 0.381683
58 0 2 -1.179400 -0.350146 20.023468 4.419333
59 0 1 0.589700 0.359825 20.480761 3.991868
60 0 1 0.589700 0.025715 19.678926 5.225168
61 0 2 -1.179400 3.422215 0.784426 5.596382
62 0 1 0.589700 -5.473874 22.016201 4.694767
63 0 1 0.589700 3.667498 1.699536 5.609059
64 0 2 -1.179400 10.352384 2.352895 1.882396
65 0 1 0.589700 10.945068 3.088258 1.929559
66 0 1 0.589700 9.498101 2.747519 1.817658
67 0 2 -1.179400 2.993312 18.929247 4.514607
68 0 1 0.589700 2.434896 18.928621 5.285569
69 0 1 0.589700 2.478267 18.514423 3.831263
70 0 2 -1.179400 5.684492 2.290497 3.387196
71 0 1 0.589700 5.809745 1.454181 3.819397
72 0 1 0.589700 4.990905 2.705221 3.881489
73 0 2 -1.179400 5.304357 17.699492 5.138481
74 0 1 0.589700 5.639361 18.358089 5.736876
75 0 1 0.589700 4.491230 18.059826 4.820017
76 0 2 -1.179400 15.317433 3.729380 1.880250
77 0 1 0.589700 14.645480 3.274704 2.369518
78 0 1 0.589700 14.890113 4.017934 1.078465
79 0 2 -1.179400 20.782898 1.790335 0.247766
80 0 1 0.589700 20.534178 0.881918 0.351954
81 0 1 0.589700 20.649124 2.172696 1.113025
82 0 2 -1.179400 4.481954 21.333689 4.434443
83 0 1 0.589700 4.076436 20.479309 4.480371
84 0 1 0.589700 5.402320 21.150562 4.346384
85 0 2 -1.179400 11.639608 4.991465 2.001056
86 0 1 0.589700 12.200239 5.213736 2.736888
87 0 1 0.589700 12.217014 4.956849 1.245476
88 0 2 -1.179400 9.533656 21.692944 3.126236
89 0 1 0.589700 18.549366 1.084604 2.827919
90 0 1 0.589700 10.187758 21.289400 2.570740
91 0 2 -1.179400 17.292402 6.185622 1.337072
92 0 1 0.589700 16.871857 5.606946 0.710807
93 0 1 0.589700 18.109100 5.758119 1.540654
94 0 2 -1.179400 7.362461 20.283245 4.218822
95 0 1 0.589700 8.066586 20.498966 3.621282
96 0 1 0.589700 7.767858 19.762863 4.904726
97 0 2 -1.179400 11.370034 1.004088 5.868935
98 0 1 0.589700 11.273122 0.653094 4.985245
99 0 1 0.589700 11.386987 1.943999 5.746265
100 0 2 -1.179400 17.858824 2.529356 1.796306
101 0 1 0.589700 18.414217 3.294884 1.780648
102 0 1 0.589700 16.993052 2.873785 1.943354
103 0 2 -1.179400 10.965063 19.209257 4.438457
104 0 1 0.589700 10.232876 19.198536 5.040780
105 0 1 0.589700 10.598664 18.961382 3.592871
106 0 2 -1.179400 13.181884 2.376658 3.099453
107 0 1 0.589700 13.124850 1.464480 3.353157
108 0 1 0.589700 12.473694 2.796119 3.567607
109 0 2 -1.179400 19.063675 3.507517 5.043351
110 0 1 0.589700 19.365030 4.089298 5.734248
111 0 1 0.589700 18.380379 3.992342 4.602158
112 0 2 -1.179400 -2.808724 11.081499 1.900152
113 0 1 0.589700 -3.537482 10.564203 2.208690
114 0 1 0.589700 -3.138888 11.538012 1.131253
115 0 2 -1.179400 3.065280 8.714190 0.754174
116 0 1 0.589700 2.638473 7.906612 1.005455
117 0 1 0.589700 2.777942 9.345617 1.405666
118 0 2 -1.179400 18.522007 7.220959 4.259238
119 0 1 0.589700 17.869032 6.577274 4.027647
120 0 1 0.589700 19.343012 6.775282 4.125125
121 0 2 -1.179400 16.815502 11.897946 1.698937
122 0 1 0.589700 17.470963 12.260051 2.281248
123 0 1 0.589700 17.232145 11.865388 0.841043
124 0 2 -1.179400 -0.749847 7.386603 2.700441
125 0 1 0.589700 -0.583482 8.312740 2.586490
126 0 1 0.589700 -0.050267 6.958988 2.226484
127 0 2 -1.179400 -0.985266 13.864874 1.129574
128 0 1 0.589700 -0.294889 13.328787 1.491850
129 0 1 0.589700 -1.167295 13.480949 0.274166
130 0 2 -1.179400 20.765663 5.862830 3.906916
131 0 1 0.589700 -2.047405 6.399708 3.342960
132 0 1 0.589700 21.346308 5.557535 4.594823
133 0 2 -1.179400 15.629820 7.893373 5.469495
134 0 1 0.589700 15.460978 7.664569 4.556575
135 0 1 0.589700 16.059381 8.735790 5.423819
136 0 2 -1.179400 -0.345092 10.079687 2.382794
137 0 1 0.589700 0.215102 10.835869 2.286782
138 0 1 0.589700 -1.205467 10.443316 2.514605
139 0 2 -1.179400 1.805138 4.872900 4.629573
140 0 1 0.589700 1.112203 4.616002 5.224000
141 0 1 0.589700 1.480601 4.657428 3.757690
142 0 2 -1.179400 18.403978 9.617484 2.767359
143 0 1 0.589700 18.516350 8.850482 3.318073
144 0 1 0.589700 17.822254 10.176097 3.266109
145 0 2 -1.179400 4.058438 3.441322 5.107634
146 0 1 0.589700 4.483656 4.088690 5.657399
147 0 1 0.589700 3.202754 3.801728 4.940112
148 0 2 -1.179400 4.708123 11.329755 2.486576
149 0 1 0.589700 3.913592 10.967352 2.848153
150 0 1 0.589700 4.452090 11.692520 1.641367
151 0 2 -1.179400 10.063758 8.777430 1.101960
152 0 1 0.589700 10.032580 7.836951 1.217078
153 0 1 0.589700 9.974995 9.126214 1.987424
154 0 2 -1.179400 3.120255 7.343427 4.619873
155 0 1 0.589700 2.592807 6.558956 4.580724
156 0 1 0.589700 4.001282 7.037933 4.478716
157 0 2 -1.179400 1.192701 12.471669 1.919325
158 0 1 0.589700 1.492015 12.865578 2.735129
159 0 1 0.589700 1.953471 12.461339 1.354739
160 0 2 -1.179400 7.516244 7.522797 2.805749
161 0 1 0.589700 7.413978 8.325769 2.307818
162 0 1 0.589700 7.997246 6.948872 2.221330
163 0 2 -1.179400 6.633280 13.642384 1.461528
164 0 1 0.589700 7.373851 13.303685 1.944429
165 0 1 0.589700 6.951339 14.436191 1.050144
166 0 2 -1.179400 5.672528 6.042095 4.203489
167 0 1 0.589700 6.403378 6.424822 3.739215
168 0 1 0.589700 6.063758 5.446872 4.833545
169 0 2 -1.179400 0.175279 7.682362 5.464298
170 0 1 0.589700 0.150315 7.298376 4.589523
171 0 1 0.589700 0.304572 8.608517 5.308518
172 0 2 -1.179400 7.123555 10.114300 1.762157
173 0 1 0.589700 7.691139 10.726580 2.210972
174 0 1 0.589700 6.253589 10.424832 1.953854
175 0 2 -1.179400 9.089353 5.003145 4.444267
176 0 1 0.589700 8.501740 4.929076 5.188749
177 0 1 0.589700 8.623490 4.605092 3.715808
178 0 2 -1.179400 2.619432 9.792827 3.487398
179 0 1 0.589700 2.743771 8.939182 3.883847
180 0 1 0.589700 2.019514 10.235690 4.074570
181 0 2 -1.179400 11.316852 3.460213 4.742945
182 0 1 0.589700 11.666333 4.140810 5.306685
183 0 1 0.589700 10.448702 3.758109 4.524196
184 0 2 -1.179400 12.425334 10.613027 1.800188
185 0 1 0.589700 11.792865 10.254475 2.410318
186 0 1 0.589700 11.925071 11.186228 1.231958
187 0 2 -1.179400 18.217960 8.462258 0.301632
188 0 1 0.589700 17.937538 7.646616 0.697423
189 0 1 0.589700 18.266346 9.070256 1.034332
190 0 2 -1.179400 11.034743 7.069671 4.678102
191 0 1 0.589700 10.236705 6.571531 4.601573
192 0 1 0.589700 11.717737 6.441597 4.497816
193 0 2 -1.179400 8.834243 12.419969 2.337044
194 0 1 0.589700 9.398273 12.479126 3.101449
195 0 1 0.589700 9.420826 12.285238 1.600438
196 0 2 -1.179400 15.391383 7.352612 2.744193
197 0 1 0.589700 15.281942 8.243713 2.437396
198 0 1 0.589700 16.129438 7.024665 2.249888
199 0 2 -1.179400 14.436412 13.170566 1.024770
200 0 1 0.589700 15.228496 12.792832 1.375750
201 0 1 0.589700 14.157772 12.560159 0.349389
202 0 2 -1.179400 13.374082 5.600174 4.082878
203 0 1 0.589700 14.001266 6.181426 3.675818
204 0 1 0.589700 13.868775 5.123933 4.740425
205 0 2 -1.179400 7.942684 8.100358 5.619546
206 0 1 0.589700 7.907341 7.874662 4.690570
207 0 1 0.589700 8.124686 9.030336 5.629274
208 0 2 -1.179400 15.130390 9.700527 1.572773
209 0 1 0.589700 15.829165 10.299150 1.789167
210 0 1 0.589700 14.343647 10.181644 1.776107
211 0 2 -1.179400 16.895739 4.926383 4.124101
212 0 1 0.589700 16.249638 4.774888 4.803783
213 0 1 0.589700 16.457741 4.706119 3.306328
214 0 2 -1.179400 10.740014 9.571573 3.738154
215 0 1 0.589700 10.951150 8.708143 4.069797
216 0 1 0.589700 10.007454 9.851373 4.269677
217 0 2 -1.179400 16.562460 10.460974 4.779281
218 0 1 0.589700 16.688099 11.103481 5.471355
219 0 1 0.589700 15.749076 10.708220 4.365693
220 0 2 -1.179400 -6.371530 18.439611 1.867159
221 0 1 0.589700 -7.045976 18.013130 2.378294
222 0 1 0.589700 -6.828628 19.090754 1.349255
223 0 2 -1.179400 -0.712814 16.437103 0.696158
224 0 1 0.589700 -0.894891 15.507209 0.711146
225 0 1 0.589700 -0.648269 16.681143 1.618762
226 0 2 -1.179400 15.525625 14.289784 4.114278
227 0 1 0.589700 14.976980 13.526410 4.008012
228 0 1 0.589700 16.403385 13.960178 4.013094
229 0 2 -1.179400 13.346848 19.329189 2.270142
230 0 1 0.589700 13.723927 19.730742 3.047988
231 0 1 0.589700 14.056915 19.285517 1.642531
232 0 2 -1.179400 -3.245880 14.920534 2.592646
233 0 1 0.589700 -3.474014 15.740600 2.172259
234 0 1 0.589700 -2.421835 14.679291 2.197648
235 0 2 -1.179400 -4.416422 20.586277 0.815069
236 0 1 0.589700 -1.287103 26.084675 43.562382
237 0 1 0.589700 -3.519837 20.488194 1.092088
238 0 2 -1.179400 -5.297354 13.266809 3.811778
239 0 1 0.589700 -4.603894 13.854753 3.552199
240 0 1 0.589700 -4.920636 12.733996 4.504789
241 0 2 -1.179400 12.519360 15.125236 5.724518
242 0 1 0.589700 12.577425 14.652285 4.897082
243 0 1 0.589700 12.816785 16.000095 5.513748
244 0 2 -1.179400 -3.703690 17.250593 1.353335
245 0 1 0.589700 -3.005500 17.799570 1.678556
246 0 1 0.589700 -4.484385 17.761942 1.496629
247 0 2 -1.179400 -1.970255 12.433865 4.315423
248 0 1 0.589700 -2.697309 12.258731 4.897971
249 0 1 0.589700 -2.313511 12.292333 3.435539
250 0 2 -1.179400 15.295250 16.798279 3.309236
251 0 1 0.589700 15.385180 15.912279 3.636933
252 0 1 0.589700 14.533771 17.136858 3.757405
253 0 2 -1.179400 0.479456 10.590903 5.250131
254 0 1 0.589700 0.650111 11.128303 6.019331
255 0 1 0.589700 -0.245628 11.015797 4.814811
256 0 2 -1.179400 1.540428 18.236542 2.397593
257 0 1 0.589700 0.774221 17.827868 2.771729
258 0 1 0.589700 1.277299 18.496212 1.516677
259 0 2 -1.179400 7.245286 16.207876 0.742147
260 0 1 0.589700 10.046704 22.927126 43.565075
261 0 1 0.589700 7.207747 16.666410 1.579028
262 0 2 -1.179400 -0.260009 14.502776 4.369076
263 0 1 0.589700 -0.876395 13.786219 4.391186
264 0 1 0.589700 0.576575 14.084970 4.243080
265 0 2 -1.179400 -1.643594 19.911531 1.561057
266 0 1 0.589700 -1.098043 20.224186 2.274751
267 0 1 0.589700 -1.057422 19.820715 0.817292
268 0 2 -1.179400 4.616603 14.498699 3.242627
269 0 1 0.589700 4.375568 15.294202 2.783341
270 0 1 0.589700 5.432922 14.239450 2.842735
271 0 2 -1.179400 3.739063 20.482450 1.211318
272 0 1 0.589700 4.488388 20.109884 1.653094
273 0 1 0.589700 3.624610 19.946268 0.430588
274 0 2 -1.179400 2.315381 13.558252 4.286073
275 0 1 0.589700 3.071009 13.900361 3.830484
276 0 1 0.589700 2.657169 12.876637 4.853423
277 0 2 -1.179400 -2.986524 15.466558 5.418640
278 0 1 0.589700 -2.859766 15.157638 4.522911
279 0 1 0.589700 -3.093326 16.404205 5.329732
280 0 2 -1.179400 4.125687 16.838037 1.970753
281 0 1 0.589700 4.782361 17.503532 2.110463
282 0 1 0.589700 3.307117 17.293409 2.085630
283 0 2 -1.179400 6.201140 12.074379 4.598481
284 0 1 0.589700 5.597211 12.131831 5.330886
285 0 1 0.589700 5.678344 11.768899 3.864332
286 0 2 -1.179400 -0.925151 16.898796 3.367261
287 0 1 0.589700 -0.734260 16.094212 3.834681
288 0 1 0.589700 -1.424623 17.413818 3.990366
289 0 2 -1.179400 8.544761 10.938046 5.179526
290 0 1 0.589700 8.777384 11.672743 5.736241
291 0 1 0.589700 7.668260 11.129930 4.886682
292 0 2 -1.179400 9.718277 18.017391 2.249704
293 0 1 0.589700 9.046902 17.852518 2.900306
294 0 1 0.589700 9.319010 18.613068 1.625315
295 0 2 -1.179400 14.849794 15.846483 0.605001
296 0 1 0.589700 14.682700 14.915939 0.671267
297 0 1 0.589700 15.003061 16.123693 1.507010
298 0 2 -1.179400 7.809114 14.327388 4.642402
299 0 1 0.589700 7.324146 13.522133 4.752984
300 0 1 0.589700 8.712251 14.057374 4.648051
301 0 2 -1.179400 5.748342 19.131502 2.180337
302 0 1 0.589700 6.146286 19.324942 3.025694
303 0 1 0.589700 6.420579 19.321424 1.537666
304 0 2 -1.179400 12.831851 14.284886 3.006747
305 0 1 0.589700 12.698877 15.148821 2.636808
306 0 1 0.589700 13.516584 13.906210 2.471877
307 0 2 -1.179400 11.186154 20.791351 0.986947
308 0 1 0.589700 11.824181 20.329348 1.514601
309 0 1 0.589700 10.914425 20.160812 0.327717
310 0 2 -1.179400 10.469066 13.467736 4.461200
311 0 1 0.589700 11.113934 13.831048 3.867557
312 0 1 0.589700 10.962671 12.918449 5.058768
313 0 2 -1.179400 4.947283 15.225827 5.982128
314 0 1 0.589700 5.132225 14.964687 5.081357
315 0 1 0.589700 5.032173 16.169834 5.976059
316 0 2 -1.179400 12.344057 16.655811 2.153703
317 0 1 0.589700 13.011212 17.322231 2.090901
318 0 1 0.589700 11.553087 17.136497 2.340469
319 0 2 -1.179400 14.032701 11.744432 4.083578
320 0 1 0.589700 13.355593 11.637649 4.740384
321 0 1 0.589700 13.573481 11.760890 3.247935
322 0 2 -1.179400 7.411814 16.907042 3.672377
323 0 1 0.589700 7.444892 15.982880 3.882503
324 0 1 0.589700 6.659224 17.229450 4.147402
325 0 2 -1.179400 10.226115 13.275379 10.338482
326 0 1 0.589700 10.238266 13.770724 11.154488
327 0 1 0.589700 9.421835 13.530334 9.911508
328 0 2 -1.179400 11.264158 20.806673 7.564068
329 0 1 0.589700 10.436058 20.494461 7.894289
330 0 1 0.589700 11.047306 21.573820 7.046806
331 0 2 -1.179400 -6.720532 18.780226 5.697156
332 0 1 0.589700 -6.930276 17.878170 5.899744
333 0 1 0.589700 -6.668127 19.205635 6.550882
334 0 2 -1.179400 9.532907 16.703386 10.027868
335 0 1 0.589700 8.964932 15.960789 9.883224
336 0 1 0.589700 10.401146 16.360376 9.892954
337 0 2 -1.179400 7.463055 22.065449 6.972494
338 0 1 0.589700 7.776148 22.266928 7.852072
339 0 1 0.589700 8.215671 22.179274 6.408234
340 0 2 -1.179400 14.042764 17.021049 8.118247
341 0 1 0.589700 13.941833 17.901899 7.779877
342 0 1 0.589700 14.701903 16.631086 7.559020
343 0 2 -1.179400 22.031931 1.971973 6.586360
344 0 1 0.589700 22.907726 1.688055 6.792216
345 0 1 0.589700 21.732368 1.358548 5.923121
346 0 2 -1.179400 12.240259 15.839941 9.629185
347 0 1 0.589700 12.979307 16.111164 9.102427
348 0 1 0.589700 12.609091 15.282604 10.306730
349 0 2 -1.179400 6.889925 17.754019 11.336126
350 0 1 0.589700 6.787110 17.474819 10.427376
351 0 1 0.589700 7.007932 18.692850 11.280987
352 0 2 -1.179400 13.934378 19.510033 6.998498
353 0 1 0.589700 14.482391 20.276213 7.085832
354 0 1 0.589700 13.162426 19.718199 7.505443
355 0 2 -1.179400 15.529711 14.619476 9.550452
356 0 1 0.589700 14.918512 14.480508 10.265275
357 0 1 0.589700 15.086973 14.291152 8.773283
358 0 2 -1.179400 9.029897 19.135881 8.684569
359 0 1 0.589700 9.138659 18.280056 9.080952
360 0 1 0.589700 8.346700 19.544636 9.198479
361 0 2 -1.179400 17.776899 13.141074 10.163896
362 0 1 0.589700 17.941141 13.692956 10.924026
363 0 1 0.589700 16.941244 13.431501 9.833026
364 0 2 -1.179400 -4.308101 20.729403 7.560792
365 0 1 0.589700 -5.094387 20.398933 7.969146
366 0 1 0.589700 -4.608588 21.391127 6.947186
367 0 2 -1.179400 1.182895 18.529947 6.325672
368 0 1 0.589700 1.250010 17.584873 6.353428
369 0 1 0.589700 1.083288 18.787518 7.241281
370 0 2 -1.179400 17.123693 16.810310 9.339006
371 0 1 0.589700 16.463589 16.135906 9.287210
372 0 1 0.589700 -5.422313 16.334909 9.431745
373 0 2 -1.179400 -8.039290 22.048473 7.030235
374 0 1 0.589700 -7.700373 22.295988 7.887675
375 0 1 0.589700 -7.298721 22.110834 6.441844
376 0 2 -1.179400 -1.524188 17.040459 8.225595
377 0 1 0.589700 -1.549599 17.910477 7.846540
378 0 1 0.589700 -0.864375 16.585100 7.720176
379 0 2 -1.179400 6.564434 1.773572 6.304693
380 0 1 0.589700 7.439157 1.535271 6.566624
381 0 1 0.589700 6.284184 1.064972 5.736246
382 0 2 -1.179400 -3.759120 15.716886 9.087170
383 0 1 0.589700 -3.054104 16.243114 8.739577
384 0 1 0.589700 -3.348310 15.146887 9.728056
385 0 2 -1.179400 14.466484 18.082973 10.600314
386 0 1 0.589700 14.329724 17.712807 9.730144
387 0 1 0.589700 14.636966 19.001295 10.438279
388 0 2 -1.179400 -1.670429 19.562246 7.140626
389 0 1 0.589700 -1.160857 20.358213 7.186872
390 0 1 0.589700 -2.556682 19.844624 7.296356
391 0 2 -1.179400 0.072942 14.526866 9.827976
392 0 1 0.589700 -0.648659 14.433838 10.436228
393 0 1 0.589700 -0.270102 14.238670 8.985317
394 0 2 -1.179400 -6.490687 19.412968 8.301445
395 0 1 0.589700 -6.389978 18.486023 8.473383
396 0 1 0.589700 -7.176993 19.688541 8.895286
397 0 2 -1.179400 2.428446 13.479201 10.624448
398 0 1 0.589700 2.575901 14.216241 11.207396
399 0 1 0.589700 1.538626 13.583688 10.327988
400 0 2 -1.179400 3.295534 20.666632 7.798382
401 0 1 0.589700 2.512156 20.308020 8.187851
402 0 1 0.589700 2.987538 21.338448 7.199988
403 0 2 -1.179400 8.611619 18.716700 5.982743
404 0 1 0.589700 8.358959 17.804411 5.942362
405 0 1 0.589700 8.829925 18.862520 6.902177
406 0 2 -1.179400 1.712788 16.860380 9.706176
407 0 1 0.589700 1.134143 16.113415 9.665483
408 0 1 0.589700 2.572945 16.494284 9.579977
409 0 2 -1.179400 0.023453 21.640739 7.018750
410 0 1 0.589700 0.215613 21.997961 7.883615
411 0 1 0.589700 0.744395 21.919344 6.470464
412 0 2 -1.179400 6.228252 17.336855 8.550748
413 0 1 0.589700 6.153651 18.222239 8.217436
414 0 1 0.589700 6.854314 16.921814 7.971068
415 0 2 -1.179400 14.116044 1.864512 6.365065
416 0 1 0.589700 14.952410 1.501729 6.610118
417 0 1 0.589700 13.814126 1.309065 5.652653
418 0 2 -1.179400 4.213667 15.784848 9.519312
419 0 1 0.589700 4.957676 16.335293 9.329783
420 0 1 0.589700 4.491471 15.243050 10.252275
421 0 2 -1.179400 -1.273194 17.472002 10.794517
422 0 1 0.589700 -1.356469 17.259228 9.865588
423 0 1 0.589700 -1.293735 18.419256 10.822451
424 0 2 -1.179400 5.751110 19.791534 7.000658
425 0 1 0.589700 6.315077 20.538445 6.862629
426 0 1 0.589700 4.890027 20.164959 7.094224
427 0 2 -1.179400 7.855720 14.549528 9.728870
428 0 1 0.589700 7.127168 14.438831 10.325439
429 0 1 0.589700 7.463876 14.603209 8.860065
430 0 2 -1.179400 1.110050 19.398277 8.850376
431 0 1 0.589700 1.355123 18.546032 9.187383
432 0 1 0.589700 0.413370 19.683399 9.426901
433 0 2 -1.179400 7.081603 20.419428 10.586736
434 0 1 0.589700 7.562327 20.988459 11.176240
435 0 1 0.589700 6.267692 20.872906 10.435725
436 0 2 -1.179400 17.079321 6.500405 7.502502
437 0 1 0.589700 16.429905 6.031239 8.008931
438 0 1 0.589700 16.599894 6.880229 6.773196
439 0 2 -1.179400 -0.620543 4.442937 5.925159
440 0 1 0.589700 -0.894835 3.567549 6.164179
441 0 1 0.589700 -0.687619 4.939147 6.737870
442 0 2 -1.179400 15.661071 2.741217 9.493402
443 0 1 0.589700 15.111855 1.983247 9.631338
444 0 1 0.589700 16.539267 2.411875 9.591535
445 0 2 -1.179400 13.423851 7.358568 6.843622
446 0 1 0.589700 13.724394 7.446249 7.746487
447 0 1 0.589700 14.183935 7.543571 6.309731
448 0 2 -1.179400 20.196564 3.119198 8.106215
449 0 1 0.589700 20.019690 3.920844 7.628079
450 0 1 0.589700 20.828371 2.663149 7.565714
451 0 2 -1.179400 18.872337 8.916900 6.656124
452 0 1 0.589700 19.761110 8.633167 6.793447
453 0 1 0.589700 18.565428 8.390261 5.923879
454 0 2 -1.179400 18.124750 1.574599 9.168197
455 0 1 0.589700 18.753174 2.204124 8.844943
456 0 1 0.589700 9.569413 22.509634 9.738862
457 0 2 -1.179400 12.576960 3.569631 11.150758
458 0 1 0.589700 12.601839 3.446197 10.202046
459 0 1 0.589700 12.697733 4.501934 11.272467
460 0 2 -1.179400 19.576948 5.457012 7.051173
461 0 1 0.589700 20.200752 6.129122 6.818937
462 0 1 0.589700 18.746531 5.904740 7.059438
463 0 2 -1.179400 12.717795 21.934423 9.579291
464 0 1 0.589700 12.051367 21.747957 10.229198
465 0 1 0.589700 12.318518 21.718645 8.740121
466 0 2 -1.179400 15.058708 5.240366 8.653959
467 0 1 0.589700 15.235527 4.387456 9.030971
468 0 1 0.589700 14.373569 5.598516 9.202535
469 0 2 -1.179400 14.987999 20.653755 10.250029
470 0 1 0.589700 15.371301 21.145567 10.969703
471 0 1 0.589700 14.323778 21.227468 9.896152
472 0 2 -1.179400 1.728196 6.474373 7.394284
473 0 1 0.589700 0.987873 6.144028 7.883423
474 0 1 0.589700 1.351059 6.908644 6.634601
475 0 2 -1.179400 6.854836 4.414749 5.978489
476 0 1 0.589700 6.692185 3.481620 6.009980
477 0 1 0.589700 6.667032 4.718626 6.864865
478 0 2 -1.179400 0.032397 2.617177 9.619745
479 0 1 0.589700 22.855532 1.847937 9.479265
480 0 1 0.589700 0.909072 2.330916 9.421194
481 0 2 -1.179400 -1.984830 7.780529 7.120757
482 0 1 0.589700 -1.544415 8.077245 7.912119
483 0 1 0.589700 -1.297085 7.677481 6.474835
484 0 2 -1.179400 4.589638 2.785641 7.935905
485 0 1 0.589700 4.592830 3.715222 7.748748
486 0 1 0.589700 5.287644 2.434935 7.399298
487 0 2 -1.179400 3.361639 9.150830 6.814428
488 0 1 0.589700 4.181430 8.811386 7.138609
489 0 1 0.589700 3.085880 8.522556 6.154719
490 0 2 -1.179400 2.532588 1.635182 9.091558
491 0 1 0.589700 3.204647 2.125150 8.638521
492 0 1 0.589700 -6.051106 22.582020 9.697868
493 0 2 -1.179400 20.541531 3.464109 10.784149
494 0 1 0.589700 20.408775 3.258175 9.859598
495 0 1 0.589700 20.877096 4.349828 10.781697
496 0 2 -1.179400 4.217467 5.394165 7.380710
497 0 1 0.589700 4.764697 6.162388 7.453630
498 0 1 0.589700 3.357581 5.737727 7.199837
499 0 2 -1.179400 -2.953268 21.839375 9.544056
500 0 1 0.589700 -3.789831 22.038570 9.935786
501 0 1 0.589700 -3.157758 21.552282 8.655787
502 0 2 -1.179400 -0.553651 5.282484 8.583209
503 0 1 0.589700 -0.705823 4.409091 8.921501
504 0 1 0.589700 -1.143925 5.833340 9.080383
505 0 2 -1.179400 -0.971179 20.229809 10.348997
506 0 1 0.589700 -0.728352 20.888121 10.991985
507 0 1 0.589700 -1.785034 20.541481 9.983561
508 0 2 -1.179400 9.319095 6.423791 7.467704
509 0 1 0.589700 8.639132 6.119869 8.054927
510 0 1 0.589700 8.872941 6.974267 6.833842
511 0 2 -1.179400 15.096510 4.434135 6.076519
512 0 1 0.589700 14.751645 3.558674 6.185602
513 0 1 0.589700 15.039425 4.820755 6.948550
514 0 2 -1.179400 7.867214 2.571859 9.649887
515 0 1 0.589700 7.255429 1.851051 9.640257
516 0 1 0.589700 8.710242 2.161554 9.544827
517 0 2 -1.179400 5.618114 7.774898 7.218491
518 0 1 0.589700 6.175321 8.018507 7.950106
519 0 1 0.589700 6.127007 7.971410 6.437749
520 0 2 -1.179400 12.344190 2.941246 8.499403
521 0 1 0.589700 12.262048 3.786559 8.074436
522 0 1 0.589700 13.001883 2.487944 7.989269
523 0 2 -1.179400 11.195571 8.968983 6.647730
524 0 1 0.589700 12.067369 8.694064 6.881655
525 0 1 0.589700 10.954345 8.405388 5.918171
526 0 2 -1.179400 10.280128 1.288930 9.177105
527 0 1 0.589700 10.990437 1.853121 8.910876
528 0 1 0.589700 1.617688 22.183786 9.789646
529 0 2 -1.179400 4.885851 3.434303 10.892541
530 0 1 0.589700 4.976994 3.318009 9.947097
531 0 1 0.589700 4.797477 4.370904 11.009238
532 0 2 -1.179400 11.713050 5.189579 6.972066
533 0 1 0.589700 12.282023 5.939245 6.877239
534 0 1 0.589700 10.864607 5.562771 7.148804
535 0 2 -1.179400 5.131701 22.054365 9.802583
536 0 1 0.589700 4.497503 22.223421 10.489576
537 0 1 0.589700 4.685374 21.485432 9.185706
538 0 2 -1.179400 7.358865 5.111998 8.775827
539 0 1 0.589700 7.646142 4.225317 8.947059
540 0 1 0.589700 6.737505 5.294042 9.471489
541 0 2 -1.179400 13.080190 6.138353 10.477518
542 0 1 0.589700 13.425749 6.811639 11.052593
543 0 1 0.589700 12.403127 6.573952 9.977912
544 0 2 -1.179400 14.154247 13.627343 7.492281
545 0 1 0.589700 13.420252 13.103012 7.774798
546 0 1 0.589700 13.768163 14.353722 7.018638
547 0 2 -1.179400 -4.076815 11.614225 5.748054
548 0 1 0.589700 19.095816 10.684744 5.770814
549 0 1 0.589700 -3.866705 11.836375 6.653781
550 0 2 -1.179400 12.617489 9.599471 9.981197
551 0 1 0.589700 12.003129 8.899726 9.815834
552 0 1 0.589700 13.458340 9.220616 9.780875
553 0 2 -1.179400 10.472270 14.788895 7.594686
554 0 1 0.589700 10.948951 15.008583 8.389979
555 0 1 0.589700 11.074402 14.971447 6.881920
556 0 2 -1.179400 16.842371 10.111892 8.120704
557 0 1 0.589700 16.738342 10.980825 7.753144
558 0 1 0.589700 17.617825 9.771780 7.699242
559 0 2 -1.179400 15.864663 16.185284 6.156293
560 0 1 0.589700 16.686050 15.811502 6.434534
561 0 1 0.589700 15.630364 15.694749 5.372589
562 0 2 -1.179400 15.050757 8.539061 9.359464
563 0 1 0.589700 15.640780 9.019790 8.792676
564 0 1 0.589700 15.588116 7.872206 9.765334
565 0 2 -1.179400 9.299918 10.504014 10.885733
566 0 1 0.589700 9.258585 10.249647 9.964599
567 0 1 0.589700 9.723312 11.350752 10.877064
568 0 2 -1.179400 16.642359 12.615896 7.092273
569 0 1 0.589700 17.197165 13.379478 7.029386
570 0 1 0.589700 15.774982 12.968056 7.207421
571 0 2 -1.179400 18.617029 7.864592 9.786742
572 0 1 0.589700 17.950329 7.594491 10.405663
573 0 1 0.589700 18.268314 7.638584 8.927303
574 0 2 -1.179400 12.065148 12.109308 8.461097
575 0 1 0.589700 12.148356 11.286595 8.928919
576 0 1 0.589700 11.573263 12.663971 9.055054
577 0 2 -1.179400 20.675709 6.317357 10.352077
578 0 1 0.589700 21.193314 6.847642 10.946174
579 0 1 0.589700 19.977812 6.890329 10.071445
580 0 2 -1.179400 -1.655736 13.893631 7.467455
581 0 1 0.589700 -2.350858 13.299832 7.708170
582 0 1 0.589700 -2.033289 14.453977 6.797439
583 0 2 -1.179400 3.653940 11.805820 6.083506
584 0 1 0.589700 3.647903 10.863305 6.185036
585 0 1 0.589700 3.723621 12.138748 6.976920
586 0 2 -1.179400 -2.768686 9.966290 9.686230
587 0 1 0.589700 19.864273 9.358636 9.676233
588 0 1 0.589700 -2.002736 9.414390 9.696372
589 0 2 -1.179400 -5.232467 14.912580 6.959573
590 0 1 0.589700 -4.751780 15.233276 7.716455
591 0 1 0.589700 -4.676250 15.099973 6.210506
592 0 2 -1.179400 1.310595 10.086504 8.448347
593 0 1 0.589700 1.069444 10.800017 7.867782
594 0 1 0.589700 2.121005 9.760396 8.087896
595 0 2 -1.179400 0.509302 15.944049 6.525878
596 0 1 0.589700 1.300008 15.495317 6.782011
597 0 1 0.589700 0.272041 15.553685 5.687584
598 0 2 -1.179400 -0.585264 8.475286 9.302200
599 0 1 0.589700 0.127041 8.962617 8.914431
600 0 1 0.589700 -0.172443 7.891001 9.928466
601 0 2 -1.179400 17.401022 10.466063 10.820882
602 0 1 0.589700 17.240580 10.325398 9.888420
603 0 1 0.589700 17.420324 11.408773 10.918786
604 0 2 -1.179400 0.867454 12.585052 7.144776
605 0 1 0.589700 1.522663 13.249179 6.991946
606 0 1 0.589700 0.049019 13.052229 7.096598
607 0 2 -1.179400 2.997053 7.604324 9.623003
608 0 1 0.589700 2.491426 7.246403 10.345304
609 0 1 0.589700 2.722178 7.109077 8.856107
610 0 2 -1.179400 -3.630528 12.333381 8.295669
611 0 1 0.589700 -3.412757 11.650671 8.921758
612 0 1 0.589700 -4.260143 12.872677 8.754472
613 0 2 -1.179400 5.312001 6.202348 10.411338
614 0 1 0.589700 5.633601 6.856489 11.022177
615 0 1 0.589700 4.443463 6.495254 10.187373
616 0 2 -1.179400 6.324131 13.585483 7.444828
617 0 1 0.589700 5.658714 13.070642 7.879481
618 0 1 0.589700 5.850342 14.281728 7.008688
619 0 2 -1.179400 11.892444 11.589113 5.856864
620 0 1 0.589700 11.771989 10.649723 5.819884
621 0 1 0.589700 11.986860 11.780659 6.789397
622 0 2 -1.179400 4.825632 9.952268 9.699778
623 0 1 0.589700 4.335210 9.157507 9.545301
624 0 1 0.589700 5.727218 9.679020 9.666164
625 0 2 -1.179400 2.605834 14.574492 7.283692
626 0 1 0.589700 2.880362 14.576022 8.199358
627 0 1 0.589700 3.404582 14.671154 6.785489
628 0 2 -1.179400 9.081806 9.913914 8.155739
629 0 1 0.589700 8.984199 10.782230 7.784888
630 0 1 0.589700 9.793456 9.529173 7.663224
631 0 2 -1.179400 8.105493 16.010542 6.934760
632 0 1 0.589700 8.964595 15.725634 7.202520
633 0 1 0.589700 7.907059 15.485203 6.163945
634 0 2 -1.179400 7.126671 8.461168 9.424306
635 0 1 0.589700 7.811444 8.948852 8.988745
636 0 1 0.589700 7.567382 7.978743 10.116001
637 0 2 -1.179400 1.700670 10.900737 11.107958
638 0 1 0.589700 1.711204 10.723046 10.167788
639 0 1 0.589700 2.006316 11.794219 11.183624
640 0 2 -1.179400 8.810677 12.550624 7.412311
641 0 1 0.589700 9.440011 13.235784 7.581785
642 0 1 0.589700 7.975367 12.959756 7.571647
643 0 2 -1.179400 10.901398 7.439484 9.585097
644 0 1 0.589700 10.272131 7.345750 10.291194
645 0 1 0.589700 10.462044 7.101998 8.809952
646 0 2 -1.179400 4.171007 12.259970 8.788837
647 0 1 0.589700 4.369779 11.434479 9.213758
648 0 1 0.589700 3.442945 12.606229 9.285697
649 0 2 -1.179400 6.938385 8.273515 15.571848
650 0 1 0.589700 7.321678 8.711277 16.326284