LAMMPS data file via MDAnalysis

        2016  atoms
        1344  bonds
         672  angles
           0  dihedrals
           0  impropers

           2  atom types
           1  bond types
           1  angle types
           0  dihedral types
           0  improper types

0.000000 18.044001 xlo xhi
0.000000 47.303028 ylo yhi
0.000000 19.373249 zlo zhi
-0.283184 -6.534968 0.101477 xy xz yz


Masses

1 1.008000
2 15.999000

Atoms

1 0 2 -1.179400 0.470845 8.536387 12.733590
2 0 1 0.589700 0.907769 7.686778 12.782597
3 0 1 0.589700 0.813495 9.027047 13.478356
4 0 2 -1.179400 6.190390 0.885908 2.464966
5 0 1 0.589700 6.432594 0.089906 1.993288
6 0 1 0.589700 6.761942 1.562951 2.106142
7 0 2 -1.179400 5.964471 7.093964 14.282384
8 0 1 0.589700 5.373755 6.611918 14.858053
9 0 1 0.589700 5.512771 7.919154 14.109271
10 0 2 -1.179400 6.373328 -0.635664 5.181110
11 0 1 0.589700 6.550987 -0.138561 4.384730
12 0 1 0.589700 5.426080 -0.754715 5.182790
13 0 2 -1.179400 -3.070349 19.787264 0.777990
14 0 1 0.589700 -2.888939 18.999317 1.288812
15 0 1 0.589700 14.442065 19.494364 0.093282
16 0 2 -1.179400 7.529397 4.869373 18.955994
17 0 1 0.589700 -9.634406 4.980729 19.013702
18 0 1 0.589700 7.233636 5.608995 18.427017
19 0 2 -1.179400 -7.044065 6.027814 13.967465
20 0 1 0.589700 -7.552716 5.862566 14.758484
21 0 1 0.589700 -6.134745 5.992604 14.256106
22 0 2 -1.179400 -4.875416 5.620453 11.199792
23 0 1 0.589700 -5.770029 5.495402 10.890715
24 0 1 0.589700 -4.736597 4.909380 11.823697
25 0 2 -1.179400 -1.082641 15.635719 9.788669
26 0 1 0.589700 -0.669881 14.786218 9.636569
27 0 1 0.589700 -1.038153 16.079813 8.943996
28 0 2 -1.179400 5.536329 13.307451 17.490749
29 0 1 0.589700 5.849563 13.760143 18.271530
30 0 1 0.589700 6.330792 13.045835 17.030100
31 0 2 -1.179400 -3.484604 -0.641039 17.633858
32 0 1 0.589700 -4.424103 -0.480994 17.576921
33 0 1 0.589700 -3.162803 0.035136 18.228094
34 0 2 -1.179400 -4.622262 6.072680 15.113492
35 0 1 0.589700 -4.607787 5.161268 15.404803
36 0 1 0.589700 -3.720409 6.257869 14.860603
37 0 2 -1.179400 2.063316 9.653313 2.345403
38 0 1 0.589700 2.809680 9.142682 2.653576
39 0 1 0.589700 1.301538 9.198780 2.699798
40 0 2 -1.179400 0.252177 15.975751 18.705994
41 0 1 0.589700 7.430859 15.418266 -0.012030
42 0 1 0.589700 -0.687528 15.845590 18.813164
43 0 2 -1.179400 -4.088929 3.555167 5.051671
44 0 1 0.589700 -4.649839 4.321992 4.943005
45 0 1 0.589700 -4.675841 2.808382 4.941502
46 0 2 -1.179400 1.408237 18.213669 17.730190
47 0 1 0.589700 0.977207 18.852266 18.295898
48 0 1 0.589700 0.933447 17.397230 17.881399
49 0 2 -1.179400 1.977023 9.217646 10.334541
50 0 1 0.589700 1.349991 9.109417 11.046397
51 0 1 0.589700 2.398149 10.058092 10.511671
52 0 2 -1.179400 0.275930 8.433567 4.132883
53 0 1 0.589700 -0.092314 7.553346 4.061997
54 0 1 0.589700 -0.439121 8.967620 4.474052
55 0 2 -1.179400 -4.647445 3.465371 12.987201
56 0 1 0.589700 -5.512337 3.109563 13.180634
57 0 1 0.589700 -4.220398 3.532535 13.838549
58 0 2 -1.179400 7.174390 12.951711 3.170808
59 0 1 0.589700 7.205727 13.728829 3.727351
60 0 1 0.589700 7.708054 12.304623 3.629196
61 0 2 -1.179400 -3.019929 12.933988 8.588114
62 0 1 0.589700 -3.538474 12.329594 9.116512
63 0 1 0.589700 -3.286678 13.803897 8.883845
64 0 2 -1.179400 4.823251 22.419270 2.281440
65 0 1 0.589700 5.724982 22.725330 2.352777
66 0 1 0.589700 4.605690 22.107883 3.157718
67 0 2 -1.179400 6.603750 18.422419 18.249266
68 0 1 0.589700 6.879167 17.716543 18.832348
69 0 1 0.589700 5.664073 18.502453 18.397671
70 0 2 -1.179400 3.158717 -0.852010 1.986110
71 0 1 0.589700 3.466627 -0.026207 1.614325
72 0 1 0.589700 3.651810 46.035336 2.332488
73 0 2 -1.179400 -1.471743 4.187550 17.067026
74 0 1 0.589700 -1.227438 3.263136 17.026947
75 0 1 0.589700 -1.939478 4.275704 17.894745
76 0 2 -1.179400 3.959440 4.089815 0.172774
77 0 1 0.589700 4.311911 4.843237 0.644509
78 0 1 0.589700 -3.681493 4.325562 19.211266
79 0 2 -1.179400 8.720670 1.645028 9.152907
80 0 1 0.589700 8.010762 1.261656 9.664082
81 0 1 0.589700 8.430790 2.538314 8.969711
82 0 2 -1.179400 -1.749237 12.028798 2.295725
83 0 1 0.589700 -0.977174 11.827259 2.820122
84 0 1 0.589700 -2.484402 11.885926 2.887950
85 0 2 -1.179400 12.547456 -0.228083 5.351127
86 0 1 0.589700 12.468743 0.378153 4.616436
87 0 1 0.589700 11.922294 -0.924830 5.157118
88 0 2 -1.179400 -7.595289 7.533312 17.720730
89 0 1 0.589700 -8.237776 7.980623 17.173319
90 0 1 0.589700 -6.765686 7.956320 17.508240
91 0 2 -1.179400 2.452096 17.336861 10.091937
92 0 1 0.589700 2.353574 17.892454 9.320699
93 0 1 0.589700 1.779654 17.645678 10.695642
94 0 2 -1.179400 -5.407717 4.040300 18.354792
95 0 1 0.589700 -6.253321 4.271515 18.733217
96 0 1 0.589700 -5.619000 3.688839 17.492168
97 0 2 -1.179400 3.549644 -0.410769 5.471316
98 0 1 0.589700 3.090688 -0.007025 6.205329
99 0 1 0.589700 2.664532 46.206982 5.165430
100 0 2 -1.179400 0.470021 18.721123 11.379103
101 0 1 0.589700 -0.439319 18.465651 11.518971
102 0 1 0.589700 0.519575 19.620541 11.701941
103 0 2 -1.179400 1.890091 5.231389 5.930423
104 0 1 0.589700 2.647706 4.822089 5.517133
105 0 1 0.589700 1.802640 4.780083 6.767902
106 0 2 -1.179400 3.742119 6.361890 15.672357
107 0 1 0.589700 4.020301 5.662468 16.261827
108 0 1 0.589700 3.865862 7.165874 16.175486
109 0 2 -1.179400 -1.571888 4.153292 2.612300
110 0 1 0.589700 -1.175074 4.713378 3.277143
111 0 1 0.589700 -1.790290 3.345699 3.075927
112 0 2 -1.179400 5.267481 5.290244 7.820476
113 0 1 0.589700 4.556907 5.921309 7.921964
114 0 1 0.589700 5.088558 4.858376 6.987365
115 0 2 -1.179400 4.453718 3.160922 14.011431
116 0 1 0.589700 3.904442 2.609476 13.457106
117 0 1 0.589700 5.271250 3.248962 13.526257
118 0 2 -1.179400 9.587844 4.017138 6.362134
119 0 1 0.589700 9.098722 4.068895 7.180495
120 0 1 0.589700 10.276527 3.377290 6.534853
121 0 2 -1.179400 -6.969970 3.018802 16.322683
122 0 1 0.589700 -7.544909 2.348629 16.688854
123 0 1 0.589700 -6.722394 2.677494 15.465672
124 0 2 -1.179400 -1.908816 2.444298 6.643811
125 0 1 0.589700 -1.279072 2.450090 5.926210
126 0 1 0.589700 -2.649854 2.950328 6.315866
127 0 2 -1.179400 0.779678 5.663972 16.932871
128 0 1 0.589700 1.515222 5.121110 16.654989
129 0 1 0.589700 0.014177 5.103917 16.817272
130 0 2 -1.179400 -0.331528 1.606801 16.992260
131 0 1 0.589700 -0.067106 0.968114 17.652430
132 0 1 0.589700 0.142344 1.346154 16.205200
133 0 2 -1.179400 7.260610 19.502750 15.954931
134 0 1 0.589700 6.999755 18.954660 16.692961
135 0 1 0.589700 8.194990 19.335726 15.852149
136 0 2 -1.179400 -5.161845 10.146936 6.558922
137 0 1 0.589700 -4.581386 9.501354 6.159050
138 0 1 0.589700 12.327909 10.371529 5.868713
139 0 2 -1.179400 -0.434974 5.668602 4.539281
140 0 1 0.589700 0.450355 5.540389 4.872835
141 0 1 0.589700 -0.982529 5.702265 5.320725
142 0 2 -1.179400 -5.497107 0.106335 9.776783
143 0 1 0.589700 -6.120971 0.734714 10.136529
144 0 1 0.589700 -5.981395 -0.347085 9.089402
145 0 2 -1.179400 -3.330385 4.751338 8.777479
146 0 1 0.589700 -3.593653 5.319646 9.499263
147 0 1 0.589700 -2.614208 4.227839 9.132295
148 0 2 -1.179400 -1.003080 15.556702 4.248703
149 0 1 0.589700 -1.642647 15.238597 3.614815
150 0 1 0.589700 -1.186910 15.059080 5.043357
151 0 2 -1.179400 8.708546 -0.336078 7.372141
152 0 1 0.589700 8.970443 0.461051 7.831228
153 0 1 0.589700 8.847390 -0.135743 6.448843
154 0 2 -1.179400 12.302346 46.141747 2.089526
155 0 1 0.589700 12.657613 -0.468280 1.434479
156 0 1 0.589700 11.971084 45.384216 1.609033
157 0 2 -1.179400 5.254681 -0.791263 17.434422
158 0 1 0.589700 5.650747 -0.143770 16.853403
159 0 1 0.589700 5.675805 45.918243 17.656332
160 0 2 -1.179400 1.209754 1.970158 0.680733
161 0 1 0.589700 1.128389 1.161786 0.175957
162 0 1 0.589700 1.202412 2.666251 0.025400
163 0 2 -1.179400 -1.233064 8.768138 10.625278
164 0 1 0.589700 -0.747318 8.712543 11.445397
165 0 1 0.589700 -1.545578 9.671973 10.592696
166 0 2 -1.179400 -3.483044 14.964403 3.050996
167 0 1 0.589700 -3.734110 14.470129 2.272838
168 0 1 0.589700 -3.709201 14.390211 3.780683
169 0 2 -1.179400 13.945388 5.409657 2.281291
170 0 1 0.589700 14.119238 5.308874 1.347823
171 0 1 0.589700 -3.573574 4.788394 2.703069
172 0 2 -1.179400 -1.371638 2.838737 9.373598
173 0 1 0.589700 -1.560719 2.484478 8.506966
174 0 1 0.589700 -2.054856 2.476231 9.933936
175 0 2 -1.179400 5.190627 14.044482 8.581656
176 0 1 0.589700 4.757958 13.200216 8.458710
177 0 1 0.589700 5.980879 13.837125 9.075816
178 0 2 -1.179400 -0.506843 16.436563 14.802390
179 0 1 0.589700 -0.089786 16.198393 13.977006
180 0 1 0.589700 -0.328506 17.371668 14.900949
181 0 2 -1.179400 0.622477 1.326080 10.661228
182 0 1 0.589700 1.484689 1.729173 10.581629
183 0 1 0.589700 0.020270 1.982222 10.314107
184 0 2 -1.179400 -2.489619 -0.109029 5.434767
185 0 1 0.589700 -3.306291 -0.408045 5.829148
186 0 1 0.589700 -2.259930 0.679043 5.925575
187 0 2 -1.179400 12.319954 7.907906 1.130092
188 0 1 0.589700 12.049312 7.106097 0.684374
189 0 1 0.589700 13.192708 8.089315 0.788058
190 0 2 -1.179400 0.201305 -0.075671 19.066475
191 0 1 0.589700 1.082713 -0.443302 19.073715
192 0 1 0.589700 -0.372430 -0.835409 18.976883
193 0 2 -1.179400 2.530240 12.703811 15.218968
194 0 1 0.589700 2.017063 13.467191 15.480392
195 0 1 0.589700 3.390766 13.058199 15.004600
196 0 2 -1.179400 0.528056 22.004257 16.708006
197 0 1 0.589700 -0.354652 22.089931 16.354525
198 0 1 0.589700 0.427424 21.434509 17.468624
199 0 2 -1.179400 12.549888 6.133394 5.134021
200 0 1 0.589700 12.431870 6.033705 6.076296
201 0 1 0.589700 -4.917802 6.835772 5.045890
202 0 2 -1.179400 11.048907 19.052088 6.351642
203 0 1 0.589700 11.941257 19.220263 6.056705
204 0 1 0.589700 11.106435 18.227348 6.832789
205 0 2 -1.179400 8.559252 15.050745 4.463501
206 0 1 0.589700 8.525736 16.002937 4.554679
207 0 1 0.589700 9.238806 14.896367 3.810791
208 0 2 -1.179400 -5.211236 20.780977 18.296333
209 0 1 0.589700 -5.779130 20.021139 18.175751
210 0 1 0.589700 -5.191360 20.917664 19.241173
211 0 2 -1.179400 0.030012 2.264208 4.722232
212 0 1 0.589700 0.435164 2.871964 4.105854
213 0 1 0.589700 -0.082933 1.455051 4.224847
214 0 2 -1.179400 4.897871 15.501846 3.109662
215 0 1 0.589700 4.206718 16.107855 3.371163
216 0 1 0.589700 5.631107 16.066551 2.871895
217 0 2 -1.179400 11.134757 8.457910 3.593314
218 0 1 0.589700 11.079147 7.578962 3.967266
219 0 1 0.589700 11.561251 8.330926 2.748506
220 0 2 -1.179400 -2.190052 9.952450 8.072235
221 0 1 0.589700 -2.442625 10.871015 7.981526
222 0 1 0.589700 -1.276527 9.982247 8.347909
223 0 2 -1.179400 6.497689 9.128244 1.662007
224 0 1 0.589700 5.914867 8.939116 0.929676
225 0 1 0.589700 6.149330 9.932579 2.044758
226 0 2 -1.179400 -3.897362 15.441735 8.207550
227 0 1 0.589700 -3.584531 15.887912 7.422885
228 0 1 0.589700 -4.035108 16.144138 8.841386
229 0 2 -1.179400 -8.277167 18.712505 15.173447
230 0 1 0.589700 -8.381108 17.792685 14.930683
231 0 1 0.589700 -7.748726 19.088205 14.472095
232 0 2 -1.179400 3.293561 11.942656 8.249380
233 0 1 0.589700 3.871092 11.250078 7.932030
234 0 1 0.589700 3.132033 11.718054 9.163384
235 0 2 -1.179400 8.724729 0.919250 12.843562
236 0 1 0.589700 9.021468 0.472215 12.053150
237 0 1 0.589700 9.012197 0.354291 13.558690
238 0 2 -1.179400 -3.630689 8.029860 5.717398
239 0 1 0.589700 -3.385120 7.945786 4.798515
240 0 1 0.589700 -3.029811 7.448152 6.179762
241 0 2 -1.179400 -1.799845 10.058031 4.847816
242 0 1 0.589700 -2.221064 9.666617 5.610545
243 0 1 0.589700 -2.506611 10.504677 4.385772
244 0 2 -1.179400 5.713181 11.585775 12.006442
245 0 1 0.589700 6.448097 10.989264 12.138033
246 0 1 0.589700 5.493857 11.893643 12.883518
247 0 2 -1.179400 3.930626 1.769672 3.582387
248 0 1 0.589700 4.648739 1.239299 3.241940
249 0 1 0.589700 3.469087 1.187091 4.183117
250 0 2 -1.179400 9.248224 17.814259 4.532138
251 0 1 0.589700 8.563428 18.479984 4.571543
252 0 1 0.589700 9.911836 18.118814 5.147657
253 0 2 -1.179400 9.465603 17.247780 1.642262
254 0 1 0.589700 10.047747 17.563768 2.330251
255 0 1 0.589700 9.841654 17.591755 0.834490
256 0 2 -1.179400 6.200139 1.727072 6.608696
257 0 1 0.589700 6.740214 2.216949 5.991355
258 0 1 0.589700 6.216925 0.827399 6.283208
259 0 2 -1.179400 2.757565 17.566463 13.583720
260 0 1 0.589700 3.092446 16.850605 13.045616
261 0 1 0.589700 1.834851 17.631777 13.347600
262 0 2 -1.179400 10.605090 12.050497 8.028435
263 0 1 0.589700 11.351372 12.385342 7.535490
264 0 1 0.589700 10.057183 12.819077 8.181902
265 0 2 -1.179400 2.180116 3.695911 15.325388
266 0 1 0.589700 3.016322 3.516663 14.900838
267 0 1 0.589700 2.196848 3.165116 16.119774
268 0 2 -1.179400 8.503693 13.100440 13.481034
269 0 1 0.589700 9.449090 12.967579 13.487530
270 0 1 0.589700 8.383927 13.951990 13.061819
271 0 2 -1.179400 10.481385 16.349442 7.445615
272 0 1 0.589700 10.022422 15.510667 7.416348
273 0 1 0.589700 10.342684 16.668392 8.335122
274 0 2 -1.179400 7.792883 8.721557 19.092220
275 0 1 0.589700 -2.622052 8.948257 -0.033294
276 0 1 0.589700 7.828521 8.169860 18.312769
277 0 2 -1.179400 -4.545979 11.455552 10.461832
278 0 1 0.589700 -4.625454 11.025732 11.311268
279 0 1 0.589700 -5.252869 12.098760 10.450459
280 0 2 -1.179400 10.893714 5.060909 10.013929
281 0 1 0.589700 11.178667 4.175109 9.791116
282 0 1 0.589700 10.306951 4.942451 10.757792
283 0 2 -1.179400 -7.223414 18.934929 18.040293
284 0 1 0.589700 -7.813372 18.931742 17.289614
285 0 1 0.589700 -7.780857 18.715757 18.783966
286 0 2 -1.179400 8.606736 14.011898 7.150711
287 0 1 0.589700 8.172264 14.618014 7.748441
288 0 1 0.589700 8.539218 14.431902 6.295376
289 0 2 -1.179400 0.423362 11.507050 3.794196
290 0 1 0.589700 1.017172 10.915809 3.334742
291 0 1 0.589700 -0.107353 10.931668 4.342370
292 0 2 -1.179400 -4.824453 22.005198 7.079508
293 0 1 0.589700 -4.842612 21.400879 6.339273
294 0 1 0.589700 -5.721578 22.010592 7.405936
295 0 2 -1.179400 8.438577 20.494625 2.245588
296 0 1 0.589700 7.986833 20.067251 2.970708
297 0 1 0.589700 9.364960 20.339659 2.416800
298 0 2 -1.179400 4.246514 8.322803 11.297821
299 0 1 0.589700 3.419588 8.578335 10.894486
300 0 1 0.589700 4.157883 7.382657 11.453599
301 0 2 -1.179400 12.597892 15.731755 5.480415
302 0 1 0.589700 11.955559 15.954874 6.150807
303 0 1 0.589700 -4.753738 16.274817 5.686692
304 0 2 -1.179400 9.860075 8.557329 10.244120
305 0 1 0.589700 10.688739 8.744894 9.808497
306 0 1 0.589700 9.252326 9.204266 9.889543
307 0 2 -1.179400 2.057132 6.327439 2.107585
308 0 1 0.589700 2.589914 6.713669 2.799900
309 0 1 0.589700 1.886513 5.434046 2.404751
310 0 2 -1.179400 -0.032647 19.050413 15.507732
311 0 1 0.589700 0.510789 18.865484 16.270784
312 0 1 0.589700 0.520154 19.588757 14.944168
313 0 2 -1.179400 -4.604316 19.758215 5.238408
314 0 1 0.589700 -3.719931 19.650620 5.581583
315 0 1 0.589700 -4.480224 20.139126 4.371274
316 0 2 -1.179400 11.001466 5.687893 0.045331
317 0 1 0.589700 11.422450 5.301357 0.810660
318 0 1 0.589700 4.345939 4.989238 18.690174
319 0 2 -1.179400 -3.104721 14.813074 11.492635
320 0 1 0.589700 -2.927192 15.186789 12.353560
321 0 1 0.589700 -2.436023 15.191889 10.925551
322 0 2 -1.179400 -2.483512 -0.246952 13.059265
323 0 1 0.589700 -2.563144 0.184033 13.908095
324 0 1 0.589700 -1.558556 -0.473900 12.991450
325 0 2 -1.179400 7.608270 16.259851 8.460483
326 0 1 0.589700 8.388657 16.724421 8.756638
327 0 1 0.589700 7.527502 16.492819 7.537892
328 0 2 -1.179400 4.073479 16.227247 7.071454
329 0 1 0.589700 4.777358 16.849869 6.897364
330 0 1 0.589700 4.453148 15.598800 7.683399
331 0 2 -1.179400 -3.522349 12.772592 4.956696
332 0 1 0.589700 -2.816789 12.849408 5.595319
333 0 1 0.589700 -4.321791 12.838348 5.474448
334 0 2 -1.179400 11.363310 21.471119 0.192971
335 0 1 0.589700 11.401358 20.872210 0.936817
336 0 1 0.589700 10.481687 21.836983 0.223933
337 0 2 -1.179400 -0.533819 18.152203 4.482115
338 0 1 0.589700 0.310509 18.309587 4.899139
339 0 1 0.589700 -0.585894 17.200289 4.396970
340 0 2 -1.179400 8.064093 21.539886 13.822862
341 0 1 0.589700 7.116168 21.579136 13.929115
342 0 1 0.589700 8.227382 20.675539 13.446612
343 0 2 -1.179400 -5.892300 14.830899 13.461355
344 0 1 0.589700 -5.604781 15.716216 13.239933
345 0 1 0.589700 -5.090735 14.370137 13.701566
346 0 2 -1.179400 0.811342 14.619234 16.360563
347 0 1 0.589700 0.478863 14.799129 17.237442
348 0 1 0.589700 0.298196 15.187880 15.789160
349 0 2 -1.179400 4.343175 1.251332 -0.017419
350 0 1 0.589700 5.215321 1.192404 0.366428
351 0 1 0.589700 4.161075 2.190138 -0.055594
352 0 2 -1.179400 -5.996809 17.612663 12.075731
353 0 1 0.589700 -6.042301 18.450935 12.534367
354 0 1 0.589700 -5.309114 17.734135 11.424633
355 0 2 -1.179400 -8.556467 5.364385 16.236443
356 0 1 0.589700 -8.022105 4.582489 16.369360
357 0 1 0.589700 -8.257734 5.977727 16.905828
358 0 2 -1.179400 6.784275 6.997991 17.060579
359 0 1 0.589700 7.074111 6.973616 16.151140
360 0 1 0.589700 6.063291 7.625360 17.065331
361 0 2 -1.179400 1.352961 21.981770 5.060639
362 0 1 0.589700 1.121587 22.021620 5.986150
363 0 1 0.589700 0.597255 22.351814 4.608811
364 0 2 -1.179400 -2.908454 16.398468 13.713958
365 0 1 0.589700 -2.066063 16.323471 14.156937
366 0 1 0.589700 -3.495073 16.760712 14.374923
367 0 2 -1.179400 8.114620 7.897962 3.519578
368 0 1 0.589700 8.574699 8.711437 3.723118
369 0 1 0.589700 7.516763 8.133131 2.813103
370 0 2 -1.179400 -1.048468 9.953790 0.728407
371 0 1 0.589700 -1.325020 10.609170 1.366974
372 0 1 0.589700 -0.356580 10.384554 0.230242
373 0 2 -1.179400 -2.559297 16.579683 18.752211
374 0 1 0.589700 -2.753495 16.106079 17.945511
375 0 1 0.589700 -3.393896 16.617918 19.214212
376 0 2 -1.179400 -0.869894 16.930355 7.358848
377 0 1 0.589700 -0.033156 16.839117 6.908247
378 0 1 0.589700 -0.798106 17.758230 7.832664
379 0 2 -1.179400 8.682586 15.881674 12.281989
380 0 1 0.589700 9.162630 15.384732 11.622119
381 0 1 0.589700 9.250374 15.871109 13.049515
382 0 2 -1.179400 -5.530728 14.000607 10.317653
383 0 1 0.589700 -5.406093 14.572381 9.562120
384 0 1 0.589700 -4.840091 14.255267 10.925947
385 0 2 -1.179400 -4.241591 20.413900 9.206246
386 0 1 0.589700 -3.365458 20.653902 9.500355
387 0 1 0.589700 -4.394423 20.962563 8.438932
388 0 2 -1.179400 7.014887 4.304246 15.499031
389 0 1 0.589700 7.262009 3.851704 14.694784
390 0 1 0.589700 7.830553 4.680865 15.823077
391 0 2 -1.179400 -1.654660 22.407244 14.864763
392 0 1 0.589700 -1.053219 23.047743 14.488472
393 0 1 0.589700 -2.358344 22.933964 15.239289
394 0 2 -1.179400 0.480415 10.514022 8.583385
395 0 1 0.589700 0.956441 10.072266 9.283974
396 0 1 0.589700 1.130730 10.643628 7.896416
397 0 2 -1.179400 -8.414534 0.853189 17.391525
398 0 1 0.589700 -8.359843 0.683245 18.329592
399 0 1 0.589700 -9.252200 1.297684 17.276842
400 0 2 -1.179400 4.168655 21.750462 7.212828
401 0 1 0.589700 3.280296 22.017601 7.439162
402 0 1 0.589700 4.724580 22.435366 7.581247
403 0 2 -1.179400 4.020154 18.168755 18.835060
404 0 1 0.589700 3.142210 18.151957 18.460407
405 0 1 0.589700 4.307036 17.256096 18.813389
406 0 2 -1.179400 6.330540 8.585295 9.398748
407 0 1 0.589700 5.813105 8.444809 10.188829
408 0 1 0.589700 6.943132 7.851402 9.380913
409 0 2 -1.179400 4.045310 15.207968 12.271012
410 0 1 0.589700 4.820146 15.553451 11.832446
411 0 1 0.589700 3.442379 14.997027 11.561245
412 0 2 -1.179400 -1.758200 20.145374 5.767285
413 0 1 0.589700 -1.680077 21.004850 5.354381
414 0 1 0.589700 -1.481922 19.527212 5.092691
415 0 2 -1.179400 9.622984 17.604908 9.930391
416 0 1 0.589700 9.990536 16.976046 10.549282
417 0 1 0.589700 10.208652 18.359400 9.976027
418 0 2 -1.179400 6.358215 17.249063 6.200550
419 0 1 0.589700 6.330853 17.646843 5.332507
420 0 1 0.589700 6.307998 17.989750 6.803234
421 0 2 -1.179400 11.039329 2.267740 10.555182
422 0 1 0.589700 -7.099595 2.139971 11.501033
423 0 1 0.589700 10.134119 2.159956 10.271552
424 0 2 -1.179400 3.095505 19.260551 2.257411
425 0 1 0.589700 3.766715 19.467999 1.610725
426 0 1 0.589700 2.392868 19.883717 2.080267
427 0 2 -1.179400 8.074965 22.413128 4.740144
428 0 1 0.589700 7.293202 22.949945 4.856633
429 0 1 0.589700 8.052621 21.793863 5.467869
430 0 2 -1.179400 -1.336693 12.769690 18.401421
431 0 1 0.589700 -1.851422 13.489051 18.038521
432 0 1 0.589700 -1.932698 12.326069 19.001846
433 0 2 -1.179400 2.923156 21.265448 9.951806
434 0 1 0.589700 3.873939 21.350584 9.965175
435 0 1 0.589700 2.614050 22.094826 9.589043
436 0 2 -1.179400 -1.992650 6.391057 14.057855
437 0 1 0.589700 -2.517842 6.944849 13.482892
438 0 1 0.589700 -1.657217 6.989900 14.722897
439 0 2 -1.179400 -3.623293 10.283077 19.171921
440 0 1 0.589700 -2.994727 9.599782 18.944231
441 0 1 0.589700 2.962043 10.181643 0.756355
442 0 2 -1.179400 -1.866834 21.631350 9.815567
443 0 1 0.589700 -2.052573 22.316875 9.175621
444 0 1 0.589700 -1.310385 22.056986 10.464930
445 0 2 -1.179400 7.654235 12.933456 10.224371
446 0 1 0.589700 7.850687 12.098471 9.800946
447 0 1 0.589700 6.952957 12.729282 10.839394
448 0 2 -1.179400 7.719851 20.650318 6.970624
449 0 1 0.589700 6.862236 20.331036 7.243556
450 0 1 0.589700 8.265451 20.565664 7.749589
451 0 2 -1.179400 -6.177567 19.716949 13.777019
452 0 1 0.589700 -6.621639 20.343050 13.207515
453 0 1 0.589700 -5.584043 20.252039 14.300829
454 0 2 -1.179400 4.526027 5.742811 12.200275
455 0 1 0.589700 5.064811 6.242030 12.811262
456 0 1 0.589700 3.649517 5.769444 12.577708
457 0 2 -1.179400 -2.793442 1.394110 2.870716
458 0 1 0.589700 -2.474789 0.885304 2.127410
459 0 1 0.589700 -2.640028 0.831134 3.627524
460 0 2 -1.179400 6.791073 12.212048 6.486597
461 0 1 0.589700 6.126251 12.665825 5.972159
462 0 1 0.589700 7.334183 12.912936 6.844047
463 0 2 -1.179400 -2.295435 18.290972 11.695583
464 0 1 0.589700 -2.400630 19.197218 11.984298
465 0 1 0.589700 -2.600277 17.765762 12.433311
466 0 2 -1.179400 -0.754638 7.156869 1.485373
467 0 1 0.589700 -0.604803 8.085557 1.309366
468 0 1 0.589700 0.054264 6.856218 1.894279
469 0 2 -1.179400 1.556620 15.942783 6.214939
470 0 1 0.589700 2.385446 16.071035 6.671163
471 0 1 0.589700 1.558107 15.017651 5.970014
472 0 2 -1.179400 1.439448 12.600599 12.586081
473 0 1 0.589700 0.502447 12.540624 12.758824
474 0 1 0.589700 1.848664 12.473347 13.439352
475 0 2 -1.179400 -6.121358 16.211792 16.963781
476 0 1 0.589700 -5.923019 15.421363 17.464386
477 0 1 0.589700 -6.534014 16.799576 17.594296
478 0 2 -1.179400 4.188295 20.419716 16.185001
479 0 1 0.589700 4.051641 20.685961 17.091913
480 0 1 0.589700 4.264567 19.466375 16.222979
481 0 2 -1.179400 -1.432860 22.100965 1.229041
482 0 1 0.589700 -1.911220 21.292425 1.049496
483 0 1 0.589700 -1.785974 22.734070 0.606066
484 0 2 -1.179400 10.759782 22.090197 8.100229
485 0 1 0.589700 10.988480 22.722942 8.779173
486 0 1 0.589700 10.616447 21.270548 8.572024
487 0 2 -1.179400 -1.226215 13.617379 6.445518
488 0 1 0.589700 -0.316594 13.375849 6.606599
489 0 1 0.589700 -1.660710 13.486486 7.285638
490 0 2 -1.179400 0.336959 20.259918 19.001947
491 0 1 0.589700 -0.565308 19.974627 19.129751
492 0 1 0.589700 7.431987 20.514019 0.543251
493 0 2 -1.179400 -4.000712 7.862195 8.899623
494 0 1 0.589700 -3.294676 8.440611 8.616606
495 0 1 0.589700 -4.733307 8.450207 9.074948
496 0 2 -1.179400 6.822772 19.279026 4.032645
497 0 1 0.589700 6.495038 18.741386 3.313889
498 0 1 0.589700 6.099036 19.866291 4.243641
499 0 2 -1.179400 3.650768 15.380253 17.004555
500 0 1 0.589700 4.179268 14.672373 17.370113
501 0 1 0.589700 2.812978 14.969766 16.799904
502 0 2 -1.179400 10.768547 21.734314 4.857639
503 0 1 0.589700 9.911899 22.153791 4.807753
504 0 1 0.589700 10.637940 20.988401 5.441554
505 0 2 -1.179400 3.260995 -0.640031 15.316068
506 0 1 0.589700 3.368056 -0.143954 14.506536
507 0 1 0.589700 3.705084 46.056274 15.325643
508 0 2 -1.179400 0.597998 -0.653052 15.102478
509 0 1 0.589700 1.548265 -0.634920 15.192187
510 0 1 0.589700 0.433839 -0.312355 14.225411
511 0 2 -1.179400 -5.270366 13.124180 7.007863
512 0 1 0.589700 -4.470862 12.981909 7.509986
513 0 1 0.589700 -5.262093 14.059024 6.803050
514 0 2 -1.179400 -3.314871 17.157013 6.038871
515 0 1 0.589700 -2.420870 17.195354 6.371614
516 0 1 0.589700 -3.223625 17.263924 5.094413
517 0 2 -1.179400 -3.794976 3.536560 15.816905
518 0 1 0.589700 -3.525895 2.622925 15.724178
519 0 1 0.589700 -3.018141 3.984372 16.146229
520 0 2 -1.179400 11.881524 17.449207 3.044636
521 0 1 0.589700 11.719547 16.776934 3.704715
522 0 1 0.589700 12.052773 16.958424 2.242964
523 0 2 -1.179400 -4.435227 10.818395 15.399525
524 0 1 0.589700 -4.699229 10.026301 15.866018
525 0 1 0.589700 -4.684829 10.655164 14.492406
526 0 2 -1.179400 6.922278 7.001254 6.099836
527 0 1 0.589700 6.615332 6.819461 6.985594
528 0 1 0.589700 7.872938 6.935833 6.157965
529 0 2 -1.179400 9.489411 5.640170 3.959329
530 0 1 0.589700 9.671178 5.907140 4.858065
531 0 1 0.589700 8.938892 6.339222 3.609726
532 0 2 -1.179400 12.618979 1.658607 3.518750
533 0 1 0.589700 13.462508 1.755439 3.082196
534 0 1 0.589700 12.156431 2.473842 3.328230
535 0 2 -1.179400 -4.573620 6.989578 18.665129
536 0 1 0.589700 -4.864579 6.144406 18.324287
537 0 1 0.589700 1.898094 7.054287 0.230872
538 0 2 -1.179400 11.804447 6.514368 7.934264
539 0 1 0.589700 11.562881 5.966475 8.678982
540 0 1 0.589700 -5.469931 6.903532 8.183479
541 0 2 -1.179400 6.395066 10.143294 15.899905
542 0 1 0.589700 5.737957 10.312853 16.571583
543 0 1 0.589700 5.890900 9.885453 15.130961
544 0 2 -1.179400 5.033902 10.023646 7.225453
545 0 1 0.589700 5.268492 9.386919 7.898654
546 0 1 0.589700 5.707246 10.699339 7.287168
547 0 2 -1.179400 -6.790390 1.918403 13.640347
548 0 1 0.589700 -7.715681 1.710489 13.750898
549 0 1 0.589700 -6.331197 1.157521 13.993393
550 0 2 -1.179400 8.663391 9.342693 0.235418
551 0 1 0.589700 7.996359 9.307014 0.917584
552 0 1 0.589700 9.457440 9.614024 0.691168
553 0 2 -1.179400 -1.972673 6.130315 6.830532
554 0 1 0.589700 -1.244253 6.429565 7.370719
555 0 1 0.589700 -2.455479 5.525960 7.391828
556 0 2 -1.179400 4.855191 18.425655 10.330295
557 0 1 0.589700 3.936952 18.193239 10.450651
558 0 1 0.589700 5.335549 17.639139 10.585795
559 0 2 -1.179400 4.553438 9.645058 13.794141
560 0 1 0.589700 4.276320 9.344266 12.931093
561 0 1 0.589700 3.739625 9.765325 14.278685
562 0 2 -1.179400 -1.295905 8.182981 16.043350
563 0 1 0.589700 -0.434253 8.237079 16.450880
564 0 1 0.589700 -1.615335 9.084962 16.038919
565 0 2 -1.179400 1.209800 8.483087 16.985922
566 0 1 0.589700 1.468598 8.617310 17.895193
567 0 1 0.589700 1.226848 7.533259 16.869209
568 0 2 -1.179400 -4.002505 17.633865 9.652122
569 0 1 0.589700 -4.121293 18.451679 9.170440
570 0 1 0.589700 -3.218443 17.778391 10.177427
571 0 2 -1.179400 -6.085454 -0.288294 18.514725
572 0 1 0.589700 -6.747766 -0.597989 17.900354
573 0 1 0.589700 -5.797135 -1.077427 18.971712
574 0 2 -1.179400 0.290863 -0.885578 12.346240
575 0 1 0.589700 0.694696 45.764637 12.353831
576 0 1 0.589700 0.704402 -0.094357 12.003258
577 0 2 -1.179400 -3.562101 7.856412 12.180259
578 0 1 0.589700 -4.157291 7.163078 11.899275
579 0 1 0.589700 -2.942742 7.946850 11.459272
580 0 2 -1.179400 -9.445776 15.440538 17.370022
581 0 1 0.589700 8.040216 14.976974 16.814999
582 0 1 0.589700 -8.881695 14.752265 17.719284
583 0 2 -1.179400 2.962564 0.909030 13.088219
584 0 1 0.589700 2.150937 1.402079 13.192212
585 0 1 0.589700 3.049259 0.786489 12.145223
586 0 2 -1.179400 -3.094554 1.927621 11.460683
587 0 1 0.589700 -3.631380 2.421030 12.078058
588 0 1 0.589700 -2.904837 1.104721 11.909932
589 0 2 -1.179400 -5.604637 -0.243394 14.856751
590 0 1 0.589700 -5.076360 -1.040629 14.851360
591 0 1 0.589700 -6.482322 -0.541470 15.086268
592 0 2 -1.179400 -8.565948 -0.610600 15.048999
593 0 1 0.589700 8.807848 45.862988 15.221908
594 0 1 0.589700 -8.481368 -0.199608 15.907167
595 0 2 -1.179400 -5.948926 9.624148 9.168252
596 0 1 0.589700 -5.497333 10.208897 9.774414
597 0 1 0.589700 -5.551660 9.807130 8.319424
598 0 2 -1.179400 7.410656 2.218118 17.721363
599 0 1 0.589700 7.019194 1.811450 18.491968
600 0 1 0.589700 7.226827 3.151959 17.821743
601 0 2 -1.179400 4.405352 8.280507 17.396196
602 0 1 0.589700 4.154881 9.179006 17.609659
603 0 1 0.589700 4.135523 7.767851 18.156017
604 0 2 -1.179400 1.794372 3.673438 3.005320
605 0 1 0.589700 2.675584 3.414177 3.266094
606 0 1 0.589700 1.589420 3.108291 2.262458
607 0 2 -1.179400 3.988805 7.941123 3.086182
608 0 1 0.589700 4.718139 8.396545 3.502337
609 0 1 0.589700 4.401711 7.332607 2.475724
610 0 2 -1.179400 3.474902 7.238863 7.080629
611 0 1 0.589700 3.100397 8.119141 7.063972
612 0 1 0.589700 2.879729 6.713285 6.549161
613 0 2 -1.179400 4.811235 4.089037 17.072035
614 0 1 0.589700 4.516513 3.178690 17.061842
615 0 1 0.589700 5.533331 4.113374 16.447929
616 0 2 -1.179400 13.382229 11.378866 0.573171
617 0 1 0.589700 12.506269 11.179674 0.896651
618 0 1 0.589700 13.652345 10.585617 0.112163
619 0 2 -1.179400 11.736410 11.052444 4.154063
620 0 1 0.589700 12.650547 11.122519 3.887843
621 0 1 0.589700 11.518656 10.129820 4.023025
622 0 2 -1.179400 3.194476 1.735092 16.926220
623 0 1 0.589700 3.286700 0.901515 16.466089
624 0 1 0.589700 2.931977 1.490543 17.811239
625 0 2 -1.179400 -0.182255 -0.263187 8.282615
626 0 1 0.589700 0.090560 0.148931 9.100072
627 0 1 0.589700 -1.134247 -0.303980 8.341278
628 0 2 -1.179400 6.441785 -0.943183 8.562791
629 0 1 0.589700 7.222793 -0.658227 8.092995
630 0 1 0.589700 6.182034 -0.180413 9.077785
631 0 2 -1.179400 1.929931 9.510278 6.116592
632 0 1 0.589700 1.498522 8.947097 5.476365
633 0 1 0.589700 2.430607 10.132442 5.591494
634 0 2 -1.179400 7.803265 2.980680 4.530807
635 0 1 0.589700 8.117567 2.077564 4.495823
636 0 1 0.589700 8.473588 3.450347 5.023447
637 0 2 -1.179400 -4.952069 10.170276 12.797185
638 0 1 0.589700 -5.855165 9.885206 12.919505
639 0 1 0.589700 -4.463284 9.359851 12.658954
640 0 2 -1.179400 -1.840895 11.421903 11.026147
641 0 1 0.589700 -1.340284 12.174107 10.713192
642 0 1 0.589700 -2.752929 11.670286 10.891207
643 0 2 -1.179400 -2.910409 -0.543020 8.864988
644 0 1 0.589700 -3.541851 0.062090 9.250312
645 0 1 0.589700 -3.738776 46.102406 8.423954
646 0 2 -1.179400 8.274368 10.481503 12.512875