LAMMPS data file via write_data, version 30 Jul 2021, timestep = 12250000

972 atoms
2 atom types
648 bonds
1 bond types
324 angles
1 angle types

-0.048241775496153494 20.048242775485306 xlo xhi
0.036396433492802416 19.963604566503342 ylo yhi
0.12198836463038276 20.57800963537003 zlo zhi

Masses

1 1.008
2 15.999

Pair Coeffs # lj/cut/tip4p/long/omp

1 0 0
2 0.21084 3.1668

Bond Coeffs # harmonic/omp

1 450 0.9572

Angle Coeffs # harmonic/omp

1 55 104.52

Atoms # full

5 2 1 0.5897 4.0281039485661285 0.8439124273218069 2.3479787535461045 0 0 0
31 11 2 -1.1794 0.58394311691042 1.8111950843752052 2.216687943012247 0 0 0
18 6 1 0.5897 3.762473726107729 3.119874689050844 2.945821638857401 0 0 0
10 4 2 -1.1794 0.9943188654064026 3.8368146676784334 4.03586891522252 0 0 0
23 8 1 0.5897 2.0572931919776334 1.0593457371441326 4.229321684405309 0 0 0
11 4 1 0.5897 0.9010201886308035 2.9308835570091096 3.74093534141218 0 0 0
33 11 1 0.5897 1.3135943229066394 2.101336630244954 1.6693553987842595 0 0 0
12 4 1 0.5897 1.9326709921125236 4.0144441955680445 3.972366267802019 0 0 0
9 3 1 0.5897 4.791507005000422 4.517607240124584 4.881935197811978 0 0 0
4 2 2 -1.1794 3.6703802813243653 1.2322070184093328 3.1464154032854577 0 0 0
16 6 2 -1.1794 3.833423269863723 3.9933847959583963 3.330957863995845 0 0 0
6 2 1 0.5897 4.263190695296569 0.9433733942907774 3.84021338228651 0 0 0
17 6 1 0.5897 4.087107118428136 4.557855000311811 2.6006709308248275 0 0 0
1 1 2 -1.1794 2.3936323661851437 2.6015743809163645 0.3190964049713046 0 0 0
2 1 1 0.5897 2.2356401463808817 3.5434798017001734 0.2538536070009486 0 0 0
22 8 2 -1.1794 1.4690629644608302 0.7465402531644784 4.9165920630263535 0 0 0
20 7 1 0.5897 0.6233500760143023 4.908939464768571 2.773124569777373 0 0 0
342 114 1 0.5897 4.285976710668713 4.757334302410922 9.62267660072376 0 0 0
356 119 1 0.5897 0.9170133033993682 2.4424969227611832 8.679077437716547 0 0 0
561 187 1 0.5897 0.7487546541264122 0.6382569924472798 9.0555135490582 0 1 0
325 109 2 -1.1794 1.86661759545671 2.386393043393638 7.116194093868294 0 0 0
326 109 1 0.5897 1.5877449383660296 1.7898255205178337 6.421476115470672 0 0 0
327 109 1 0.5897 2.812445107871648 2.25465270000927 7.180216986594584 0 0 0
355 119 2 -1.1794 0.2945642498671137 2.3652384621728526 9.402103615084547 0 0 0
328 110 2 -1.1794 3.786475247526914 1.4544969832299253 9.739408074675202 0 0 0
27 9 1 0.5897 2.432698210799359 4.1657211853608676 6.833550835458134 0 0 0
330 110 1 0.5897 4.064607829433453 0.7817714059692209 9.117801338457417 0 0 0
358 120 2 -1.1794 4.714223903757419 2.4641001754763487 6.7970127419592075 0 0 0
341 114 1 0.5897 3.9550175002350576 3.3032891049832505 9.884463626973965 0 0 0
340 114 2 -1.1794 3.9305851179136826 4.170133020088906 10.289896841660536 0 0 0
24 8 1 0.5897 1.9613209744871392 0.053670529095019376 5.35694080440072 0 0 0
335 112 1 0.5897 0.9542363883456728 4.006482364207183 10.323784632521663 0 0 0
350 117 1 0.5897 2.381381765804468 4.898683749376485 13.218883932781457 0 0 0
347 116 1 0.5897 1.1428700672753211 1.0702926653103957 11.225233871694 0 0 0
650 217 1 0.5897 2.1601433156168803 2.3231904198039546 12.966138643685579 0 0 0
348 116 1 0.5897 2.6269423377233405 1.1976932592247864 10.955351518373199 0 0 0
329 110 1 0.5897 4.468378573738964 1.4573625454546852 10.411051094216166 0 0 0
336 112 1 0.5897 2.3386104552115716 4.4669868356791 10.727593507776632 0 0 0
651 217 1 0.5897 1.75470494066961 2.975682802977856 14.270661678793862 0 0 0
649 217 2 -1.1794 2.2532118425475995 3.1325249256190113 13.468724520671518 0 0 0
346 116 2 -1.1794 1.9998980967217466 0.9383929702685881 11.630458830988122 0 0 0
683 228 1 0.5897 4.0364411104118965 3.14902376485657 13.913275341893145 0 0 0
334 112 2 -1.1794 1.4097275162283338 4.619816302172006 10.900523550712766 0 0 0
405 135 1 0.5897 0.03414203536747114 4.104564844264659 12.32064838296558 1 0 0
652 218 2 -1.1794 4.1308658387479875 0.9681433840514244 17.162170448651327 0 0 0
653 218 1 0.5897 3.30929137782266 0.9775362426447091 17.653044865647416 0 0 0
658 220 2 -1.1794 1.5496250123026172 4.343560872465529 17.61319671855477 0 0 0
666 222 1 0.5897 4.2277119318703535 2.9680478065313127 16.77149758767619 0 0 0
659 220 1 0.5897 1.03856618232744 4.4099625683886305 18.419785084916672 0 0 0
679 227 2 -1.1794 0.6072491885371494 2.325884868955036 15.777919454515393 0 0 0
664 222 2 -1.1794 4.040313688459379 3.905864468054877 16.81314605051572 0 0 0
665 222 1 0.5897 3.1243507180029826 3.955635086463546 17.086319927143148 0 0 0
671 224 1 0.5897 0.9853803066293516 0.7732587698062207 18.472275308178467 0 0 0
672 224 1 0.5897 1.8112180287690491 1.7495016477989997 19.282794145932456 0 0 0
670 224 2 -1.1794 1.8672115148172765 1.137442751203164 18.54892341140872 0 0 0
654 218 1 0.5897 3.9277403076865234 0.4812914969603406 16.36342664935868 0 0 0
681 227 1 0.5897 0.6689551214196741 2.7748059021901 16.62108824591491 0 0 0
884 295 1 0.5897 0.8306106594431095 0.5345852535696478 15.603365230720641 0 1 0
3 1 1 0.5897 3.309734026800264 2.4936603927550265 20.519809321349424 0 0 -1
114 38 1 0.5897 3.1361649087614665 7.586805346483559 3.945535836917792 0 0 0
19 7 2 -1.1794 0.49567375372688505 5.596016843104654 2.1189512553642915 0 0 0
139 47 2 -1.1794 1.0228871199037604 8.667792085840857 2.215981687956196 0 0 0
110 37 1 0.5897 1.9428083261519997 9.295139081206107 0.6496965416688654 0 0 0
112 38 2 -1.1794 3.849624215120555 7.820533455090331 3.3518196592293523 0 0 0
113 38 1 0.5897 4.641624788902489 7.731856425539717 3.881916047524791 0 0 0
140 47 1 0.5897 1.245013163242738 9.161876118177801 3.005174689871133 0 0 0
14 5 1 0.5897 3.9152037087453646 5.786767651787563 0.838268258506815 0 0 0
674 225 1 0.5897 1.7335198361131243 5.535066642648039 0.8286637375021294 0 0 1
141 47 1 0.5897 1.0539387006581034 7.751075346013416 2.4899762447297844 0 0 0
130 44 2 -1.1794 1.685794852932217 7.149202547021109 4.863689420466971 0 0 0
126 42 1 0.5897 4.237399497717043 9.766134372198307 3.4810459923226245 0 0 0
15 5 1 0.5897 4.1377779171761135 6.584014065340699 2.1058873590204845 0 0 0
13 5 2 -1.1794 4.552190765996344 5.935148333018268 1.537099971755066 0 0 0
132 44 1 0.5897 0.773736585247188 7.205155763172228 5.148481200223602 0 0 0
673 225 2 -1.1794 2.383673192799033 5.33184150614991 0.15622745173205482 0 0 1
463 155 2 -1.1794 0.7433515922388493 9.116130415598997 8.90182382798746 0 0 0
433 145 2 -1.1794 2.6569558263202135 8.883470766384672 6.806390912986964 0 0 0
344 115 1 0.5897 1.056678098586279 6.0193578101622744 9.811913899347145 0 0 0
435 145 1 0.5897 2.367012386129289 8.527805940502635 5.96633486495223 0 0 0
337 113 2 -1.1794 4.373436425838226 6.402548584977076 8.484824004361839 0 0 0
343 115 2 -1.1794 0.9289228275394964 6.3418132032492265 8.919768523519215 0 0 0
345 115 1 0.5897 1.017506679424741 7.292180462991911 8.993038109154766 0 0 0
465 155 1 0.5897 -0.032821162971521885 9.33163852718 8.384850174305697 0 0 0
25 9 2 -1.1794 2.3774473339459217 5.118634119821415 6.760723450288764 0 0 0
464 155 1 0.5897 1.4374384322971185 8.995981573990226 8.2538178121445 0 0 0
26 9 1 0.5897 1.7253636803261168 5.371869284857074 7.414041478855923 0 0 0
437 146 1 0.5897 3.9851216592976844 8.062633359728428 9.542888185584886 0 0 0
468 156 1 0.5897 4.4832068105643 8.96976617502823 7.221577378582064 0 0 0
339 113 1 0.5897 3.9231248417403726 5.958881851397305 7.766057287904858 0 0 0
438 146 1 0.5897 3.7791954022635355 9.40658846095504 10.208908806430596 0 0 0
131 44 1 0.5897 2.0395958036972783 6.396820699264604 5.3381117063251855 0 0 0
434 145 1 0.5897 2.633152944582378 9.832889377993633 6.686174127204037 0 0 0
351 117 1 0.5897 3.4004037019033926 5.853660084522691 13.803261726228857 0 0 0
757 253 2 -1.1794 2.095091141218268 9.331000047715982 14.01367218880863 0 0 0
454 152 2 -1.1794 1.5324848494119143 7.685433394457592 11.826491237262994 0 0 0
455 152 1 0.5897 2.1582447544209384 7.9771506902818 11.163527765617802 0 0 0
456 152 1 0.5897 2.0253744124620567 7.067592887897372 12.366502489652884 0 0 0
792 264 1 0.5897 4.058434682466132 9.01832212593491 13.90092215587177 0 0 0
759 253 1 0.5897 1.8570201572721323 8.848595347296765 13.22191841778473 0 0 0
668 223 1 0.5897 1.2710251226999565 6.119877856632851 14.858690658528648 0 0 0
349 117 2 -1.1794 2.484732365800763 5.797994614282815 13.530245829614932 0 0 0
789 263 1 0.5897 0.8634746408920506 9.264950083449186 15.368456129002373 0 0 0
790 264 2 -1.1794 4.966003685677165 9.306765525375804 13.804845719779246 0 0 0
661 221 2 -1.1794 4.867180938184526 6.018525111241869 14.846435477013545 0 0 0
436 146 2 -1.1794 3.765898558850229 8.465444010011641 10.383091599842835 0 0 0
662 221 1 0.5897 4.7366654501120165 5.098427761196262 15.076096538927848 0 0 0
533 178 1 0.5897 -0.028183060444803232 7.241021455859096 12.344970874371983 1 0 0
663 221 1 0.5897 4.424461721829919 6.504716368093146 15.542028686874403 0 0 0
780 260 1 0.5897 2.790446447169573 7.565920986902891 17.86237881953569 0 0 0
778 260 2 -1.1794 2.1533532224427145 7.384375680536586 18.55325065489012 0 0 0
760 254 2 -1.1794 4.1303706257523745 7.899833792563864 16.691100081161565 0 0 0
779 260 1 0.5897 2.1670557604025986 8.167132045502884 19.104097283172827 0 0 0
675 225 1 0.5897 2.1434270727021225 5.887159970904899 19.87050180605865 0 0 0
762 254 1 0.5897 4.74695722298586 7.663851179351093 17.38414555988097 0 0 0
788 263 1 0.5897 0.6052725808422798 9.61161245011633 16.81933614315594 0 0 0
761 254 1 0.5897 4.253772025327315 8.841432416216657 16.570373004048193 0 0 0
787 263 2 -1.1794 0.30852251000977504 9.036406003868402 16.11409979780511 0 0 0
669 223 1 0.5897 0.7052240673316724 7.153028507178873 15.809765490838487 0 0 0
858 286 1 0.5897 0.3495430422792189 7.33345545622304 18.801479459912606 1 0 0
109 37 2 -1.1794 2.32117850655047 9.457530136540662 20.241609731043592 0 0 -1
667 223 2 -1.1794 0.6415958325988584 6.22801096255801 15.571646360746511 0 0 0
111 37 1 0.5897 3.2608335299893643 9.320603560530508 20.361566347003418 0 0 -1
660 220 1 0.5897 1.1884568211689994 5.022837667026332 17.04358960375622 0 0 0
240 80 1 0.5897 2.952675950233981 13.814072928905146 4.663388528352619 0 0 0
118 40 2 -1.1794 1.6112880573365105 10.607779662366207 4.063873532326937 0 0 0
124 42 2 -1.1794 4.371863942365665 10.691972020054443 3.683761462553505 0 0 0
120 40 1 0.5897 2.5623937370121235 10.70489400231843 4.018566176661068 0 0 0
128 43 1 0.5897 0.11988667918795257 12.611171380389385 1.8064456015778678 0 0 0
122 41 1 0.5897 4.740078802009368 11.492115506856432 1.8382352664441217 0 0 0
127 43 2 -1.1794 1.0621627190532605 12.570213773563909 1.9692221399572187 0 0 0
119 40 1 0.5897 1.2708638078295453 11.33193535970401 3.538489802666208 0 0 0
129 43 1 0.5897 1.2980860074052618 13.458227712268489 2.237832845848767 0 0 0
783 261 1 0.5897 1.9958423019694131 12.448541200663634 0.5294189220320218 0 0 1
222 74 1 0.5897 4.122246409500323 13.489318433909796 2.2737730298645302 0 0 0
123 41 1 0.5897 3.9868704555168524 12.172106902211146 0.7147838984347084 0 0 0
220 74 2 -1.1794 3.933558705451017 13.957393795652088 3.087144964199102 0 0 0
221 74 1 0.5897 4.169877892712679 14.866278387854639 2.901466654347357 0 0 0
121 41 2 -1.1794 4.818530342674361 12.190390119901707 1.1881636777984659 0 0 0
317 106 1 0.5897 0.1869430133652051 14.417666726458668 4.874307969114928 1 0 0
133 45 2 -1.1794 2.8365038391690867 11.547125919862893 7.147009678117246 0 0 0
134 45 1 0.5897 2.137537342275856 11.962636534817593 7.651969717060402 0 0 0
135 45 1 0.5897 3.6444420461090994 11.893571576518319 7.525611729710092 0 0 0
450 150 1 0.5897 4.107565991608895 11.868755557916053 9.606746070289747 0 0 0
453 151 1 0.5897 1.0347800324378558 12.555123062842235 9.623130210838104 0 0 0
452 151 1 0.5897 0.012748750475001971 12.784223170229119 8.53010652167712 0 0 0
544 182 2 -1.1794 4.221728872650526 14.532664709528362 10.328532079602784 0 0 0
239 80 1 0.5897 2.6678803743349024 13.274966132202692 6.049100082194297 0 0 0
451 151 2 -1.1794 0.9498367720969917 12.845545444571734 8.71499959198536 0 0 0
573 191 1 0.5897 1.1421862686079292 14.894005916431993 9.294910842957897 0 0 0
443 148 1 0.5897 1.0910560719827345 10.36021447994841 10.171450504060516 0 0 0
238 80 2 -1.1794 2.44821785685272 13.99406170698778 5.456693954322402 0 0 0
448 150 2 -1.1794 3.7989275264472377 11.248206784134167 10.26701640363011 0 0 0
188 63 1 0.5897 0.2627291560649606 10.953021740430726 5.3773127706898505 1 0 0
564 188 1 0.5897 2.240244039390105 13.198013071739105 12.193010167524786 0 0 0
449 150 1 0.5897 4.42636153563531 11.330075942379233 10.98518568001248 0 0 0
442 148 2 -1.1794 1.2556121998975618 10.909211634574945 10.938135082473476 0 0 0
562 188 2 -1.1794 1.892445501482023 13.90619365311185 11.650972191321033 0 0 0
457 153 2 -1.1794 2.6375915188671857 11.986591275898506 13.606287141094759 0 0 0
458 153 1 0.5897 2.06606826748683 12.433032298836991 14.231013174393537 0 0 0
459 153 1 0.5897 3.509569902195127 12.041651027870238 13.997098341676379 0 0 0
758 253 1 0.5897 2.2270712418349 10.231129416443418 13.715780354858877 0 0 0
545 182 1 0.5897 4.931751469511729 14.397548634248153 10.956046092861593 0 0 0
563 188 1 0.5897 2.0385082337573133 14.698335754171588 12.168196642167308 0 0 0
444 148 1 0.5897 2.1840679904772626 11.133755063074748 10.87769278817708 0 0 0
642 214 1 0.5897 0.13427594086164774 13.836254241663507 11.846994977028602 1 0 0
546 182 1 0.5897 3.441792395566706 14.201715737576933 10.773841054093147 0 0 0
869 290 1 0.5897 3.357521704417228 14.333159176877745 17.530363280229672 0 0 0
766 256 2 -1.1794 1.6691393923686078 10.941758726793518 17.678516943182554 0 0 0
773 258 1 0.5897 3.3986851773362146 10.803449231606436 17.06702095897738 0 0 0
768 256 1 0.5897 1.338163600161034 11.697498985799175 17.1930797151495 0 0 0
774 258 1 0.5897 4.553673631025464 11.230496787677122 16.186476082629365 0 0 0
782 261 1 0.5897 2.423683641585828 11.315834200045977 20.076611169675175 0 0 0
781 261 2 -1.1794 2.5008846142372705 12.262763218016 20.193868996410103 0 0 0
772 258 2 -1.1794 4.284908275421832 10.552621326847715 16.806610310092292 0 0 0
888 296 1 0.5897 2.219279370684256 13.660074435177286 19.18547069174718 0 0 0
886 296 2 -1.1794 2.051529356932389 14.495426279254195 18.749098084089095 0 0 0
767 256 1 0.5897 0.9687465157138109 10.726544869834076 18.29437364407093 0 0 0
965 322 1 0.5897 0.2120791705686343 14.18674377343703 18.855038529086777 1 0 0
771 257 1 0.5897 4.749637016921928 13.094770703250425 15.744830805933496 0 0 0
868 290 2 -1.1794 4.04106804829835 14.386380585464659 16.862461012902365 0 0 0
870 290 1 0.5897 4.860957371060363 14.358123257388517 17.35551635414638 0 0 0
775 259 2 -1.1794 1.0767714256763699 12.997490569552864 15.805007761190664 0 0 0
776 259 1 0.5897 0.14315036491393895 12.89062666941081 15.623348201003 0 0 0
777 259 1 0.5897 1.2188349561093028 13.943912519427798 15.782723960353897 0 0 0
229 77 2 -1.1794 4.284862021191526 18.721823126087905 1.8766448089774448 0 0 0
234 78 1 0.5897 3.39731581749259 16.80575359892991 3.988389232265366 0 0 0
247 83 2 -1.1794 0.9950076850449265 15.342614739194529 2.353803182073362 0 0 0
230 77 1 0.5897 3.8532481049023803 18.5762317131298 1.0347861439720645 0 0 0
226 76 2 -1.1794 1.606356223325257 17.291992558357208 4.247062790438105 0 0 0
227 76 1 0.5897 1.4358902866653231 17.870379162326607 3.5036335785589703 0 0 0
228 76 1 0.5897 0.9547928893589928 17.54386254576444 4.90141892929949 0 0 0
235 79 2 -1.1794 0.7476933835948137 18.88784171167204 2.126153865818594 0 0 0
233 78 1 0.5897 4.438197389750565 17.449599295861603 3.097422188404008 0 0 0
249 83 1 0.5897 1.546587449347405 15.680250372533886 1.6481417972426309 0 0 0
232 78 2 -1.1794 4.308682211752405 16.72360881664259 3.707752459916479 0 0 0
248 83 1 0.5897 1.070318153920453 15.994962322918434 3.050276383824469 0 0 0
890 297 1 0.5897 1.7335286259919438 18.976199975871587 0.649807854225378 0 0 1
219 73 1 0.5897 3.403481537362094 16.05108642058736 0.2779523132897074 0 0 0
236 79 1 0.5897 0.8771539547577647 19.788430547846275 2.4237426212945903 0 0 0
217 73 2 -1.1794 2.496479500748995 16.356591636609373 0.28767510763363024 0 0 0
241 81 2 -1.1794 2.449890336074768 18.84204792521244 6.94203224461597 0 0 0
555 185 1 0.5897 4.190972660534914 18.906120322655866 7.719264425649826 0 0 0
542 181 1 0.5897 1.6568677532843692 16.152303986321684 7.5791842860748035 0 0 0
559 187 2 -1.1794 0.722378285964117 19.611654132950648 8.978313005238995 0 0 0
541 181 2 -1.1794 2.3808066333124716 16.138103621531684 6.953230035450599 0 0 0
243 81 1 0.5897 1.7421759665775836 18.97680918266291 7.572202335052229 0 0 0
558 186 1 0.5897 4.6289219063002065 17.81584228120625 9.594076101309554 0 0 0
576 192 1 0.5897 4.3705881467701415 15.66639850386393 7.213847093174045 0 0 0
242 81 1 0.5897 2.3785972771058845 17.92006778351321 6.6945216089676975 0 0 0
572 191 1 0.5897 0.8981454575758878 16.35605274859065 9.60327138310015 0 0 0
543 181 1 0.5897 2.260981294133381 15.322790132395742 6.4661797219719 0 0 0
553 185 2 -1.1794 4.795041723937862 19.273701311094804 8.364347847562296 0 0 0
571 191 2 -1.1794 0.6409443187683592 15.655688051214009 9.0036018388628 0 0 0
552 184 1 0.5897 1.2548712385776648 18.3147791458863 9.92308949310633 0 0 0
557 186 1 0.5897 4.492075841304124 16.461301017599048 10.256463705327908 0 0 0
550 184 2 -1.1794 1.5643266827550086 17.66814269006027 10.557440908584462 0 0 0
879 293 1 0.5897 4.060979900312545 19.001250208878446 14.357312616108358 0 0 0
551 184 1 0.5897 2.516663471466114 17.675640348754335 10.462531077098351 0 0 0
565 189 2 -1.1794 2.6403662678577464 18.741489381089373 13.402395588537333 0 0 0
566 189 1 0.5897 2.6495017438999335 17.800942702944262 13.224347406558252 0 0 0
865 289 2 -1.1794 2.7139787341259445 16.04079614907318 13.334201365048767 0 0 0
867 289 1 0.5897 2.237187561103509 15.800041152942264 14.128482879478346 0 0 0
866 289 1 0.5897 3.6077826285411576 16.208757734752695 13.63252040473194 0 0 0
885 295 1 0.5897 1.2442569629607245 19.184843116339117 14.903008465891608 0 0 0
556 186 2 -1.1794 4.483476616371463 17.400026501041758 10.443907785026566 0 0 0
896 299 1 0.5897 0.32133543038310663 15.767487356846658 15.190724337063026 0 0 0
567 189 1 0.5897 2.4329109162057754 19.143473764448267 12.558813944328062 0 0 0
877 293 2 -1.1794 4.726203433608633 19.16037457104929 15.026840041920241 0 0 0
621 207 1 0.5897 0.2629313872721416 17.66113640575466 11.71251534830288 1 0 0
874 292 2 -1.1794 1.5117977909887639 17.775364688468457 17.495567640629613 0 0 0
882 294 1 0.5897 4.10668247507409 16.293520862394644 16.807422363096375 0 0 0
897 299 1 0.5897 1.129295971655509 16.335396158907827 16.338100409520433 0 0 0
875 292 1 0.5897 1.1882317662095057 18.494190569616585 16.952498673775978 0 0 0
880 294 2 -1.1794 4.154471519087258 17.186225019550697 17.14974583400863 0 0 0
881 294 1 0.5897 3.241113597570049 17.456380417951614 17.244007891286305 0 0 0
876 292 1 0.5897 0.8893248467727876 17.72346795566449 18.220837374567466 0 0 0
895 299 2 -1.1794 1.1487829010151638 15.660329820326218 15.659699293494821 0 0 0
891 297 1 0.5897 2.0344596011458185 19.687988734342305 19.803998387334104 0 0 0
887 296 1 0.5897 2.1824162431718963 15.153492791234454 19.431842738603653 0 0 0
889 297 2 -1.1794 2.3372889490636344 18.972453193506567 20.363102535812697 0 0 0
878 293 1 0.5897 4.679971839311472 18.39366764798166 15.598076589653308 0 0 0
218 73 1 0.5897 2.5575411555762853 17.295574963197204 20.567657718459618 0 0 -1
883 295 2 -1.1794 0.7282891377411582 19.51070550777154 15.640434742825631 0 0 0
68 23 1 0.5897 7.777222474970279 2.0016808024420927 1.7273136494020902 0 0 0
34 12 2 -1.1794 5.1143646425144045 2.6437287096232946 0.5317049059810702 0 0 0
67 23 2 -1.1794 7.12417493082001 1.8249398361951361 2.404419209718636 0 0 0
69 23 1 0.5897 6.2877610072468135 2.0445421445178127 1.994156148665394 0 0 0
47 16 1 0.5897 7.576934973797566 3.459260262083217 3.3513252024878923 0 0 0
46 16 2 -1.1794 7.735012181439749 4.253096360071864 3.862402378360005 0 0 0
48 16 1 0.5897 7.0155558626788315 4.279698346328399 4.493140416937796 0 0 0
53 18 1 0.5897 9.751003101517375 4.075893561355289 4.101926991988449 0 0 0
58 20 2 -1.1794 8.424137357094695 0.7004116375807251 5.07416954984099 0 0 0
37 13 2 -1.1794 8.886743714486592 2.685262595098639 0.3305290497127707 0 0 0
39 13 1 0.5897 9.737715364010866 2.4160791719447476 0.6762067181109187 0 0 0
41 14 1 0.5897 9.872721810537229 0.8447256558874683 3.7157976014797156 0 0 0
272 91 1 0.5897 7.1237268392166975 0.044278075547708795 2.2515574785893153 0 1 0
28 10 2 -1.1794 5.617237246375412 0.6315197874519864 5.133646699510606 0 0 0
36 12 1 0.5897 5.488741148700293 3.4935450511581454 0.2993443012366678 0 0 0
391 131 2 -1.1794 6.876705288172007 2.089474886241378 8.372197032838212 0 0 0
361 121 2 -1.1794 9.304860583965093 2.791486074091057 6.736279224397585 0 0 0
393 131 1 0.5897 7.002705955569393 1.14343815026289 8.44666809457537 0 0 0
392 131 1 0.5897 7.545072594919605 2.372264344981001 7.748099859361184 0 0 0
359 120 1 0.5897 5.298956546506972 2.2582592501914207 7.526332687421937 0 0 0
371 124 1 0.5897 7.499641715887804 3.2509699591545163 9.996309652019468 0 0 0
7 3 2 -1.1794 5.542979617129507 4.568936311500944 5.472449727168709 0 0 0
362 121 1 0.5897 9.244320868661914 3.73199113318467 6.568425547071747 0 0 0
59 20 1 0.5897 8.799351827899702 1.4052192413160984 5.6021574989151235 0 0 0
8 3 1 0.5897 5.461421820018743 3.7967569220249953 6.032284586963948 0 0 0
360 120 1 0.5897 4.9895641311649594 1.874617947969333 6.094887295269119 0 0 0
377 126 1 0.5897 9.882982320203164 4.020750218683611 10.271639710741244 0 0 0
29 10 1 0.5897 6.562338884725058 0.7390182831419417 5.23966486995096 0 0 0
384 128 1 0.5897 8.814744095405509 0.9738816712233265 10.747965754239237 0 0 0
372 124 1 0.5897 6.989097925476261 4.224788942204448 11.037015741940873 0 0 0
684 228 1 0.5897 5.312512512744209 3.805336075910646 13.431029648833656 0 0 0
352 118 2 -1.1794 5.585764548582603 1.5277056378767362 11.765579262150954 0 0 0
386 129 1 0.5897 8.987798740738159 4.670926142938076 13.98901887508159 0 0 0
332 111 1 0.5897 5.090573036321628 4.651750693793084 11.327704823347506 0 0 0
382 128 2 -1.1794 8.230228543543292 1.0579321271944624 11.5012541391122 0 0 0
686 229 1 0.5897 8.171498948123132 2.6431212901258485 14.107918237889084 0 0 0
353 118 1 0.5897 6.534502399821806 1.5597973055664562 11.64341878729764 0 0 0
383 128 1 0.5897 8.644468621280398 1.720838931389155 12.053754117728829 0 0 0
685 229 2 -1.1794 8.846316598350347 2.899722657161328 13.479462740151073 0 0 0
717 239 1 0.5897 6.2349463172316595 2.391646143976059 15.201731511306479 0 0 0
354 118 1 0.5897 5.420024579601876 2.1055931675943094 12.510483497237887 0 0 0
682 228 2 -1.1794 4.989352248554589 3.0652187770183525 13.944953770405148 0 0 0
331 111 2 -1.1794 5.727980102565712 4.790076442620045 12.028229977022168 0 0 0
687 229 1 0.5897 9.652086786467263 2.512234357891669 13.821125693036889 0 0 0
370 124 2 -1.1794 7.730288285913255 4.059198795171074 10.454487664625539 0 0 0
716 239 1 0.5897 7.228722381078537 1.3832424922189195 15.737891140961736 0 0 0
38 13 1 0.5897 8.805769794118424 2.216062497357765 19.956167283662396 0 0 -1
708 236 1 0.5897 7.724278622654901 0.9525269917984707 18.67272432779307 0 0 0
655 219 2 -1.1794 5.982301980480361 4.723124054048356 19.344816653602262 0 0 0
706 236 2 -1.1794 8.668922647288174 0.8098502007270785 18.61455894701293 0 0 0
694 232 2 -1.1794 7.932396768309443 4.268499662905845 17.5326355215352 0 0 0
676 226 2 -1.1794 5.977109534368339 0.8954648613189888 19.223806170696413 0 0 0
711 237 1 0.5897 9.496403156324867 4.855428279644324 20.40127546182654 0 0 0
715 239 2 -1.1794 7.036475841436364 2.320860174711927 15.720067539166166 0 0 0
695 232 1 0.5897 7.69471357934839 3.6676805991105494 16.8263543668014 0 0 0
677 226 1 0.5897 5.461481267765488 0.9306682970269513 18.41817547337957 0 0 0
657 219 1 0.5897 6.850411834598982 4.656685887228788 18.947230539571525 0 0 0
656 219 1 0.5897 5.37538955156025 4.538352853381577 18.62808925157914 0 0 0
689 230 1 0.5897 9.894827498584707 1.2931429090765976 17.033140347426638 0 0 0
35 12 1 0.5897 5.419091005084312 2.0511313594365577 20.300507336634425 0 0 -1
702 234 1 0.5897 9.661311510364403 4.16012040788693 17.689923731898006 0 0 0
707 236 1 0.5897 8.845395357332128 0.11132393776617075 19.244828449537202 0 0 0
175 59 2 -1.1794 7.087277149316625 8.912931139605682 2.2083496656821024 0 0 0
143 48 1 0.5897 5.764407962456038 9.226851933226673 0.877559492705316 0 0 0
56 19 1 0.5897 6.457082828448607 5.766361503719406 1.604804876257064 0 0 0
177 59 1 0.5897 7.827407877042366 9.135767541074674 1.6438098382786168 0 0 0
145 49 2 -1.1794 9.36766500375236 9.342332949414969 0.7177931922638123 0 0 0
176 59 1 0.5897 7.105891256268959 7.957352393355176 2.262566728530638 0 0 0
57 19 1 0.5897 7.475545675994332 5.610104079439473 2.7138910426552987 0 0 0
55 19 2 -1.1794 7.32804254902804 6.0537465268597215 1.8786009150011014 0 0 0
710 237 1 0.5897 8.675120555509967 6.0436359698959805 0.39863450330734146 0 0 1
138 46 1 0.5897 7.068728539182463 7.287864525207309 4.9812974758492405 0 0 0
166 56 2 -1.1794 8.803801163793866 7.587613142217794 4.864721565005177 0 0 0
136 46 2 -1.1794 6.131561259826879 7.240560253598549 5.169889884928393 0 0 0
142 48 2 -1.1794 5.151186598382166 9.126764916171773 0.1494837828462943 0 0 0
155 52 1 0.5897 8.011740774542139 9.934635202964435 3.556154678643324 0 0 0
381 127 1 0.5897 7.397321746236335 5.316663406995801 9.27208219489459 0 0 0
469 157 2 -1.1794 8.953809421388362 9.4822680863953 6.9922739546017665 0 0 0
466 156 2 -1.1794 5.432670266280769 9.055542746834456 7.136458765587808 0 0 0
338 113 1 0.5897 5.301174469390281 6.22083538996731 8.335224865861049 0 0 0
499 167 2 -1.1794 7.307814296393321 8.38480023518265 9.065036978887854 0 0 0
501 167 1 0.5897 6.5661435255401 8.688526086405764 8.541793546490398 0 0 0
379 127 2 -1.1794 7.102991734429161 5.773811241262602 8.484301376055948 0 0 0
470 157 1 0.5897 8.28633438605044 9.234963486574586 7.632185151213641 0 0 0
500 167 1 0.5897 7.408112312418009 9.048777546590811 9.747240902930397 0 0 0
380 127 1 0.5897 7.189638864757457 6.702630698734302 8.699226127040578 0 0 0
63 21 1 0.5897 9.88486874232723 5.698811836684818 7.1220047126084 0 0 0
62 21 1 0.5897 8.401469364311344 5.482977953880114 7.332864134727392 0 0 0
467 156 1 0.5897 5.655901325152497 8.512204409979532 6.380649597086671 0 0 0
168 56 1 0.5897 8.938798834933896 8.289724298621167 5.501204502107734 0 0 0
137 46 1 0.5897 5.979081567374486 6.3240073616826695 5.400282086321179 0 0 0
61 21 2 -1.1794 9.08191693348038 5.457711251234763 6.66018918372323 0 0 0
167 56 1 0.5897 9.125319042344335 6.800211973927313 5.303944404897083 0 0 0
471 157 1 0.5897 9.779926996154384 9.2043764960685 7.387792201276108 0 0 0
794 265 1 0.5897 8.95139256426645 8.64804874152954 13.237926804526433 0 0 0
333 111 1 0.5897 5.769184526652657 5.7409547095318345 12.130927014376772 0 0 0
491 164 1 0.5897 9.231325692989676 7.605732101495078 11.071850933894757 0 0 0
791 264 1 0.5897 5.37055027574944 9.11152029355928 14.650077225342647 0 0 0
461 154 1 0.5897 5.464056896649883 8.11239961513277 12.668087094239514 0 0 0
460 154 2 -1.1794 5.675529765085505 7.509388089210573 11.955372797349465 0 0 0
490 164 2 -1.1794 8.726781880917205 7.4434669803655495 11.868878245329974 0 0 0
387 129 1 0.5897 9.097334995287827 6.032038964130418 13.335060659976323 0 0 0
492 164 1 0.5897 7.813604657465282 7.463002357455683 11.582867587121935 0 0 0
705 235 1 0.5897 7.938881235776246 6.352126026717547 15.217281214241348 0 0 0
793 265 2 -1.1794 9.108466226034754 9.391370831462241 13.820289125685047 0 0 0
824 275 1 0.5897 7.795021620086462 9.319560571824601 15.075219104039824 0 0 0
385 129 2 -1.1794 9.229148336756724 5.579760882513768 14.16833862933345 0 0 0
462 154 1 0.5897 4.982398920341114 7.648068963336116 11.310031559874112 0 0 0
823 275 2 -1.1794 7.194846714135549 9.11403758435125 15.791972945993109 0 0 0
703 235 2 -1.1794 7.307595492862509 6.422742551686252 15.933292998812934 0 0 0
816 272 1 0.5897 9.09526012830958 8.757951262846179 19.288860256316205 0 0 0
785 262 1 0.5897 6.230897576902659 6.545689441179484 18.855126628459733 0 0 0
784 262 2 -1.1794 6.3084970808066325 7.455663314444324 18.568244680469814 0 0 0
786 262 1 0.5897 7.237555200790487 7.56507183136634 18.365830309667757 0 0 0
814 272 2 -1.1794 9.012387175484847 8.021110059793596 18.68345176776532 0 0 0
815 272 1 0.5897 9.059525643698127 7.245055487496362 19.241909530690943 0 0 0
825 275 1 0.5897 7.250268740351706 8.163010298012564 15.88623601939586 0 0 0
709 237 2 -1.1794 9.36615461755082 5.7904282114531425 20.24268791740372 0 0 0
704 235 1 0.5897 6.470442259329276 6.176181242712707 15.540210851011365 0 0 0
144 48 1 0.5897 5.609399887257028 8.563973184068715 19.981370554465336 0 0 -1
696 232 1 0.5897 7.857984390515599 5.1393825179552755 17.14222933471629 0 0 0
164 55 1 0.5897 7.633959074205365 11.987393753828377 2.9907662320447286 0 0 0
818 273 1 0.5897 8.779760000210976 12.287062551364333 1.0137060992034412 0 0 1
156 52 1 0.5897 9.233900200575537 10.613202494861648 4.137197064443227 0 0 0
165 55 1 0.5897 6.770223640148081 12.517815349573171 1.8662987726015776 0 0 0
154 52 2 -1.1794 8.295904552200758 10.737590217129673 3.9930273202700497 0 0 0
163 55 2 -1.1794 7.47638514428399 12.769302513114496 2.461485049140741 0 0 0
276 92 1 0.5897 7.786055160160108 13.877629424169521 4.654194555079061 0 0 0
285 95 1 0.5897 7.408305118036276 14.743724788678632 2.32364555566961 0 0 0
275 92 1 0.5897 9.275255518448613 13.99090709195083 4.407267846392581 0 0 0
817 273 2 -1.1794 9.212273799824343 11.994201505158237 0.2115955757316503 0 0 1
245 82 1 0.5897 5.004010066788723 13.870466661316375 4.432544509449331 0 0 0
146 49 1 0.5897 9.282696992361705 10.275671894338966 0.522731073273918 0 0 0
125 42 1 0.5897 4.980546459480732 10.68995027890742 4.422465430116199 0 0 0
244 82 2 -1.1794 5.711592517909754 13.929912453947237 5.074368797699653 0 0 0