LAMMPS data file via write_data, version 30 Jul 2021, timestep = 20750000

972 atoms
2 atom types
648 bonds
1 bond types
324 angles
1 angle types

-0.045808186321815825 20.045809186301792 xlo xhi
-0.023824936800822982 20.023825936799494 ylo yhi
-0.030182818617491947 20.7301808186128 zlo zhi

Masses

1 1.008
2 15.999

Pair Coeffs # lj/cut/tip4p/long/omp

1 0 0
2 0.21084 3.1668

Bond Coeffs # harmonic/omp

1 450 0.9572

Angle Coeffs # harmonic/omp

1 55 104.52

Atoms # full

10 4 2 -1.1794 1.2900114005963017 4.237582231212732 3.7676860846649283 0 0 0
11 4 1 0.5897 1.0800210004319029 3.450330429790879 3.265431467983892 0 0 0
12 4 1 0.5897 2.2208350319839636 4.386941699331416 3.6017552328791766 0 0 0
33 11 1 0.5897 1.4376072531002864 2.468315720908405 1.307350532325029 0 0 0
31 11 2 -1.1794 0.8688593528559525 2.2878151942043745 2.055796430441876 0 0 0
18 6 1 0.5897 4.213650191486175 3.2996863185472725 3.2416246528854824 0 0 0
4 2 2 -1.1794 4.229195536927691 1.4206028091606875 3.502344542039648 0 0 0
16 6 2 -1.1794 4.071006498208017 4.24016294116219 3.347632629382791 0 0 0
23 8 1 0.5897 2.730689512581455 0.9529992731923189 4.447208808541633 0 0 0
17 6 1 0.5897 4.166221566270734 4.598275449322512 2.4650940640077637 0 0 0
5 2 1 0.5897 4.235924270128992 0.901192626396028 2.6983982979195917 0 0 0
3 1 1 0.5897 3.319614867651355 2.5623733276698935 0.006546610827946782 0 0 0
9 3 1 0.5897 4.811050424307863 4.490080346717337 5.004987725972668 0 0 0
37 13 2 -1.1794 9.099904311551295 2.3394868618315794 0.02013524507311843 0 0 0
81 27 1 0.5897 0.005201137631388519 4.636508094334363 5.128177920792999 1 0 0
273 91 1 0.5897 7.460918548538452 0.5340739148620396 1.889647759438473 0 1 0
47 16 1 0.5897 7.545302738470453 3.5732677965572504 3.556131008745743 0 0 0
68 23 1 0.5897 8.167886258727481 2.2794861098672476 1.5233038204137168 0 0 0
69 23 1 0.5897 6.681954715706624 2.4120322172859896 1.7810100893664764 0 0 0
46 16 2 -1.1794 7.696521233798435 4.438692046719781 3.9359657038939178 0 0 0
67 23 2 -1.1794 7.515513259115891 2.2510616510246133 2.2231813291280553 0 0 0
48 16 1 0.5897 6.941520447869466 4.585980985036919 4.505643601060514 0 0 0
6 2 1 0.5897 4.880923945619404 1.0015094126533592 4.06432762552795 0 0 0
236 79 1 0.5897 0.5650948430550554 0.2828106640313129 1.8863079584819107 0 1 0
53 18 1 0.5897 9.764637492245232 4.491311137639143 3.573144731392001 0 0 0
34 12 2 -1.1794 5.1279752470242626 2.583375506028717 0.48827328421891847 0 0 0
22 8 2 -1.1794 1.9092587781077903 0.8287091469156209 4.922665796429905 0 0 0
102 34 1 0.5897 0.1284578689301064 0.7827934087929536 4.995959742738884 1 0 0
32 11 1 0.5897 -0.01024326146566449 2.508414771613253 1.7479426811690362 0 0 0
41 14 1 0.5897 9.972898232995737 1.5083308222423146 3.5720849148969775 0 0 0
58 20 2 -1.1794 8.78053013789712 0.8200563386346295 5.068798163686323 0 0 0
325 109 2 -1.1794 2.603048325009561 2.452659994449336 6.986948938197208 0 0 0
326 109 1 0.5897 2.417332216161215 1.9971438292185923 6.165860497513349 0 0 0
327 109 1 0.5897 3.545512534159788 2.343633482213618 7.114055872159116 0 0 0
355 119 2 -1.1794 0.8469803596384118 1.8463987642603832 9.048602756952304 0 0 0
356 119 1 0.5897 1.5665062955068856 1.990800479123671 8.434055194044737 0 0 0
27 9 1 0.5897 2.577791802389251 4.228796660464618 6.611275556837535 0 0 0
329 110 1 0.5897 4.176068477035271 0.8200267840736668 9.820149752679539 0 0 0
60 20 1 0.5897 8.898926381891066 0.007688516070508994 5.560889412075507 0 0 0
24 8 1 0.5897 2.0553554660360085 0.04576590004451919 5.45348445247897 0 0 0
59 20 1 0.5897 9.033034091356756 1.5106758776494424 5.681521046602723 0 0 0
362 121 1 0.5897 9.285424460377037 3.6307355562773207 6.709857047282996 0 0 0
358 120 2 -1.1794 5.419946403264459 2.409200713238214 7.330083901045319 0 0 0
393 131 1 0.5897 7.663959690004811 1.1497149279788372 8.959789927760006 0 0 0
561 187 1 0.5897 0.6505794845562021 0.0589173603177751 8.534232427355118 0 1 0
359 120 1 0.5897 6.080328092013053 2.461250461361292 8.02103530577497 0 0 0
8 3 1 0.5897 5.399593142337623 3.9214322299776745 6.278587341396029 0 0 0
360 120 1 0.5897 5.711784829811303 1.6875818682408321 6.773094961391739 0 0 0
392 131 1 0.5897 8.370415871817286 2.3330616044744397 8.33349384821818 0 0 0
361 121 2 -1.1794 9.440275683023794 2.697205977534865 6.853472044320745 0 0 0
391 131 2 -1.1794 7.720507835056595 2.104388622054216 8.997986898245028 0 0 0
7 3 2 -1.1794 5.532048775587352 4.606769523576802 5.623675769585262 0 0 0
342 114 1 0.5897 4.313217361961242 4.793405404114569 9.953835283361222 0 0 0
335 112 1 0.5897 1.029902780535727 3.419782704511937 10.087195903352288 0 0 0
357 119 1 0.5897 0.06245780049717649 2.103994224874649 8.564448821661022 0 0 0
371 124 1 0.5897 7.853728749190499 3.367976885199878 10.230394724937774 0 0 0
29 10 1 0.5897 7.024372830446371 0.5416094810094386 5.218705124331402 0 0 0
28 10 2 -1.1794 6.082411643129926 0.4295776673798668 5.346875549436199 0 0 0
649 217 2 -1.1794 2.3850460624576906 2.5746617793579945 14.039930571815994 0 0 0
650 217 1 0.5897 2.1199119301469764 2.0786288451443546 13.265459800472 0 0 0
651 217 1 0.5897 1.7024097625323495 2.393804999924864 14.686087931541987 0 0 0
348 116 1 0.5897 2.0342113138016003 1.105631141705534 11.256067139092506 0 0 0
330 110 1 0.5897 4.278697223855469 1.239946202897722 11.270974966189925 0 0 0
346 116 2 -1.1794 1.5684538308188563 0.8406658917441471 12.049209708590052 0 0 0
350 117 1 0.5897 2.51232545561799 4.364567156857579 13.593720390456568 0 0 0
682 228 2 -1.1794 5.178626400044165 2.6180914615483255 14.440323010694984 0 0 0
347 116 1 0.5897 0.6441364402618833 0.9787053154848377 11.84221747891331 0 0 0
683 228 1 0.5897 4.222709927892516 2.5944222408972024 14.396170588427246 0 0 0
370 124 2 -1.1794 8.043552113869277 4.109205029852303 10.805396817060075 0 0 0
336 112 1 0.5897 2.127509721449214 4.170737374989352 10.810507268907129 0 0 0
340 114 2 -1.1794 4.028808875854981 4.239509999000219 10.680785886851073 0 0 0
386 129 1 0.5897 8.78672697646361 4.604412568056729 14.03981296753194 0 0 0
332 111 1 0.5897 5.230504325734805 4.342789238429926 11.935427390300815 0 0 0
684 228 1 0.5897 5.427707393794407 3.340226060398584 13.86359775282798 0 0 0
383 128 1 0.5897 8.551458296416268 1.3692536286897454 12.476815313325025 0 0 0
382 128 2 -1.1794 8.352126253688274 0.6373344389106794 11.893136476056732 0 0 0
354 118 1 0.5897 5.386235640889365 1.245584600861322 13.297534456600342 0 0 0
372 124 1 0.5897 7.2759415401940055 4.174981311995452 11.373457275264206 0 0 0
352 118 2 -1.1794 5.51723821767006 0.6427494801382245 12.565702267584715 0 0 0
686 229 1 0.5897 8.612571399566963 2.368392906746113 14.722274128547447 0 0 0
384 128 1 0.5897 9.123528735293688 0.5612976584845624 11.331534957617858 0 0 0
685 229 2 -1.1794 9.10059083593619 2.7952843693157803 14.018201934324972 0 0 0
353 118 1 0.5897 6.4279476962686495 0.777656830040323 12.303673674051185 0 0 0
331 111 2 -1.1794 5.9326363887973415 4.477120005392002 12.5719871236433 0 0 0
334 112 2 -1.1794 1.1818723574666135 4.169788162222757 10.662096737172316 0 0 0
405 135 1 0.5897 0.04048074665272078 4.5639590181594825 11.927679314437723 1 0 0
377 126 1 0.5897 9.844697119971238 4.144899421794377 10.629300150421555 0 0 0
687 229 1 0.5897 9.997900625234603 2.47847128115819 14.121747120546843 0 0 0
341 114 1 0.5897 4.251990225275475 3.350166998939913 10.40635517189878 0 0 0
328 110 2 -1.1794 3.833129612767377 1.452904129273403 10.451025797179147 0 0 0
653 218 1 0.5897 3.265788309955993 1.3862642067160482 17.40933096891409 0 0 0
652 218 2 -1.1794 4.1993047302848145 1.3679912365207123 17.19840290392321 0 0 0
664 222 2 -1.1794 3.7552741689781004 4.063389438226346 17.292378565187164 0 0 0
671 224 1 0.5897 1.9761155168250424 1.2606603758897688 19.21693290337067 0 0 0
666 222 1 0.5897 3.9741673160017275 3.1515032277548722 17.10097471684461 0 0 0
670 224 2 -1.1794 1.7682231663409207 0.6777679361334967 18.48674317032561 0 0 0
665 222 1 0.5897 2.8105369398082174 4.056218864033833 17.446326662120775 0 0 0
681 227 1 0.5897 0.6481080035350719 2.531294836515396 16.634038150875057 0 0 0
672 224 1 0.5897 0.8120704894547736 0.6812721580964816 18.441555765889234 0 0 0
658 220 2 -1.1794 0.9407544758179097 4.028059170679003 17.55837814832578 0 0 0
659 220 1 0.5897 0.42219851000394926 4.2294813408819785 18.33731883214316 0 0 0
654 218 1 0.5897 4.254823669217893 0.8422498847951632 16.400519538842275 0 0 0
655 219 2 -1.1794 5.521671253306529 4.681760671132109 19.421057054365434 0 0 0
36 12 1 0.5897 5.255749522898455 3.321055748004698 20.652292775562728 0 0 -1
716 239 1 0.5897 7.385664581770502 1.418504329641217 16.28983585158563 0 0 0
657 219 1 0.5897 6.351368452589613 4.393982770864912 19.040266710347268 0 0 0
702 234 1 0.5897 9.594339708237525 3.987816238394312 17.70698119453 0 0 0
717 239 1 0.5897 6.594993507557473 2.501091375224947 15.58658944135047 0 0 0
38 13 1 0.5897 8.923236414903027 1.8305388244780385 19.989344819210757 0 0 -1
677 226 1 0.5897 5.087336750650449 0.9956296031960032 18.67094638440843 0 0 0
689 230 1 0.5897 9.810173993663442 1.0022765939530853 17.41053416442454 0 0 0
676 226 2 -1.1794 5.600958934272673 0.7180567230420418 19.429471730177966 0 0 0
706 236 2 -1.1794 8.364260380747456 0.7609097313667043 18.608535514866567 0 0 0
694 232 2 -1.1794 7.868678992690542 4.271850797832304 17.90597000707583 0 0 0
695 232 1 0.5897 7.605794693676213 3.51718095004811 17.379211181617265 0 0 0
708 236 1 0.5897 7.428180340789266 0.7389776142995672 18.80741445601454 0 0 0
715 239 2 -1.1794 7.399262320384879 2.3531474120958653 16.08408842992499 0 0 0
656 219 1 0.5897 4.865368270416864 4.4635851072852235 18.75931750186964 0 0 0
660 220 1 0.5897 0.7230562592589086 4.724150518159272 16.938539174605005 0 0 0
35 12 1 0.5897 5.200439590268996 1.8087937364015114 20.691058735862264 0 0 -1
679 227 2 -1.1794 0.5840421190432274 1.9551328610310934 15.872401576062295 0 0 0
2 1 1 0.5897 2.2370402944929726 3.50887933007095 20.293660845016433 0 0 -1
710 237 1 0.5897 8.854130805716471 4.291950374350377 20.337380092759 0 0 0
707 236 1 0.5897 8.746755439811261 0.09536744878970893 19.180290743694556 0 0 0
884 295 1 0.5897 0.6308626564223009 0.1411465926122446 15.895016153212536 0 1 0
1 1 2 -1.1794 2.391059780374371 2.5960693221656355 20.536846314461012 0 0 -1
57 19 1 0.5897 7.288900316722098 5.51357166869908 2.5703287938845234 0 0 0
177 59 1 0.5897 8.186713582273587 9.016466019412883 1.4123852876137892 0 0 0
140 47 1 0.5897 0.6345111231838948 9.347738098732089 2.6260628707969036 0 0 0
15 5 1 0.5897 4.217099395519621 6.761051196323943 1.9619336156150382 0 0 0
20 7 1 0.5897 0.8694276953907075 5.586093748539368 2.61945804060383 0 0 0
112 38 2 -1.1794 3.932717159330165 7.943923432155853 3.2765352730696287 0 0 0
142 48 2 -1.1794 5.393531833489373 9.279492676092653 0.41756897332189646 0 0 0
139 47 2 -1.1794 0.5585357752403702 8.848000935834463 1.813254139646875 0 0 0
110 37 1 0.5897 1.8549317533877003 9.03234712723149 0.6892128655637895 0 0 0
14 5 1 0.5897 3.877496903571662 5.922726758739519 0.7480166482869124 0 0 0
13 5 2 -1.1794 4.5948221408488 6.133571736678185 1.345702567122776 0 0 0
19 7 2 -1.1794 0.6539740591053036 6.206242145449425 1.9229324212544183 0 0 0
114 38 1 0.5897 3.2265423870545007 7.72919986698616 3.885986281846167 0 0 0
141 47 1 0.5897 0.6499683521240638 7.934483951831877 2.083825237846345 0 0 0
143 48 1 0.5897 6.077240295746588 9.055458564068392 1.0489004784151001 0 0 0
175 59 2 -1.1794 7.542953535990352 8.777515631039693 2.079230138893643 0 0 0
126 42 1 0.5897 3.8653835781541677 9.709665880881653 3.2102635974509246 0 0 0
55 19 2 -1.1794 7.2814660002402265 6.0811746780329425 1.799667162445527 0 0 0
111 37 1 0.5897 3.3232440649852792 9.146311256554505 0.3383723118745593 0 0 0
711 237 1 0.5897 8.30844992862765 5.399277210336669 0.4532251893955905 0 0 1
113 38 1 0.5897 4.730664697766117 7.878971175969237 3.8012421603506708 0 0 0
674 225 1 0.5897 1.7381505927398018 5.650507423328528 0.48393433907653494 0 0 1
176 59 1 0.5897 7.545922095112558 7.820414009287885 2.0835658551973184 0 0 0
56 19 1 0.5897 6.354303251935965 6.179657144098812 1.583060138059821 0 0 0
130 44 2 -1.1794 2.0946214978326356 7.403852611944782 5.006295269233943 0 0 0
145 49 2 -1.1794 9.470560667189064 9.476726392545695 0.2451861894434929 0 0 0
166 56 2 -1.1794 8.685371642872989 7.5716035407673905 4.877232529636727 0 0 0
132 44 1 0.5897 1.1648483125714908 7.625304456539486 5.058756068556843 0 0 0
138 46 1 0.5897 6.847467449541644 7.3347494212518916 4.895119538632707 0 0 0
337 113 2 -1.1794 4.667991540011545 5.863795307005204 8.527480451419487 0 0 0
131 44 1 0.5897 2.1867454364192898 6.623832881616927 5.553270230327255 0 0 0
345 115 1 0.5897 0.7193718399796099 6.785938306454723 8.951860140109279 0 0 0
437 146 1 0.5897 4.20062956617054 7.443846637554034 9.602377968843076 0 0 0
463 155 2 -1.1794 0.7790400121974577 8.643140434577784 8.973876791140654 0 0 0
433 145 2 -1.1794 2.647663795473826 9.190187344405976 7.137371256865484 0 0 0
344 115 1 0.5897 0.8653885710223518 5.345431757610885 9.393604604416643 0 0 0
464 155 1 0.5897 1.4530428802774007 8.85650822125096 8.328566970414277 0 0 0
167 56 1 0.5897 8.95371498380596 6.809292245090452 5.390063843251917 0 0 0
468 156 1 0.5897 4.428811232955542 8.94562677479315 7.451301958754019 0 0 0
339 113 1 0.5897 4.113583864024837 5.588150086735337 7.797533091057656 0 0 0
136 46 2 -1.1794 5.943955873172113 7.256151964663495 5.201324592752101 0 0 0
435 145 1 0.5897 2.450123105192906 8.664954772894196 6.361954079190992 0 0 0
343 115 2 -1.1794 0.6250596015561445 5.885655877436559 8.640912144967764 0 0 0
168 56 1 0.5897 8.78840811407532 8.3115732660369 5.475519438531804 0 0 0
62 21 1 0.5897 8.546250492599919 5.530352081275308 7.187899397278251 0 0 0
338 113 1 0.5897 5.553181028249281 5.610725294226804 8.265484156124199 0 0 0
469 157 2 -1.1794 9.139017702494694 9.494082356030447 6.903070891965986 0 0 0
501 167 1 0.5897 6.851370468402013 8.352404801556226 8.439371780132683 0 0 0
466 156 2 -1.1794 5.365836521134154 8.81001720622643 7.310370557910317 0 0 0
26 9 1 0.5897 1.8405714442405428 5.421255435820374 7.182433061819429 0 0 0
500 167 1 0.5897 7.677934001213868 8.888979857926582 9.58860212969179 0 0 0
61 21 2 -1.1794 9.282945650166466 5.512541146749215 6.576988170761549 0 0 0
499 167 2 -1.1794 7.7009474651050285 8.257177725927074 8.869964905141229 0 0 0
381 127 1 0.5897 7.63474064912899 5.121036586020725 9.37403131731956 0 0 0
467 156 1 0.5897 5.415771168724694 8.303512100861598 6.49974688211388 0 0 0
380 127 1 0.5897 7.588699802258689 6.539043835446831 8.846134266836337 0 0 0
379 127 2 -1.1794 7.453601403677531 5.628746323990944 8.58308891142784 0 0 0
470 157 1 0.5897 8.600343983952149 9.102860384380033 7.590805282154964 0 0 0
25 9 2 -1.1794 2.5573690618295526 5.185522691756797 6.593496816592052 0 0 0
137 46 1 0.5897 5.824777061440661 6.319751329251852 5.359507070965569 0 0 0
438 146 1 0.5897 4.096679830838976 8.898199684898325 10.009280255872776 0 0 0
668 223 1 0.5897 1.006833732677111 5.6415423049483815 14.778043982778646 0 0 0
333 111 1 0.5897 5.941230511877339 5.422052033314006 12.723945184947642 0 0 0
792 264 1 0.5897 4.510663243823425 9.175986981902374 14.460525652060282 0 0 0
490 164 2 -1.1794 8.784338374159542 7.615517211613147 12.240739299413738 0 0 0
456 152 1 0.5897 2.4868232210067456 6.744568263796883 12.427854831856738 0 0 0
759 253 1 0.5897 2.565289429371298 8.58046921829527 13.488755698516657 0 0 0
351 117 1 0.5897 3.5032732096403256 5.348037067465843 14.179003738475416 0 0 0
454 152 2 -1.1794 2.2039917017888144 7.5967243429317115 12.09629247287795 0 0 0
757 253 2 -1.1794 2.6902206036848315 9.158199001863128 14.241596607157636 0 0 0
455 152 1 0.5897 2.8264110450998405 7.8013113623332275 11.39846754458066 0 0 0
349 117 2 -1.1794 2.6947147750268043 5.3011436992408925 13.668828630625876 0 0 0
790 264 2 -1.1794 5.359360445011117 9.140769645836674 14.01923887455829 0 0 0
462 154 1 0.5897 5.240900282768397 7.443846279861183 11.544677440204985 0 0 0
387 129 1 0.5897 8.872247950347163 5.94946941330176 13.350604173101102 0 0 0
461 154 1 0.5897 5.820608315298755 7.843757365811966 12.884742799603737 0 0 0
794 265 1 0.5897 9.312628625981016 8.742249787720658 13.629110485626738 0 0 0
789 263 1 0.5897 1.1379439533584974 8.782807062683478 15.20352667289901 0 0 0
385 129 2 -1.1794 8.838645747920133 5.543582151218231 14.216799311468543 0 0 0
492 164 1 0.5897 7.9053257138352455 7.499928074778916 11.879901135117915 0 0 0
791 264 1 0.5897 5.998928980276183 9.1126382487562 14.730853332006976 0 0 0
793 265 2 -1.1794 9.530264244116815 9.209491588316277 14.435643877566411 0 0 0
460 154 2 -1.1794 5.876645389570316 7.171030541837845 12.206205562298631 0 0 0
491 164 1 0.5897 9.352666570646713 7.677507047433084 11.473047948114155 0 0 0
533 178 1 0.5897 0.30541419193406066 7.814132219741623 12.256105546213663 1 0 0
436 146 2 -1.1794 4.071388795757295 8.009451190730111 10.363653657421633 0 0 0
661 221 2 -1.1794 4.639696431600705 5.865611917357938 15.286917240406128 0 0 0
667 223 2 -1.1794 0.2943541383018954 5.744110393791808 15.408954275693313 0 0 0
663 221 1 0.5897 4.2776971169589 6.723053443164172 15.510218718701305 0 0 0
824 275 1 0.5897 8.135328611267298 8.90741535153676 15.50042595632279 0 0 0
705 235 1 0.5897 7.6812619294420506 5.949442160110215 15.50498183505038 0 0 0
815 272 1 0.5897 8.841482171962323 6.785518259268123 19.563556737058903 0 0 0
662 221 1 0.5897 4.401695708532983 5.305021205105026 16.025317756850107 0 0 0
787 263 2 -1.1794 0.4929923288739657 8.52463286730034 15.862010407821934 0 0 0
761 254 1 0.5897 4.312308517777458 9.077845066101167 17.022793948216048 0 0 0
675 225 1 0.5897 2.4026570666169578 5.8608510047094 19.90040477539724 0 0 0
858 286 1 0.5897 0.4144796945290123 7.395630362479839 18.742281009775134 1 0 0
788 263 1 0.5897 0.6207695009457568 9.145293937948672 16.579358286476882 0 0 0
779 260 1 0.5897 2.310319256044433 7.987149388680095 19.44274700340081 0 0 0
778 260 2 -1.1794 2.191334147599586 7.263330929408669 18.827903399227793 0 0 0
780 260 1 0.5897 2.7737666485594317 7.470879900540052 18.097214143304164 0 0 0
760 254 2 -1.1794 4.25749618456642 8.12274418389349 17.05175694876425 0 0 0
144 48 1 0.5897 5.470470138056581 8.61379539701755 20.49451608541876 0 0 -1
703 235 2 -1.1794 7.1241948085278395 6.236912778780393 16.22834379970626 0 0 0
762 254 1 0.5897 4.856040757852993 7.8692234169842745 17.754390735188032 0 0 0
816 272 1 0.5897 9.012589033197466 8.263318950800889 19.843448835268852 0 0 0
785 262 1 0.5897 5.690341994245028 6.5260692892629555 19.37365362554275 0 0 0
814 272 2 -1.1794 8.705695695422337 7.649973568928016 19.17577857498007 0 0 0
784 262 2 -1.1794 5.820940419436816 7.450145095336985 19.161275751557724 0 0 0
825 275 1 0.5897 7.094708256887116 7.998811167105483 16.11956815153539 0 0 0
823 275 2 -1.1794 7.276108366535004 8.917630780834381 15.922206581581262 0 0 0
786 262 1 0.5897 6.769329293905758 7.544125725819061 19.0718038869201 0 0 0
696 232 1 0.5897 7.631882419911511 5.030700367974995 17.372872493713665 0 0 0
704 235 1 0.5897 6.232646057908468 6.052650112303611 15.932609204036492 0 0 0
669 223 1 0.5897 0.3449287952671166 6.660306275012051 15.681191431568934 0 0 0
797 266 1 0.5897 9.981198759773857 7.55289103295733 17.806964819251426 0 0 0
673 225 2 -1.1794 2.4625100448854154 5.339865263953658 20.701123143751765 0 0 0
709 237 2 -1.1794 8.959636795016221 5.22256055045094 20.534645234767318 0 0 0
109 37 2 -1.1794 2.4501323436593747 9.132304190189124 20.706622559400387 0 0 -1
120 40 1 0.5897 0.9381391701884845 11.316440869627483 3.114315578422602 0 0 0
129 43 1 0.5897 0.8891529312035289 13.454715561293034 1.9206415536737846 0 0 0
118 40 2 -1.1794 1.2099891203876683 10.610971708424332 3.701298636769802 0 0 0
119 40 1 0.5897 2.156400396351901 10.723780517314099 3.78995912677966 0 0 0
240 80 1 0.5897 2.551491391584917 14.330652586110945 4.226624483712967 0 0 0
127 43 2 -1.1794 0.6386476376494409 12.536548845513584 1.8191411890460205 0 0 0
222 74 1 0.5897 4.309166423856015 14.077556850709632 2.3901946451438714 0 0 0
124 42 2 -1.1794 3.8970141401651857 10.655726055597848 3.3518046094959684 0 0 0
122 41 1 0.5897 4.33663414927969 11.883094147954877 2.0804154149918013 0 0 0
125 42 1 0.5897 4.482341833862301 10.76686973614629 4.100982939818925 0 0 0
123 41 1 0.5897 3.99790006031067 12.231068675963519 0.6465440165902482 0 0 0
220 74 2 -1.1794 4.11657392658557 14.570182604894654 3.1879434848099106 0 0 0
121 41 2 -1.1794 4.609916514902219 12.44070463981832 1.3520356357242835 0 0 0
783 261 1 0.5897 1.7712992675401327 12.086805611920726 0.296194482374845 0 0 1
165 55 1 0.5897 7.367668674331361 12.412771237554898 2.6934712283217634 0 0 0
246 82 1 0.5897 5.37378990595179 14.000532875600188 4.337119682270964 0 0 0
164 55 1 0.5897 6.291976959598628 12.822004616269515 1.7099458004538537 0 0 0
156 52 1 0.5897 8.668460466490746 11.106665866298199 3.9981320567063596 0 0 0
819 273 1 0.5897 8.406012170294067 12.580455848419975 0.6690450552234098 0 0 1
276 92 1 0.5897 9.151347944751025 13.923216630008064 4.420047414820036 0 0 0
163 55 2 -1.1794 7.137751929118205 13.096480949753516 2.0643268533100283 0 0 0
154 52 2 -1.1794 7.733347568155403 10.958660062117625 3.857070841080805 0 0 0
146 49 1 0.5897 9.314412448520589 10.3998178381787 0.04619253235163166 0 0 0
155 52 1 0.5897 7.696670168339215 10.240318571636564 3.225595015150984 0 0 0
285 95 1 0.5897 7.513422508474101 14.9022692501293 1.9923065983643045 0 0 0
317 106 1 0.5897 0.07623921499834144 13.79096449916682 4.777119375848119 1 0 0
238 80 2 -1.1794 1.8559893671580516 14.122708029947017 4.8505420823669 0 0 0
244 82 2 -1.1794 5.988343727178279 13.87368082974849 5.059933308058893 0 0 0
116 39 1 0.5897 6.3485005388556095 10.800616520734827 5.074338623921758 0 0 0
275 92 1 0.5897 7.739306053294923 13.837547520844065 4.9593026859172324 0 0 0
817 273 2 -1.1794 9.168856267443566 12.335587895666235 0.14525555556724612 0 0 1
133 45 2 -1.1794 2.5356672796255957 11.998339988713202 6.6017425391174545 0 0 0
134 45 1 0.5897 1.903066191520871 12.339693472142677 7.233805589497932 0 0 0
135 45 1 0.5897 3.3855612256003855 12.291101588703796 6.930717426092238 0 0 0
453 151 1 0.5897 0.8423161603289452 12.179487925469468 9.369508786010687 0 0 0
451 151 2 -1.1794 0.7706832627757155 12.74277268469564 8.598965936562925 0 0 0
450 150 1 0.5897 4.211634888848595 11.734373672519679 9.531198582195625 0 0 0
446 149 1 0.5897 4.4657377357010954 13.703198032960382 8.815120174771272 0 0 0
445 149 2 -1.1794 4.608991688990964 12.924914699460782 8.276729410645425 0 0 0
274 92 2 -1.1794 8.654147567454219 13.884291253304685 5.2370535549665025 0 0 0
115 39 2 -1.1794 5.559672049423276 10.989546485015241 5.58256567226871 0 0 0
117 39 1 0.5897 5.586116089827508 10.365322275009582 6.30768248666288 0 0 0
573 191 1 0.5897 1.076623662417338 14.710280820223062 9.105353147935324 0 0 0
489 163 1 0.5897 7.255087452916917 13.612462001695599 9.176186368521579 0 0 0
480 160 1 0.5897 7.7794876110515485 11.372321504937966 10.216522155444974 0 0 0
488 163 1 0.5897 8.07284716710041 12.566283284712211 8.44922454825672 0 0 0
169 57 2 -1.1794 9.259949310235477 12.277739553126377 7.254593714540331 0 0 0
170 57 1 0.5897 8.941598078901905 12.68934005710643 6.451212068610763 0 0 0
447 149 1 0.5897 5.548600435115198 12.755407983791184 8.345133350198347 0 0 0
171 57 1 0.5897 9.188925543958538 11.338058640677408 7.087163473044114 0 0 0
487 163 2 -1.1794 7.273718574243243 12.679377443574372 8.963849560239364 0 0 0
544 182 2 -1.1794 4.303344519359258 15.00219299494019 10.149403576632002 0 0 0
239 80 1 0.5897 2.1164491856991656 13.283117906962365 5.229165165981644 0 0 0
443 148 1 0.5897 1.0091412690055857 10.057985149135208 10.314634211667158 0 0 0
434 145 1 0.5897 2.5176031846024336 10.095018824674101 6.85375637704626 0 0 0
448 150 2 -1.1794 4.089165996256124 10.972557720398456 10.097547533115458 0 0 0
575 192 1 0.5897 5.520418395549691 14.932972581534731 6.403061019562375 0 0 0
188 63 1 0.5897 0.09503490976441642 10.84574096309559 5.26305975082313 1 0 0
245 82 1 0.5897 5.864621882748241 12.961726684843866 5.322843331066859 0 0 0
457 153 2 -1.1794 2.3446936757412873 11.99252709511508 13.438337488660276 0 0 0
458 153 1 0.5897 1.6438513604695644 12.255689538059684 14.0348253315868 0 0 0
459 153 1 0.5897 3.144939978592315 12.074863081319126 13.957073637765717 0 0 0
562 188 2 -1.1794 2.1435119885022367 14.04841897328466 11.692271406985618 0 0 0
563 188 1 0.5897 2.3032325467060994 13.208121911586302 12.121785214816832 0 0 0
442 148 2 -1.1794 1.2576610588086488 10.910333202375217 10.672149795251551 0 0 0
441 147 1 0.5897 5.565384402650024 10.721998300118424 12.949364453754418 0 0 0
545 182 1 0.5897 3.550832946899028 14.491453447404488 10.447864226161734 0 0 0
478 160 2 -1.1794 7.984491389275407 10.546738409273893 10.655267658180692 0 0 0
493 165 2 -1.1794 9.471746867598036 11.814924928939986 13.83478198667442 0 0 0
439 147 2 -1.1794 5.828197907278763 11.24454219215257 12.191703544715033 0 0 0
449 150 1 0.5897 4.643420044449396 11.147342697049481 10.858121207589777 0 0 0
900 300 1 0.5897 5.620873524811768 15.007459394930981 13.553879586967556 0 0 0
546 182 1 0.5897 4.992920521661591 14.806824353283194 10.78387274927699 0 0 0
642 214 1 0.5897 0.40932192525477396 14.213636629117293 11.919478052775355 1 0 0
440 147 1 0.5897 6.551985411687221 10.75451128589103 11.80155110851542 0 0 0
564 188 1 0.5897 2.308454847008854 14.700913556366576 12.372835923046859 0 0 0
600 200 1 0.5897 9.124772435858901 14.606141444821194 12.658048858211558 0 0 0
598 200 2 -1.1794 8.861487582016155 13.910824881936145 12.055262211117014 0 0 0
599 200 1 0.5897 9.133739663786256 13.101925078558788 12.488460444710382 0 0 0
569 190 1 0.5897 5.914766158070867 13.06998851892466 12.14495373018668 0 0 0
568 190 2 -1.1794 6.130434566220752 13.98957137635206 11.990231095673375 0 0 0
570 190 1 0.5897 7.0808398128984695 14.034143586831043 12.095209082979457 0 0 0
479 160 1 0.5897 8.93910192527594 10.543053477907463 10.72589576282316 0 0 0
494 165 1 0.5897 8.741595591976203 11.954881763659012 14.437711510141453 0 0 0
770 257 1 0.5897 5.431591719581491 12.476354123407958 14.956957649898852 0 0 0
444 148 1 0.5897 2.2109026236038325 10.869568272467534 10.749260371759364 0 0 0
769 257 2 -1.1794 4.498704866410079 12.624264953628563 15.112223266513228 0 0 0
758 253 1 0.5897 2.6269216449881463 10.041753045890186 13.879110501919273 0 0 0
795 265 1 0.5897 9.43009274801141 10.134583244334273 14.211483472967158 0 0 0
768 256 1 0.5897 1.159264790190604 11.332206693042911 16.75348584934727 0 0 0
888 296 1 0.5897 2.3987242767786796 13.384751079913134 19.352806730949105 0 0 0
766 256 2 -1.1794 1.3820833341886163 10.647427156023653 17.384019886175444 0 0 0
773 258 1 0.5897 3.3283590943086803 10.842677269541758 17.461937161242396 0 0 0
886 296 2 -1.1794 2.3188096695858005 14.189951402891234 18.84157893229299 0 0 0
774 258 1 0.5897 4.29505941487742 11.346647191360002 16.41156680517509 0 0 0
772 258 2 -1.1794 4.2616515978218885 10.899003993326142 17.25693065692721 0 0 0
924 308 1 0.5897 9.269640504065858 14.310445581921327 17.93901853133847 0 0 0
767 256 1 0.5897 0.7720637544128343 10.781389762057527 18.10938618038594 0 0 0
869 290 1 0.5897 3.5327159619716175 14.49800962760669 17.5071080954815 0 0 0
804 268 1 0.5897 7.737425132993251 10.074534682402822 17.351851790653377 0 0 0
764 255 1 0.5897 5.478140528462761 11.225366566842407 18.6434162146978 0 0 0
887 296 1 0.5897 2.414760331848421 14.892706100141444 19.484278088247414 0 0 0
812 271 1 0.5897 7.54862825342392 13.337316843243329 15.857202168005909 0 0 0
868 290 2 -1.1794 4.303153217745821 14.6689110150529 16.965380874062262 0 0 0
893 298 1 0.5897 7.0591817438237765 14.273387546788616 18.862690473741992 0 0 0
870 290 1 0.5897 5.045929980217664 14.45782129406785 17.53102381099867 0 0 0
777 259 1 0.5897 1.024587841036473 13.521572450815723 15.681327439751593 0 0 0
765 255 1 0.5897 5.7425392121224 10.740711979536854 20.053024982830216 0 0 0
894 298 1 0.5897 5.998296286294007 13.290448951094833 19.31004906056716 0 0 0
802 268 2 -1.1794 8.107175856373626 10.869794013328226 17.73522359711832 0 0 0
763 255 2 -1.1794 6.009248784585947 11.406241734375845 19.418924123839673 0 0 0
892 298 2 -1.1794 6.1137685264286326 14.181974437047664 18.981520037619852 0 0 0
813 271 1 0.5897 7.550973136922151 11.89979757079194 16.331599276179865 0 0 0
803 268 1 0.5897 7.60576612882414 11.004029822867468 18.53945402749028 0 0 0
818 273 1 0.5897 9.076547113728843 12.839445969367992 20.097055228261283 0 0 0
922 308 2 -1.1794 8.821501055133751 14.177828376776576 18.774365246245424 0 0 0
923 308 1 0.5897 9.217190177334531 14.820023926007345 19.363572018320163 0 0 0
781 261 2 -1.1794 2.4230525593172896 11.833767755821151 20.40279489192779 0 0 0
782 261 1 0.5897 2.4251403490972003 10.876888862638168 20.423906088982463 0 0 0
771 257 1 0.5897 4.469341231843054 13.390076546378674 15.685618223906664 0 0 0
810 270 1 0.5897 9.852849380443716 10.789404366333322 17.88230960308259 0 0 0
811 271 2 -1.1794 7.400943227373039 12.440781079573584 15.55636760958708 0 0 0
965 322 1 0.5897 0.4708198164955283 14.021657435086908 18.63063332458541 1 0 0
775 259 2 -1.1794 0.7902277822416863 12.595096694197224 15.628346161184828 0 0 0
264 88 1 0.5897 8.935964726879266 17.36568426218097 3.824765005324595 0 0 0
229 77 2 -1.1794 4.4579904334786855 19.552945818046908 1.6889393018842747 0 0 0
927 309 1 0.5897 8.332623639592098 19.087111956193688 0.28350481793608934 0 0 1
230 77 1 0.5897 4.061836285560309 19.40424463145419 0.8303632957837368 0 0 0
227 76 1 0.5897 0.8335558419454411 18.137088294096273 2.978116074467834 0 0 0
228 76 1 0.5897 0.6989198604325351 17.692868778253406 4.419055555584114 0 0 0
234 78 1 0.5897 3.0806533094231705 17.48086254388302 3.624874665543398 0 0 0
249 83 1 0.5897 1.5597638357145234 15.691095923911014 1.29474901058995 0 0 0
235 79 2 -1.1794 0.5362510123118183 19.414570573018793 1.6099066959554245 0 0 0