LAMMPS data file via write_data, version 30 Jul 2021, timestep = 500000

1296 atoms
2 atom types
864 bonds
1 bond types
432 angles
1 angle types

-10.580801004046421 12.560801004046422 xlo xhi
-9.142900482792658 12.132898482792658 ylo yhi
0.15525670547988035 21.704742294519004 zlo zhi
-9.103874161897984 1.7773961208396123 2.895696321140132 xy xz yz

Masses

1 1.008
2 15.999

Pair Coeffs # lj/cut/tip4p/long/omp

1 0 0
2 0.21084 3.1668

Bond Coeffs # harmonic/omp

1 450 0.9572

Angle Coeffs # harmonic/omp

1 55 104.52

Atoms # full

282 94 1 0.5897 -10.379615257814963 -4.087909537476164 1.8043457889943257 1 1 0
241 81 2 -1.1794 -1.1578253493543098 -6.298481265206321 5.237302906718077 0 1 0
280 94 2 -1.1794 -9.516321672241373 -4.501222757097874 1.8095909132515673 1 1 0
323 108 1 0.5897 -6.236687353440554 -5.365126621269029 3.2281504901896305 1 1 0
261 87 1 0.5897 -6.546135750825048 -4.923492228152592 1.2975653325992196 1 1 0
270 90 1 0.5897 -8.589093161034443 -7.4335414349613425 2.3846386001129702 1 1 0
163 55 2 -1.1794 -7.418270628736263 -7.9977652890380675 0.9991595172757045 1 1 0
164 55 1 0.5897 -6.578137804052025 -8.334645609964014 1.3103717231650522 1 1 0
300 100 1 0.5897 -5.026669356389748 -7.341863361401263 4.029566387359462 1 1 0
269 90 1 0.5897 -9.313378010454272 -6.109987818934226 2.506546294967828 1 1 0
268 90 2 -1.1794 -9.237341696173564 -6.971649820886222 2.916134621318437 1 1 0
322 108 2 -1.1794 -6.378487767522095 -4.425573663155114 3.1136915418886644 1 1 0
299 100 1 0.5897 -6.508759829667518 -7.647114957599495 4.075504125215517 1 1 0
3 1 1 0.5897 -1.1291124428345096 -3.4998811093368447 4.267954063995404 0 0 0
324 108 1 0.5897 -7.120953387018385 -4.223877703843678 3.6830597084226797 1 1 0
73 25 2 -1.1794 -8.486132257590299 -3.6421075618712226 4.893998332679443 1 0 0
281 94 1 0.5897 -8.900493183261602 -3.7703232527985735 1.8613257077866507 1 1 0
314 105 1 0.5897 -8.827088417884633 -6.528303282134354 4.5839355406157765 1 1 0
298 100 2 -1.1794 -5.887113930931073 -6.9252070457226385 3.9831055821309085 1 1 0
242 81 1 0.5897 -1.2990640834610367 -6.579849384360488 4.33340295961244 0 1 0
310 104 2 -1.1794 -3.47747360783265 -8.551319184131783 3.684567178631426 1 1 0
306 102 1 0.5897 -0.9477664683006601 -7.307518473997149 2.075415335577234 1 1 0
260 87 1 0.5897 -7.045224958273701 -6.155793220486897 0.5737736710749213 1 1 0
304 102 2 -1.1794 -1.6033447658348354 -6.869965913970432 2.61836452915801 1 1 0
318 106 1 0.5897 -2.632794117273895 -4.097117507450361 1.5670340194879269 1 1 0
311 104 1 0.5897 -2.874889090707698 -7.955693452143829 3.2393168365856764 1 1 0
243 81 1 0.5897 -0.7032812595507583 -5.4598024833617576 5.159330369831557 0 1 0
316 106 2 -1.1794 -1.778373403935909 -4.491533974911311 1.3923826554289762 1 1 0
317 106 1 0.5897 -1.1619526126622581 -3.7610155510840144 1.442456346264661 1 1 0
305 102 1 0.5897 -1.656293656282763 -5.983075555834999 2.262534959084215 1 1 0
275 92 1 0.5897 -10.571463725909728 -7.907696143886751 3.681122025471345 1 1 0
293 98 1 0.5897 -4.875554210686679 -3.6844538025436417 2.475785301342293 1 1 0
313 105 2 -1.1794 -8.664085079616864 -6.2547333929586815 5.4865600242320856 1 1 0
315 105 1 0.5897 -8.518749956136837 -5.310536550884711 5.428593388127211 1 1 0
259 87 2 -1.1794 -6.831087929175184 -5.232934249655473 0.43778589937031703 1 1 0
633 211 1 0.5897 -5.819784419697495 -5.767760431440589 5.526580535172037 1 1 0
199 67 2 -1.1794 0.45189954945288413 -7.899880506762985 0.9295297171963963 1 1 0
201 67 1 0.5897 0.36433200257891585 -8.575546917546973 0.2573079997717418 1 1 0
1226 409 1 0.5897 -9.551353651800243 -5.585181504077724 0.3764819666727609 0 0 1
165 55 1 0.5897 -7.6525245877086245 -8.572749778071849 0.2707132781092891 1 1 0
1143 381 1 0.5897 -10.270921265997249 -7.870507309505208 0.1979762066258549 0 0 1
429 143 1 0.5897 -6.4180518428773645 -7.326818680928276 8.610426467242025 1 0 0
428 143 1 0.5897 -6.670056671797629 -7.209632642732727 10.098505731627075 1 0 0
427 143 2 -1.1794 -5.993268634800404 -7.084717510405637 9.433315052886908 1 0 0
618 206 1 0.5897 -8.011256946297387 -7.273361076693547 7.046193706889242 1 1 0
544 182 2 -1.1794 0.23937560439368077 -7.955249401537022 7.091434923200146 0 1 0
420 140 1 0.5897 -9.062534716440236 -6.33024589288013 9.991329805566393 1 0 0
414 138 1 0.5897 -6.988128339495277 -4.6816919499657175 7.470350718792404 1 0 0
413 138 1 0.5897 -7.703858996181724 -3.3843691341091446 7.780037863058738 1 0 0
412 138 2 -1.1794 -7.535640859995171 -4.258510307161841 8.131561059562507 1 0 0
350 117 1 0.5897 -7.132013493141885 -3.7844411260886233 9.871297019585723 0 0 0
356 119 1 0.5897 1.1264261423403017 -7.1275522121365995 9.903834978513453 0 0 0
419 140 1 0.5897 -8.896419561703024 -5.257932860096669 8.935852626759312 1 0 0
418 140 2 -1.1794 -9.540281094159997 -5.860726526795103 9.307629634599921 1 0 0
351 117 1 0.5897 -6.858900139144373 -2.7184910888851466 10.91086153051122 0 0 0
616 206 2 -1.1794 -7.475888032928356 -7.993934319082378 7.378138201714121 1 1 0
631 211 2 -1.1794 -5.6845061440312925 -5.273371884217799 6.3349150361225846 1 1 0
359 120 1 0.5897 -4.671125976478059 -3.013805170348361 8.683317928954754 0 0 0
627 209 1 0.5897 -10.1948506828585 -6.595188224393899 6.356711446034165 1 1 0
546 182 1 0.5897 -0.15323356724208814 -7.4552087690795315 6.375944107015901 0 1 0
334 112 2 -1.1794 -4.5418033936483715 -4.670995336896863 9.524326730610564 0 0 0
335 112 1 0.5897 -5.0032672959265945 -5.505023982548672 9.611036103864786 0 0 0
348 116 1 0.5897 -1.504353833410491 -6.3162700534588385 9.991728766739962 0 0 0
347 116 1 0.5897 -1.2674880989469344 -5.315922762707056 8.88055147487544 0 0 0
346 116 2 -1.1794 -1.9637911253092017 -5.732187599785721 9.3885295179206 0 0 0
336 112 1 0.5897 -3.6152415865980947 -4.9101984122257 9.504184673784547 0 0 0
632 211 1 0.5897 -4.829514472085484 -5.562946004105141 6.653221001666388 1 1 0
555 185 1 0.5897 -2.545252459452694 -6.446234054179849 6.4631810038430295 0 1 0
554 185 1 0.5897 -2.900361578764108 -6.354851145514671 7.931918115154446 0 1 0
553 185 2 -1.1794 -3.2852603387654327 -6.500909903182599 7.067787590516926 0 1 0
349 117 2 -1.1794 -7.007565015417455 -3.6587691708486343 10.811977842145954 0 0 0
404 135 1 0.5897 -5.386932833166837 -3.468301408751227 5.795362963578469 1 0 0
626 209 1 0.5897 -10.420811540266802 -6.446344208876672 7.84615268515955 1 1 0
669 223 1 0.5897 -4.312031623829751 -3.477078986775285 10.873563767858526 0 0 0
677 226 1 0.5897 -2.7215646679624363 -5.985438333146524 12.3574793372554 0 0 0
652 218 2 -1.1794 -5.712168128522299 -5.441224337220843 12.66288271296895 0 0 0
780 260 1 0.5897 -7.542707609981516 -3.839556986416712 15.320086434244981 0 0 0
779 260 1 0.5897 -7.221006569485251 -2.822471203434552 14.246043406006354 0 0 0
778 260 2 -1.1794 -7.943443095220976 -3.3297336734952268 14.616088690530292 0 0 0
768 256 1 0.5897 -9.566038696221623 -2.4528735371674504 14.866528675207373 0 0 0
654 218 1 0.5897 -6.208726454808127 -4.90334294584968 12.046259082726397 0 0 0
653 218 1 0.5897 -6.378163214569286 -5.9370483355749695 13.139066234856344 0 0 0
661 221 2 -1.1794 -9.372553140735375 -4.196270063214476 12.390842836078386 0 0 0
727 243 2 -1.1794 -8.144874611954974 -7.219113456759476 11.142010646282422 1 0 0
682 228 2 -1.1794 -7.717758977426701 -6.814939039262061 13.883443972683336 0 0 0
788 263 1 0.5897 -4.891920591402085 -4.634723232781201 15.43162924181265 0 0 0
684 228 1 0.5897 -8.351728051905809 -6.452936661295146 14.502404586559217 0 0 0
729 243 1 0.5897 -7.917188538760428 -6.892358060464742 12.01238551586187 1 0 0
662 221 1 0.5897 -8.831725335481503 -4.020211265247612 13.160734372796213 0 0 0
766 256 2 -1.1794 -10.458425491784649 -2.1087349415466896 14.903176165216133 0 0 0
663 221 1 0.5897 -8.803359714981944 -3.997908520137412 11.64733501248171 0 0 0
740 247 1 0.5897 -10.97835689614464 -3.390155922277005 12.075432998387557 1 0 0
697 233 2 -1.1794 -1.7243845324766074 -4.478372024753097 12.319563711733373 0 0 0
789 263 1 0.5897 -4.746239220372681 -4.741351265748484 13.92860803199411 0 0 0
774 258 1 0.5897 -5.122324415885492 -2.3565173520918776 13.017476955129968 0 0 0
699 233 1 0.5897 -1.0783873594701365 -4.404185212065196 11.61719381295068 0 0 0
657 219 1 0.5897 -0.4294642434877183 -7.119086466816434 11.881508323421551 0 0 0
678 226 1 0.5897 -4.196459680745198 -6.326076922935004 12.334220340732468 0 0 0
816 272 1 0.5897 0.20844347507186 -4.004515241613726 15.093044765430239 0 0 0
814 272 2 -1.1794 -0.31635866286552883 -3.51012253556346 14.463551643927126 0 0 0
804 268 1 0.5897 -1.8632761046787358 -2.575940669897122 14.747002801461988 0 0 0
803 268 1 0.5897 -3.314107120248315 -3.003805582063446 14.809479124185271 0 0 0
689 230 1 0.5897 1.0846469292511127 -5.831622931060066 13.241010782068123 0 0 0
795 265 1 0.5897 -2.873937892212796 -5.581180790413406 15.224770802714568 0 0 0
667 223 2 -1.1794 -3.937143897007706 -2.8925612925028616 11.532309348816964 0 0 0
793 265 2 -1.1794 -2.064053357668538 -5.954537849835598 15.572415943313702 0 0 0
720 240 1 0.5897 -0.901617626047182 -6.584514908924591 14.42745399765061 0 0 0
718 240 2 -1.1794 -0.23601161048070196 -6.824426280176532 13.782864856712278 0 0 0
698 233 1 0.5897 -1.2417003835591647 -4.251612744530276 13.11442862250439 0 0 0
668 223 1 0.5897 -3.1530019862797882 -3.3478224487644788 11.838901973477006 0 0 0
787 263 2 -1.1794 -4.263609761322925 -4.506287312801597 14.72109005255226 0 0 0
802 268 2 -1.1794 -2.7462398078570835 -2.238316530304343 14.8970678423662 0 0 0
676 226 2 -1.1794 -3.3273612831351613 -6.726479125126544 12.355892491493531 0 0 0
794 265 1 0.5897 -1.7329645939655745 -5.289723586444567 16.176175166105416 0 0 0
757 253 2 -1.1794 -9.792575287221922 -5.770151636964625 15.591218216747679 0 0 0
767 256 1 0.5897 -11.015297245091501 -2.8869710733152623 14.922093493610742 0 0 0
655 219 2 -1.1794 -0.39595770643391326 -7.361459405419831 10.956161429495763 0 0 0
1186 396 2 -1.1794 1.5945703947178167 -4.394897447288837 19.02943943353911 0 0 0
1179 393 1 0.5897 -0.7114135679822375 -5.1732678834474 21.178566050531487 0 0 0
1124 375 1 0.5897 0.8779483103740002 -6.082609242224587 16.376509529843624 0 0 0
1165 389 2 -1.1794 0.07366866191313015 -2.0508038490361704 17.541802010872814 0 0 0
1151 384 1 0.5897 -6.278393887272115 -5.192555284756782 19.60522582266988 0 0 0
1152 384 1 0.5897 -6.842546849111383 -3.854021277510391 20.031018328877444 0 0 0
1225 409 2 -1.1794 -8.045573386240314 -3.3486987891385525 21.2873955737329 0 0 0
1125 375 1 0.5897 1.0058220661376485 -4.845948707124423 17.240072592918253 0 0 0
1227 409 1 0.5897 -8.775433554746401 -2.94322916510024 20.81936598190289 0 0 0
1219 407 2 -1.1794 -10.275454758992218 -1.9487203660967243 20.201279926339183 0 0 0
1109 370 1 0.5897 -8.811422482644845 -3.2917680742066437 17.891864865065152 0 0 0
1108 370 2 -1.1794 -9.458234532580988 -3.9277663336998687 17.586381741277314 0 0 0
1141 381 2 -1.1794 -8.613245367795962 -5.919085733027117 21.64745561892702 0 0 0
1089 363 1 0.5897 -6.575168244063557 -4.595542427641384 17.30374933880225 0 0 0
1221 407 1 0.5897 -10.784549407854277 -1.9843457880880173 19.391483799165997 0 0 0
1248 416 1 0.5897 -5.854917639989994 -1.302314501088155 20.78969897925893 0 0 0
1187 396 1 0.5897 1.9131404738945257 -5.215151983102865 19.405863835971466 0 0 0
1150 384 2 -1.1794 -6.458436923066748 -4.309824168069628 19.28217371344168 0 0 0
1087 363 2 -1.1794 -6.457623207868899 -4.968736679844789 16.43024542850236 0 0 0
1122 374 1 0.5897 -4.583594267508093 -2.6394704304348977 17.502057239702935 0 0 0
1097 366 1 0.5897 -9.149870727995529 -5.536913131190383 18.342075580385732 0 0 0
1142 381 1 0.5897 -8.572254636427495 -6.067450495333404 20.702760642753354 0 0 0
1121 374 1 0.5897 -5.03095540170571 -3.6386538650195197 18.54754093418645 0 0 0
1146 382 1 0.5897 -2.622535131188762 -3.8438290788531706 17.844990737862638 0 0 0
1144 382 2 -1.1794 -1.718424079344464 -4.1070054195693455 17.673316082776587 0 0 0
1145 382 1 0.5897 -1.2284250228197635 -3.2850234589218186 17.655171753482996 0 0 0
1129 377 2 -1.1794 -7.554566766371956 -1.754860450031666 17.852101137713625 0 0 0
1120 374 2 -1.1794 -4.24886721184739 -3.229509452582823 18.177264970198557 0 0 0
1262 421 1 0.5897 -0.08880438222059439 -2.919118941692206 21.598791616216978 0 0 0
1188 396 1 0.5897 0.935243095927115 -4.0859393581298695 19.650669318600798 0 0 0
1255 419 2 -1.1794 -2.7306169691183797 -2.183934000878475 20.37634211050277 0 0 0
1256 419 1 0.5897 -3.4882750657146637 -2.126114935207916 20.95835732596055 0 0 0
1261 421 2 -1.1794 -0.45823718351883613 -3.50326409852255 20.936644733525306 0 0 0
1257 419 1 0.5897 -3.0876607342422666 -2.5069978723992836 19.549098868189184 0 0 0
1263 421 1 0.5897 -1.3066314182158258 -3.1159870873093585 20.721245318238893 0 0 0
1133 378 1 0.5897 -1.2269648982752148 -5.813774271250147 18.385712654797977 0 0 0
1177 393 2 -1.1794 -0.7815070770358439 -6.119299079195281 21.305448959533436 0 0 0
1096 366 2 -1.1794 -8.9704896392524 -6.3629898329456935 18.79089100430142 0 0 0
1088 363 1 0.5897 -6.594981892287905 -5.908269756859295 16.550287100748413 0 0 0
1110 370 1 0.5897 -10.301304475837444 -3.492884382532571 17.713738847983485 0 0 0
1131 377 1 0.5897 -6.8423671457956665 -1.7096270673584684 17.214240078416474 0 0 0
1130 377 1 0.5897 -7.157844315236981 -1.4699560298338818 18.675286406165476 0 0 0
1123 375 2 -1.1794 1.0429211290272402 -5.1409875779378895 16.33029089727264 0 0 0
758 253 1 0.5897 -9.525857730073726 -5.258022540685881 16.354583581396383 0 0 0
69 23 1 0.5897 -10.969572367185574 -2.396072927082984 3.2278706216149775 1 0 0
272 91 1 0.5897 -9.4106344775373 -1.003562057265727 1.2886009075432165 1 1 0
271 91 2 -1.1794 -10.20361690563026 -0.6659062734647065 0.8722496840444598 1 1 0
107 36 1 0.5897 -9.272707131052677 1.5217408846626679 3.2252716909200676 1 0 0
273 91 1 0.5897 -10.425408276462923 -1.3214495154464236 0.21106181136319635 1 1 0
258 86 1 0.5897 -12.456350686715426 -2.838762759004572 1.2291191846353307 1 1 0
256 86 2 -1.1794 -11.903070430343275 -3.1523771687093083 1.9444531602546262 1 1 0
82 28 2 -1.1794 -8.738130354383626 0.09061624986895112 4.1642020409898395 1 0 0
83 28 1 0.5897 -9.37832460499061 -0.6125644404291979 4.055372600754758 1 0 0
27 9 1 0.5897 -3.866002448831021 1.6369446747374443 5.442273807453293 0 0 0
98 33 1 0.5897 -11.917671240086175 0.2359026453200972 4.552209306511083 1 0 0
301 101 2 -1.1794 -7.988419082314845 -2.2052150125888916 1.6022392250993758 1 1 0
52 18 2 -1.1794 -12.192208341110016 0.11645264733080118 2.5747141098577173 1 0 0
53 18 1 0.5897 -12.264743825496101 1.0335122324596888 2.310659843603435 1 0 0
54 18 1 0.5897 -11.617980563937387 -0.27754357085251513 1.918129065728656 1 0 0
67 23 2 -1.1794 -10.564702395596154 -2.135961018225328 4.055289054169867 1 0 0
99 33 1 0.5897 -11.575142495091413 1.4650268628479282 5.366713328898262 1 0 0
68 23 1 0.5897 -11.159190348629796 -2.467776574841376 4.728060472477538 1 0 0
95 32 1 0.5897 -5.702879951645631 -0.6628968567224991 3.028959420395045 1 0 0
84 28 1 0.5897 -7.901106341112857 -0.3077265012801167 3.925846978163856 1 0 0
97 33 2 -1.1794 -11.7848293911835 0.5350667641840836 5.451656492377788 1 0 0
90 30 1 0.5897 -3.5226444337647367 -0.21110729605619838 2.0569247302721907 1 0 0
303 101 1 0.5897 -7.445332857399639 -2.1124557027350495 0.8195598047758119 1 1 0
302 101 1 0.5897 -7.404874974651517 -1.981120338443091 2.3271438915196603 1 1 0
96 32 1 0.5897 -5.922838183868813 -1.6188757037491577 4.181888788042119 1 0 0
294 98 1 0.5897 -4.622524808082008 -2.6984994383134175 1.355339327045191 1 1 0
89 30 1 0.5897 -4.3024222808526975 1.0414219022102582 2.395141055467472 1 0 0
103 35 2 -1.1794 -2.7239788498993818 -2.3884899527870154 4.163901395994331 1 0 0
88 30 2 -1.1794 -4.133976293508424 0.14962479996138534 2.698972283060759 1 0 0
104 35 1 0.5897 -3.4336627991154938 -2.604554999216055 4.76873168419701 1 0 0
105 35 1 0.5897 -3.1072367649320114 -2.5015628469055713 3.2941156317292353 1 0 0
26 9 1 0.5897 -4.046921778778188 0.40628917821042165 4.579613486221825 0 0 0
94 32 2 -1.1794 -6.392432861704767 -1.094423358130177 3.5333959069471024 1 0 0
257 86 1 0.5897 -12.519300899530863 -3.493442423703214 2.5925879250914883 1 1 0
59 20 1 0.5897 -13.578133161536567 -0.9566074339435833 3.2858079156303743 1 0 0
25 9 2 -1.1794 -4.077060439888403 0.7045726378473507 5.488593454122594 0 0 0
44 15 1 0.5897 -9.817078663071078 1.0862598141975184 0.2229757289321206 1 0 0
75 25 1 0.5897 -9.233417809481855 -3.1948402301129564 4.496930812591487 1 0 0
1285 429 2 -1.1794 -5.624179650963353 -1.703696583811297 0.25543740956476835 0 0 1
1046 349 1 0.5897 -5.0864120427639685 1.4745461317838426 0.2625297403091829 0 -1 1
292 98 2 -1.1794 -4.172578488126397 -3.2840254239605926 1.9642779031180866 1 1 0
537 179 1 0.5897 -9.242756515657081 -0.06538857513832319 8.79843079653834 1 0 0
536 179 1 0.5897 -9.553317152374412 0.26359434962096273 10.243052057790049 1 0 0
535 179 2 -1.1794 -8.857579845181423 0.31514798425711277 9.587743933749636 1 0 0
528 176 1 0.5897 -12.258218643325128 0.5320698221873759 10.10715163760488 1 0 0
424 142 2 -1.1794 -7.754053433192093 -1.7512641380301757 7.05495490714275 1 0 0
433 145 2 -1.1794 -6.593950795017895 -0.9825019098313241 10.25261479725321 0 0 0
527 176 1 0.5897 -11.983965454280213 1.577661635621105 9.047431232699813 1 0 0
526 176 2 -1.1794 -12.691703662422984 1.0707888418547622 9.44535800659114 1 0 0
426 142 1 0.5897 -8.641211712217235 -1.3935601019940753 7.088679191662994 1 0 0
405 135 1 0.5897 -5.00058839964469 -2.1837527402809673 6.496896249160099 1 0 0
435 145 1 0.5897 -7.424523243409963 -0.5400740048471295 10.077868761626494 0 0 0
402 134 1 0.5897 -10.833979282867183 -0.2927519023380505 6.678870905878893 1 0 0
401 134 1 0.5897 -10.997978492109828 -1.2588662493944938 7.832669961633947 1 0 0
400 134 2 -1.1794 -10.333550280125376 -0.8178946017110249 7.303303479920575 1 0 0
411 137 1 0.5897 -13.351902009355296 0.42876421278633003 6.5455769739782355 1 0 0
443 148 1 0.5897 -7.84646723838094 1.7984907935779226 9.533333106111721 0 0 0
522 174 1 0.5897 -9.9814775575246 2.1356286257109662 7.476929591147816 1 0 0
415 139 2 -1.1794 -8.612274818528602 1.6632663647887487 6.483213300711208 1 0 0
338 113 1 0.5897 -5.569906759059179 0.8424671307880018 7.963350602945839 0 0 0
328 110 2 -1.1794 -2.5569286190634646 -0.9157637043568343 7.196039954000864 0 0 0
442 148 2 -1.1794 -7.324860698633731 2.599952305333204 9.492236620743181 0 0 0
456 152 1 0.5897 -4.237875564891702 0.8648600378877802 9.956966517526462 0 0 0
455 152 1 0.5897 -3.9909069610510866 1.9709611947666037 8.953469141502895 0 0 0
454 152 2 -1.1794 -4.692214931006773 1.4781207400802572 9.379417672920615 0 0 0
444 148 1 0.5897 -6.420197318452561 2.2945062413054114 9.425647058492364 0 0 0
330 110 1 0.5897 -3.012305017586727 -0.33689166891626954 6.584789402279686 0 0 0
329 110 1 0.5897 -3.2531690720191895 -1.2908211711089876 7.735239880845693 0 0 0
358 120 2 -1.1794 -4.667205905914741 -2.098528834423144 8.403594072648623 0 0 0
520 174 2 -1.1794 -10.741713356383029 2.4500043613670712 7.9661157490731975 1 0 0
425 142 1 0.5897 -7.183957269928449 -0.9899617277633617 7.162366774940901 1 0 0
360 120 1 0.5897 -5.3653718799771895 -1.6886714290501432 8.914132854220314 0 0 0
339 113 1 0.5897 -5.654555374813344 0.6033048851150937 6.470926162623082 0 0 0
416 139 1 0.5897 -7.785328038763016 1.4661637132740104 6.9231160420190685 1 0 0
337 113 2 -1.1794 -6.177739186585354 0.5799284943396845 7.2720882700725085 0 0 0
464 155 1 0.5897 -1.7671154886395346 0.09780278021274569 10.074475287865912 0 0 0
403 135 2 -1.1794 -5.139077075956826 -2.559241289096663 5.627429987197789 1 0 0
410 137 1 0.5897 -13.617902942574759 0.6725342681795183 8.015763185430167 1 0 0
417 139 1 0.5897 -8.597967101686658 1.1242224540781844 5.6924430408401 1 0 0
430 144 2 -1.1794 -12.363402867492013 -2.1607808190950752 8.574018804787185 1 0 0
74 25 1 0.5897 -8.165084527998467 -3.0309623750207004 5.5569906159894416 1 0 0
896 299 1 0.5897 -8.019378149554534 2.5227353846464133 15.604324181441388 0 0 0
792 264 1 0.5897 -11.62258599180331 0.6159498767607587 14.349426973719652 0 0 0
836 279 1 0.5897 -11.34729019282738 -1.3094061995277277 11.183311468037935 1 0 0
771 257 1 0.5897 -11.730055525121363 2.676497916667177 11.659010189741153 0 0 0
835 279 2 -1.1794 -11.015013228867508 -0.41185308797525977 11.177545792024521 1 0 0
762 254 1 0.5897 -9.160424985064505 2.0038492422825804 11.939964168264313 0 0 0
761 254 1 0.5897 -9.363024198281053 1.0905429109597122 13.130075397924765 0 0 0
760 254 2 -1.1794 -8.6835595046124 1.5422947253117272 12.629677604496692 0 0 0
837 279 1 0.5897 -11.034048912006805 -0.14302713843137127 12.095970362298655 1 0 0
924 308 1 0.5897 -2.7275779267133053 3.1229491343521296 15.26273407396119 0 0 0
791 264 1 0.5897 -10.724389028181628 -0.5766888758782702 14.100108052891965 0 0 0
790 264 2 -1.1794 -10.883203342946906 0.32352680903906617 13.816605505721553 0 0 0
805 269 2 -1.1794 -4.522686712845722 2.7902038316743205 12.274372403407213 0 0 0
897 299 1 0.5897 -7.608295395326273 2.5294808711609775 14.147410210086385 0 0 0
888 296 1 0.5897 -10.428269047369099 3.0528864741301085 15.239815615490082 0 0 0
903 301 1 0.5897 -5.739863533382257 1.712079474787279 15.299220153978682 0 0 0
901 301 2 -1.1794 -4.937702731133258 1.283884436912194 15.59809946774957 0 0 0
828 276 1 0.5897 -3.7566476674326656 0.6113678599768573 14.402750716918876 0 0 0
770 257 1 0.5897 -11.875575184189067 2.8421913820730875 13.15668308780829 0 0 0
866 289 1 0.5897 -12.710908112102352 1.6768164167901105 16.04504019771224 0 0 0
827 276 1 0.5897 -2.92261547101079 -0.6102465730711817 14.081288656658934 0 0 0
826 276 2 -1.1794 -3.173198665146307 0.2469838075338746 13.737260854735696 0 0 0
786 262 1 0.5897 -7.070604293506285 0.927150169458324 12.635450137430976 0 0 0
773 258 1 0.5897 -5.878712314542603 -1.0694069906377788 13.267345217403495 0 0 0
764 255 1 0.5897 -3.4624937868095698 -1.2429950031613606 11.086112440706659 0 0 0
785 262 1 0.5897 -5.64241207526194 1.3962261416138926 12.456275638651517 0 0 0
784 262 2 -1.1794 -6.164486049212598 0.6194926678379673 12.656835507079984 0 0 0
769 257 2 -1.1794 -12.371990372506573 2.6265056212063627 12.367212665691074 0 0 0
765 255 1 0.5897 -3.3633933529997257 -0.05645184390920832 12.020847356240784 0 0 0
895 299 2 -1.1794 -7.272520668661345 2.6894328970990227 15.029372355881149 0 0 0
434 145 1 0.5897 -6.215059235193185 -0.500356973758846 10.987561084682808 0 0 0
763 255 2 -1.1794 -3.3084331012858312 -0.29845351193067593 11.096431177552615 0 0 0
817 273 2 -1.1794 -5.364507724028609 -1.4630653056979517 16.23889921602671 0 0 0
819 273 1 0.5897 -5.257906083978914 -0.5145994758967873 16.167914297307306 0 0 0
772 258 2 -1.1794 -5.786627273296141 -1.9671793991877173 13.585952808939224 0 0 0
806 269 1 0.5897 -4.117296726253929 3.00543535438427 13.114335275181828 0 0 0
807 269 1 0.5897 -3.823047257717729 2.910768281235958 11.632409149269565 0 0 0
818 273 1 0.5897 -5.397766670517416 -1.7692713241156994 15.33266217522004 0 0 0
902 301 1 0.5897 -4.5290405664662305 1.921365099128728 16.18355435096109 0 0 0
1009 337 2 -1.1794 -11.194940531917146 3.731543700867773 20.969308573523783 0 -1 0
1195 399 2 -1.1794 -9.543055009178506 2.135218403310091 16.576104492752265 0 0 0
1260 420 1 0.5897 -9.942032581514187 3.0867757756202643 19.77461553230745 0 0 0
1259 420 1 0.5897 -8.972076029768552 1.938949022984806 19.592935712582275 0 0 0
1258 420 2 -1.1794 -9.182225097543967 2.811883961194342 19.261553528260656 0 0 0
1099 367 2 -1.1794 -9.935197999941753 -0.5376968443019905 17.073652370206496 0 0 0
1047 349 1 0.5897 -4.186636187745137 4.1293813654883795 20.602200983085105 0 -1 0
1205 402 1 0.5897 -12.073633784624366 1.170766883010609 18.487451318213317 0 0 0
1236 412 1 0.5897 -7.779160630500624 0.05691132422411371 20.321855080110666 0 0 0
1235 412 1 0.5897 -9.230104930097031 -0.35460971691887977 20.19024814683266 0 0 0
1234 412 2 -1.1794 -8.670028593583826 0.40620413221316376 20.343870813321615 0 0 0
1206 402 1 0.5897 -11.234290779642988 -0.05998597617087853 18.219050069094706 0 0 0
1246 416 2 -1.1794 -6.262656996854565 -0.7554458275938831 20.11828775872638 0 0 0
1295 432 1 0.5897 -1.2515329778898607 1.949442840094724 19.493557798219165 0 0 0
1100 367 1 0.5897 -9.07420460284034 -0.8582228660685942 17.342219012711503 0 0 0
1197 399 1 0.5897 -9.38863407557305 2.4434465303905455 17.46902378991112 0 0 0
1216 406 2 -1.1794 -12.556644776673682 2.7452943847472113 17.787219293480213 0 0 0
1287 429 1 0.5897 -3.642030538458238 2.1189595499161875 21.683169009344425 0 0 0
1231 411 2 -1.1794 -1.7400214077684986 2.288967649398833 16.363852673571714 0 0 0
1249 417 2 -1.1794 -11.76178323229277 1.1209274731488978 21.555358052347714 0 0 0
1241 414 1 0.5897 -4.237962597994749 1.465553687274749 18.515693063768772 0 0 0
1232 411 1 0.5897 -1.905330444178368 1.3495485604963662 16.442391032623256 0 0 0
1294 432 2 -1.1794 -1.5383008078301934 2.78419462014028 19.12348726304443 0 0 0
1196 399 1 0.5897 -9.64484907734538 1.187605302535534 16.6636218376377 0 0 0
1136 379 1 0.5897 -1.4563475712103138 -0.9839757519568515 17.424910101769377 0 0 0
1240 414 2 -1.1794 -4.138188189198163 0.6039658083076969 18.92031090702389 0 0 0
1296 432 1 0.5897 -2.0126668521379774 3.2122103887667297 19.836119184380365 0 0 0
1045 349 2 -1.1794 -3.476824877885985 3.739213425580054 21.112198103023104 0 -1 0
1247 416 1 0.5897 -5.526824172818922 -0.3502978161342156 19.65940780850135 0 0 0
1254 418 1 0.5897 -5.6020469844123 3.35186816014758 17.82018837642039 0 0 0
1286 429 1 0.5897 -3.7294092450759786 0.8044381345077412 20.937679016100006 0 0 0
1242 414 1 0.5897 -3.582465525270573 0.11638998262053768 18.312455313097324 0 0 0
1251 417 1 0.5897 -11.559910883956476 2.0552555503247305 21.60323020013739 0 0 0
1271 424 1 0.5897 -1.554352315155393 -0.4535496040450191 20.20072568556872 0 0 0
1101 367 1 0.5897 -10.208372463787454 -1.1366640660865137 16.378855473639447 0 0 0
1270 424 2 -1.1794 -0.9836790920230953 0.3141580696082542 20.168033508984315 0 0 0
1253 418 1 0.5897 -4.178358842100356 3.863168069898414 17.879927442425476 0 0 0
1252 418 2 -1.1794 -4.69471467097928 3.083594138892103 17.675572284941126 0 0 0
1135 379 2 -1.1794 -2.2928307851485563 -0.6132617932802304 17.143807732202724 0 0 0
1250 417 1 0.5897 -11.834602963472635 0.9388414317113138 20.618503958830978 0 0 0
1233 411 1 0.5897 -1.8084016011283417 2.6203004340726306 17.2592070478874 0 0 0
1011 337 1 0.5897 -11.861911802675783 4.208818795635143 20.47585386595685 0 -1 0
1204 402 2 -1.1794 -11.92368603516213 0.27584967010238515 18.791797224272358 0 0 0
1229 410 1 0.5897 -7.817908588425178 3.8567394272432054 18.575183463919828 0 0 0
1217 406 1 0.5897 -11.900982124376657 3.4405350775665884 17.733480695981896 0 0 0
1137 379 1 0.5897 -2.6031683927533447 -1.2099541101459614 16.462793115232905 0 0 0
309 103 1 0.5897 -0.838108773718 1.3108015856568116 21.65072333202629 1 1 -1
40 14 2 -1.1794 -14.966751085470703 3.79593427367322 1.9363679902514586 1 0 0
177 59 1 0.5897 -13.998816067146375 4.350722373998105 3.4776361024023394 1 0 0
42 14 1 0.5897 -15.376098502925483 4.274790797163158 1.2157762021432326 1 0 0
204 68 1 0.5897 -9.289336882268577 5.153701103367389 4.46609923390622 1 0 0
55 19 2 -1.1794 -13.530130370988104 6.287458576696464 0.7427134473138766 1 0 0
56 19 1 0.5897 -12.697827837342285 5.917365108239203 1.0367653112172395 1 0 0
66 22 1 0.5897 -13.364103505541285 3.0491479537876245 1.6792310269346347 1 0 0
65 22 1 0.5897 -11.90629566650908 3.3453403452170782 1.3983130724593236 1 0 0
64 22 2 -1.1794 -12.50434129937772 2.6323888716146886 1.6222843272596121 1 0 0
191 64 1 0.5897 -12.647408625303836 6.481780211360277 4.01564540996384 1 0 0
167 56 1 0.5897 -16.560480835776467 6.43071582835846 3.3980421759426718 1 0 0
183 61 1 0.5897 -12.270666537185361 3.6505116683872156 4.729212763495642 1 0 0
198 66 1 0.5897 -6.910010433400093 6.908633895962549 2.34456776035879 1 0 0
181 61 2 -1.1794 -11.421398134423875 3.286365662982808 4.978802395598447 1 0 0
176 59 1 0.5897 -14.414763284746183 4.720660672507481 4.88537215160442 1 0 0
175 59 2 -1.1794 -13.660017661756594 4.711793658741492 4.2967958621243705 1 0 0
108 36 1 0.5897 -10.004778228529794 2.795119878373926 3.5910918782260643 1 0 0
45 15 1 0.5897 -9.725528023114029 2.329847207686278 1.0811761261645503 1 0 0
85 29 2 -1.1794 -11.036165197862244 4.935799432032768 1.4862611643645682 1 0 0
43 15 2 -1.1794 -9.820728060440597 2.0420244263046463 0.17329788744997518 1 0 0
192 64 1 0.5897 -11.148838498221336 6.692979110040923 4.055298597827176 1 0 0
86 29 1 0.5897 -10.5458291433283 5.170059861120388 2.2742352436905486 1 0 0
106 36 2 -1.1794 -9.467450628548757 2.4018431954390724 2.903578434349707 1 0 0
190 64 2 -1.1794 -11.98109913864127 7.162861155759529 4.106838233169274 1 0 0
76 26 2 -1.1794 -7.361375959246515 3.7587229467097867 1.9175948963665106 1 0 0
77 26 1 0.5897 -8.174001614394808 3.362018631521634 2.231363795981155 1 0 0
78 26 1 0.5897 -7.633309507975541 4.320946524285832 1.19229837869546 1 0 0
203 68 1 0.5897 -8.951197299783832 6.136091304985385 3.3651490667392907 1 0 0
202 68 2 -1.1794 -9.68056534104278 5.645810767358141 3.744374473248997 1 0 0
102 34 1 0.5897 -5.764686726093047 2.85132421814769 1.7668165732705918 1 0 0
87 29 1 0.5897 -10.410124155767404 5.049986219644566 0.7712997526171348 1 0 0
100 34 2 -1.1794 -4.8466492940611365 2.5945188516914435 1.680753530854269 1 0 0
213 71 1 0.5897 -6.316865065145271 4.468699374995984 3.4414040339649428 1 0 0
212 71 1 0.5897 -6.605737870181946 4.6420014732074915 4.917263134779928 1 0 0
211 71 2 -1.1794 -5.9491177073678685 4.83161695855007 4.247156959662811 1 0 0
111 37 1 0.5897 -4.481596361400521 3.7507355346734315 4.457723937989985 0 0 0
162 54 1 0.5897 -14.567600214683045 6.854290089539669 2.0661663144708378 1 0 0
91 31 2 -1.1794 -5.526921445102869 6.200719731562787 1.1055367603311699 1 0 0
101 34 1 0.5897 -4.357069136640598 3.40697459218538 1.808510313436054 1 0 0