LAMMPS data file via write_data, version 30 Jul 2021, timestep = 9000000

864 atoms
2 atom types
576 bonds
1 bond types
288 angles
1 angle types

0.10575428423058142 18.10181811577084 xlo xhi
0.07567143675248644 23.55350636325405 ylo yhi
0.008241603491962124 22.204954196513796 zlo zhi

Masses

1 1.00794
2 15.9994

Atoms # full

707 1 1 0.5897 3.17983991572109 1.7068467808492043 4.081667114855956 0 0 0
706 1 2 -1.1794 3.144923324727481 1.722366354517095 3.125194925477263 0 0 0
30 1 1 0.5897 5.285549717736457 3.6021608068761224 2.153758226732319 0 0 0
708 1 1 0.5897 2.4498909459452536 2.3479169916005116 2.920530978478289 0 0 0
29 1 1 0.5897 4.510661298812258 2.3074335686790093 2.276764809807826 0 0 0
28 1 2 -1.1794 5.298494943319832 2.683766333169078 1.8843307527432316 0 0 0
846 1 1 0.5897 7.663005958014848 1.8571714907437042 4.799287898925911 0 0 0
1 1 2 -1.1794 0.9409028810803961 3.157039719695463 2.3101223156759683 0 0 0
136 1 2 -1.1794 5.27953024554625 5.262929235237211 2.8337500895900485 0 0 0
494 1 1 0.5897 6.908371013089953 2.2383934210710486 2.7186484839472445 0 0 0
493 1 2 -1.1794 7.653301022984974 1.791503174832856 3.1207384848218265 0 0 0
495 1 1 0.5897 8.42113163619558 2.1800093922280044 2.701437560773169 0 0 0
3 1 1 0.5897 0.7421280368149761 4.041500710370665 2.617494804204031 0 0 0
2 1 1 0.5897 0.1918931294699303 2.631360383515144 2.5911631268332225 0 0 0
595 1 2 -1.1794 0.7679097972021045 5.777760744229291 3.1311336654485333 0 0 0
137 1 1 0.5897 5.253062081895418 5.494487719302195 3.762178161203564 0 0 0
597 1 1 0.5897 0.6494234325941041 5.630174367243947 4.069471323370386 0 0 0
819 1 1 0.5897 7.578279357951195 0.18114966671834548 2.4450973105522107 0 0 0
20 1 1 0.5897 0.7104443489661729 3.267702487366304 0.5096983989637197 0 0 0
138 1 1 0.5897 4.566698800725915 5.766363329184084 2.4404104132830913 0 0 0
188 1 1 0.5897 2.9347769662915653 0.10308528765592996 2.200931076156974 0 1 0
668 1 1 0.5897 5.276525050815534 2.9091648052101915 0.09046395493628274 0 0 0
785 1 1 0.5897 0.5825171235674063 2.900325568982934 7.4344651911324435 0 0 0
35 1 1 0.5897 0.5568144412399667 3.681962991851106 9.508831251797416 0 0 0
82 1 2 -1.1794 5.411711358100189 3.1443453064552322 6.7969623989381605 0 0 0
181 1 2 -1.1794 0.45480531272987024 5.59939171233158 5.945929035754957 0 0 0
674 1 1 0.5897 3.52618682041262 2.3648115008194948 9.97705287198895 0 0 0
673 1 2 -1.1794 2.826990472368466 1.80876190360685 10.320876372314947 0 0 0
356 1 1 0.5897 7.32693130953692 0.7469664991814341 10.170132363805886 0 0 0
685 1 2 -1.1794 4.9426588968942875 5.803868045865334 5.568616128369081 0 0 0
112 1 2 -1.1794 0.5298138261509944 5.242872795370914 10.251795673563164 0 0 0
784 1 2 -1.1794 0.5899959925860521 2.9420541071127153 6.478169682515267 0 0 0
176 1 1 0.5897 8.845643518843394 3.0320315064490555 9.989814351418694 0 0 0
274 1 2 -1.1794 5.114904045041581 3.141534501208485 9.541489882627637 0 0 0
678 1 1 0.5897 5.198659025629391 4.924285766399478 10.315051920918194 0 0 0
489 1 1 0.5897 3.0966684533418434 0.8994456712990385 6.359455011493702 0 0 0
36 1 1 0.5897 1.3359272447445807 2.3923945157539666 9.65689370537467 0 0 0
355 1 2 -1.1794 7.343459120521476 1.6939348313285518 10.308707712165162 0 0 0
83 1 1 0.5897 4.624998709268019 2.71096517748182 6.465930419208206 0 0 0
183 1 1 0.5897 0.6625532972683574 4.6771375065327705 6.095993316949899 0 0 0
276 1 1 0.5897 5.943835442708071 2.704037837788274 9.735841154762921 0 0 0
675 1 1 0.5897 3.0477297571256585 0.9290238710971287 10.015015273096727 0 0 0
275 1 1 0.5897 5.103322178276238 3.220957953096606 8.587624633539232 0 0 0
84 1 1 0.5897 6.129545037628001 2.749689246390653 6.301724685837679 0 0 0
34 1 2 -1.1794 0.6058686388815685 2.7850469441508996 9.178143100124494 0 0 0
488 1 1 0.5897 2.3086843970856816 2.177137296404573 6.162976000175619 0 0 0
686 1 1 0.5897 5.114487518611853 4.899984454979875 5.832609254431899 0 0 0
676 1 2 -1.1794 5.0194349214001255 5.855896549177614 10.442372597357426 0 0 0
419 1 1 0.5897 8.997783628706042 2.582894632507287 6.478991232415299 0 0 0
114 1 1 0.5897 1.2971785781530984 5.779450865198771 10.052946014386107 0 0 0
487 1 2 -1.1794 3.1715802787266676 1.7897385583263914 6.015870312578541 0 0 0
845 1 1 0.5897 7.697928579486834 1.0444481913217052 6.076099759976303 0 0 0
844 1 2 -1.1794 7.665440558864956 1.9446948336807792 5.752510242716919 0 0 0
166 1 2 -1.1794 3.1990493703103513 1.6612355962920622 12.985220288731574 0 0 0
167 1 1 0.5897 3.075133469982229 1.7816292268784457 12.043697862052023 0 0 0
457 1 2 -1.1794 5.044543727272399 3.440770398988582 13.8783583832595 0 0 0
458 1 1 0.5897 5.931459936068053 3.1332881373815016 13.690884052383183 0 0 0
459 1 1 0.5897 4.473826893117344 2.8052219691269045 13.446355534318327 0 0 0
762 1 1 0.5897 4.939093666318087 5.193228328693438 13.51909916552198 0 0 0
466 1 2 -1.1794 1.1182247170885566 3.0675322966216196 13.925703572441138 0 0 0
168 1 1 0.5897 2.508135222532184 2.1876628300720036 13.387477512980967 0 0 0
594 1 1 0.5897 8.227217436961743 2.3735839694657055 13.312587381384468 0 0 0
71 1 1 0.5897 5.2620556511935765 3.170648729103093 15.779431816556183 0 0 0
593 1 1 0.5897 7.341469723535006 1.154036248125717 13.454281527747865 0 0 0
592 1 2 -1.1794 7.32678397081766 2.073425196349068 13.188350456832055 0 0 0
468 1 1 0.5897 1.1656094202052631 3.1356120591899588 14.879335892810118 0 0 0
365 1 1 0.5897 0.48125790505904115 4.827289918639126 13.32590168806219 0 0 0
467 1 1 0.5897 0.32200585113289215 2.562539919816146 13.760415737381138 0 0 0
364 1 2 -1.1794 0.3020885838368773 5.701761153445618 12.98032693086546 0 0 0
761 1 1 0.5897 4.7554165433832205 5.93450276465969 12.211894451836713 0 0 0
113 1 1 0.5897 0.4117785034272608 5.333957517230288 11.197363870622786 0 0 0
357 1 1 0.5897 7.385751568140038 1.7966537936722105 11.259489635333539 0 0 0
754 1 2 -1.1794 7.53204532862815 1.8241420273979843 17.748345286865046 0 0 0
290 1 1 0.5897 3.3154387005320967 1.0921114782831765 17.6418924205407 0 0 0
42 1 1 0.5897 7.553943514646195 1.214571102427819 20.931923811152934 0 0 0
755 1 1 0.5897 7.5927458258084615 1.977325857753178 18.69128862405571 0 0 0
756 1 1 0.5897 6.880484427597943 2.4559103031051452 17.44401006787286 0 0 0
19 1 2 -1.1794 0.6729050203716602 3.194957437727815 21.752683683900834 0 0 0
289 1 2 -1.1794 3.237262249682264 2.0030012042990357 17.92542567880249 0 0 0
41 1 1 0.5897 6.612246216149492 2.389265068960981 20.77300827645967 0 0 0
143 1 1 0.5897 5.294753415638719 4.791165376761452 20.77324805348134 0 0 0
569 1 1 0.5897 1.9668125408768795 2.2216995066914293 21.015312605217858 0 0 0
21 1 1 0.5897 0.647786540576437 4.100560652949392 21.443709008379514 0 0 0
570 1 1 0.5897 2.728006944103629 1.8972284051216126 19.74749592274243 0 0 0
40 1 2 -1.1794 7.476080741749148 2.0707314145070774 20.511027659646942 0 0 0
134 1 1 0.5897 0.9503146183061006 4.128870679715107 16.969096555356522 0 0 0
667 1 2 -1.1794 5.1343299916922955 3.086779395560512 21.357371449830225 0 0 0
144 1 1 0.5897 5.315936073739275 5.73436837269872 19.58923831921451 0 0 0
568 1 2 -1.1794 2.747703195176073 1.769464969371821 20.695959307571 0 0 0
291 1 1 0.5897 2.498658635627756 2.347981156449143 17.423645076087688 0 0 0
669 1 1 0.5897 4.337330868766159 2.603303821302889 21.13981059989373 0 0 0
278 1 1 0.5897 5.321263967455831 5.072096916362165 17.409786854354167 0 0 0
72 1 1 0.5897 4.553395242898209 3.0108795117118423 17.107735246382376 0 0 0
70 1 2 -1.1794 5.371629163841576 3.319744900955734 16.71861681196777 0 0 0
648 1 1 0.5897 0.5708374494772891 5.800764783062604 19.652173678947193 0 0 0
571 1 2 -1.1794 0.8186456280851065 5.826082827276523 17.91972564759113 0 0 0
599 1 1 0.5897 8.93820910566846 2.621917256840947 16.982398868596988 0 0 0
142 1 2 -1.1794 5.150230134437102 5.706004074332873 20.531593487966333 0 0 0
81 1 1 0.5897 3.287125260853493 0.17902788126001795 21.52609137905636 0 1 0
133 1 2 -1.1794 1.0070379648886338 3.2171772846693787 16.683039043888137 0 0 0
646 1 2 -1.1794 0.49609845824695703 5.681658980185218 20.599032654777126 0 0 0
135 1 1 0.5897 0.16451717686665263 2.8354723147387846 16.92956246021589 0 0 0
323 1 1 0.5897 7.608129837280049 0.21420546896431528 17.15745709300881 0 1 0
253 1 2 -1.1794 3.1677666180310746 6.692299473104246 1.9997918649321378 0 0 0
123 1 1 0.5897 2.8596960262232827 8.46916316896264 2.73180493437415 0 0 0
121 1 2 -1.1794 2.9611651040907025 9.36373494007729 3.056895945652348 0 0 0
122 1 1 0.5897 3.0334439303824468 9.267279998470784 4.0065198865186575 0 0 0
44 1 1 0.5897 1.4542029502284857 10.358661325701284 2.712076560583899 0 0 0
218 1 1 0.5897 5.892929668636414 10.478217250739444 2.507345676864296 0 0 0
417 1 1 0.5897 8.115702197123996 6.565349549222986 2.4855503138634516 0 0 0
219 1 1 0.5897 4.380953302764466 10.531691429291447 2.5639138939159483 0 0 0
217 1 2 -1.1794 5.144132991973067 11.014365461412842 2.2463130964941076 0 0 0
415 1 2 -1.1794 7.351973589074028 6.927448450007204 2.0362029346856163 0 0 0
396 1 1 0.5897 0.5094316387000998 10.76477123109173 0.6982384348513069 0 0 0
254 1 1 0.5897 2.8629642616116007 6.701360668467597 1.0924262152009303 0 0 0
416 1 1 0.5897 6.63749642576049 6.330283101661245 2.257989527770585 0 0 0
66 1 1 0.5897 7.687985770346015 9.734896901607353 3.646927184365394 0 0 0
65 1 1 0.5897 7.404179917280361 8.874799613608761 2.4338032576157484 0 0 0
64 1 2 -1.1794 7.664295033321006 9.759543076431635 2.6902973345296965 0 0 0
255 1 1 0.5897 2.43657783164636 6.322753297726651 2.4949021151079336 0 0 0
43 1 2 -1.1794 0.5914805090836981 10.731128641263254 2.5296491603009255 0 0 0
162 1 1 0.5897 7.583751664325417 7.192964970108768 0.25886755673778433 0 0 1
45 1 1 0.5897 0.6848747728615694 11.66238987792095 2.7302772786840914 0 0 0
363 1 1 0.5897 5.100338099863773 11.226322012924738 0.4692948529009712 0 0 1
712 1 2 -1.1794 7.159201030271175 9.851799851588918 5.421903963595557 0 0 0
713 1 1 0.5897 7.97645354046826 10.220119933995413 5.757697053630938 0 0 0
677 1 1 0.5897 5.639321741607988 6.300736194591188 9.864285845157815 0 0 0
10 1 2 -1.1794 2.61835425403715 6.950080138666716 6.7815439393040675 0 0 0
550 1 2 -1.1794 0.6292506827546147 10.862200310933387 6.447524528648825 0 0 0
526 1 2 -1.1794 7.086997788003019 7.11975056999045 8.939063049563174 0 0 0
714 1 1 0.5897 7.2154975540818285 8.91810594770806 5.625007854481584 0 0 0
145 1 2 -1.1794 7.28375394563049 7.274351000504171 6.071855739671304 0 0 0
11 1 1 0.5897 1.8041723585222689 6.52573966963141 6.510723815928386 0 0 0
12 1 1 0.5897 2.6421646757417188 7.765396662603493 6.280609933902765 0 0 0
580 1 2 -1.1794 5.356284375368076 10.979636152095384 9.636347634897993 0 0 0
650 1 1 0.5897 2.667025916692884 6.958603509271234 8.59121825802718 0 0 0
822 1 1 0.5897 8.265389120791689 9.763349595363916 9.92552315718483 0 0 0
527 1 1 0.5897 7.172889605075385 7.934349324866783 9.434366189779135 0 0 0
15 1 1 0.5897 1.516448386657758 10.518913544375998 9.601359506361463 0 0 0
582 1 1 0.5897 5.216917208951308 10.931881658356255 8.690514621500508 0 0 0
794 1 1 0.5897 2.058191025283481 9.859954698772588 5.967455879967484 0 0 0
581 1 1 0.5897 6.21359038794626 10.576407036514501 9.773267060180379 0 0 0
147 1 1 0.5897 7.307664964506154 7.338583338330007 7.026632043000598 0 0 0
649 1 2 -1.1794 2.669436204904097 7.032605066591571 9.545583881081606 0 0 0
146 1 1 0.5897 6.452563537074771 6.839480341241824 5.881316644331301 0 0 0
256 1 2 -1.1794 3.11783200770036 9.593327284775347 10.49827563537136 0 0 0
258 1 1 0.5897 3.9452048089317437 9.983858378134219 10.216781608224112 0 0 0
651 1 1 0.5897 3.468488376837886 6.5821022852411035 9.819213051895286 0 0 0
257 1 1 0.5897 3.1116069847693435 8.726189570975583 10.092936115657032 0 0 0
577 1 2 -1.1794 4.938576014708165 10.74548962130051 6.754921444167935 0 0 0
820 1 2 -1.1794 7.529098287461008 9.416662094169865 10.42948859670953 0 0 0
795 1 1 0.5897 3.540712636815942 9.929375837203485 6.266569904839174 0 0 0
165 1 1 0.5897 9.008020843407884 6.230032357554004 5.891874194538401 0 0 0
578 1 1 0.5897 5.624586377792566 10.300438497490834 6.257290325648778 0 0 0
528 1 1 0.5897 7.683102459874488 6.510214007309973 9.374334453973502 0 0 0
551 1 1 0.5897 0.6268887521548551 10.8733657376144 7.404689637137994 0 0 0
13 1 2 -1.1794 0.652792645220899 10.747461581770292 9.257585226675939 0 0 0
687 1 1 0.5897 4.15534163669817 6.050148515713731 6.054200503198341 0 0 0
552 1 1 0.5897 0.8856244398750824 11.749960502986948 6.197788331809802 0 0 0
14 1 1 0.5897 0.5496806205334417 11.67603323439031 9.465773840104985 0 0 0
579 1 1 0.5897 4.928145972694919 11.636486893055043 6.405291335717401 0 0 0
793 1 2 -1.1794 2.8917900867820236 9.434630864822294 5.766152203454023 0 0 0
826 1 2 -1.1794 7.3559238814908925 7.267340780493347 13.844720759418745 0 0 0
827 1 1 0.5897 6.445380728259553 7.029281904014084 13.669907638752425 0 0 0
332 1 1 0.5897 2.5309029908605383 7.786072802128253 13.690943044760596 0 0 0
797 1 1 0.5897 3.2078847962955845 9.597216346002176 12.218349031368772 0 0 0
796 1 2 -1.1794 3.2100618237650735 9.564648818448687 13.175037391067175 0 0 0
798 1 1 0.5897 2.432605055760617 10.059544576751502 13.433812201029534 0 0 0
722 1 1 0.5897 4.623105913748571 10.805295700442505 13.588415960115288 0 0 0
225 1 1 0.5897 2.909736967802223 7.077639276929888 15.859466189243411 0 0 0
723 1 1 0.5897 5.26958757594261 11.332902900273982 14.851640148348643 0 0 0
828 1 1 0.5897 7.446444262868603 7.188766902076787 14.794423010858127 0 0 0
259 1 2 -1.1794 0.7632872595703536 10.608547135028688 14.115464219442677 0 0 0
331 1 2 -1.1794 2.4719026640571236 6.882650705938005 14.001708208023045 0 0 0
333 1 1 0.5897 3.2240184828785496 6.442889456549328 13.60517967853718 0 0 0
721 1 2 -1.1794 5.370969645437304 11.31513512826009 13.899955678649683 0 0 0
475 1 2 -1.1794 7.5598665961464055 9.831002659968107 13.1432036835114 0 0 0
476 1 1 0.5897 6.795599230331356 10.350497045564993 13.392840981775489 0 0 0
477 1 1 0.5897 7.346709239713975 8.940801187238735 13.423068604487135 0 0 0
366 1 1 0.5897 1.0381104732719943 6.234364319005468 13.281824693822086 0 0 0
261 1 1 0.5897 0.5668920341105703 10.776427146616648 15.037178543327338 0 0 0
520 1 2 -1.1794 7.540542991132485 7.154639769814941 16.465165271333923 0 0 0
851 1 1 0.5897 8.518330831845711 6.064860761779691 13.245972743271206 0 0 0
760 1 2 -1.1794 4.912327337285167 6.074218818201888 13.145798590667278 0 0 0
821 1 1 0.5897 7.68968076974554 9.714565778900203 11.324898738064794 0 0 0
522 1 1 0.5897 7.4196858188613515 8.091187192043378 16.621656094283743 0 0 0
445 1 2 -1.1794 0.5449977533622585 11.024541418735371 16.720501284229847 0 0 0
141 1 1 0.5897 7.045111757078342 9.009668849175524 20.449438276022512 0 0 0
679 1 2 -1.1794 4.980266206628487 11.316942601164811 16.752304474598276 0 0 0
161 1 1 0.5897 6.746046784639959 6.89224186769864 21.230874840146704 0 0 0
627 1 1 0.5897 2.0023166839439472 10.340954424586382 17.53876347179638 0 0 0
361 1 2 -1.1794 5.152704298692904 11.12210899064619 21.71590058334079 0 0 0
647 1 1 0.5897 1.2664344335186677 6.12223609416129 20.95789060714513 0 0 0
224 1 1 0.5897 2.92492082774112 7.969051093923325 17.08304574294162 0 0 0
140 1 1 0.5897 6.245146861057669 10.294724081259488 20.473711050113074 0 0 0
160 1 2 -1.1794 7.502503943658824 7.4000019399364225 21.524533861925867 0 0 0
690 1 1 0.5897 2.135491558691951 10.141345407918944 21.00372371532307 0 0 0
625 1 2 -1.1794 2.7628487664322336 9.870839432183942 17.880633981633174 0 0 0
688 1 2 -1.1794 2.889531400857217 9.705198462440451 20.606849155644305 0 0 0
4 1 2 -1.1794 2.7082813236972556 6.925897556423428 21.324412789774634 0 0 0
9 1 1 0.5897 6.426599210025778 10.316458037064518 16.722281550541744 0 0 0
689 1 1 0.5897 3.649203044367226 10.116740019800673 21.018985571824167 0 0 0
246 1 1 0.5897 8.872627440533211 10.915385160569565 16.681264294269162 0 0 0
626 1 1 0.5897 2.660832929685889 9.908719789868465 18.83166367808043 0 0 0
139 1 2 -1.1794 6.9692249915104565 9.862245998509591 20.020981987538676 0 0 0
6 1 1 0.5897 2.703290030716853 7.8564596337422214 21.10024511427556 0 0 0
711 1 1 0.5897 9.083778481730826 6.505959969694888 17.085676860697035 0 0 0
8 1 1 0.5897 7.188598295285217 9.810612327844225 17.928730390932238 0 0 0
7 1 2 -1.1794 7.170846181851687 9.768977549113066 16.972566762040003 0 0 0
680 1 1 0.5897 4.2364631148915635 10.766576647443127 16.997526046211533 0 0 0
462 1 1 0.5897 8.974257630946713 6.427148912226195 20.903038777417137 0 0 0
5 1 1 0.5897 3.4672324738125164 6.571511455794958 20.8610462607948 0 0 0
279 1 1 0.5897 4.625105397779785 6.413261659976598 17.317123969973537 0 0 0
394 1 2 -1.1794 0.6304302540557948 10.792211239765306 21.945786554430413 0 0 0
287 1 1 0.5897 8.598913116980146 10.742449683083516 21.110436655574382 0 0 0
521 1 1 0.5897 6.898082498011491 6.731313910741143 17.034668938215873 0 0 0
223 1 2 -1.1794 3.0369217191145945 7.059083163789939 16.808034865517413 0 0 0
277 1 2 -1.1794 5.390604865462222 5.982382092457875 17.697508032238645 0 0 0
572 1 1 0.5897 1.5060249180650909 6.447738216921131 17.680236654499417 0 0 0
373 1 2 -1.1794 0.9268537600930273 13.60434953786356 2.9077784222191263 0 0 0
173 1 1 0.5897 4.627270046522969 13.951619428494226 3.187031559928728 0 0 0
172 1 2 -1.1794 5.443195821597824 13.509917192935477 3.422578458425911 0 0 0
200 1 1 0.5897 5.452286635768938 13.432735913765454 5.122565568015144 0 0 0
558 1 1 0.5897 3.100983542606104 14.874338155025752 1.242269116619618 0 0 0
556 1 2 -1.1794 3.224394097048808 14.90524292148948 2.1910154832441933 0 0 0
557 1 1 0.5897 2.507825823769646 14.37748993662436 2.5435594208982937 0 0 0
478 1 2 -1.1794 7.322692775833064 14.967207895906473 2.1783225321393473 0 0 0
174 1 1 0.5897 5.357154831868397 12.632369624676835 3.050118321351397 0 0 0
293 1 1 0.5897 3.1207943550855406 16.63717264828431 2.982538530864196 0 0 0
479 1 1 0.5897 8.054748285276357 14.383306984213116 2.3768975573982427 0 0 0
449 1 1 0.5897 7.37998226325721 17.010750492944446 2.6252580832241406 0 0 0
480 1 1 0.5897 6.586602991290872 14.605789601956662 2.67212977544027 0 0 0
374 1 1 0.5897 0.980027160407754 13.649332156322151 3.8624867191371135 0 0 0
375 1 1 0.5897 0.13249199342538878 14.091367390513854 2.688425736046483 0 0 0
308 1 1 0.5897 7.678505128403404 17.483283904710763 4.71470116608988 0 0 0
292 1 2 -1.1794 3.1203372695246823 17.557685109017527 3.2449552667481987 0 0 0
317 1 1 0.5897 7.068719227710709 15.425856373965011 0.25437603810977005 0 0 0
294 1 1 0.5897 3.073050540200663 17.534753278441613 4.2007536362170015 0 0 0
384 1 1 0.5897 3.032710767076903 16.566096217076602 10.091213255243158 0 0 0
59 1 1 0.5897 9.061321482698254 13.501715612719268 10.161476750424308 0 0 0
454 1 2 -1.1794 5.096967330548939 13.666997078996589 10.43448474089766 0 0 0
201 1 1 0.5897 6.090242004843023 13.871528499677702 6.423535531859105 0 0 0
811 1 2 -1.1794 2.8814825153387336 14.906220551280956 9.590374637017678 0 0 0
18 1 1 0.5897 3.892272006272413 14.592682150772434 6.499439595445975 0 0 0
813 1 1 0.5897 2.1243573278860595 14.505261426548483 10.01732964840681 0 0 0
17 1 1 0.5897 2.9846796156140583 14.993944046284621 7.6428220291017235 0 0 0
519 1 1 0.5897 8.544421208456708 14.541618888206793 6.366574065396294 0 0 0
766 1 2 -1.1794 0.5294291122534647 13.49991915578682 10.323004910683972 0 0 0
377 1 1 0.5897 6.766854786312912 14.352048399935073 9.782078486172551 0 0 0
518 1 1 0.5897 7.523114067906952 15.652361655567827 6.489638318442154 0 0 0
382 1 2 -1.1794 3.0700229798358962 17.441435551406066 10.476708644903956 0 0 0
812 1 1 0.5897 3.637669886258052 14.47289703084268 9.986238945508372 0 0 0
456 1 1 0.5897 5.068011129691233 12.714936334922896 10.339893503143095 0 0 0
376 1 2 -1.1794 7.661152772436665 14.66984299117505 9.657378222034284 0 0 0
16 1 2 -1.1794 3.089593772077469 15.076194617099054 6.694918002300821 0 0 0
517 1 2 -1.1794 7.707305865881635 14.758176489045125 6.7772752012839454 0 0 0
186 1 1 0.5897 7.759139215198389 16.328768893769965 10.410438056798373 0 0 0
378 1 1 0.5897 7.774549932931436 14.70083918363946 8.707384597991442 0 0 0
656 1 1 0.5897 1.8258071294787923 13.892816064480417 6.180809094551907 0 0 0
239 1 1 0.5897 3.207936503577664 16.710649225592608 6.346769239444048 0 0 0
307 1 2 -1.1794 7.682841540924794 17.29387952855504 5.652999032105501 0 0 0
184 1 2 -1.1794 7.68512556692725 17.244174907066053 10.680182819448502 0 0 0
657 1 1 0.5897 0.3158240295282645 13.937186996843879 6.080169914338088 1 0 0
199 1 2 -1.1794 5.2739670467664554 13.530423108429234 6.05795518388572 0 0 0
655 1 2 -1.1794 1.087475653832652 13.513759034893905 5.703859214408288 0 0 0
185 1 1 0.5897 8.484707987904363 17.656216998466007 10.3527857643012 0 0 0
309 1 1 0.5897 8.579478678624636 17.4805930232757 5.931382690898965 0 0 0
238 1 2 -1.1794 3.1351643960088142 17.606418943928638 6.017354251049532 0 0 0
296 1 1 0.5897 7.367227156515732 15.044665351014194 15.142658529790054 0 0 0
232 1 2 -1.1794 2.498546227965844 14.912432054221528 13.787834777110676 0 0 0
234 1 1 0.5897 2.5004977282513194 14.882597251622375 14.744610216270537 0 0 0
606 1 1 0.5897 2.4977034878435527 16.69045036916837 13.342923552773195 0 0 0
427 1 2 -1.1794 5.045432363071479 13.95374964121854 13.241823046768035 0 0 0
233 1 1 0.5897 3.284543795516585 14.430169944617061 13.531087032841851 0 0 0
639 1 1 0.5897 1.4682823426240827 13.722005947415514 13.16882061540922 0 0 0
429 1 1 0.5897 5.861407208809073 14.27472494767307 13.625840062696438 0 0 0
428 1 1 0.5897 5.108068850893048 13.000834862799348 13.307106246685366 0 0 0
455 1 1 0.5897 5.399517584245543 13.809984204220024 11.331326222010118 0 0 0
638 1 1 0.5897 0.9013786979430046 12.3429153538944 13.430770345929398 0 0 0
295 1 2 -1.1794 7.3558435433536 15.079323277841663 14.186120533423447 0 0 0
270 1 1 0.5897 7.059243978834689 16.821834787295373 13.539607899931903 0 0 0
297 1 1 0.5897 8.244670949612496 14.836559935414597 13.926576438821614 0 0 0
637 1 2 -1.1794 0.7251540727979634 13.156542845364644 12.958345955021104 0 0 0
269 1 1 0.5897 7.438525410560645 17.6339274247601 12.319505764430101 0 0 0
767 1 1 0.5897 0.4256280202960561 13.335049964792653 11.26021661392455 0 0 0
604 1 2 -1.1794 2.6101103098193215 17.60222962762644 13.074161752034685 0 0 0
605 1 1 0.5897 2.746342271328517 17.558411412364464 12.12768527196853 0 0 0
823 1 2 -1.1794 2.541375132170783 14.966460704619099 16.47930484613483 0 0 0
446 1 1 0.5897 0.4051596955765601 11.948290420525826 16.92868434392375 0 0 0
681 1 1 0.5897 4.7925460308413985 12.166118758165519 17.152167191376215 0 0 0
53 1 1 0.5897 0.7762520533923619 13.564087353453854 18.76297335498206 0 0 0
664 1 2 -1.1794 2.893149641743258 14.782112027601656 21.612777072944624 0 0 0
51 1 1 0.5897 8.165458618809316 14.39730039517317 17.01506671696061 0 0 0
584 1 1 0.5897 3.0197165597379545 16.81309574356372 16.97332457797316 0 0 0
125 1 1 0.5897 5.131204209718807 13.669271839450483 18.88012782609448 0 0 0
49 1 2 -1.1794 7.357833348026734 14.906583839329576 16.946761426407043 0 0 0
684 1 1 0.5897 4.500428192946905 13.9362056884556 21.105867766187018 0 0 0
316 1 2 -1.1794 7.425670771725149 15.275595360339315 21.57569416537823 0 0 0
666 1 1 0.5897 2.8029085914344556 15.649802908553898 21.218816354834637 0 0 0
159 1 1 0.5897 8.130337372466645 17.59757939823323 19.686589272263127 0 0 0
126 1 1 0.5897 5.734430691166778 14.095701517812524 17.558639018608737 0 0 0
318 1 1 0.5897 7.720783410325965 16.138659535838112 21.285437180605086 0 0 0
665 1 1 0.5897 2.1444096769737273 14.28794673494583 21.278900090182383 0 0 0
452 1 1 0.5897 0.5602070023269885 12.468037953729212 21.03358368317668 0 0 0
683 1 1 0.5897 5.995967873878475 14.104987505746447 20.941449813966237 0 0 0
451 1 2 -1.1794 0.7880555768236621 13.303134540226862 20.625007407530283 0 0 0
682 1 2 -1.1794 5.270694887272166 13.522160061670046 20.716547483988357 0 0 0
124 1 2 -1.1794 4.930771036584144 13.750582130199442 17.947643880431748 0 0 0
825 1 1 0.5897 1.7762340382240798 14.495950109679226 16.810191044635403 0 0 0
52 1 2 -1.1794 0.5114494228840096 13.584121469590045 17.843304005646004 0 0 0
362 1 1 0.5897 5.2261221828293944 12.01547018591517 21.380152347344527 0 0 0
824 1 1 0.5897 3.2832762967679194 14.56893213661894 16.935207125072374 0 0 0
50 1 1 0.5897 7.525611111466484 15.693253640288074 17.465647267313877 0 0 0
117 1 1 0.5897 8.732177457048024 14.347100107231517 20.816176304661667 0 0 0
715 1 2 -1.1794 3.184625696396974 17.612106620788772 20.1955433155709 0 0 0
716 1 1 0.5897 3.1907516725023153 17.568214424659928 19.23933510797606 0 0 0
610 1 2 -1.1794 7.995275853683186 17.57752146448444 17.86067659035038 0 0 0
583 1 2 -1.1794 3.1783998938448548 17.677602334567144 17.35236147025602 0 0 0
267 1 1 0.5897 6.131341629433245 21.976519854979497 2.831448440871844 0 0 0
696 1 1 0.5897 1.3355448427627674 21.737650006508556 2.661966772306496 0 0 0
266 1 1 0.5897 4.629773591790722 22.169935306849588 2.8275386578083572 0 0 0
265 1 2 -1.1794 5.31912052825994 21.603233688013255 3.173872125038509 0 0 0
818 1 1 0.5897 8.280741220076768 22.321123160439146 2.537760885813383 0 0 0
228 1 1 0.5897 5.018068927811126 19.898959981094144 2.3846925382283284 0 0 0
345 1 1 0.5897 1.0270086472309956 18.747267476154157 1.0901694683486998 0 0 0
344 1 1 0.5897 1.5717933985666233 18.231980129181128 2.4053589645388103 0 0 0
413 1 1 0.5897 0.5710106819227174 20.98646970184898 4.807290310112069 0 0 0
226 1 2 -1.1794 5.117768259777142 19.099654604349237 1.8675809258634306 0 0 0
187 1 2 -1.1794 3.061920348922908 22.635537237652873 2.121455054921649 0 0 0
817 1 2 -1.1794 7.577066020982448 22.77619472513095 2.0751010399950873 0 0 0
227 1 1 0.5897 4.5097617430208095 18.477789803964026 2.267425989611964 0 0 0
450 1 1 0.5897 6.894448481651512 18.43776196276238 2.484726457189553 0 0 0
249 1 1 0.5897 5.3233972477522356 21.611847901828884 5.028530490574898 0 0 0
189 1 1 0.5897 3.4171774405670603 22.514302971980705 1.240825735281898 0 0 0
695 1 1 0.5897 0.6641875072316354 20.380763151061032 2.657415591672519 0 0 0
343 1 2 -1.1794 0.7787930788865475 18.58278394825817 1.9999098719289927 0 0 0
694 1 2 -1.1794 0.5619245399400674 21.27477691671464 2.9837583574046103 0 0 0
498 1 1 0.5897 7.6382992385848985 22.833451004977118 0.12561171796442283 0 0 0
448 1 2 -1.1794 7.505322192140202 17.891249530841964 2.9791311031640353 0 0 0
602 1 1 0.5897 5.6982472190927025 18.7516145292461 0.11678412790684654 0 0 0
555 1 1 0.5897 5.159245567199218 20.060979843758258 9.882833609621034 0 0 0
86 1 1 0.5897 7.46606585231602 22.633540122418726 8.676485868064873 0 0 0
87 1 1 0.5897 8.253168816338867 21.87452727744437 9.723572041838693 0 0 0
37 1 2 -1.1794 3.1560490584888283 22.580853383454418 9.390922336970448 0 0 0
700 1 2 -1.1794 2.7168704822937366 22.368036064849846 6.59783676991931 0 0 0
33 1 1 0.5897 6.815340875834321 22.242578375274505 6.715561002839605 0 0 0
32 1 1 0.5897 8.29219254037303 22.137366836125686 6.399406752288648 0 0 0
341 1 1 0.5897 1.5147087937744188 18.257248392700394 6.7490763040739825 0 0 0
39 1 1 0.5897 3.8161715595843466 21.945960130408213 9.669169640381842 0 0 0
553 1 2 -1.1794 5.12179755533329 20.917885090683725 10.307724108641631 0 0 0
240 1 1 0.5897 3.978527742290581 18.00817466158173 6.2262431140543 0 0 0
85 1 2 -1.1794 7.418325926021189 22.32022701620813 9.579724449329099 0 0 0
94 1 2 -1.1794 0.7120023178152514 21.25646215661632 9.988076193671567 0 0 0
102 1 1 0.5897 5.506196144257214 18.423491261262267 8.596980483617635 0 0 0
414 1 1 0.5897 0.4814394705101204 20.286660220239238 6.146788127067775 0 0 0
385 1 2 -1.1794 5.498366423560812 18.793190759491207 6.760718670349321 0 0 0
387 1 1 0.5897 5.331635690254327 19.700300845813384 6.504650785694534 0 0 0
38 1 1 0.5897 2.3278279581018557 22.10348694949229 9.440729470773357 0 0 0
404 1 1 0.5897 1.4947147775430594 18.171579118998384 10.011709897631738 0 0 0
386 1 1 0.5897 6.369505367827639 18.601939243142656 6.413041818461706 0 0 0
340 1 2 -1.1794 0.7822006413475955 18.789976626469574 7.058787770191576 0 0 0
405 1 1 0.5897 0.6506295008138518 19.426032918301676 9.93572004153693 0 0 0
247 1 2 -1.1794 5.3514372259973975 21.507724059735565 5.9796769836629045 0 0 0
554 1 1 0.5897 5.841726956448809 21.41192239025439 9.915396676670115 0 0 0
403 1 2 -1.1794 0.6409082310205341 18.493073251776515 9.72195152233543 0 0 0
702 1 1 0.5897 1.882142889888892 22.007434822025445 6.298473567611669 0 0 0
31 1 2 -1.1794 7.645950188347944 22.70770776830889 6.815790333625118 0 0 0
100 1 2 -1.1794 5.410026050220479 18.289836998072857 9.539994102223927 0 0 0
101 1 1 0.5897 6.271576019204317 17.98879393931249 9.828818248628142 0 0 0
701 1 1 0.5897 2.6160482080520917 22.451329008670818 7.546098126258066 0 0 0
342 1 1 0.5897 0.711257543032583 18.582040222717353 7.990464444662087 0 0 0
412 1 2 -1.1794 0.33926283174930083 21.13372267808828 5.724300291713846 0 0 0
248 1 1 0.5897 4.507609144582782 21.842985665831836 6.282781421803255 0 0 0
96 1 1 0.5897 0.6766577529567677 21.20570830615502 10.943308760502472 0 0 0
383 1 1 0.5897 3.915014929350226 17.791951853696002 10.194869779269306 0 0 0
788 1 1 0.5897 7.651079178354494 22.67606796495135 14.689880923853929 0 0 0
88 1 2 -1.1794 5.176722175614392 21.501475241387677 13.055066801980733 0 0 0
381 1 1 0.5897 1.3807000394969429 21.59741997426895 13.022808681699322 0 0 0
90 1 1 0.5897 5.040930813676383 20.586267336557146 13.300346388231587 0 0 0
763 1 2 -1.1794 4.935896681854662 18.912567895514922 13.82364019978121 0 0 0
738 1 1 0.5897 3.585364628828428 22.124691397354983 13.680811072473594 0 0 0
89 1 1 0.5897 5.13778195801254 21.501938379247004 12.098626588712847 0 0 0
787 1 2 -1.1794 7.51758011355006 22.775062850619545 13.747148137923316 0 0 0
764 1 1 0.5897 4.143597419858359 18.431627454103715 13.58436879286052 0 0 0
512 1 1 0.5897 8.92685978920742 18.18251834039705 13.722049269680236 0 0 0
503 1 1 0.5897 1.14347592816061 18.40798524981751 13.835574146024923 0 0 0
736 1 2 -1.1794 2.7295529561657714 22.505911518165664 13.877212999231553 0 0 0
350 1 1 0.5897 2.96439466207836 22.685347596708326 15.575049016516834 0 0 0