LAMMPS (30 Jul 2021)
  using 1 OpenMP thread(s) per MPI task
package omp 0
using multi-threaded neighbor list subroutines
echo both

include		in.partitions
variable        pid world 0
include		in.temp
variable        temperature equal 227.90
variable	tempDamp equal 100.0
include		in.pressure
variable        pressure equal -125.0
variable        pressureDamp equal 1000.0 # This is 1 ps
include		in.seed
variable        seed world 745823

units		real
atom_style	full
read_restart	restart.lmp.${pid}
read_restart	restart.lmp.0
Reading restart file ...
  restart file = 30 Jul 2021, LAMMPS = 30 Jul 2021
  restoring atom style full from restart
  orthogonal box = (-0.17944031 0.88017428 -0.21891676) to (18.387013 22.749004 22.432113)
  4 by 4 by 4 MPI processor grid
  restoring pair style lj/cut/tip4p/long/omp from restart
  restoring bond style harmonic/omp from restart
  restoring angle style harmonic/omp from restart
  864 atoms
  576 bonds
  288 angles
Finding 1-2 1-3 1-4 neighbors ...
  special bond factors lj:    0        0        0       
  special bond factors coul:  0        0        0       
     2 = max # of 1-2 neighbors
     1 = max # of 1-3 neighbors
     1 = max # of 1-4 neighbors
     2 = max # of special neighbors
  special bonds CPU = 1.437 seconds
  read_restart CPU = 1.704 seconds
include 	in.setup
variable	out_freq equal 1000
variable	out_freq2 equal 10000
variable	out_freq3 equal 1000

timestep	2.0

neigh_modify    delay 7 every 1

include		in.tip4p
# This is TIP4P/Ice

# create groups ###
group ox type 2
288 atoms in group ox
group hy type 1
576 atoms in group hy

# set charges - beside manually ###
set group ox charge -1.1794
Setting atom values ...
  288 settings made for charge
set group hy charge 0.5897
Setting atom values ...
  576 settings made for charge

# ### TIP3P Potential Parameters ###
pair_style lj/cut/tip4p/long/omp 2 1 1 1 0.1577 8.5
pair_coeff 1 1*2 0.000 0.000
pair_coeff 2 2 0.21084 3.1668
bond_style  harmonic
bond_coeff  1 450 0.9572
angle_style harmonic
angle_coeff 1 55 104.52
kspace_style pppm/tip4p/omp 1.0e-5
pair_modify tail yes

thermo          ${out_freq}
thermo          1000
thermo_style    custom step temp pe etotal epair emol press lx ly lz vol pxx pyy pzz pxy pxz pyz enthalpy

restart 	${out_freq3} restart.lmp.${pid} restart2.lmp.${pid}
restart 	1000 restart.lmp.${pid} restart2.lmp.${pid}
restart 	1000 restart.lmp.0 restart2.lmp.${pid}
restart 	1000 restart.lmp.0 restart2.lmp.0


include         in.dump
dump            myDump all atom ${out_freq2} dump.water.${pid}
dump            myDump all atom 10000 dump.water.${pid}
dump            myDump all atom 10000 dump.water.0
dump            myDump2 all dcd ${out_freq2} dump.dcd
dump            myDump2 all dcd 10000 dump.dcd
dump_modify     myDump append yes
dump_modify     myDump2 append yes


variable natoms 	equal  "count(all)"                        # NUMBER ATOMS
variable H      	equal  "enthalpy/v_natoms"                 # ENTHALPY-per-atom
variable Vol      	equal  "vol/v_natoms"                 # volume-per-atom
fix AVG all 		ave/time ${out_freq} 1 ${out_freq} v_Vol v_H file vol_enthalpy.dat
fix AVG all 		ave/time 1000 1 ${out_freq} v_Vol v_H file vol_enthalpy.dat
fix AVG all 		ave/time 1000 1 1000 v_Vol v_H file vol_enthalpy.dat


timer           timeout 23:50:00 every 1000
New timer settings: style=normal  mode=nosync  timeout=23:50:00

fix 		1 all shake 1e-6 200 0 b 1 a 1
       0 = # of size 2 clusters
       0 = # of size 3 clusters
       0 = # of size 4 clusters
     288 = # of frozen angles
  find clusters CPU = 0.433 seconds
fix             2 all nph iso ${pressure} ${pressure} ${pressureDamp}
fix             2 all nph iso -125 ${pressure} ${pressureDamp}
fix             2 all nph iso -125 -125 ${pressureDamp}
fix             2 all nph iso -125 -125 1000
fix             3 all temp/csvr ${temperature} ${temperature} ${tempDamp} ${seed}
fix             3 all temp/csvr 227.9 ${temperature} ${tempDamp} ${seed}
fix             3 all temp/csvr 227.9 227.9 ${tempDamp} ${seed}
fix             3 all temp/csvr 227.9 227.9 100 ${seed}
fix             3 all temp/csvr 227.9 227.9 100 745823

run             250000
PPPM initialization ...
  extracting TIP4P info from pair style
  using 12-bit tables for long-range coulomb (../kspace.cpp:340)
  G vector (1/distance) = 0.37229804
  grid = 24 25 27
  stencil order = 5
  estimated absolute RMS force accuracy = 0.0030715328
  estimated relative force accuracy = 9.2498299e-06
  using double precision FFTW3
  3d grid and FFT values/proc = 2730 384
Last active /omp style is kspace_style pppm/tip4p/omp
Neighbor list info ...
  update every 1 steps, delay 7 steps, check yes
  max neighbors/atom: 2000, page size: 100000
  master list distance cutoff = 10.8154
  ghost atom cutoff = 10.8154
  binsize = 5.4077, bins = 4 5 5
  1 neighbor lists, perpetual/occasional/extra = 1 0 0
  (1) pair lj/cut/tip4p/long/omp, perpetual
      attributes: half, newton on, omp
      pair build: half/bin/newton/omp
      stencil: half/bin/3d
      bin: standard
Per MPI rank memory allocation (min/avg/max) = 9.206 | 9.214 | 9.222 Mbytes
Step Temp PotEng TotEng E_pair E_mol Press Lx Ly Lz Volume Pxx Pyy Pzz Pxy Pxz Pyz Enthalpy 
16500000    233.90973   -4014.8724   -3613.9591   -4014.8724            0    476.79016    18.566453    21.868829    22.651029    9196.9202   -60.139616    412.00426    1078.5058    8.9490478    634.80995   -89.810325   -3550.0084 
16501000    224.88402   -4053.4753   -3668.0318   -4053.4753            0    686.65626    18.497847     21.78802     22.56733    9095.3441    113.72147    1083.3559    862.89143    822.70931    1101.8608   -161.07906   -3576.9494 
16502000    234.17889   -4073.4564   -3672.0818   -4073.4564            0   -69.426887     18.55372    21.853831    22.635494    9178.0105   -898.83959   -947.59437    1638.1533    8.4808451    1367.4406    198.14478   -3681.3747 
16503000    234.69231   -4072.8396    -3670.585   -4072.8396            0    -1405.061    18.522806    21.817419     22.59778    9132.2112   -1725.8435    -2010.065    -479.2745    620.30338    185.95203   -470.03166   -3857.7165 
16504000    213.32409   -4078.9971    -3713.367   -4078.9971            0    449.24501    18.525098    21.820119    22.600577    9135.6019    259.56924   -90.583983    1178.7498   -39.223059   -127.43176   -653.32829   -3653.5125 
16505000    235.77849   -4061.3846   -3657.2683   -4061.3846            0   -1933.9308     18.62042    21.932395    22.716869    9277.3518   -2291.2332     -2457.03   -1053.5292    269.83681   -30.100052      -89.866   -3918.9305 
16506000    233.95476   -4052.3337   -3651.3433   -4052.3337            0   -1123.8125    18.509297    21.801506    22.581299    9112.2438   -1547.9036   -1891.0769    67.542918    198.39407    -616.6116   -115.99601   -3800.6898 
16507000    237.41382   -4062.5611   -3655.6419   -4062.5611            0   -872.46204    18.487296    21.775593    22.554458    9079.7891   -1630.5192    131.04604    -1117.913   -445.08984    215.14623   -583.47787   -3771.1728 
16508000    234.86025   -4048.8999   -3646.3574   -4048.8999            0    435.29487    18.406564    21.680501    22.455965    8961.3566   -1864.1436    2048.8842     1121.144    1182.1327    401.45323    1485.1322   -3589.4678 
16509000    234.04537   -4035.8197   -3634.6739   -4035.8197            0    955.98702    18.438442    21.718049    22.494856    9007.9973    1320.5564    627.58279    919.82192   -263.16475   -156.11034    955.37085   -3509.0836 
16510000    228.01474   -4049.3644   -3658.5549   -4049.3644            0   -1729.0567    18.529009    21.824726    22.605348    9141.3892   -2801.1348   -1039.1386   -1346.8967    16.294032   -223.77557     1238.577   -3889.0689 
16511000    232.51684   -4068.1131   -3669.5872   -4068.1131            0   -398.71908    18.473364    21.759183    22.537461    9059.2771   -1579.0076   -20.692202    403.54259    1276.3572    328.45145    944.41387   -3722.2661 
16512000    241.52088   -4043.7201   -3629.7616   -4043.7201            0   -664.76021    18.521946    21.816406    22.596731    9130.9393   -1515.1947   -239.62261   -239.46335    387.36294    775.94659    -39.13107   -3718.2846 
16513000     234.7662   -4037.8533   -3635.4721   -4037.8533            0    523.05903     18.51075    21.803218    22.583072    9114.3905    -370.2402    597.04508    1342.3722    218.43692   -1067.9473   -284.77497   -3565.9449 
16514000    218.46973   -4051.1843   -3676.7346   -4051.1843            0   -1141.5844    18.625912    21.938864    22.723569    9285.5624     -2749.02   -1147.0482    471.31493   -202.67079    207.77113    340.77029   -3831.3284 
16515000    223.31445   -4039.5677   -3656.8144   -4039.5677            0   -537.18146     18.51082    21.803301    22.583157    9114.4937     -1318.85    242.24895   -534.94334    891.52866    395.98611    1136.0924   -3728.2195 
16516000    226.66832   -4047.8142   -3659.3125   -4047.8142            0    54.664031    18.561611    21.863125    22.645122    9189.7259    -1518.879    1091.5803    591.29079   -18.739911    1318.8226    678.74579   -3651.9862 
16517000    228.16694   -4058.5834   -3667.5131   -4058.5834            0   -1334.5773    18.544859    21.843394    22.624685    9164.8677   -2606.8226   -740.97327   -655.93619   -47.948385    418.79481    46.848004   -3845.8929 
16518000    224.11294   -4074.9168   -3690.7948   -4074.9168            0    671.98043    18.468614    21.753588    22.531666    9052.2913    1463.5518    416.84641     135.5431     641.3408   -1607.2773   -606.88936   -3602.0811 
16519000    236.34187   -4075.6083   -3670.5264   -4075.6083            0   -229.61899    18.520514    21.814719    22.594984    9128.8213   -1353.5609   -107.68022    772.38414    612.94046   -950.80378     190.0413   -3701.0966 
16520000    220.69435   -4068.6571   -3690.3946   -4068.6571            0    246.18216    18.488932     21.77752    22.556454    9082.2008   -45.159165    424.04798    359.65765     438.4895   -381.21634    163.11793   -3657.7866 
16521000    227.25608   -4079.5876   -3690.0784   -4079.5876            0   -971.88973    18.609643    21.919701    22.703721    9261.2517   -1593.8929    30.458432   -1352.2347    1655.3439   -478.21716     754.0613   -3821.3475 
16522000    235.94696   -4064.9651   -3660.5601   -4064.9651            0   -319.04463     18.53985    21.837494    22.618574    9157.4433   -784.36094     414.3102   -587.08315    324.92655    741.74216    580.19451   -3703.1691 
16523000    209.41419   -4056.3771   -3697.4484   -4056.3771            0     801.6813    18.462516    21.746405    22.524226    9043.3267     2494.108   -729.92376    640.85964    543.95105   -1194.8737    428.00634   -3591.7165 
16524000    231.38277   -4022.5335   -3625.9514   -4022.5335            0   -174.96383    18.537564    21.834801    22.615784    9154.0559   -942.36498   -26.492713     443.9662     547.6225   -1262.5932    1326.3548   -3649.3095 
16525000    231.60547   -4059.5556   -3662.5917   -4059.5556            0     164.6312    18.490945    21.779891     22.55891    9085.1673    43.931193   -9.8155322    459.77794   -159.51738   -39.753008   -695.04822   -3640.7785 
16526000    232.69561   -4038.8009   -3639.9686   -4038.8009            0    20.708031    18.565591    21.867813    22.649977    9195.6385   -573.25132   -627.92417    1263.2996   -327.09652   -435.44119    143.28721   -3637.1915 
16527000    230.14522    -4033.377    -3638.916    -4033.377            0     881.4215    18.448138     21.72947    22.506685    9022.2154    32.566378    606.23364    2005.4645    495.66893     862.5844   -581.74015   -3522.9388 
16528000    230.13126   -4070.2416   -3675.8045   -4070.2416            0    907.35477    18.471994    21.757569    22.535789    9057.2615   -137.41504    343.65814    2515.8212    155.26218   -839.90559     1496.497   -3555.9513 
16529000    210.75214   -4056.4815   -3695.2596   -4056.4815            0   -911.78371    18.558695    21.859692    22.641565    9185.3968   -1029.6699   -807.33842   -898.34281    750.30065   -733.81211   -319.94635   -3817.4017 
16530000    241.23535   -4053.4052    -3639.936   -4053.4052            0   -892.97161    18.601885    21.910564    22.694256    9249.6749   -1859.3756   -1304.6578    485.11852    203.72282   -604.83605   -478.59837   -3760.3953 
16531000    241.43124   -4052.8462   -3639.0413   -4052.8462            0    524.75751    18.460374    21.743882    22.521613    9040.1795    1046.2052   -97.275587    625.34293    125.88806    110.88858    126.81392   -3569.8563 
16532000    230.51852   -4044.6004   -3649.4995   -4044.6004            0   -922.60582    18.551321    21.851006    22.632568    9174.4513   -2728.7255   -158.49927    119.40731     918.4159   -6.8664574   -450.56778   -3772.9442 
16533000     224.6841    -4039.527   -3654.4262    -4039.527            0   -617.26315    18.527084    21.822457    22.602999    9138.5391    432.04478   -557.39273   -1726.4415   -312.99827   -626.21214   -487.58946   -3736.6927 
16534000    228.12258   -4088.5467   -3697.5524   -4088.5467            0   -65.488668    18.505784    21.797369    22.577013    9107.0568   -100.74482   -1139.3876    1043.6665    179.54353    365.97997   -250.87907   -3706.2505 
16535000    218.62388   -4075.4726   -3700.7588   -4075.4726            0    459.23948    18.445091     21.72588    22.502968    9017.7455   -336.24954   -709.55654    2423.5245    925.56302   -1674.3725    475.30252   -3640.3621 
16536000       231.31   -4082.5892   -3686.1317   -4082.5892            0    2079.2939    18.369817    21.637218    22.411134    8907.7924    787.31537     3153.758    2296.8083   -508.04692   -514.72674   -460.99255   -3416.0086 
16537000    222.77481   -4028.1701   -3646.3416   -4028.1701            0    265.03093    18.507793    21.799736    22.579464    9110.0236   -352.86496   -345.10285    1493.0606    1536.9788    37.142708    200.15455   -3611.1295 
16538000    225.06067   -4047.8474   -3662.1011   -4047.8474            0    984.38408    18.377084    21.645778        22.42    8918.3681    235.23946     418.1602    2299.7526    753.36739   -1798.4053    643.25411   -3534.0669 
16539000    225.68098   -4046.9215    -3660.112   -4046.9215            0    364.08367    18.505794    21.797381    22.577026    9107.0721   -100.08729   -44.272762    1236.6111    925.74123   -436.00876    194.78226   -3611.7554 
16540000      224.823   -4053.0895   -3667.7505   -4053.0895            0   -818.86555     18.51592    21.809307    22.589379    9122.0289    -1348.407   -851.24951    -256.9401    759.83456    -98.63653    894.53673   -3776.6887 
16541000    227.62366   -4059.0785   -3668.9394   -4059.0785            0   -575.46881    18.496044    21.785897    22.565131    9092.6856    238.68885    -259.8425   -1705.2528    715.91273   -388.83822    419.01732   -3745.2508 
16542000    235.72895   -4077.7764   -3673.7451   -4077.7764            0    790.35671    18.489243    21.777886    22.556833    9082.6578   -296.64459    1556.0165    1111.6982    222.37519   -621.46931   -155.37598   -3569.0534 
16543000    236.30965   -4066.7794   -3661.7528   -4066.7794            0   -180.83301    18.487829     21.77622    22.555108    9080.5744   -765.92042    57.965463    165.45591    249.01106   -1542.0988   -184.64545   -3685.7007 
16544000    225.85946   -4054.0444    -3666.929   -4054.0444            0    484.22404     18.49271     21.78197    22.561063    9087.7693   -663.69851   -284.78133     2401.152    934.00684    729.88144    980.49206    -3602.752 
16545000    216.52027   -4084.8624   -3713.7541   -4084.8624            0    775.67606    18.436444    21.715695    22.492418    9005.0689    96.365813    1702.3341    528.32826    676.72069   -5.1684866    188.35967   -3611.8848 
16546000    233.61308   -4067.6173   -3667.2125   -4067.6173            0   -217.25224     18.56655    21.868943    22.651147    9197.0636    -1175.723    518.06732    5.8990187    682.65864   -504.30177   -1095.1414   -3696.3524 
16547000    216.70347   -4062.3756   -3690.9533   -4062.3756            0    90.421803     18.53616    21.833148    22.614072    9151.9766   -1428.9684     660.3627    1039.8711    671.12813   -377.46606    210.32846   -3678.8845 
16548000    235.51792   -4084.8408   -3681.1711   -4084.8408            0   -463.15077    18.527381    21.822807    22.603361    9138.9785   -830.95595   -950.48167    391.98531   -380.30634   -487.24423   -416.14782   -3742.9011 
16549000    225.85722   -4052.2489   -3665.1374   -4052.2489            0   -69.870325    18.461035     21.74466    22.522419    9041.1504    21.528712   -246.87908    15.739391     210.8194    514.91737   -84.545004   -3674.3502 
16550000    230.64137   -4087.6273   -3692.3159   -4087.6273            0    490.47605    18.492536    21.781765    22.560851     9087.512    434.12818    1650.7067   -613.40676    400.37614   -1178.7586     155.3086   -3627.3121 
16551000    234.03042   -4056.8593   -3655.7392   -4056.8593            0   -2027.5325    18.538142    21.835482     22.61649    9154.9122   -1206.4223   -2605.1858   -2270.9895    286.23565   -585.04466    214.77126   -3926.4452 
16552000    234.01368   -4090.1404    -3689.049   -4090.1404            0   -643.72978     18.50549    21.797023    22.576655    9106.6231   -439.58297   -561.66015   -929.94624     120.3155   -1188.4575    240.55178   -3774.5432 
16553000    225.20698   -4085.4504   -3699.4534   -4085.4504            0    771.95429    18.456692    21.739545    22.517121    9034.7712    371.49394    278.71856    1665.6504    467.02847   -1144.0495    77.649182   -3597.7385 
16554000    239.90828   -4064.9568   -3653.7622   -4064.9568            0   -146.47219    18.487513    21.775848    22.554723    9080.1091   -1979.2044    784.73816    755.04965    1299.2158    205.27102   -349.23516   -3673.1586 
16555000     232.3435   -4082.7994   -3684.5706   -4082.7994            0   -272.71429    18.506842    21.798615    22.578304    9108.6191    -1194.963   -110.90689    487.72701    923.67505    798.09281   -517.91813   -3720.7979 
16556000    232.26092   -4047.1013    -3649.014   -4047.1013            0   -802.68532    18.500139     21.79072    22.570126    9098.7253   -517.37216    304.71553   -2195.3993    49.347508    275.57032   -665.71638   -3755.5268 
16557000    242.92605   -4096.1967   -3679.8298   -4096.1967            0   -108.90451    18.520846    21.815111    22.595389    9129.3128    375.13828   -284.38351    -417.4683   -307.50094     427.2352    -414.8635   -3694.3295 
16558000    221.77896   -4057.6523   -3677.5308   -4057.6523            0   -136.21881    18.552931    21.852903    22.634533     9176.841    1910.0823   -1284.6133   -1034.1254    417.26871    579.46234    81.240363   -3695.7616 
16559000    226.79526   -4058.9523    -3670.233   -4058.9523            0   -1675.7954     18.56623    21.868566    22.650757    9196.5884   -1445.0791   -1746.4295   -1835.8775    290.93844    795.86649   -119.04452   -3894.9954 
16560000    219.87441   -4084.4065   -3707.5493   -4084.4065            0   -1565.3951    18.596979    21.904784     22.68827    9242.3575   -2549.3832   -749.50199      -1397.3    523.91279    592.38339    1530.5379   -3918.5494 
16561000    227.50551   -4073.5226    -3683.586   -4073.5226            0    320.38571    18.477717     21.76431    22.542771    9065.6824     1720.322   -302.25004   -456.91484    971.48545   -522.59683    694.72465   -3641.2266 
16562000    219.79317   -4036.0196   -3659.3016   -4036.0196            0    90.544849    18.554382    21.854611    22.636302    9178.9934    732.24907   -964.51724    503.90272   -510.95603     718.8445   -492.23247   -3647.1807 
16563000    236.44645   -4040.5243   -3635.2632   -4040.5243            0    269.67481    18.525754    21.820891    22.601376     9136.571     887.6476     41.91306   -120.53623    875.86443   -292.71813   -235.30195   -3599.3297 
16564000    234.44637   -4087.7515   -3685.9184   -4087.7515            0   -859.52437    18.500946    21.791671    22.571111    9099.9166   -1012.5785   -324.48262    -1241.512    585.25356   -410.22034    544.35028   -3799.9884 
16565000     224.7039   -4091.8432   -3706.7084   -4091.8432            0    1378.1418    18.384013    21.653939    22.428453    8928.4596    -260.1723    3269.0451    1125.5526    682.90482    130.27643    375.33926   -3527.2572 
16566000    237.71661   -4059.6828   -3652.2447   -4059.6828            0    1240.6051    18.476198     21.76252    22.540918    9063.4468    448.19418    1139.4165    2134.2048    1320.5066    303.18136    489.90503   -3488.2602 
16567000    209.53206   -4073.6442   -3714.5134   -4073.6442            0   -447.72606    18.504157    21.795452    22.575028    9104.6545   -472.63941   -56.764744   -813.77402    523.15115    446.94602    903.48184   -3773.9634 
16568000     233.8619   -4098.0813     -3697.25   -4098.0813            0    73.806944    18.495465    21.785214    22.564424    9091.8302   -27.728736    248.00206    1.1475083    388.62549   -196.30035   -340.20314   -3687.4636 
16569000    218.64891   -4101.3889   -3726.6322   -4101.3889            0   -515.10195    18.510416    21.802825    22.582664    9113.8967    112.04198    -1247.435   -409.91283    106.74656    401.15773    956.44695   -3795.0979 
16570000    230.37348   -4084.6618   -3689.8095   -4084.6618            0    678.62193    18.429145    21.707098    22.483513    8994.3777    2978.1516   -245.24763   -697.03819    548.99519   -390.09212   -97.711159   -3600.7921 
16571000    222.38338   -4077.1607   -3696.0032   -4077.1607            0    829.20025    18.436717    21.716018    22.492752    9005.4699    433.19844    681.02424    1373.3781    160.32874    778.59807    306.89405   -3587.0997 
16572000    238.47236   -4042.9101   -3634.1767   -4042.9101            0    748.24129    18.516849    21.810402    22.590512    9123.4025   -124.67382     1349.811    1019.5867   -604.33433    551.52789   -165.54844   -3534.6191 
16573000    217.00893   -4083.6507   -3711.7048   -4083.6507            0   -276.29435    18.547278    21.846244    22.627636    9168.4549    621.04081    298.74094   -1748.6648    908.50574   -338.85008    1426.3127   -3748.6488 
16574000    228.60493   -4095.5433   -3703.7223   -4095.5433            0     573.3029    18.490671    21.779568    22.558575    9084.7626   -478.84239    1217.4717    981.27935   -811.28399    607.92119    1267.9349   -3627.7643 
16575000    223.36257   -4076.6139   -3693.7781   -4076.6139            0   -687.49472    18.509366    21.801589    22.581384     9112.347   -594.16585    805.51488   -2273.8332    1062.9349   -429.71847    417.19699   -3785.1422 
16576000    219.96564    -4078.915   -3701.9014    -4078.915            0   -968.60856    18.589704    21.896216    22.679396    9231.5163   -644.42301   -764.38293   -1497.0197    646.48022    478.52815    370.68822   -3832.3073 
16577000    226.62008    -4103.768   -3715.3489    -4103.768            0    188.43612    18.507219    21.799059    22.578764    9109.1757   -459.02244    902.41172    121.91909    276.96286     405.2692    479.98941   -3690.3156 
16578000    244.19987   -4071.4006   -3652.8504   -4071.4006            0   -509.06636    18.535908    21.832851    22.613764    9151.6032    181.23146    85.136415   -1793.5669    195.69704    199.40768   -110.31419   -3720.7938 
16579000     230.1884   -4103.5475   -3709.0125   -4103.5475            0    106.48282    18.494822    21.784458     22.56364    9090.8832    561.60138    266.90987    -509.0628   -221.24709    168.81988     59.11122   -3694.8949 
16580000    239.21267   -4074.7381   -3664.7357   -4074.7381            0   -164.30722    18.518239     21.81204    22.592208    9125.4575    203.20646   -1025.5495    329.42133    167.72073    808.10416   -723.41068   -3686.6026 
16581000    222.81835   -4077.6611   -3695.7581   -4077.6611            0    -34.07304    18.526957    21.822309    22.602845    9138.3523   -1339.2789    553.05458    684.00523    369.80989   -610.47243    1343.4998   -3700.2991 
16582000    219.95889   -4093.4356   -3716.4336   -4093.4356            0   -305.17361    18.541491    21.839427    22.620575    9159.8744    -273.0542    84.882551   -727.34918    926.39802    526.28008   -22.788134   -3757.2009 
16583000    216.51182    -4087.092   -3715.9982    -4087.092            0   -273.23304     18.54112     21.83899    22.620123    9159.3255   -828.34247    366.18969   -357.54633    759.29198    -615.4092   -764.71773   -3752.4965 
16584000    243.53681   -4077.0262   -3659.6124   -4077.0262            0   -1188.0322    18.543927    21.842297    22.623548    9163.4864   -1866.5943   -1702.7858     5.283621    939.03805    391.75153   -26.396594   -3818.3811 
16585000    218.59748   -4072.2842   -3697.6156   -4072.2842            0   -590.57222    18.585203    21.890914    22.673904    9224.8119   -1313.5779    67.802416   -525.94114    1655.7421   -124.22326    1143.1085   -3777.0678 
16586000    225.01932   -4081.5153   -3695.8399   -4081.5153            0   -539.53295    18.600734    21.909208    22.692852    9247.9579     123.0702   -147.90232   -1593.7667    329.71386    -613.6243     360.4822   -3768.6078 
16587000    223.21581   -4105.8433    -3723.259   -4105.8433            0   -130.51324     18.52796     21.82349    22.604068    9139.8361   -429.80053   -574.25241    612.51322   -825.25608   -107.36411    93.700216   -3740.6558 
16588000    226.11172   -4058.3805   -3670.8328   -4058.3805            0    240.09189    18.503966    21.795228    22.574795    9104.3733     1061.562    12.919268   -354.20557   -227.29479    505.96983   -501.91245   -3638.9539 
16589000    210.27057   -4082.0743   -3721.6778   -4082.0743            0   -549.61152    18.554028    21.854194    22.635871    9178.4684   -657.68983   -1078.4378    87.293077    706.81951    253.78896   -7.3691437    -3795.248 
16590000    225.37697   -4076.6827   -3690.3943   -4076.6827            0   -471.51839    18.643038    21.959036    22.744463    9311.1996   -343.03265   -1013.4866   -58.035936   -595.12903    649.70944    464.09383   -3754.4238 
16591000    213.79417   -4079.3131   -3712.8772   -4079.3131            0    213.97804    18.618223    21.929807    22.714188    9274.0674    546.21887    858.00795   -762.29271    584.75096    119.04512    -112.5953   -3683.9361 
16592000    237.72996   -4067.6129   -3660.1518   -4067.6129            0   -214.68712    18.510536    21.802967    22.582811    9114.0749   -103.37411    -1167.104     626.4167    581.83224    130.12332    71.037402   -3688.6879 
16593000    226.65836   -4104.4416    -3715.957   -4104.4416            0   -719.53485    18.572147    21.875536    22.657976    9205.3849   -646.93563    -295.4609    -1216.208    868.36515   -742.21648   -1395.2154   -3812.5553 
16594000    225.99164   -4086.5231   -3699.1812   -4086.5231            0    -867.5502    18.567615    21.870198    22.652447    9198.6475   -607.64159   -979.20755   -1015.8015     878.0611    193.36327     583.9557   -3815.5655 
16595000    218.40874   -4092.0844   -3717.7393   -4092.0844            0   -851.42607     18.58871    21.895045    22.678183    9230.0352   -1022.7256   -1477.5188   -54.033814    151.84627   -378.29528    219.36582   -3832.3502 
16596000    244.40114   -4097.7033   -3678.8081   -4097.7033            0   -725.53436      18.5725    21.875951    22.658406    9205.9089    -789.4809    231.46664   -1618.5888    177.57642    235.80035   -22.648558   -3776.2174 
16597000      226.731   -4069.0858   -3680.4766   -4069.0858            0    578.38587    18.551016    21.850646    22.632196    9173.9985    523.97402    1684.1818   -472.99821   -311.42706   -219.12609     -808.864   -3603.0924 
16598000    223.86012   -4110.3916    -3726.703   -4110.3916            0    -404.5299    18.521026    21.815322    22.595608    9129.5779   -708.51059   -274.90402   -230.17509     1186.479    945.69476    410.14096   -3780.5643 
16599000    230.10016   -4087.2168    -3692.833   -4087.2168            0   -1026.4781    18.522135    21.816629    22.596961    9131.2184   -1828.7227    -953.5484   -297.16315    444.89616   -882.09812   -827.55201   -3829.5286 
16600000    232.01869   -4110.7981    -3713.126   -4110.7981            0   -527.12318    18.548728    21.847951    22.629405    9170.6047   -444.32887   -987.10305   -149.93763    578.01062   -438.74211    716.02918   -3783.6255 
16601000     221.6018   -4112.9432   -3733.1253   -4112.9432            0   -271.63644    18.501576    21.792413    22.571879    9100.8458   -849.61841   -426.91239    461.62147    757.74005    986.79661    65.939967   -3769.1787 
16602000    227.81057   -4076.5961   -3686.1365   -4076.5961            0   -494.14877    18.565178    21.867327    22.649473     9195.025   -771.07398   -161.47086   -549.90148    985.77947   -379.34674    89.663122   -3752.4019 
16603000     226.4564   -4068.7493   -3680.6108   -4068.7493            0   -1643.3965    18.527722    21.823209    22.603777    9139.4833   -2121.7074    -1188.665   -1619.8173   -773.24895   -165.98804    750.52103   -3899.6591 
16604000    223.45468   -4085.9936   -3702.9999   -4085.9936            0    1188.2759    18.485872    21.773916    22.552721    9077.6916    710.84251    1611.1018    1242.8832    406.62589   -1619.0313   -450.77922   -3545.6855 
16605000    233.52798   -4079.7754   -3679.5164   -4079.7754            0   -123.73046    18.546502     21.84533    22.626689    9167.3042   -267.98442    343.72385    -446.9308   -86.234292    456.96153    -519.8302   -3696.0587 
16606000    214.93853   -4081.1491   -3712.7518   -4081.1491            0   -766.58692    18.528118    21.823676    22.604261    9140.0704   -1067.7895   -388.56484   -843.40646   -449.95111   -544.22728    331.17414   -3814.9367 
16607000    222.84172   -4085.7431   -3703.8001   -4085.7431            0   -833.30569    18.512996    21.805864    22.585812    9117.7089   -626.69304   -1453.7201   -419.50396    937.23923   -587.05036    623.76233   -3814.6067 
16608000    227.81656   -4088.6904   -3698.2206   -4088.6904            0   -141.62976    18.557341    21.858097    22.639913    9183.3862   -609.08748    375.05315   -190.85495    529.32894   -499.35706    335.43454   -3717.1891 
16609000    223.15427   -4087.4143   -3704.9355   -4087.4143            0   -496.04587    18.481426    21.768678    22.547296    9071.1428   -23.177204   -914.26334   -550.69706   -166.48524   -253.24145   -1099.3116   -3770.5591 
16610000    223.64092   -4078.3372   -3695.0244   -4078.3372            0   -468.68537    18.488759    21.777315    22.556242    9081.9444   -182.62168   -447.50017   -775.93426   -720.20316   -1036.1868    638.05468   -3757.1021 
16611000    238.99774   -4093.4693   -3683.8354   -4093.4693            0    286.72888    18.527501    21.822949    22.603508    9139.1563   -134.19368    1101.8171   -107.43678    519.44183    97.646923    1143.0148   -3645.6187 
16612000    220.70214   -4078.5713   -3700.2954   -4078.5713            0    1181.3477    18.536919    21.834042    22.614998     9153.101    2036.5846    646.02777     861.4307   -1034.4022   -120.51898   -537.66629   -3542.5989 
16613000    224.55727   -4093.1514   -3708.2679   -4093.1514            0    97.136676    18.508628    21.800719    22.580483    9111.2568    1105.1443   -1342.5839    528.84963   -146.40414   -347.59543    843.85353   -3695.3606 
16614000    229.27073   -4055.4345   -3662.4723   -4055.4345            0   -868.77128    18.645845    21.962343    22.747888    9315.4066   -1467.7511   -740.99439   -397.56834     760.8794   -994.43266    1266.7248   -3780.4998 
16615000     237.8067   -4092.9613   -3685.3688   -4092.9613            0    636.68397    18.501995    21.792906     22.57239    9101.4635    251.71786    1361.7093    296.62475    771.49981    577.68755    163.31156   -3600.8582 
16616000    221.38269   -4092.1624   -3712.7201   -4092.1624            0    1089.4326    18.636514    21.951352    22.736503    9301.4277    432.76025    2102.7454    732.79214    822.56608   -381.16935   -70.576288   -3564.9366 
16617000    220.05054    -4111.918    -3734.759    -4111.918            0    928.81134    18.551025    21.850657    22.632207    9174.0126    873.12976    2223.7914   -310.48711    -541.4477   -1109.5733   -998.84405     -3610.49 
16618000    221.17626   -4100.5136    -3721.425   -4100.5136            0     56.99481    18.622797    21.935195    22.719769    9280.9045     1072.681      205.203   -1106.8995    1838.3083   -258.53867   -213.74554   -3713.7106 
16619000    222.76433   -4077.4596   -3695.6492   -4077.4596            0   -1117.6735    18.601545    21.910163    22.693841     9249.167   -1021.3782   -1178.0539   -1153.5885   -1353.1307   -817.85894    923.72683   -3846.4117 
16620000    232.86749   -4112.7504   -3713.6235   -4112.7504            0    114.92458    18.551342     21.85103    22.632594    9174.4824    -437.5471    274.14272    508.17813    546.15361   -583.35734    208.81196   -3698.2465 
16621000    219.70014   -4089.1867   -3712.6281   -4089.1867            0    328.00116    18.544467    21.842933    22.624206    9164.2865    41.516261    151.55932     790.9279   -1037.4755   -514.92848   -870.56316   -3668.7902 
16622000    226.15039   -4064.1007   -3676.4867   -4064.1007            0   -508.35343    18.565433    21.867628    22.649785    9195.4045    193.02933   -1561.5966   -156.49306    496.48176    86.322048    932.52527   -3744.6597 
16623000     223.7413   -4120.5806   -3737.0957   -4120.5806            0   -1318.1837     18.54271    21.840863    22.622063    9161.6818   -1625.3636   -1366.7008   -962.48669   -282.71618   -464.55087    1000.1037   -3913.2231 
16624000    233.26619   -4087.8604   -3688.0501   -4087.8604            0    -323.5249    18.554343    21.854565    22.636255    9178.9354   -597.36118    114.68744   -487.90097    1.7435593    582.05199    754.41115   -3731.3589 
16625000     236.2647   -4071.3316    -3666.382   -4071.3316            0    308.62221    18.571263    21.874495    22.656898    9204.0705    780.78668    573.65214   -428.57219    23.762217   -918.23884    339.06628    -3624.955 
16626000    227.62901   -4092.5724   -3702.4241   -4092.5724            0    228.75093    18.511855     21.80452     22.58442    9116.0236    484.94603    270.67323    -69.36646   -183.63452   -268.41736    -335.4823   -3672.0121 
16627000    227.86798   -4085.7633   -3695.2054   -4085.7633            0   -1642.7961    18.594071    21.901359    22.684723    9238.0225   -2603.6708    -1251.184   -1073.5336    299.87353   -219.02589    349.43696   -3916.5345 
16628000    234.20451   -4100.4511   -3699.0326   -4100.4511            0    24.646761    18.566445     21.86882     22.65102    9196.9085   -478.11959    413.83985    138.22002   -513.24136   -798.04793    761.17726   -3695.7268 
16629000      237.855   -4081.9344   -3674.2591   -4081.9344            0    -169.3032    18.554267    21.854475    22.636162    9178.8223   -104.88489    183.36674   -586.39145   -210.49641   -355.72068   -38.055513   -3696.9226 
16630000    225.68313    -4113.293   -3726.4798    -4113.293            0   -341.35038    18.537319    21.834513    22.615486     9153.693    336.57846   -983.55107   -377.07853     469.1527   -568.13881    -166.8079   -3772.0491 
16631000    219.66723   -4109.6368   -3733.1347   -4109.6368            0     312.1414     18.54842    21.847588    22.629029    9170.1479    371.65683    581.60532   -16.837948   -740.82838   -155.29511    -411.2462   -3691.3897 
16632000    240.89347   -4082.0416   -3669.1584   -4082.0416            0    534.01778    18.557542    21.858333    22.640158    9183.6843     1040.832    605.85231    -44.63096   -358.32856   -904.02912   -465.41349    -3597.635 
16633000     223.8008    -4093.918   -3710.3311    -4093.918            0   -451.16315    18.563233    21.865036    22.647101    9192.1356   -590.65488    -449.1823   -313.65228    1394.1376   -115.30026    782.02614   -3770.8131 
16634000    228.23766   -4123.7678   -3732.5763   -4123.7678            0    45.027856    18.576807    21.881025    22.663661     9212.315   -1258.6753    215.65633    1178.1025   -487.19832   -475.39733    689.01632   -3726.5267 
16635000    216.77826   -4106.9524   -3735.4019   -4106.9524            0    -732.7696     18.58338    21.888766     22.67168    9222.0969   -47.435103   -1726.6296   -424.24412     108.8873   -790.25908   -226.34684   -3833.9556 
16636000    218.33051   -4067.6262   -3693.4152   -4067.6262            0    541.77354    18.569213     21.87208    22.654397    9201.0223   -837.03501    1932.7516    529.60398   -970.36613   -926.19652    160.70575    -3620.716 
16637000    223.91015   -4103.4176   -3719.6433   -4103.4176            0    1050.1356    18.496237    21.786124    22.565366    9092.9691    1092.3967    211.25079    1846.7593   -306.06598   -929.47136   -515.43915   -3580.3831 
16638000    222.12162   -4077.2565   -3696.5477   -4077.2565            0    229.33196    18.576106    21.880199    22.662806    9211.2728    102.98104   -15.966615    600.98145   -766.66318   -436.78413   -83.967038   -3665.7399 
16639000    212.18189   -4112.3302   -3748.6577   -4112.3302            0   -333.24048    18.563821    21.865729    22.647818    9193.0096   -336.86271   -809.96888    147.11016    112.16896   -518.92926    696.86225   -3793.3355 
16640000    231.18367   -4089.1493   -3692.9084   -4089.1493            0    1496.8534    18.482009    21.769366    22.548008    9072.0021    972.70793    748.70175    2769.1506    125.49434   -33.735789   -1013.4045   -3494.8659 
16641000    221.72571   -4102.9744   -3722.9441   -4102.9744            0   -1076.7152    18.611342    21.921702    22.705794    9263.7889   -1696.7031   -971.47712   -561.96526    104.50671   -540.18172    539.18912   -3868.4114 
16642000     223.9418   -4089.2775   -3705.4489   -4089.2775            0   -521.06539    18.580009    21.884796    22.667567    9217.0791   -404.17925   -1019.6794   -139.33753   -558.69134    341.99438    1176.4145   -3775.4914 
16643000    222.20228    -4091.481   -3710.6339    -4091.481            0    1007.6778    18.614232    21.925107     22.70932    9268.1052     289.4669    994.07146     1739.495    114.87049   -181.51602   -597.16874   -3574.4303 
16644000    211.25685   -4049.4678   -3687.3808   -4049.4678            0    518.15468    18.599809    21.908118    22.691723    9246.5781     251.9055    221.67973    1080.8788    73.370412    219.94959   -10.612012   -3617.5067 
16645000    236.74718   -4075.9277   -3670.1512   -4075.9277            0   -708.96363    18.639725    21.955134    22.740421    9306.2361   -1220.4099    -514.2112   -392.26976   -71.068941    85.978831   -312.66434   -3766.3731 
16646000     226.2979   -4088.7877   -3700.9208   -4088.7877            0     121.6851    18.574867     21.87874    22.661295    9209.4299    370.50758   -1138.1705    1132.7182   -845.56133    -1175.223    64.729482   -3684.5773 
16647000    215.70631   -4083.2417   -3713.5285   -4083.2417            0    765.53888    18.545578    21.844241    22.625561    9165.9332    667.28041     921.1423    708.19392   -290.11926    917.93156   -45.637415   -3611.1945 
16648000    218.77149   -4094.1513   -3719.1845   -4094.1513            0    650.44379    18.563507    21.865359    22.647435    9192.5429    63.865732   -199.00442    2086.4701   -443.37496    1166.1765    998.95075   -3631.9835 
16649000    235.99409   -4054.6989   -3650.2131   -4054.6989            0   -1087.5845    18.615298    21.926363     22.71062    9269.6981   -546.60637    -1671.928   -1044.2191    1459.5524    -239.8239   -512.12402   -3797.2426 
16650000    223.89526   -4084.1386   -3700.3898   -4084.1386            0   -416.24196    18.538177    21.835524    22.616532    9154.9641   -1044.4344   -697.07718     492.7857    64.506623   -1275.8973    786.13962   -3755.9646 
16651000      225.961   -4050.4169   -3663.1274   -4050.4169            0    77.878511    18.537861    21.835152    22.616147    9154.4965   -879.09474    717.84997     394.8803    920.36392    42.527291    1455.4761     -3652.73 
16652000    222.29027   -4097.2187   -3716.2208   -4097.2187            0    341.20219    18.482994    21.770525    22.549209    9073.4517    72.700722    1349.7495    -398.8437    1442.0215   -1164.0246   -509.01551   -3671.0705 
16653000    229.80801     -4080.78    -3686.897     -4080.78            0   -880.53296    18.581651     21.88673     22.66957    9219.5231   -179.20418   -1800.1039   -662.29075    1200.4391    -194.2523    679.44182    -3805.291 
16654000    221.73826    -4085.189   -3705.1372    -4085.189            0   -54.418162    18.559662     21.86083    22.642744    9186.8316   -114.86967   -73.445492     25.06068   -410.54031    1107.2215    397.80168   -3712.4282 
16655000    228.64079   -4087.8413   -3695.9588   -4087.8413            0   -369.24723    18.505203    21.796684    22.576304    9106.1988    -517.9743   -1071.6366    481.86921   -311.52031    296.24111    103.68504   -3744.9965 
16656000    213.98191   -4096.8619   -3730.1043   -4096.8619            0    245.53263    18.543585    21.841894     22.62313    9162.9789   -836.93068    332.92476    1240.6038   -49.447032    274.47543    993.23621   -3697.2931 
16657000    216.21072   -4071.7187    -3701.141   -4071.7187            0   -867.57452    18.586562    21.892515    22.675562    9226.8352   -1996.4401    89.103695   -695.38713    570.75584    1594.7371   -176.12542   -3817.8852 
16658000    231.00938   -4100.6402    -3704.698   -4100.6402            0    3.9101378    18.583551    21.888969    22.671889    9222.3527    801.21948   -42.795341   -746.69373    370.16057    478.52019    904.01091   -3704.1721 
16659000    229.37411   -4091.4893   -3698.3499   -4091.4893            0   -242.12764    18.546647      21.8455    22.626866    9167.5185   -839.63905    1737.4085   -1624.1524    657.89066   -66.776606    1476.7916   -3730.7221 
16660000    240.87688   -4069.6285   -3656.7738   -4069.6285            0    1041.0502    18.402361    21.675551    22.450837    8955.2194    1305.9454   -278.04077     2095.246   -18.241604    488.62106   -179.64057   -3520.8098 
16661000    218.95168   -4097.5467    -3722.271   -4097.5467            0    961.63783    18.472143    21.757744    22.535971    9057.4805   -76.697896    813.74403    2147.8674    478.81729   -476.54628   -706.98419   -3595.2443 
16662000    238.79395     -4103.62   -3694.3353     -4103.62            0    115.88096    18.564397    21.866407    22.648521    9193.8649   -125.34646   -707.12143    1180.1108     18.19601    577.60569    630.71585   -3678.7976 
16663000    224.63348   -4075.5065   -3690.4924   -4075.5065            0    211.64571     18.53021     21.82614    22.606813    9143.1666    464.82005   -630.10887    800.22596   -559.44158    83.284959   -111.97739   -3662.2708 
16664000    229.74765   -4090.3572   -3696.5776   -4090.3572            0    325.24843     18.59036    21.896988    22.680195    9232.4924    209.15385    400.67066    365.92079    -1050.495   -805.73267    290.10408   -3652.7841 
16665000    222.23084   -4058.0676   -3677.1716   -4058.0676            0    462.58953    18.488679    21.777221    22.556145    9081.8267    245.04197    279.82348    862.90315   -347.38902    629.54217    1856.6131    -3615.902 
16666000    235.66662   -4073.3074   -3669.3829   -4073.3074            0    1117.9184    18.507347     21.79921     22.57892    9109.3652    1967.7349    1032.6172    353.40324    -585.9981    688.62674    708.26113   -3520.8666 
16667000    230.40275   -4124.6091   -3729.7067   -4124.6091            0    -850.1361    18.530084    21.825992     22.60666    9142.9803   -1340.5461   -439.34419   -770.51803    736.29682    572.49707    1738.3306   -3843.0647 
16668000     236.6953   -4068.1801   -3662.4925   -4068.1801            0    -1412.464    18.576686    21.880883    22.663514     9212.136   -1655.2485   -1464.7445    -1117.399    148.52882   -418.03439    1235.4064   -3852.2564 
16669000    237.75177   -4073.8788   -3666.3804   -4073.8788            0    644.36285    18.502798    21.793852    22.573371    9102.6497    335.82509     573.5183    1023.7451     362.3873    738.81193   -13.008526   -3580.8394 
16670000     235.9778   -4086.7466   -3682.2887   -4086.7466            0    155.47483    18.476567    21.762955    22.541368    9063.9899    311.28128    246.14312    -90.99992    742.13316   -565.20652    1782.7093   -3661.7366 
16671000    223.13702   -4073.4695   -3691.0202   -4073.4695            0   -206.72379    18.602794    21.911634    22.695365    9251.0301   -391.19952   -667.22273    438.25088   -90.798538   -823.30184    96.623059   -3718.9108 
16672000    234.89965   -4102.3777   -3699.7678   -4102.3777            0    110.49032    18.536014    21.832977    22.613894    9151.7608   -635.77648    683.32589    283.92154     298.0969    1480.0342   -365.08138   -3685.0207 
16673000    217.86213   -4072.0156   -3698.6074   -4072.0156            0    1154.7799    18.478418    21.765135    22.543627    9066.7144   -298.03816    2151.0798     1611.298    155.56609   -518.95722    99.026476   -3545.9123 
16674000    222.71298   -4081.8997   -3700.1773   -4081.8997            0   -137.75179    18.543974    21.842352    22.623605    9163.5555    -435.9486    351.38402    -328.6908    437.96516   -1226.1123   -282.87603   -3718.5866 
16675000    236.06157   -4079.5348   -3674.9334   -4079.5348            0    1519.5962    18.483396    21.770999      22.5497    9074.0445    2156.9019    1379.6362    1022.2505   -118.96373   -478.52786    1623.7216   -3473.8367 
16676000     215.7735   -4063.2047   -3693.3763   -4063.2047            0     1442.569    18.497027    21.787055     22.56633    9094.1346    2419.6541    1573.1798    334.87327   -582.22641   -90.808986   -303.75322   -3502.0504 
16677000    229.36374   -4060.7231   -3667.6015   -4060.7231            0   -683.46027    18.551273    21.850949     22.63251    9174.3802    317.38553   -1301.7437   -1066.0227    -31.01567   -345.57523    632.80297   -3759.0478 
16678000    225.29282   -4057.6088   -3671.4646   -4057.6088            0    1614.3803    18.470672    21.756012    22.534177    9055.3174    741.78895    2731.9411    1369.4108    44.270147   -536.10405    343.27875   -3458.2655 
16679000    227.23056   -4088.6547   -3699.1893   -4088.6547            0    -855.4775    18.598671    21.906778    22.690335    9244.8814   -1210.0343    -623.0107   -733.38755    587.43888    275.35734    282.77418   -3814.5309 
16680000    227.46227   -4075.2447   -3685.3822   -4075.2447            0    163.64208    18.549375    21.848713    22.630194    9171.5642   -110.38096     629.8592   -28.551996   -235.76784    1094.3971    925.18291   -3663.4938 
16681000    230.95881   -4081.1094   -3685.2539   -4081.1094            0   -580.44566    18.560129     21.86138    22.643314    9187.5255   -542.76329   -1154.8294   -43.744286     154.5822    551.80355    365.58354   -3763.0282 
16682000    240.01515   -4070.0109   -3658.6332   -4070.0109            0   -754.09682     18.53798    21.835291    22.616292    9154.6721   -77.986399   -1863.6907   -320.61339    569.16779    222.92804    281.08933   -3759.3138 
16683000    226.45148     -4087.29     -3699.16     -4087.29            0    2092.9389    18.460189    21.743664    22.521387    9039.9081    1815.9176    2473.3145    1989.5846    25.788938   -667.43307    584.79115   -3423.2315 
16684000    229.64098   -4097.5333   -3703.9366   -4097.5333            0    327.13595    18.547798    21.846856     22.62827    9169.2255    417.47363    416.90823    147.02601    193.06718    280.42638    1344.9055   -3660.1907 
16685000    232.09702   -4053.1982   -3655.3919   -4053.1982            0   -868.26374       18.501    21.791734    22.571177     9099.996    9.3317878   -1001.1875   -1612.9355    1008.5601    169.35694    855.98927   -3770.6227 
16686000     226.1964   -4037.7977   -3650.1048   -4037.7977            0    703.58877    18.565101    21.867236    22.649379    9194.9106    729.68088    644.25358    736.83185   -987.74233   -64.736111   -296.82187   -3555.7547 
16687000    224.11538   -4079.8297   -3695.7036   -4079.8297            0       104.87    18.494271    21.783808    22.562967    9090.0697    537.89708    382.85665   -606.14373    575.26763   -50.327749    1403.3622    -3681.801 
16688000     235.1779   -4041.8694   -3638.7825   -4041.8694            0    195.44862    18.564221      21.8662    22.648306    9193.6032    149.88831    413.99003    22.467527   -695.11179    817.63086    85.153572   -3612.5769 
16689000    215.68146    -4079.905   -3710.2344    -4079.905            0    -830.0518    18.506593    21.798323    22.578001    9108.2521   -441.61197   -779.51092   -1269.0325   -504.39982    253.24649    181.54891   -3820.4939 
16690000    241.48878   -4051.1848   -3637.2813   -4051.1848            0    -1148.808    18.671965    21.993109    22.779754      9354.61   -383.22852   -1235.5346   -1827.6608   0.73933433    55.660235   -38.911177   -3794.0102 
16691000    227.69849   -4061.4392   -3671.1718   -4061.4392            0   -135.17512    18.508046    21.800033    22.579772    9110.3962   -625.51123   -321.13955     541.1254   -388.70534    1417.0915    35.439932   -3689.1319 
16692000      227.512   -4060.8155   -3670.8677   -4060.8155            0   -988.95106    18.604973      21.9142    22.698023    9254.2813   -1402.8163   -803.54141   -760.49547   -63.840383    337.93011    546.30475   -3804.3407 
16693000    237.78895   -4073.3426   -3665.7805   -4073.3426            0    669.05734      18.4773    21.763819    22.542263     9065.069    940.30993    761.54789    305.31421   -876.98267   -730.51438    -580.5206   -3577.3279 
16694000    234.57179    -4059.353    -3657.305    -4059.353            0    -116.8035    18.472801     21.75852    22.536774    9058.4493   -213.99762   -240.79109     104.3782   -127.19778   -145.45616   -71.114786   -3672.7357 
16695000     231.4111   -4079.9217    -3683.291   -4079.9217            0    450.74933    18.501027    21.791766     22.57121    9100.0363    1153.9979   -963.18736    1161.4375    114.77207     714.7133    1267.6635   -3623.4699 
16696000    221.10092   -4054.1631   -3675.2037   -4054.1631            0   -6.4909494    18.488231    21.776694    22.555599    9081.1672   -250.02686     -44.1917    274.74571     -806.728    202.62373   -853.18081   -3676.0634 
16697000    216.67599   -4048.7786   -3677.4034   -4048.7786            0   -1059.1887    18.540653     21.83844    22.619554    9158.6335    -1699.131   -710.57782   -767.85729    1339.4827    379.40972    -2.881896   -3818.8785 
16698000    224.26649   -4065.9153   -3681.5302   -4065.9153            0   -712.19629    18.547784     21.84684    22.628253    9169.2051   -419.87496   -1274.4989   -442.21501    2.3257518   -61.196142    677.62604   -3776.7675 
16699000    231.26558   -4061.5177   -3665.1364   -4061.5177            0    787.67376    18.499279    21.789707    22.569077    9097.4565     1947.774   -701.84919    1117.0965   -886.36139   -470.52073    992.98931   -3560.6302 
16700000    229.90547   -4076.1143   -3682.0642   -4076.1143            0    125.32957     18.47595    21.762228    22.540615    9063.0819    1303.7419    -441.9216   -485.83162    157.51006    980.51035    1798.0921   -3665.4987 
16701000     228.8219   -4074.2478   -3682.0549   -4074.2478            0    347.56879     18.48738    21.775691     22.55456    9079.9129    963.80783    653.15022   -574.25168   -380.58637   -801.49572    141.05374   -3636.0294 
16702000    226.13265   -4063.7921   -3676.2085   -4063.7921            0   -652.53484    18.479318    21.766196    22.544725    9068.0399    674.26142   -332.66334   -2299.2026   -521.75264    367.93196     195.8481   -3762.5049 
16703000    227.16661   -4094.0326   -3704.6768   -4094.0326            0   -225.87292    18.525384    21.820456    22.600925    9136.0245    178.17081   -1421.5831    565.79355   -669.38502   -752.30374   -215.91994    -3734.772 
16704000    228.69824   -4104.1228   -3712.1418   -4104.1228            0   -587.57698    18.501965    21.792871    22.572354      9101.42     242.5237   -1438.5403   -566.71431   -408.88881    792.46833    1430.0012   -3790.1338 
16705000    225.81289   -4101.0376   -3714.0021   -4101.0376            0   -827.90884    18.523765    21.818548     22.59895    9133.6286   -1328.6664   -120.97799   -1034.0822   -44.428587    1115.4584    63.974501   -3824.2833 
16706000    221.67045   -4092.3806    -3712.445   -4092.3806            0    1300.8732    18.492682    21.781937    22.561029    9087.7274    2087.3918    1253.6674    561.56041    445.14197    1270.1993    386.41954   -3540.0335 
16707000    226.03276   -4085.4618   -3698.0494   -4085.4618            0   -1134.2862    18.639982    21.955436    22.740734    9306.6209   -1777.2216   -201.11434   -1424.5226   -276.36862    48.083994    42.652401   -3852.0032 
16708000    233.74544   -4071.5131   -3670.8814   -4071.5131            0   -612.88307    18.592751    21.899805    22.683113    9236.0565   -1275.9835   -1591.0456    1028.3799    971.14308   -186.87568    830.36398   -3753.4358 
16709000    229.27951   -4083.4896   -3690.5124   -4083.4896            0    742.50889    18.468884    21.753906    22.531996    9052.6882    2827.3757   -358.33279   -241.51619    -657.8795    33.163988   -218.06617   -3592.4833 
16710000     239.4452   -4085.0579    -3674.657   -4085.0579            0     656.3693    18.484804    21.772657    22.551418    9076.1179    1842.7372    432.34307   -305.97238     -828.473   -415.46519    667.54718   -3587.7761 
16711000    233.57507   -4104.9438   -3704.6041   -4104.9438            0    618.57029    18.483968    21.771673    22.550398    9074.8875    1320.4145    591.75541   -56.459042   -878.35789    148.85478    1118.5742   -3622.7376 
16712000    235.82844    -4094.837   -3690.6351    -4094.837            0    372.77326    18.523705    21.818478    22.598877    9133.5404    367.92612    878.22452   -127.83086    1280.6837    663.92923    -112.6211   -3640.9805 
16713000    231.35803   -4063.3524   -3666.8126   -4063.3524            0   -36.663317    18.544707    21.843215    22.624499    9164.6419   -214.65614    1283.5604   -1178.8943    137.31982   -11.760327    905.73951    -3671.713 
16714000    218.92478   -4073.0291   -3697.7995   -4073.0291            0    661.90017    18.474797    21.760871     22.53921    9061.3864     1232.354     1083.179    -329.8325     584.5537    331.07901    16.291101   -3610.3287 
16715000    216.72899   -4110.6973   -3739.2312   -4110.6973            0    1190.6673    18.510317    21.802709    22.582544    9113.7517    2081.7527    331.31846    1158.9307    448.91027    118.85594    235.21047    -3580.974 
16716000    224.64505   -4092.2139   -3707.1799   -4092.2139            0   -916.16543    18.573555    21.877194    22.659694    9207.4782   -396.26128   -1519.0328    -833.2022    -357.2971   -182.12115    -744.5651   -3830.2041 
16717000    218.56278   -4095.1808   -3720.5717   -4095.1808            0    338.82114    18.549542     21.84891    22.630398    9171.8124    231.66849    479.73587    305.05906    373.67371    570.45704   -8.5603028   -3675.2505 
16718000    232.88844   -4078.2463   -3679.0835   -4078.2463            0   -85.664651    18.590723    21.897416    22.680638    9233.0333   -742.78273    258.66873    227.12005   -870.78266    -154.5754    299.16186   -3690.6186 
16719000    238.02287   -4076.1116   -3668.1485   -4076.1116            0    29.499038    18.539808    21.837445    22.618523    9157.3814    250.04782    521.70544   -683.25615   -974.74444    1115.8169   -291.03096   -3664.2089 
16720000    226.17649   -4095.2894   -3707.6306   -4095.2894            0     670.9846    18.423935    21.700962    22.477157     8986.752    1346.3034    234.35559    432.29479    481.04174   -1294.7482    878.94973   -3619.6896 
16721000    222.60881   -4062.0241   -3680.4802   -4062.0241            0   -63.163548    18.535119    21.831922    22.612802    9150.4347    813.22778   -955.58611   -47.132309   -1317.2138    91.918713    -233.0025   -3688.9094 
16722000    220.64924   -4076.8836   -3698.6984   -4076.8836            0   -670.95908    18.550497    21.850035    22.631563    9173.2291   -1380.4284    -155.7723    -476.6765   -331.67929    620.97115   -1036.1356   -3788.4607 
16723000    223.65221   -4097.0665   -3713.7343   -4097.0665            0   -290.96446    18.435285    21.714331    22.491005    9003.3712   -1622.9042    1244.3228   -494.31195   -1287.4622   -263.39402   -381.72492   -3751.9393 
16724000    225.42217   -4079.2476   -3692.8817   -4079.2476            0    215.62465    18.489476    21.778161    22.557118    9083.0023    297.25402    168.43573     181.1842   -522.65857    235.38474    451.58312   -3664.3187 
16725000    220.45071   -4078.2771   -3700.4321   -4078.2771            0   -723.47985      18.4634    21.747447    22.525305    9044.6269   -1101.2637   -1237.0557    167.87978   -638.27762   -897.73135   -893.78691   -3795.8639 
16726000    239.21355   -4094.7361   -3684.7323   -4094.7361            0   -394.87891    18.519092    21.813044    22.593249    9126.7187   -695.74625   -119.72157   -369.16891   -63.271129   -861.88156    1169.1673   -3737.2922 
16727000    238.21315   -4039.1979   -3630.9088   -4039.1979            0    242.55095    18.469761    21.754939    22.533066    9053.9781    207.84002    375.84177    143.97105     -827.281   -977.55415   -458.99013   -3598.8816 
16728000    233.84416   -4065.4082   -3664.6073   -4065.4082            0   -237.24822    18.528875    21.824567    22.605184    9141.1901    75.046073    906.73429    -1693.525   -192.22761   -132.44548   -110.57237    -3696.236 
16729000    230.78057    -4073.465   -3677.9151    -4073.465            0   -73.971675    18.566855    21.869303     22.65152    9197.5177   -647.89178   -32.256264    458.23301    -270.2793   -796.21463    204.23744   -3687.8373 
16730000    232.28998   -4053.3308   -3655.1938   -4053.3308            0   -1482.9581    18.580774    21.885698    22.668501    9218.2186    -2953.266   -625.06762   -870.54069   -449.03239   -301.69219    1353.4598   -3854.5601 
16731000    230.23844   -4068.6987   -3674.0779   -4068.6987            0   -479.40412    18.510235    21.802611    22.582443    9113.6292   -1236.0348   -205.46169    3.2841669    498.11475   -1402.5168   -453.13441   -3737.7969 
16732000    225.51458   -4075.9241   -3689.3999   -4075.9241            0    -524.6873     18.55896    21.860003    22.641888    9185.7894   -251.24277   -1449.4256    126.60646    780.62422    5.7598003   -249.14985   -3759.6898 
16733000     228.5383   -4086.6605   -3694.9537   -4086.6605            0   -1677.8368    18.512068     21.80477    22.584679    9116.3371   -2288.9433   -450.39269   -2294.1745   -523.17103   -249.43383    -32.02063   -3918.0262 
16734000    224.76092   -4053.3816   -3668.1491   -4053.3816            0   -84.116085    18.556952    21.857638    22.639438    9182.8086    134.68577    -973.0098    585.97578    -122.3297    155.70106    574.54261   -3679.4141 
16735000     225.3028   -4092.6018   -3706.4405   -4092.6018            0   -284.49872    18.523082    21.817744    22.598117    9132.6193   -122.17499   -457.06317   -274.25801   -1182.7252    262.60423    -159.6082   -3744.3328 
16736000    230.68757   -4088.6198   -3693.2292   -4088.6198            0   -201.76075    18.565963    21.868252    22.650431    9196.1918    717.73909     182.4587     -1505.48    65.061031    168.94918    185.85719   -3720.2887 
16737000     232.7573   -4092.9668   -3694.0287   -4092.9668            0    261.80452    18.499309    21.789743    22.569114    9097.5015    640.36965    578.51849   -433.47458   -137.61819   -696.07317   -659.91227   -3659.2931 
16738000    228.06459   -4072.7877   -3681.8929   -4072.7877            0    148.16482     18.54153    21.839473    22.620623    9159.9325    810.34909   -50.918479   -314.93617   -687.53971    1572.0799    47.087542   -3662.0998 
16739000    220.78301   -4058.7337   -3680.3192   -4058.7337            0   -86.971405    18.517622    21.811312    22.591455     9124.545   -1885.0751    1133.9899    490.17099    146.32391   -540.37778    539.88513   -3691.8927 
16740000    227.79049   -4068.1482   -3677.7231   -4068.1482            0    85.355978    18.542367     21.84046    22.621645    9161.1742   -663.95573    1158.3801   -238.35649   -474.96507    183.07968    346.18431    -3666.319 
16741000    223.56371   -4083.4065    -3700.226   -4083.4065            0    2081.4449     18.40895    21.683312    22.458876    8964.8425    2635.3362     1261.238    2347.7604    262.83947    1020.0492    1094.3122   -3428.0915 
16742000    235.15837   -4090.2497   -3687.1963   -4090.2497            0     456.5204    18.473758    21.759647    22.537942    9059.8571    683.22675    755.89894     -69.5645     905.1017    566.46605    579.88529   -3626.8769 
16743000    241.15961   -4071.9723    -3658.633   -4071.9723            0   -131.04447    18.555774    21.856251    22.638001    9181.0601   -920.42789   -318.12775    845.42223    72.823217   -112.59429   -97.370574   -3676.1793 
16744000    230.71618   -4070.7142   -3675.2746   -4070.7142            0   -418.30617    18.462462    21.746341     22.52416    9043.2472    5.9222556   -1601.0097    340.16895   -506.12952     974.9754   -64.742484   -3730.4435 
16745000    225.40114   -4035.4845   -3649.1546   -4035.4845            0     -792.775    18.503994    21.795261     22.57483    9104.4149   -1244.2176   -382.21391   -751.89348    281.58203    665.77448   -1493.2868   -3754.4182 
16746000    233.54906    -4086.432   -3686.1369    -4086.432            0   -306.72314    18.477829    21.764442    22.542909    9065.8481   -744.63395    611.32839   -786.86386   -150.42457     3.851617     109.1123   -3726.6906 
16747000    220.29496   -4065.3372   -3687.7592   -4065.3372            0    30.196003    18.501276    21.792059    22.571513    9100.4027   -418.69892      1580.38   -1071.0931   -281.70343    247.70625   -297.63339   -3683.7516 
16748000    232.04583   -4054.0379   -3656.3193   -4054.0379            0    1209.9266    18.463401    21.747448    22.525307    9044.6283    654.34742    2603.2885    372.14386   -531.85822    655.21257   -35.884546    -3496.722 
16749000    227.22074   -4098.7504   -3709.3018   -4098.7504            0   -1128.2728    18.551987    21.851791    22.633381    9175.4403    187.96482   -1274.9975   -2297.7856    1039.6858    514.61328    -139.3012    -3860.281 
16750000    230.35353   -4041.8142   -3646.9961   -4041.8142            0   -1847.7914     18.62034    21.932301    22.716772    9277.2322   -2701.2715    -173.1492   -2668.9536     188.5795     -2.00772    -283.7738   -3897.0003 
Loop time of 405.398 on 64 procs for 250000 steps with 864 atoms

Performance: 106.562 ns/day, 0.225 hours/ns, 616.678 timesteps/s
99.1% CPU use with 64 MPI tasks x 1 OpenMP threads

MPI task timing breakdown:
Section |  min time  |  avg time  |  max time  |%varavg| %total
---------------------------------------------------------------
Pair    | 14.481     | 20.368     | 26.603     |  56.4 |  5.02
Bond    | 0.26979    | 0.28071    | 0.28915    |   0.7 |  0.07
Kspace  | 189.06     | 198.93     | 209.62     |  37.4 | 49.07
Neigh   | 2.2739     | 2.7442     | 3.3548     |  16.6 |  0.68
Comm    | 71.973     | 82.077     | 94.771     |  56.2 | 20.25
Output  | 1.3332     | 1.3345     | 1.3471     |   0.2 |  0.33
Modify  | 85.195     | 89.275     | 94.809     |  21.3 | 22.02
Other   |            | 10.39      |            |       |  2.56

Nlocal:        13.5000 ave          18 max           5 min
Histogram: 1 1 1 4 7 6 18 10 9 7
Nghost:        1802.62 ave        1863 max        1762 min
Histogram: 7 7 5 15 11 7 4 5 1 2
Neighs:        3316.42 ave        4321 max         962 min
Histogram: 1 0 2 2 5 6 16 9 11 12

Total # of neighbors = 212251
Ave neighs/atom = 245.66088
Ave special neighs/atom = 2.0000000
Neighbor list builds = 7627
Dangerous builds = 0

unfix		3
unfix		2
unfix		1

write_data	data.final.${pid}
write_data	data.final.0
System init for write_data ...
PPPM initialization ...
  extracting TIP4P info from pair style
  using 12-bit tables for long-range coulomb (../kspace.cpp:340)
  G vector (1/distance) = 0.37205837
  grid = 24 25 27
  stencil order = 5
  estimated absolute RMS force accuracy = 0.003098063
  estimated relative force accuracy = 9.3297246e-06
  using double precision FFTW3
  3d grid and FFT values/proc = 2730 384
Last active /omp style is kspace_style pppm/tip4p/omp
WARNING: Not all mixed pair coeffs generated from mixing. Use write_data with 'pair ij' option to store all pair coeffs. (../write_data.cpp:312)

write_restart   restart.lmp.${pid}
write_restart   restart.lmp.0
System init for write_restart ...
PPPM initialization ...
  extracting TIP4P info from pair style
  using 12-bit tables for long-range coulomb (../kspace.cpp:340)
  G vector (1/distance) = 0.37205837
  grid = 24 25 27
  stencil order = 5
  estimated absolute RMS force accuracy = 0.003098063
  estimated relative force accuracy = 9.3297246e-06
  using double precision FFTW3
  3d grid and FFT values/proc = 2730 384
Last active /omp style is kspace_style pppm/tip4p/omp
Total wall time: 0:06:48
