LAMMPS data file via write_data, version 30 Jul 2021, timestep = 2750000

1920 atoms
2 atom types
1280 bonds
1 bond types
640 angles
1 angle types

0.05072659035427307 24.67927440964356 xlo xhi
0.02574250755092322 24.70425849244539 ylo yhi
0.03793813824302461 22.772061861757635 zlo zhi

Masses

1 1.008
2 15.999

Pair Coeffs # lj/cut/tip4p/long/omp

1 0 0
2 0.21084 3.1668

Bond Coeffs # harmonic/omp

1 450 0.9572

Angle Coeffs # harmonic/omp

1 55 104.52

Atoms # full

1 1 2 -1.1794 4.490871292954427 1.4892877927862351 4.310896951528429 0 0 0
2 1 1 0.5897 4.517350106806936 2.2250119911572925 4.922644810468615 0 0 0
3 1 1 0.5897 5.212487667223038 1.6554178226038347 3.704401080394694 0 0 0
4 2 2 -1.1794 2.97286084684561 1.5004277854512256 1.9281372130054897 0 0 0
5 2 1 0.5897 3.2390467949864177 1.612439100679486 2.8406994370534586 0 0 0
6 2 1 0.5897 2.0160875140085244 1.504870018277498 1.9549694818807768 0 0 0
9 3 1 0.5897 5.086985797719749 4.505343552504373 3.472387910392283 0 0 0
10 4 2 -1.1794 3.3126091097770565 4.4992718380429455 3.602711738632917 0 0 0
11 4 1 0.5897 2.8858447662215454 5.250153599213539 4.015361002856829 0 0 0
12 4 1 0.5897 2.9299554195599127 4.457478285569372 2.7263561517099104 0 0 0
13 5 2 -1.1794 1.4582833146901912 2.9867824342889118 5.0069807771372 0 0 0
14 5 1 0.5897 2.230830574730942 3.3538197564137397 4.577295055434305 0 0 0
15 5 1 0.5897 1.5692373741320447 2.039015318631181 4.9315496294393455 0 0 0
19 7 2 -1.1794 4.706784906965253 3.1971493392541412 0.6178901162278027 0 0 0
20 7 1 0.5897 3.947041283821327 2.736908191819027 0.9744720826334082 0 0 0
21 7 1 0.5897 5.4559493268954125 2.8109538836369388 1.0715225590920356 0 0 0
22 8 2 -1.1794 1.5532136040321547 4.512612243412961 1.5008344147949884 0 0 0
23 8 1 0.5897 0.9173217219362946 4.6973525315434355 2.1919788242845097 0 0 0
24 8 1 0.5897 1.5007886201025054 5.269969751082356 0.9178325145326536 0 0 0
27 9 1 0.5897 4.585934555839963 4.971338223169297 0.6554266134621404 0 0 0
7 3 2 -1.1794 6.039135250768184 4.591061505592277 3.425270116059529 0 0 0
98 33 1 0.5897 0.33766100473315624 5.592755405076831 3.990463951632749 1 0 0
28 10 2 -1.1794 1.7108216599064703 0.19160903018309866 4.7996853069761105 0 0 0
25 9 2 -1.1794 4.5319975869556375 5.9261447820373405 0.6966590694385705 0 0 0
16 6 2 -1.1794 0.13730179037156584 1.336898426241947 1.8378933461993183 0 0 0
387 129 1 0.5897 4.050456873322467 0.2547097023969741 1.188356449040771 0 1 0
99 33 1 0.5897 0.21901538138330562 4.095983512686843 4.184306402179982 1 0 0
1455 485 1 0.5897 1.501025886717359 3.388500724555394 0.15243295869336654 0 0 1
47 16 1 0.5897 5.98830015090986 0.9277814239756171 1.6254653394304872 0 0 0
26 9 1 0.5897 5.2724649307786144 6.184885545625145 1.2452308991145404 0 0 0
867 289 1 0.5897 4.501379010337687 0.2694111422039569 5.625133546338434 0 1 0
150 50 1 0.5897 1.730502961211234 6.012202971010655 5.730648230609291 0 0 0
496 166 2 -1.1794 0.12416941601191586 1.6424686162382067 7.840124131257507 0 0 0
498 166 1 0.5897 1.0765838914237589 1.7362424855096887 7.823708387886802 0 0 0
481 161 2 -1.1794 4.556390410682629 1.6253323596687 9.956549752616368 0 0 0
578 193 1 0.5897 0.3770078252274334 3.8766074138960307 9.59716786534589 1 0 0
505 169 2 -1.1794 4.64061173342406 6.058953508074355 6.430138153910087 0 0 0
492 164 1 0.5897 2.806655837278913 4.069943625891403 9.783585981809457 0 0 0
482 161 1 0.5897 5.3508255758121175 1.624616358646922 9.422665254193959 0 0 0
483 161 1 0.5897 4.702534193954013 2.3156402658858752 10.60333959640118 0 0 0
527 176 1 0.5897 5.90212855126312 0.8120600992764321 7.329132556183813 0 0 0
493 165 2 -1.1794 1.5807479897480328 2.939239483124643 10.65244068562586 0 0 0
494 165 1 0.5897 1.4955441444603235 1.9886200624812975 10.725433828387395 0 0 0
491 164 1 0.5897 2.7657441513977643 4.83412147668707 8.477384254091653 0 0 0
503 168 1 0.5897 0.9576391574610778 4.783225664701281 7.7231269047001225 0 0 0
487 163 2 -1.1794 5.955404647399824 4.650974475553085 9.157491024518016 0 0 0
629 210 1 0.5897 2.141804115609617 5.965441074298175 10.268534514467172 0 0 0
504 168 1 0.5897 1.4943313947926806 4.05169942977304 6.5112584323513625 0 0 0
502 168 2 -1.1794 1.6810276175519128 4.785902122635928 7.096337407054543 0 0 0
484 162 2 -1.1794 2.825688593574337 1.809388036345915 7.876395199715809 0 0 0
508 170 2 -1.1794 1.2691218685512224 0.17472696011760533 10.588583785205726 0 0 0
579 193 1 0.5897 0.2984654963473441 5.380019994377387 9.757047393804873 1 0 0
501 167 1 0.5897 4.5063853028715375 4.264925238060478 6.381554762518385 0 0 0
528 176 1 0.5897 5.867084471081208 2.3171965003384987 7.170033940446483 0 0 0
489 163 1 0.5897 5.005396216507721 4.605947438607027 9.265258691112036 0 0 0
490 164 2 -1.1794 3.2417887123302402 4.776022534824912 9.305740854502224 0 0 0
500 167 1 0.5897 3.8925209188721017 2.999675000842546 6.942105771088671 0 0 0
486 162 1 0.5897 3.260619146289246 1.097316557051807 7.407344131466518 0 0 0
499 167 2 -1.1794 4.530610717063164 3.3114635798678522 6.300385385169933 0 0 0
485 162 1 0.5897 3.225374961703582 1.8032147273214298 8.746096943477236 0 0 0
1347 449 1 0.5897 4.5843187106903 0.44144851917377853 11.332863418867099 0 1 0
961 321 2 -1.1794 4.551315720634715 1.7509661281533415 15.747407407911854 0 0 0
962 321 1 0.5897 5.272384898250596 1.6919069639975135 15.120719834319415 0 0 0
963 321 1 0.5897 4.615177895303417 0.9471283299080734 16.263163923948024 0 0 0
964 322 2 -1.1794 2.910248706817427 1.6992174170552994 13.579989710302522 0 0 0
965 322 1 0.5897 3.3123840563814233 1.6206603499055425 14.445024579930397 0 0 0
966 322 1 0.5897 1.9817107672751844 1.5218070241147479 13.730005169454994 0 0 0
970 324 2 -1.1794 3.216531600470324 4.695259319693503 14.93678201785614 0 0 0
971 324 1 0.5897 4.170829953231873 4.626824103631686 14.964856486357126 0 0 0
972 324 1 0.5897 2.905814865258897 3.8820500125475914 15.334757320666101 0 0 0
973 325 2 -1.1794 1.6461952944090092 2.8893682003420555 16.349004459628024 0 0 0
975 325 1 0.5897 0.9556806074999776 3.362335854462599 15.884594328220569 0 0 0
979 327 2 -1.1794 4.599072258721291 3.298762622003518 12.129893756750727 0 0 0
980 327 1 0.5897 3.825827526881475 2.9079222760121723 12.536727370688446 0 0 0
981 327 1 0.5897 5.3379780204840905 2.9211468289303175 12.606972262327242 0 0 0
982 328 2 -1.1794 1.382671192963285 4.522281891342183 12.821393513096293 0 0 0
983 328 1 0.5897 1.5095213728631531 5.228630464919009 12.187987247491925 0 0 0
984 328 1 0.5897 2.1174719130804456 4.609570689041874 13.42852692871132 0 0 0
987 329 1 0.5897 4.584342827712886 5.123053325094357 12.120308770541028 0 0 0
990 330 1 0.5897 1.6592917417667181 1.1603199133290056 16.473699481035712 0 0 0
967 323 2 -1.1794 5.9899474895305085 4.59764827186555 15.088528450475549 0 0 0
1109 370 1 0.5897 0.904113812728565 5.831468405571089 16.06384402012779 0 0 0
1346 449 1 0.5897 3.995937489756198 0.2685859979709474 12.71694027517976 0 1 0
1110 370 1 0.5897 2.400525100180125 6.055800698694151 16.017590779530593 0 0 0
988 330 2 -1.1794 1.5974379229527986 0.21197382113896646 16.35932658801657 0 0 0
1008 336 1 0.5897 6.0279738898292345 0.8412492485052776 13.078869055657789 0 0 0
985 329 2 -1.1794 4.70517583714332 6.072193811354346 12.092107707127058 0 0 0
976 326 2 -1.1794 0.142712820674584 1.5231698217122551 13.472463641591665 0 0 0
1058 353 1 0.5897 0.21078962752299485 4.660780084571693 14.22062858933272 1 0 0
495 165 1 0.5897 1.3810371388081302 3.2661586197341093 11.52960690321341 0 0 0
1460 487 1 0.5897 4.633658511801505 2.929712796622422 17.104834795778718 0 0 0
1461 487 1 0.5897 5.381021089146307 2.9085407027359986 18.42116947318071 0 0 0
1826 609 1 0.5897 4.108826324058062 0.15443621637775248 18.221281367262154 0 1 0
1590 530 1 0.5897 2.326340165238411 5.9958909690814455 21.635276222657186 0 0 0
974 325 1 0.5897 1.7909976535720626 3.398345522920675 17.14660922440599 0 0 0
1465 489 2 -1.1794 4.545482097616947 6.031530883810402 17.668221736546116 0 0 0
1447 483 2 -1.1794 6.109594456732972 4.620875444475326 20.466307672870357 0 0 0
1464 488 1 0.5897 0.9705173965976673 4.760578141517862 19.11556816512018 0 0 0
1454 485 1 0.5897 2.2322060727841673 3.4264155453092204 21.56153892155757 0 0 0
1451 484 1 0.5897 4.269938830886514 4.773010637576137 20.66736682097988 0 0 0
1462 488 2 -1.1794 1.67748914623161 4.645173695356232 18.480716758253056 0 0 0
1487 496 1 0.5897 6.05965256815859 1.443937653456769 19.97766106659395 0 0 0
1538 513 1 0.5897 0.24515104256895964 3.960357019457868 21.03019339600955 1 0 0
1468 490 2 -1.1794 1.64946897738057 0.2440969278169825 21.837805047022023 0 0 0
1466 489 1 0.5897 4.672634633480479 5.08695225238847 17.756930401687153 0 0 0
1446 482 1 0.5897 3.3605444180799093 2.203139441965607 18.805471810858197 0 0 0
1459 487 2 -1.1794 4.708702833799594 3.391028742786676 17.940149213853132 0 0 0
1463 488 1 0.5897 1.6001840869981496 5.3989197258363815 17.89580651951359 0 0 0
1445 482 1 0.5897 2.1220819414297467 1.447732920596541 19.238305979611383 0 0 0
1450 484 2 -1.1794 3.3170167083751667 4.7023886569321895 20.723119430674203 0 0 0
386 129 1 0.5897 4.837808685487511 0.24007977478097597 22.629577192666876 0 1 -1
1452 484 1 0.5897 3.0263210673209557 4.6534544619020535 19.81247583695757 0 0 0
1441 481 2 -1.1794 4.9099130231897234 1.4166782330468557 21.234280973893636 0 0 0
1456 486 2 -1.1794 0.373586029457474 1.6284705496219967 19.20305148429488 0 0 0
1469 490 1 0.5897 1.657720334237249 1.1968654264341105 21.9296130698435 0 0 0
1443 481 1 0.5897 4.70745082982136 2.1511502478235793 21.813751600011372 0 0 0
1453 485 2 -1.1794 1.5499957859769886 2.951660231711216 22.036284128774465 0 0 0
1488 496 1 0.5897 6.104814296887503 0.8459723393076308 18.587632820308603 0 0 0
1442 481 1 0.5897 4.147882108910203 1.3475691477940155 20.65921934086257 0 0 0
1539 513 1 0.5897 0.22908234263906285 5.471851318872543 20.945907813459765 1 0 0
1444 482 2 -1.1794 3.074295288041635 1.3700252694908484 19.17993554616092 0 0 0
121 41 2 -1.1794 4.5905756215191476 7.706707791266581 4.21441209337681 0 0 0
122 41 1 0.5897 3.809948776403678 7.620358315865475 3.6673046520328225 0 0 0
123 41 1 0.5897 5.3207806234140245 7.683668031944065 3.596000177642036 0 0 0
124 42 2 -1.1794 2.9627119038398204 7.732446009748736 1.9903777493086185 0 0 0
125 42 1 0.5897 3.372557182327556 6.988323886247328 1.5493168995631186 0 0 0
126 42 1 0.5897 3.4633767850729553 8.492571437680795 1.6941175823068517 0 0 0
129 43 1 0.5897 5.116837893381237 10.911391685271518 3.5505767827943995 0 0 0
130 44 2 -1.1794 3.301582649349369 10.870933477676765 3.5851767173378453 0 0 0
131 44 1 0.5897 2.964160515184572 11.63404179307556 4.054264212976016 0 0 0
132 44 1 0.5897 2.888077590914298 10.122524586477848 4.015435875852182 0 0 0
133 45 2 -1.1794 1.5339339448611466 9.154654948135509 4.888222820289378 0 0 0
135 45 1 0.5897 0.8306790132001072 9.593003805541125 4.409196816355127 0 0 0
137 46 1 0.5897 1.1834918793389597 7.749311777192534 2.1535925516169865 0 0 0
139 47 2 -1.1794 4.749415801420188 9.490172342594542 0.8647584345570125 0 0 0
140 47 1 0.5897 4.633818249916508 10.420577374880198 0.6717704258208255 0 0 0
142 48 2 -1.1794 1.607147792259583 10.689761455854693 1.5766389498350657 0 0 0
143 48 1 0.5897 2.3137772293466403 10.826635334883697 2.207595089434722 0 0 0
144 48 1 0.5897 1.6072819555054754 11.48268647330019 1.0404427789843673 0 0 0
149 50 1 0.5897 1.6471837261417486 7.335937897800058 5.000780250144105 0 0 0
148 50 2 -1.1794 1.7324410757996938 6.394058483204225 4.852941459792909 0 0 0
127 43 2 -1.1794 6.063120305601005 10.767486688118094 3.55080715077567 0 0 0
168 56 1 0.5897 6.056019098975389 8.273547436327373 1.6211141326006402 0 0 0
136 46 2 -1.1794 0.23533445871355743 7.867858131356831 2.2092782301965497 0 0 0
218 73 1 0.5897 0.09434621805351318 10.869091403699374 2.8256503103785895 1 0 0
507 169 1 0.5897 4.701664415244634 6.54500586533853 5.607810474752466 0 0 0
621 207 1 0.5897 4.414250295227977 9.06230980124302 5.5755645311928825 0 0 0
270 90 1 0.5897 0.8892625384537997 12.236468963270177 4.599771696066193 0 0 0
145 49 2 -1.1794 4.642908104351979 12.23292000665619 0.7760439956365529 0 0 0
1574 525 1 0.5897 1.703496126965817 9.428561440103069 0.2827365484877153 0 0 1
602 201 1 0.5897 4.723807687565064 7.118433409243405 10.60228002266601 0 0 0
134 45 1 0.5897 1.5160700486507628 9.552958027799203 5.758408205803722 0 0 0
620 207 1 0.5897 5.154579894685409 8.881782124648714 6.883639223741396 0 0 0
628 210 2 -1.1794 1.439139754291989 6.332282499778487 10.80506708649002 0 0 0
1101 367 1 0.5897 4.708740903627283 9.142655403653508 11.227892979258124 0 0 0
606 202 1 0.5897 1.9447040044617403 7.7508570171082125 7.9276256912387915 0 0 0
601 201 2 -1.1794 4.726737599821498 7.811276919739561 9.941841169242405 0 0 0
611 204 1 0.5897 4.238822470700816 10.871917519491177 9.330398495849003 0 0 0
622 208 2 -1.1794 1.602846616885951 10.741854866595332 7.121128944934706 0 0 0
615 205 1 0.5897 0.8241761306298898 9.48022611504223 10.255779312384401 0 0 0
698 233 1 0.5897 0.34828421722680264 11.45671107974321 9.835753506044778 1 0 0
647 216 1 0.5897 5.873860797895695 7.834476427694564 8.59072616379447 0 0 0
623 208 1 0.5897 2.354603389974227 10.809524379700608 7.709724484622148 0 0 0
626 209 1 0.5897 4.652819389774986 11.278716153953159 6.465673709147551 0 0 0
625 209 2 -1.1794 4.666099941498838 12.235192982392432 6.430443588922607 0 0 0
610 204 2 -1.1794 3.297988310022047 10.70675169515209 9.269450822129217 0 0 0
605 202 1 0.5897 3.243329236146586 8.334978545609212 7.413687353765016 0 0 0
614 205 1 0.5897 2.336276765857918 9.41178398502438 10.279661414150635 0 0 0
630 210 1 0.5897 1.577876573523046 7.27866169897817 10.767889477563857 0 0 0
603 201 1 0.5897 3.9958821442476165 7.59423280030401 9.363128397355988 0 0 0
616 206 2 -1.1794 0.18432381479107057 7.800596602517542 7.873058098316274 0 0 0
699 233 1 0.5897 0.4530423927013349 10.842494159396598 8.456061652508383 1 0 0
648 216 1 0.5897 5.84947469787939 7.0757581348154215 7.280933314548765 0 0 0
612 204 1 0.5897 2.8944528931566564 11.44836868852656 9.720437283016253 0 0 0
624 208 1 0.5897 1.6878141637106316 11.49447923683768 6.53583707739721 0 0 0
604 202 2 -1.1794 2.8904491986076555 7.603634702650264 7.920479620760325 0 0 0
607 203 2 -1.1794 6.037929020088306 10.902528048614801 9.326220738138014 0 0 0
613 205 2 -1.1794 1.5557964517977059 9.05967784684467 10.70749871085532 0 0 0
506 169 1 0.5897 3.966660787232858 6.518436712410572 6.930988656639908 0 0 0
619 207 2 -1.1794 4.462372806636574 9.397999225635505 6.4706506913538115 0 0 0
1081 361 2 -1.1794 4.784435245078856 7.777825627595203 15.686372649635974 0 0 0
1082 361 1 0.5897 4.802819379569661 8.469140936830259 16.348161965515267 0 0 0
1083 361 1 0.5897 4.719972318654008 6.965866474456851 16.189171198885774 0 0 0
1084 362 2 -1.1794 3.0452481086722725 7.6688592076231155 13.574145691538753 0 0 0
1085 362 1 0.5897 3.525178249779417 7.647349245693966 14.40201731754187 0 0 0
1086 362 1 0.5897 3.413325442869461 8.416188421500424 13.102717639729873 0 0 0
1089 363 1 0.5897 5.115337777675022 10.784957963628592 15.027999238765965 0 0 0
1090 364 2 -1.1794 3.2901976411060185 10.72219060803398 14.904297037726499 0 0 0
1091 364 1 0.5897 2.8213286578476198 11.454423958565041 15.304569587428887 0 0 0
1092 364 1 0.5897 2.964087663220974 9.948406889572622 15.363801148406592 0 0 0
1093 365 2 -1.1794 1.6685017776147488 9.121218381705086 16.569053296441336 0 0 0
1094 365 1 0.5897 1.5387773201318615 8.173032570775497 16.58850072261773 0 0 0
1095 365 1 0.5897 0.9336805867591211 9.45346616377418 16.05347347121746 0 0 0
1097 366 1 0.5897 1.1886821251079231 7.73540583036117 13.69335170309537 0 0 0
1099 367 2 -1.1794 4.5809543431059705 9.497834596410991 12.107496927218282 0 0 0
1100 367 1 0.5897 5.232110052530483 9.047197490231815 12.645184801965279 0 0 0
1102 368 2 -1.1794 1.4976756788630063 10.780267594265034 12.829365089879548 0 0 0
1103 368 1 0.5897 1.5262493729059259 10.026794845661167 12.239709861379342 0 0 0
1104 368 1 0.5897 2.314932657588912 10.728316023967855 13.324896817033311 0 0 0
1107 369 1 0.5897 4.58945527803773 11.329342431185148 12.186973912057468 0 0 0
1087 363 2 -1.1794 6.060851561914669 10.668515915687632 14.935233697867611 0 0 0
1179 393 1 0.5897 0.3635155793673278 10.55421530275743 14.2410813717421 1 0 0
1127 376 1 0.5897 5.901178689788968 7.822529381869201 14.197912194792401 0 0 0
1178 393 1 0.5897 0.33180972554902616 11.263686837590223 15.578033179593092 1 0 0
1105 369 2 -1.1794 4.619548604431284 12.276537573145468 12.321805421149833 0 0 0
1128 376 1 0.5897 6.072355535680099 7.063683155788386 12.899200561541063 0 0 0
1108 370 2 -1.1794 1.5994183804945798 6.3770982354578765 16.431313302333443 0 0 0
986 329 1 0.5897 4.011494188332744 6.41921698133997 12.652962685151182 0 0 0
1096 366 2 -1.1794 0.26132893008861435 7.747179722585545 13.456633042948653 0 0 0
750 250 1 0.5897 1.6481878825659144 12.115282883369241 11.576450849275455 0 0 0
1230 410 1 0.5897 1.6907527182207902 12.170452742447313 17.250485457889933 0 0 0
1566 522 1 0.5897 3.4124673889201294 6.894109916029609 18.898520236277676 0 0 0
1582 528 2 -1.1794 1.7238744652029634 10.978097717945683 18.6175971962714 0 0 0
1583 528 1 0.5897 0.9818760978660575 10.852902855751054 19.20914445204783 0 0 0
1567 523 2 -1.1794 6.136877083598422 10.771987303477953 20.64802315501896 0 0 0
1571 524 1 0.5897 3.0751670595503406 10.898213152855764 19.962483868259213 0 0 0
1588 530 2 -1.1794 1.564106184969269 6.330737404342385 22.107557245099773 0 0 0
1580 527 1 0.5897 4.015826143616051 8.919894326766627 18.363877336437916 0 0 0
1575 525 1 0.5897 2.353283479605531 9.629409802493447 21.66438880277149 0 0 0
1589 530 1 0.5897 1.6732524927899102 7.281640530675297 22.09595894961418 0 0 0
1585 529 2 -1.1794 4.6386773725937305 12.172245665712772 17.801085085959453 0 0 0
1564 522 2 -1.1794 3.0301979331387976 7.632996942389761 19.37195499345454 0 0 0
1572 524 1 0.5897 4.37755698125403 10.677712734456778 20.701996017703525 0 0 0
1579 527 2 -1.1794 4.740147393257153 9.380404266739781 17.94023357332593 0 0 0
1467 489 1 0.5897 5.337336829921341 6.416590577465494 18.043550515845098 0 0 0
1570 524 2 -1.1794 3.434362090338639 10.764881999769937 20.839622586865747 0 0 0
1562 521 1 0.5897 4.700196451203572 7.164000291976386 21.9807093566128 0 0 0
1581 527 1 0.5897 5.527448581685349 8.973975143621372 18.3023850794536 0 0 0
1710 570 1 0.5897 2.4191850231441134 12.008892117482425 21.76701742589058 0 0 0
1584 528 1 0.5897 1.7076545850372695 10.210150533937977 18.046433740233148 0 0 0
1608 536 1 0.5897 6.150750817917418 7.76854364501202 19.988754091519144 0 0 0
1658 553 1 0.5897 0.3863687379507886 10.11605950563768 21.23846025282913 1 0 0
1561 521 2 -1.1794 4.898048121978238 7.901131379882707 21.403025970371232 0 0 0
1573 525 2 -1.1794 1.695310441716561 9.101922507591816 22.11718069660243 0 0 0
1709 570 1 0.5897 0.9134945872506486 12.049699470962791 21.615574346711266 0 0 0
1587 529 1 0.5897 4.792264928915404 11.228097203497331 17.765630221193778 0 0 0
1565 522 1 0.5897 2.0849735170109334 7.514377450400481 19.27901839985868 0 0 0
1563 521 1 0.5897 4.1854336070014995 7.903230706260414 20.764012315649733 0 0 0
1576 526 2 -1.1794 0.337040855490036 7.572632713673521 19.2145910415596 0 0 0
141 47 1 0.5897 4.79375584778653 9.070548897717988 22.739731961313876 0 0 -1
1708 570 2 -1.1794 1.6267927708993368 12.359685203413978 22.17350510255183 0 0 0
241 81 2 -1.1794 4.823623058204413 14.089938430201723 4.451137319355893 0 0 0
242 81 1 0.5897 4.877816290683312 13.318731093766104 5.015525858714284 0 0 0
243 81 1 0.5897 4.0912612913056146 13.905871386593706 3.8629784652386725 0 0 0
244 82 2 -1.1794 2.9213737172610155 13.852024529348414 2.392262469120066 0 0 0
245 82 1 0.5897 1.9644361317241248 13.86817065022959 2.405245022877279 0 0 0
246 82 1 0.5897 3.166352617852163 14.59206172476797 1.8367828620374802 0 0 0
250 84 2 -1.1794 3.2525500686575035 17.15354191266705 3.823785263525905 0 0 0
251 84 1 0.5897 2.9082048207816906 17.13549576491124 2.930885680289541 0 0 0
252 84 1 0.5897 4.201921978815177 17.096577412748626 3.716058389925866 0 0 0
253 85 2 -1.1794 1.5357610226397231 15.34833865053683 5.010607790404717 0 0 0
254 85 1 0.5897 0.7734178936935208 15.799782378367926 4.648372404025082 0 0 0
255 85 1 0.5897 2.287086393745104 15.821801697666011 4.65349869606473 0 0 0
259 87 2 -1.1794 4.599824182369848 15.59389050615005 0.9628845758400241 0 0 0
260 87 1 0.5897 4.580158163750266 16.547004133054767 0.8765607884997478 0 0 0
262 88 2 -1.1794 1.4577492686612685 17.05667114244494 1.5834675438151133 0 0 0
263 88 1 0.5897 1.568164936761242 16.29935848918962 1.0085623243771353 0 0 0
264 88 1 0.5897 1.4203696151230791 17.80592699296295 0.9889526937246536 0 0 0
269 90 1 0.5897 1.5148440122319424 13.504099803163413 5.141686614775346 0 0 0
146 49 1 0.5897 5.416794666014854 12.63400633595031 1.1715283870101434 0 0 0
288 96 1 0.5897 5.923292421164909 14.596975147240002 1.6862323823515843 0 0 0
268 90 2 -1.1794 1.5984658515362473 12.550727425921984 5.160527716739719 0 0 0
338 113 1 0.5897 0.31360225078247594 17.05582391937126 2.9541447525994475 1 0 0
147 49 1 0.5897 3.906038995666526 12.60219720131998 1.2626998637253979 0 0 0
287 96 1 0.5897 6.00358501041824 13.938541150772139 3.047043898493716 0 0 0
247 83 2 -1.1794 6.008433961416369 17.029467774732186 3.582227124802424 0 0 0
389 130 1 0.5897 2.2266162573821764 18.360861340931937 4.7466647952836905 0 0 0
265 89 2 -1.1794 4.644953148134423 18.2643725759325 0.7676815264319881 0 0 0
256 86 2 -1.1794 0.06225560379507773 14.019001292717713 2.379447456054072 0 0 0
339 113 1 0.5897 0.06880170719523829 17.69328502848158 4.305257538309427 1 0 0
261 87 1 0.5897 4.612861725614865 15.271508058263828 0.06172885032859554 0 0 0
740 247 1 0.5897 4.8074128605912065 15.313269209878465 5.937290919005556 0 0 0
722 241 1 0.5897 3.9044681848587373 13.820087945936658 9.591118180183434 0 0 0
741 247 1 0.5897 4.595634815158129 16.6227322614602 6.666930820496974 0 0 0
739 247 2 -1.1794 4.661819650871904 15.678577410919592 6.809951642670262 0 0 0
744 248 1 0.5897 1.5356178023708378 16.30904050915593 6.72453421541066 0 0 0
627 209 1 0.5897 5.409036832500563 12.485286354204202 6.979685808361459 0 0 0
727 243 2 -1.1794 6.070532262007298 16.96894176148383 9.435301567155479 0 0 0
736 246 2 -1.1794 0.270694643080093 14.072777121921613 7.874792207554656 0 0 0
737 246 1 0.5897 1.2224067092006596 13.998126470764568 7.944268580002768 0 0 0
730 244 2 -1.1794 3.3076253161905287 17.097460204770208 9.545479490071797 0 0 0
768 256 1 0.5897 6.02544263497159 14.611219807106279 7.634035440164461 0 0 0
725 242 1 0.5897 3.401719733194714 14.629478232345027 7.692305048344423 0 0 0
870 290 1 0.5897 2.2228896172094923 18.324342071985825 10.553293158125728 0 0 0
721 241 2 -1.1794 4.671734800541056 13.928634392966405 10.152974918322572 0 0 0
731 244 1 0.5897 2.824232105796152 17.23114481212196 8.730231264779526 0 0 0
724 242 2 -1.1794 2.9963691118987685 13.816002725063662 7.992617068855657 0 0 0
723 241 1 0.5897 5.41776238360719 13.845090562180154 9.559151516557163 0 0 0
733 245 2 -1.1794 1.6603712739140781 15.148245109098857 10.731761351240902 0 0 0
732 244 1 0.5897 2.904398053684943 16.323901049086174 9.939491658725403 0 0 0
749 250 1 0.5897 1.705514149834183 13.404979070757147 10.785684958341536 0 0 0
735 245 1 0.5897 0.8657171151025221 15.487566111122105 10.319984410766972 0 0 0
742 248 2 -1.1794 1.511151504834656 17.045059393349757 7.336013668610643 0 0 0
869 290 1 0.5897 0.7097533253351792 18.27829051171066 10.552456471705941 0 0 0
745 249 2 -1.1794 4.506531359239143 18.443132423306714 6.414931257460056 0 0 0
748 250 2 -1.1794 1.7422389833781082 12.453670991901362 10.686040569500612 0 0 0
743 248 1 0.5897 1.4870077925687453 17.821297695768127 6.7764566384843805 0 0 0
726 242 1 0.5897 3.3674688503467842 13.13952293942874 7.426156498882436 0 0 0
818 273 1 0.5897 0.2864024628847826 16.869479557552083 8.690726333526602 1 0 0
728 243 1 0.5897 5.121120240986748 17.0600334027509 9.51577342449924 0 0 0
1201 401 2 -1.1794 4.708763901301059 14.021822196440944 15.809167449092586 0 0 0
1202 401 1 0.5897 5.444689528011689 13.880157115688602 15.21376098206709 0 0 0
1203 401 1 0.5897 4.746876230728446 13.28387951628857 16.417622065608146 0 0 0
1204 402 2 -1.1794 3.064681129164152 14.073301943475984 13.66212139110243 0 0 0
1205 402 1 0.5897 3.5376655207016077 14.194640202693726 14.485366126676048 0 0 0
1206 402 1 0.5897 3.5205954136062667 13.35264220832178 13.227365086786897 0 0 0
1210 404 2 -1.1794 3.456429455373257 17.014175040186178 14.888658862997794 0 0 0
1211 404 1 0.5897 3.1485460229533464 17.759248179997332 15.404701599007945 0 0 0
1212 404 1 0.5897 4.407507928519695 17.02464212067376 14.99587549505539 0 0 0
1213 405 2 -1.1794 1.5883881292518347 15.305229369793944 16.40383787366097 0 0 0
1214 405 1 0.5897 0.8895056427736076 15.843375957417123 16.03214801084397 0 0 0
1215 405 1 0.5897 2.3950686435780337 15.687506630185517 16.058431017565 0 0 0
1218 406 1 0.5897 1.2874235245663317 13.870978260346819 13.654376318118597 0 0 0
1219 407 2 -1.1794 4.739962245811251 15.740189312472372 12.260809013877028 0 0 0
1220 407 1 0.5897 4.0644228820420825 15.289542851671408 12.767512804180276 0 0 0
1222 408 2 -1.1794 1.4480871719495125 16.829369715214202 12.91348500600132 0 0 0
1223 408 1 0.5897 1.5207629549605857 17.583635610889488 12.328649488526953 0 0 0
1224 408 1 0.5897 2.221443334149725 16.88545422207705 13.474676560892533 0 0 0
1227 409 1 0.5897 4.540935828454063 17.444196709144318 12.101619071539314 0 0 0
1229 410 1 0.5897 1.6023641146337801 13.439823624540589 16.430245040790002 0 0 0
1247 416 1 0.5897 5.886206484579963 14.762345136509982 13.251615228600242 0 0 0
1216 406 2 -1.1794 0.3566743887697908 13.742793722204205 13.471529244099019 0 0 0
1298 433 1 0.5897 0.3226493455389051 17.081253655594796 14.29110947979243 1 0 0
1228 410 2 -1.1794 1.52850850537753 12.487890387805892 16.36217662468552 0 0 0
1248 416 1 0.5897 6.015886752743921 13.258471445091972 13.135315441979424 0 0 0
1350 450 1 0.5897 1.033330937651011 18.439760917778695 16.03754633208512 0 0 0
1225 409 2 -1.1794 4.479437552638146 18.39869922340067 12.139166551072295 0 0 0
734 245 1 0.5897 1.6466681870145996 15.513031318356411 11.616595089506328 0 0 0
1207 403 2 -1.1794 6.165643073866759 17.019869966629745 15.13135704329445 0 0 0
1217 406 1 0.5897 0.07728721336542321 14.562173760944216 13.063118151125275 0 0 0
1106 369 1 0.5897 4.682082118492893 12.642669958212284 11.439636411637926 0 0 0
1221 407 1 0.5897 4.837202615837607 15.212690298946194 11.46803583393889 0 0 0
1700 567 1 0.5897 4.858045487649401 15.242764960696976 17.16447254906299 0 0 0
1702 568 2 -1.1794 1.6984544443823386 16.986993571318816 18.54534811008289 0 0 0
1704 568 1 0.5897 1.7101262804595125 17.78155446054793 18.011706713478553 0 0 0
1830 610 1 0.5897 2.164583771614368 18.373419227844586 21.775240436223072 0 0 0
1701 567 1 0.5897 4.1419201880613885 15.278816382760851 18.497738880902787 0 0 0
1705 569 2 -1.1794 4.986463835833605 18.440667086868196 17.952941017246903 0 0 0
1586 529 1 0.5897 5.3559770197631575 12.512170065364662 18.335974174669385 0 0 0
1703 568 1 0.5897 1.5824205587319444 16.276129443034822 17.91492524577528 0 0 0
1696 566 2 -1.1794 0.23973218634638613 13.685060599265494 19.23338531590875 0 0 0
1699 567 2 -1.1794 4.851570693873694 15.694689416394835 18.008222826013785 0 0 0
1681 561 2 -1.1794 4.754303792445127 14.019302909780007 21.402303721653652 0 0 0
1689 563 1 0.5897 4.969860610878467 17.165695509726973 20.61568253809462 0 0 0
1695 565 1 0.5897 1.691175563644904 14.179690599268234 22.163205118670458 0 0 0
1682 561 1 0.5897 5.510105503773988 13.886411959952877 20.830228161614507 0 0 0
1778 593 1 0.5897 0.413721419753493 16.855827693587646 19.87596595624134 1 0 0
1728 576 1 0.5897 6.1268730076446944 14.545150824418892 18.842721099788708 0 0 0
1694 565 1 0.5897 0.9755465712093696 15.452572757475567 21.763774242298332 0 0 0
1692 564 1 0.5897 2.7703985626479337 17.006592877402152 19.985174469533366 0 0 0
1707 569 1 0.5897 4.905418860051922 17.490992494952756 17.864547375730115 0 0 0
1779 593 1 0.5897 0.37417439682939213 17.53275094509094 21.229481353706323 1 0 0
1697 566 1 0.5897 1.1864800728990677 13.824193185569612 19.255046813294808 0 0 0
1684 562 2 -1.1794 2.9886224535119066 13.934863522741395 19.248486797913074 0 0 0
1685 562 1 0.5897 3.305329398098738 13.202514176300546 18.719727146700514 0 0 0
1691 564 1 0.5897 2.8913596007391944 16.33498171478743 21.336506504981205 0 0 0
1683 561 1 0.5897 4.789252150490131 13.288673599077102 22.01970790519968 0 0 0
1690 564 2 -1.1794 3.2290915049632423 17.068768458248787 20.822971105273858 0 0 0
1693 565 2 -1.1794 1.7055644029561605 15.12821964486312 22.291070467566943 0 0 0
1687 563 2 -1.1794 5.916700998209873 17.127305293798432 20.750497635686628 0 0 0
1686 562 1 0.5897 3.552296541069636 13.933745028611362 20.022073462782494 0 0 0
361 121 2 -1.1794 4.598838969668563 20.23676898462259 4.3104707572426415 0 0 0
362 121 1 0.5897 3.9153322515372557 20.089439511212063 3.656805013342387 0 0 0
363 121 1 0.5897 4.515227456676645 19.49969629780682 4.9154171644904014 0 0 0
364 122 2 -1.1794 2.884304080513432 19.990089994831 2.144911990959571 0 0 0
365 122 1 0.5897 3.243128904862246 20.746588295368 1.6810344894000544 0 0 0
366 122 1 0.5897 1.9353781378989758 20.091229448129116 2.070971442725704 0 0 0
370 124 2 -1.1794 3.275491949400212 23.167289986087287 3.37779245063003 0 0 0
371 124 1 0.5897 4.217013689418367 23.050162919678908 3.504184917029878 0 0 0
372 124 1 0.5897 2.8741646523522846 22.490704167061658 3.9231213936198115 0 0 0
373 125 2 -1.1794 1.57518018073646 21.547318178952466 4.93999148764828 0 0 0
375 125 1 0.5897 0.8686066626652503 22.00257070674582 4.482080743867801 0 0 0
379 127 2 -1.1794 4.57556542669608 21.702720211873512 0.6999298463339723 0 0 0
380 127 1 0.5897 4.651570958232306 22.639290098114895 0.8824741700549055 0 0 0