LAMMPS (30 Jul 2021)
Processor partition = 0
  using 2 OpenMP thread(s) per MPI task
using multi-threaded neighbor list subroutines
variable        pid world 0 1
variable        phase world IceV IceIII

shell cd ${phase}
shell cd IceV
include Restart.lmp
echo both
log log.lammps
#include		in.partitions
include		in.temp
variable        temperature equal 56.47
variable	tempDamp equal 100.0
include		in.pressure
variable        pressure equal 6796.0
variable        pressureDamp equal 1000.0 # This is 1 ps
include		in.seed
variable        seed equal 745823

units		real
atom_style	full
read_restart    restart.lmp.${pid}
read_restart    restart.lmp.0
Reading restart file ...
  restart file = 30 Jul 2021, LAMMPS = 30 Jul 2021
  restoring atom style full from restart
  triclinic box = (-3.0692900 -0.070125551 0.084176447) to (14.679289 22.650125 19.145822) with tilt (-0.20914106 -6.6358607 0.15023803)
  2 by 4 by 4 MPI processor grid
  restoring pair style lj/cut/tip4p/long/omp from restart
  restoring bond style harmonic/omp from restart
  restoring angle style harmonic/omp from restart
  1008 atoms
  672 bonds
  336 angles
Finding 1-2 1-3 1-4 neighbors ...
  special bond factors lj:    0        0        0       
  special bond factors coul:  0        0        0       
     2 = max # of 1-2 neighbors
     1 = max # of 1-3 neighbors
     1 = max # of 1-4 neighbors
     2 = max # of special neighbors
  special bonds CPU = 0.002 seconds
  read_restart CPU = 0.008 seconds

include 	in.setup
variable	out_freq equal 1000
variable	out_freq2 equal 10000
variable	out_freq3 equal 1000

timestep	2.0

neigh_modify    delay 7 every 1

include		in.tip4p
# This is TIP4P/Ice

# create groups ###
group ox type 2
336 atoms in group ox
group hy type 1
672 atoms in group hy

# set charges - beside manually ###
set group ox charge -1.1794
Setting atom values ...
  336 settings made for charge
set group hy charge 0.5897
Setting atom values ...
  672 settings made for charge

# ### TIP3P Potential Parameters ###
pair_style lj/cut/tip4p/long/omp 2 1 1 1 0.1577 8.5
pair_coeff 1 1*2 0.000 0.000
pair_coeff 2 2 0.21084 3.1668
bond_style  harmonic
bond_coeff  1 450 0.9572
angle_style harmonic
angle_coeff 1 55 104.52
kspace_style pppm/tip4p/omp 1.0e-5
pair_modify tail yes

thermo          ${out_freq}
thermo          1000
thermo_style    custom step temp pe etotal epair emol press lx ly lz vol pxx pyy pzz pxy pxz pyz enthalpy

restart 	${out_freq3} restart.lmp.${pid} restart2.lmp.${pid}
restart 	1000 restart.lmp.${pid} restart2.lmp.${pid}
restart 	1000 restart.lmp.0 restart2.lmp.${pid}
restart 	1000 restart.lmp.0 restart2.lmp.0


include         in.dump
dump            myDump all atom ${out_freq2} dump.water.${pid}
dump            myDump all atom 10000 dump.water.${pid}
dump            myDump all atom 10000 dump.water.0
dump            myDump2 all dcd ${out_freq2} dump.dcd
dump            myDump2 all dcd 10000 dump.dcd
dump_modify     myDump append yes
dump_modify     myDump2 append yes


variable natoms 	equal  "count(all)"                        # NUMBER ATOMS
variable H      	equal  "enthalpy/v_natoms"                 # ENTHALPY-per-atom
variable Vol      	equal  "vol/v_natoms"                 # volume-per-atom
fix AVG all 		ave/time ${out_freq} 1 ${out_freq} v_Vol v_H file vol_enthalpy.dat
fix AVG all 		ave/time 1000 1 ${out_freq} v_Vol v_H file vol_enthalpy.dat
fix AVG all 		ave/time 1000 1 1000 v_Vol v_H file vol_enthalpy.dat



fix 		1 all shake 1e-6 200 0 b 1 a 1
Finding SHAKE clusters ...
       0 = # of size 2 clusters
       0 = # of size 3 clusters
       0 = # of size 4 clusters
     336 = # of frozen angles
  find clusters CPU = 0.000 seconds
fix             2 all nph tri ${pressure} ${pressure} ${pressureDamp}
fix             2 all nph tri 6796 ${pressure} ${pressureDamp}
fix             2 all nph tri 6796 6796 ${pressureDamp}
fix             2 all nph tri 6796 6796 1000
fix             3 all temp/csvr ${temperature} ${temperature} ${tempDamp} ${seed}
fix             3 all temp/csvr 56.47 ${temperature} ${tempDamp} ${seed}
fix             3 all temp/csvr 56.47 56.47 ${tempDamp} ${seed}
fix             3 all temp/csvr 56.47 56.47 100 ${seed}
fix             3 all temp/csvr 56.47 56.47 100 745823


run             250000
PPPM initialization ...
  extracting TIP4P info from pair style
  using 12-bit tables for long-range coulomb (../kspace.cpp:340)
  G vector (1/distance) = 0.38011627
  grid = 24 27 32
  stencil order = 5
  estimated absolute RMS force accuracy = 0.00237454
  estimated relative force accuracy = 7.1508567e-06
  using double precision FFTW3
  3d grid and FFT values/proc = 5355 672
Last active /omp style is kspace_style pppm/tip4p/omp
Neighbor list info ...
  update every 1 steps, delay 7 steps, check yes
  max neighbors/atom: 2000, page size: 100000
  master list distance cutoff = 10.8154
  ghost atom cutoff = 10.8154
  binsize = 5.4077, bins = 5 5 4
  1 neighbor lists, perpetual/occasional/extra = 1 0 0
  (1) pair lj/cut/tip4p/long/omp, perpetual
      attributes: half, newton on, omp
      pair build: half/bin/newton/tri/omp
      stencil: half/bin/3d/tri
      bin: standard
Setting up Verlet run ...
  Unit style    : real
  Current step  : 41000000
  Time step     : 2
Per MPI rank memory allocation (min/avg/max) = 10.31 | 10.33 | 10.33 Mbytes
Step Temp PotEng TotEng E_pair E_mol Press Lx Ly Lz Volume Pxx Pyy Pzz Pxy Pxz Pyz Enthalpy 
41000000    61.239599   -5261.7891   -5139.3024   -5261.7891            0    7791.3737    17.748579     22.72025    19.061645    7686.6494    7665.9973    7645.2645    8062.8594    426.76812   -54.527535   -122.45043   -4265.8746 
41001000    56.415505   -5273.7215   -5160.8835   -5273.7215            0    7144.9439    17.727859    22.662119    19.195318    7711.7353     8049.521    7089.3687    6295.9421    142.02137   -232.95992     402.5519   -4357.3078 
41002000    57.132433   -5274.4644   -5160.1925   -5274.4644            0    6112.1493    17.814307    22.694072    19.130289    7733.9775    6610.7891    6225.7839    5499.8749    233.86397   -18.769916    643.90333   -4470.7902 
41003000    55.957927   -5270.0628     -5158.14   -5270.0628            0    7552.2277    17.764885    22.670827    19.086447    7686.9642    7844.0881     7405.616     7406.979   -655.40526   -117.99665   -11.214255   -4311.4863 
41004000    52.715324   -5274.5076   -5169.0705   -5274.5076            0    6386.8713    17.853482    22.702089    19.072333    7730.2329    6123.1454    6471.7372    6565.7313   -371.79367   -156.86411   -280.99477   -4449.0304 
41005000    54.783928   -5267.4594   -5157.8848   -5267.4594            0    6756.6351    17.837643     22.67536    19.052386    7706.2134    6865.3192    6501.0324    6903.5537    240.02293    102.08614    347.19816   -4398.5254 
41006000    56.841222   -5268.4372   -5154.7478   -5268.4372            0    6792.8675    17.788519    22.619274    19.184985    7719.3356    6068.8689    7262.7244    7047.0092   -735.38791   -483.91527    256.77365   -4390.0163 
41007000    57.460758   -5274.8703   -5159.9417   -5274.8703            0    7344.9926    17.794932    22.549873    19.194788     7702.359    7023.8311    8143.3489    6867.7979    706.17342    646.12181   -362.58285   -4334.8713 
41008000    55.712479   -5270.2922   -5158.8604   -5270.2922            0    7078.0655    17.809583    22.674714    19.083085    7706.2685    7326.3495    6500.2692    7407.5777    207.41195   -485.99903   -765.37557   -4363.3706 
41009000    58.093931   -5269.6817   -5153.4867   -5269.6817            0    6713.4534     17.84113    22.597022    19.144835    7718.3627    7509.7715    6523.5554    6107.0332    229.58139   -694.91119    42.480168   -4397.7908 
41010000    60.295457   -5278.5187   -5157.9204   -5278.5187            0    5887.2223    17.933442    22.644944    19.051899    7737.0103     5430.723    5467.9372    6763.0069    -6.221829   -496.01105    662.08742   -4493.6276 
41011000    55.552425   -5270.4855   -5159.3737   -5270.4855            0    7372.1531    17.850658    22.587219    19.113825     7706.632    7804.6481    7320.5543    6991.2569   -314.02795    2.6263788   -584.48799    -4330.793 
41012000    58.523162   -5268.2814   -5151.2279   -5268.2814            0    6205.7348    17.830302    22.701619    19.107229    7734.1617    6033.1091    6268.8578    6315.2374   -831.62316   -442.53575    805.67445   -4451.2532 
41013000    59.353341    -5266.321    -5147.607    -5266.321            0    8026.1368    17.905883    22.515288    19.054191    7681.8137    8272.2017    7779.5706    8026.6381    330.22536   -390.58964    460.42148   -4248.4279 
41014000     58.26496   -5275.6609   -5159.1238   -5275.6609            0    6826.9143    17.835721    22.586938    19.129082    7706.2332    7526.0447    6899.0516    6055.6467   -425.86927    195.10754   -629.41442    -4391.864 
41015000    55.384893   -5267.5698   -5156.7932   -5267.5698            0    7469.3963    17.777218    22.687478    19.078836    7694.8806     8115.127    7660.0854    6632.9766   -308.69649   -45.121736   -359.68552    -4318.563 
41016000    58.600757   -5277.7553   -5160.5466   -5277.7553            0    6576.3574    17.840443    22.641356    19.136772    7729.9511    6043.3295    6768.2122    6917.5306   -34.283734   -182.75885   -207.46418   -4419.1714 
41017000    56.677911   -5274.7525   -5161.3897   -5274.7525            0    6642.8711    17.806022    22.694915    19.113659    7723.9473     6588.338    6437.0288    6903.2465   -650.78416   -35.379452    -630.2726   -4413.0978 
41018000    57.400499     -5276.85   -5162.0419     -5276.85            0    7155.7631    17.755589    22.756698    19.043284    7694.6022    6574.7767    6674.8116     8217.701    92.957786   -491.00721    527.97278   -4359.0373 
41019000    56.765984   -5275.1589   -5161.6199   -5275.1589            0    6680.5334    17.783052    22.756117     19.07858    7720.5905    6067.8764    6694.0399    7279.6838   -277.20872    55.352541    124.00575   -4409.4126 
41020000    60.086927   -5278.9416   -5158.7603   -5278.9416            0    7432.7381      17.8559    22.626071    19.065717    7702.7187    6461.0272    7964.3411    7872.8459   -185.97756     998.9769   -556.17037   -4323.7944 
41021000    57.767833   -5278.7272   -5163.1844   -5278.7272            0     7014.711    17.752406    22.763258    19.039881    7694.0655      7868.06    6416.1707    6759.9022   -230.72948   -146.34368    361.11039   -4376.0633 
41022000    57.077795   -5269.0115   -5154.8489   -5269.0115            0    7406.3171    17.796386    22.815776    18.941429    7690.9464    7235.3614    7580.8869    7402.7031   -359.52663    140.85858   -771.60245   -4324.1225 
41023000    53.236253   -5272.0911    -5165.612   -5272.0911            0    6633.2041    17.871951    22.673885    19.062504    7724.6328    6162.9013    6868.5281    6868.1828   -527.45404     178.7074    510.97407   -4418.3428 
41024000    60.168032   -5266.8347   -5146.4912   -5266.8347            0     7248.884    17.684938     22.75507     19.10564    7688.5297    7795.1746    7162.4272    6789.0504    -469.6849   -136.85252    364.96792   -4333.6787 
41025000    57.936401   -5268.8822   -5153.0022   -5268.8822            0     7247.182    17.885005    22.643761    19.044698    7712.7939    7174.0927    7429.7966    7137.6568  -0.93160299    323.38775    216.62099   -4337.8161 
41026000    58.224127   -5270.1385   -5153.6831   -5270.1385            0    6886.5965    17.856858    22.581562    19.105081    7703.8519    6033.2779    6944.5938    7681.9178    188.15182   -578.74384   -115.78263   -4379.9548 
41027000    56.688296   -5265.2248   -5151.8412   -5265.2248            0    7369.5929     17.77901    22.616126    19.146369    7698.6077    7242.1382    8154.4075    6712.2329    506.63553    544.04147    4.8210481   -4324.4106 
41028000     56.87334   -5275.4158   -5161.6621   -5275.4158            0    7080.0226    17.893044    22.528358    19.106413    7701.8126    6017.7637    7844.4247    7377.8796     395.4208    603.15527   -370.51081   -4366.4125 
41029000    56.748101   -5271.9799   -5158.4767   -5271.9799            0    6492.3206    17.867211    22.557467    19.139775    7714.0764    6423.5769    7129.6956    5923.6891   -674.36474    92.234339    490.63287   -4428.0784 
41030000    59.218626   -5273.1164   -5154.6718   -5273.1164            0    6722.9941    17.881358     22.56043    19.152398    7726.2903    6313.1177    6835.7641    7020.1004   -527.83607    -380.3637    372.26056   -4397.1247 
41031000    58.207043   -5269.7669   -5153.3456   -5269.7669            0    6656.7416    17.841043    22.632056    19.128544    7723.7136    6235.2881    6743.7516     6991.185   -476.50598    286.45087   -145.49567    -4403.514 
41032000    56.367795   -5265.7723   -5153.0297   -5265.7723            0    7541.4506     17.83461    22.558333    19.141387    7700.9451    8128.8928     8006.959       6488.5    75.891695     385.5826    598.64099   -4306.0465 
41033000     55.52594   -5270.6317   -5159.5729   -5270.6317            0     7044.917    17.834579    22.595238    19.150156    7717.0636     6194.089     7585.347    7355.3149   -147.92722   -620.78672     636.8291   -4366.6995 
41034000    55.129457   -5277.1026   -5166.8369   -5277.1026            0     5341.996    17.764375    22.710284    19.204857    7747.8925    6027.9479     5249.248    4748.7923   -307.99458     176.4778   -244.14176   -4563.2177 
41035000    55.002853   -5273.0014   -5162.9889   -5273.0014            0      7438.17     17.74056    22.762238    19.044358    7690.3945    7914.3277    6834.5533    7565.6291   -647.44498   -921.41837   -930.15681   -4328.7496 
41036000    54.723938   -5273.0497   -5163.5951   -5273.0497            0    6905.5234    17.806579    22.693519    19.075996    7708.4943    7175.5079    6982.6118    6558.4506   -758.38749   -439.65451     428.1423   -4387.2728 
41037000    58.185771   -5275.3532   -5158.9745   -5275.3532            0    6846.3255    17.793888    22.658544    19.136566    7715.5491    7125.0628    6865.3191    6548.5945   -588.39454    643.33789   -51.799152   -4388.6029 
41038000    54.148104   -5269.0246   -5160.7217   -5269.0246            0    6723.9962    17.825821    22.703065    19.066662     7716.293    6243.7955    7126.0063    6802.1868    183.92614    212.35714    215.52332    -4404.042 
41039000    56.074232   -5271.4904    -5159.335   -5271.4904            0    7308.0133    17.808245    22.692518     19.05574    7700.6899    8284.0884    6693.8649    6946.0864    116.39887   -511.21676    579.35463   -4338.5964 
41040000    57.587931   -5274.3848   -5159.2019   -5274.3848            0    6258.8605    17.824619    22.644761     19.15168    7730.2736    6772.0052    6246.3743    5758.2022   -144.80639    116.25439    628.98538   -4453.5897 
41041000    58.259475   -5272.2769   -5155.7508   -5272.2769            0    7281.6751    17.808665    22.504093     19.17664    7685.3808    7540.7801    8135.9767    6168.2685    638.54937   -373.25778   -367.07942   -4339.5959 
41042000    59.618052   -5279.0963   -5159.8528   -5279.0963            0    6111.1977    17.893027    22.583944    19.129312    7730.0618    6224.4391    5922.0636    6187.0905     207.6602   -279.13879   -417.54164   -4470.9068 
41043000    58.794396   -5271.0452   -5153.4491   -5271.0452            0    7660.6936    17.860983    22.578744    19.098258    7701.9184    7504.7751    7826.3691    7650.9366    707.96151   -80.215601    -260.9423   -4292.9649 
41044000    55.115183   -5276.9341   -5166.6969   -5276.9341            0     6670.561    17.814719    22.672917    19.109059    7718.3714    6815.1528    6229.6749    6966.8552   -244.79249    162.02928    -59.24333   -4415.8283 
41045000    55.484644   -5274.7398   -5163.7636   -5274.7398            0    7100.1565    17.842924    22.713695    18.993954    7697.8457    6859.5905    6864.5451    7576.3339    216.45694   -616.71594     -463.595   -4366.6632 
41046000    57.564552   -5282.6478   -5167.5116   -5282.6478            0    5879.5671    17.862752     22.71861    19.092469    7748.0467    6279.6104    5756.9464    5602.1445    128.13508    700.46535   -330.52629   -4503.1363 
41047000    57.307016   -5276.4761    -5161.855   -5276.4761            0    6161.1922    17.791206      22.7861    19.070456    7731.0141     5671.013    6085.5278    6727.0359    76.338809   -161.29715   -833.98309   -4467.1873 
41048000    55.285003   -5273.4399    -5162.863   -5273.4399            0    6977.4021    17.775923    22.702847    19.079177    7699.6706    6768.0026    6825.3298    7338.8739    248.26416   -190.65477    230.39953    -4379.358 
41049000    58.593439   -5271.8583   -5154.6642   -5271.8583            0    7274.7338    17.780053    22.625532    19.153845    7705.2693    7582.2702    7414.4615    6827.4696    805.71772     180.1874    156.56262   -4337.1773 
41050000    55.499912   -5274.0326   -5163.0259   -5274.0326            0    6917.5824    17.831178    22.676595    19.052998    7704.0873    6910.0224    6176.3409    7666.3838    348.18212   -364.44476    976.95697   -4385.7925 
41051000    60.012709   -5261.8295   -5141.7967   -5261.8295            0    7468.1565    17.732075    22.805083    19.023968    7692.9396    7784.0647    7396.6881    7223.7167   -198.50576   -554.61084     245.5613    -4303.917 
41052000    54.031581   -5270.0492   -5161.9793   -5270.0492            0    7225.5126    17.837225    22.647062     19.05695    7698.2598    7036.8506    6666.6601    7973.0269    430.94721   -557.77337   -821.06723   -4350.7622 
41053000    55.565379   -5277.2754   -5166.1378   -5277.2754            0    7002.8156    17.756662    22.748469    19.049432    7694.7682    6569.1089    7183.0031    7256.3349    1327.0756   -392.22463    528.27033   -4380.2797 
41054000    57.821655   -5267.0325    -5151.382   -5267.0325            0    7225.8792    17.737616    22.778296    19.062683    7701.9467    7179.9317    6409.0603    8088.6455    456.96023   -458.10792   -433.26389   -4339.7352 
41055000    56.516142   -5269.3533    -5156.314   -5269.3533            0    6748.3522    17.841568    22.647621    19.103729    7719.2261    7027.4821     6565.977    6651.5976   -169.08002    279.75627    694.12542   -4396.6048 
41056000     59.06583   -5267.5704   -5149.4315   -5267.5704            0    6722.4354    17.777187    22.750772    19.082329    7717.7476    6679.8552    6783.1085    6704.3424   -40.301805    54.585497   -951.41049   -4392.7849 
41057000    54.064277   -5271.4167   -5163.2814   -5271.4167            0    7289.0448    17.718771    22.745664    19.071585      7686.33    7607.6141    7315.1889    6944.3316   -559.49298    300.19771    -457.0089   -4346.1996 
41058000    55.798573   -5268.0906   -5156.4865   -5268.0906            0    6736.5127    17.836755    22.693217     18.99315    7687.9211    6506.3636    6712.9045      6990.27   -774.97839    -203.5142   -198.39158   -4401.1857 
41059000    57.376113   -5277.0115   -5162.2522   -5277.0115            0     5861.602    17.891259    22.712464    19.025535    7731.1131     5304.789    5906.6451    6373.3719   -714.77049   -763.51184   -428.86773   -4501.3545 
41060000    56.354009   -5274.7814   -5162.0664   -5274.7814            0    5289.0785    17.790416    22.717801    19.172565    7748.7674    5086.4649    5622.9069    5157.8636    57.434435   -45.784045    -475.8862   -4564.3591 
41061000    57.593543   -5267.7383   -5152.5441   -5267.7383            0    7967.3813    17.783082    22.605114    19.131262    7690.5489    8786.2092     7983.507    7132.4277   -383.21485   -180.59974    1162.4721   -4258.9324 
41062000    60.223679   -5266.6945   -5146.2397   -5266.6945            0    6685.6761    17.770432    22.646348    19.125706    7696.8609    6351.2608    6799.3714    6906.3961   -497.18096   -378.20108   -1226.2435   -4395.7671 
41063000    56.835202   -5263.6162   -5149.9388   -5263.6162            0    7897.4708    17.842582    22.546403    19.080869     7675.967    7014.4638    8103.3564    8574.5922   -99.653927   -179.84618     172.4805   -4265.8477 
41064000    55.151706   -5273.7986   -5163.4883   -5273.7986            0    6215.1467     17.84715    22.592248    19.161965    7726.2428    6133.7447    6115.0842    6396.6111    196.81488   -1044.4797    -215.1137   -4463.1698 
41065000    55.131833   -5271.6224    -5161.352   -5271.6224            0    7216.1196    17.844055    22.561687    19.131576    7702.2193    7340.2643    6840.1063    7467.9882    614.95732   -570.18345    239.29579   -4350.7727 
41066000    57.081311   -5268.0662   -5153.8965   -5268.0662            0    6426.6437     17.84428    22.665604    19.079247    7716.6278    6996.3587    6598.8798    5684.6925    391.32892   -311.76492    392.19248   -4430.6478 
41067000    55.405628   -5272.6917   -5161.8736   -5272.6917            0    6758.3335     17.75741     22.72821    19.120714    7717.0081    6553.7572    6781.8944     6939.349    696.05721   -285.21332   -451.47686   -4401.2594 
41068000    56.766914   -5271.0581   -5157.5173   -5271.0581            0    7124.2039    17.746432    22.800547    19.052761    7709.2875    7130.0144    6865.5259    7377.0712   -424.33658    328.04904   -1531.8779   -4356.5284 
41069000    53.126013   -5273.2457   -5166.9871   -5273.2457            0    7069.2304    17.774268    22.839375    18.977372    7703.9245     7016.588    6904.9908    7286.1124   -349.55842   -205.55897    47.308453   -4372.7319 
41070000    56.716595   -5269.6052    -5156.165   -5269.6052            0    6810.3234    17.821142    22.785455    18.964892    7700.9376    7031.8254    6373.4604    7025.6843   -735.81255    563.63382   -620.83068   -4391.2957 
41071000    57.642038   -5272.4699   -5157.1787   -5272.4699            0    7376.4884    17.810467    22.690719    19.062629    7703.8244    6874.2871     7587.357    7667.8211    636.87502    346.56008   -545.03558   -4328.4127 
41072000     58.51068    -5264.013   -5146.9844    -5264.013            0    7089.0207    17.777907    22.680758    19.133258    7714.8434    7391.2679    7541.1555    6334.6387    132.53683    298.41616   -58.766775   -4349.3769 
41073000     54.76756   -5277.7026   -5168.1607   -5277.7026            0    6839.1341    17.815208    22.748946     19.02412    7710.0419     6693.054    6606.0667    7218.2816   -239.64368    212.87112    -1051.492   -4399.1476 
41074000    53.558699   -5273.9212   -5166.7971   -5273.9212            0    7198.1765    17.735367    22.758312    19.090497    7705.4403    7833.4068    6618.5623    7142.5603   -121.00341    440.84463    343.56266   -4357.8953 
41075000    56.347713   -5274.5773   -5161.8749   -5274.5773            0    6771.4467    17.737757    22.651618    19.170699    7702.5741    7916.3192    6959.9286    5438.0923    86.960025    147.85856     -402.087   -4401.2102 
41076000    57.175207     -5274.75   -5160.3925     -5274.75            0    5891.8148    17.786542    22.781116    19.078185    7730.4287    6233.4919    5594.0124    5847.9402   -721.96328   -208.77269   -35.059142   -4496.1471 
41077000    53.875853   -5278.5531   -5170.7947   -5278.5531            0    6413.3208    17.863698    22.632617    19.110939    7726.5954    6392.3724    6036.4819     6811.108   -917.59155    237.50304    54.730224   -4448.1131 
41078000    58.471258   -5268.0569   -5151.1072   -5268.0569            0    6513.1434    17.841761    22.654282    19.101314    7720.6036    6526.8381    6467.3279    6545.2641   -2.3287066   -454.45447    489.46642   -4417.7463 
41079000    55.102031   -5271.7019    -5161.491   -5271.7019            0    6975.5481    17.800708    22.629112     19.12371    7703.3022    6491.5987    7178.0049    7257.0407    670.49389   -294.33669    418.17319   -4377.8248 
41080000    58.414254   -5268.1396   -5151.3039   -5268.1396            0    7983.0435    17.848642    22.531074    19.128431    7692.4806    7747.2631    7942.0239    8259.8435    530.72118    137.01372    253.11937   -4255.7106 
41081000    55.989667   -5270.5693   -5158.5831   -5270.5693            0    6294.3794    17.903348    22.560011    19.133566    7728.0423    5745.4441    6819.4065    6318.2877    814.83255   -92.202205    272.63376   -4449.1714 
41082000    53.414544   -5270.7005   -5163.8648   -5270.7005            0    6783.3512    17.827413     22.52109    19.214665    7714.5493    6145.7156    7155.2711    7049.0669    489.14209   -531.63776   -565.70214   -4400.6782 
41083000     57.77571   -5271.8092   -5156.2506   -5271.8092            0    7026.9014    17.891307    22.473182    19.193955    7717.4017     7319.852    7232.1587    6528.6934    901.26123   -93.016115    529.90992   -4365.3702 
41084000    56.976133   -5265.3097   -5151.3504   -5265.3097            0    6870.5783    17.789507    22.755587    19.062569    7716.7313    7623.0341    6059.0892    6929.6116    187.14253    554.72116   -98.432807   -4378.1314 
41085000    55.584883   -5276.3172   -5165.1406   -5276.3172            0    6483.8279    17.729075    22.790412    19.116759    7724.1825    6934.6596    6330.6517    6186.1725   -291.15084    350.82509    780.61307   -4434.7421 
41086000    55.733596   -5271.7683   -5160.2943   -5271.7683            0    6871.9782    17.758647    22.787838     19.02627    7699.5728     6908.291    6429.3272    7278.3162   -1216.5564    21.256077     830.5012   -4388.6373 
41087000    54.205517   -5271.2031   -5162.7853   -5271.2031            0    6861.4505    17.831402    22.737764     19.02532    7713.7441    6605.9359    6754.2781    7224.1374   -430.96922    365.53766    890.97852   -4390.8924 
41088000     55.77419   -5270.1628   -5158.6075   -5270.1628            0    6921.6828    17.713344    22.773096    19.101715    7705.3966    7616.6385    6487.0575    6661.3525   -314.58819   -412.09714    705.60765   -4380.7813 
41089000    53.576389   -5277.2633   -5170.1039   -5277.2633            0    6553.9562    17.749642    22.802834    19.056451     7712.949     7350.079    6062.9605    6248.8291   -73.780309    24.386197    87.161336   -4432.8792 
41090000    56.028013   -5273.5306   -5161.4677   -5273.5306            0    7044.3291     17.78523    22.754241    19.057265    7712.2735    6950.1265    6833.9874    7348.8735    590.83905    266.10884    103.24453   -4369.1526 
41091000    53.027267   -5265.2853   -5159.2243   -5265.2853            0    8012.3642    17.747223    22.648283    19.110717    7681.4403    8068.8839    8031.6764    7936.5323   -123.79904   -272.54616    646.38729   -4261.6317 
41092000     57.46429    -5279.109   -5164.1733    -5279.109            0    6271.1463    17.877708     22.57753    19.160134    7733.6909    5847.4671     6709.236    6256.7357    203.46123    250.52242    265.26401   -4456.8636 
41093000    58.709013   -5272.5053     -5155.08   -5272.5053            0     6460.086    17.823269    22.637958     19.13559    7720.8743    6100.0569    6604.4826    6675.7185    102.81241   -275.24965   -381.46498   -4427.6677 
41094000    56.844565   -5272.7219   -5159.0258   -5272.7219            0     6681.097    17.766398    22.627883    19.174418    7708.4223    6998.1513    6935.9783    6109.1612   -224.85754    35.808593   -360.54485   -4407.9406 
41095000    53.328653    -5275.926   -5169.2621    -5275.926            0    6984.3025    17.836822    22.623943    19.112943     7712.823    5920.6489    7577.0662    7455.1924    653.06765    29.355315   -436.29771   -4383.6426 
41096000    58.144227   -5274.3892   -5158.0935   -5274.3892            0    6648.8698    17.785307    22.673181    19.136984     7716.979    6232.5063    6497.3702    7216.7329   -147.94131    62.662862    307.19904   -4409.8017 
41097000    57.091877   -5275.4136   -5161.2228   -5275.4136            0    6436.4153    17.702567    22.764961    19.146954    7716.1887    7235.2756    6331.2942     5742.676     21.09885    20.807087   -1542.0946   -4436.9156 
41098000    55.840494   -5275.2351   -5163.5472   -5275.2351            0    6711.6732    17.814586    22.794711    19.034994    7729.6984    6989.9769    6299.7766    6845.2661    100.56576    456.12505   -395.16827   -4406.9422 
41099000    57.465139   -5275.2479   -5160.3105   -5275.2479            0    6589.3081    17.789829    22.707188    19.113094    7720.8677    5805.9646    6951.0071    7010.9525    917.98843   -255.74471    794.86262   -4418.3483 
41100000    55.834285   -5268.7102   -5157.0348   -5268.7102            0    8091.8011    17.671948    22.720439    19.114372    7674.6963    8636.8974    7837.6703    7800.8356    7.0785932    214.62765    71.730787   -4251.3391 
41101000    53.669505    -5276.582   -5169.2364    -5276.582            0    6437.9958    17.859522    22.676662    19.037783     7710.194    6020.7398    5975.5466    7317.7009   -134.45943   -337.96225   -495.18904   -4445.3142 
41102000    54.073215    -5267.893   -5159.7399    -5267.893            0    7037.4432    17.812043    22.746248    19.019965     7706.075    7134.6543    6395.5089    7582.1664    423.21511   -301.30987    -67.77268   -4368.8354 
41103000    57.180277   -5270.2819   -5155.9143   -5270.2819            0    6077.1791    17.773977     22.80894    19.079266    7734.8407    5942.1702    6022.5947    6266.7722   -144.46775    305.62646   -73.238702   -4470.3799 
41104000     56.61665   -5269.2062   -5155.9659   -5269.2062            0     6662.204    17.896957    22.731113    18.964838    7715.2328    5208.1555    7228.7179    7549.7385    226.06373    678.76355    511.27683    -4406.343 
41105000    58.650255   -5270.0772   -5152.7694   -5270.0772            0    6502.3995    17.813739    22.705848    19.125378    7735.7573    7054.6238    6407.4562    6045.1185    378.60943    220.48536   -549.35658   -4419.1812 
41106000    54.545086   -5273.9988   -5164.9019   -5273.9988            0    6425.2259    17.769279    22.753302    19.077972    7713.4104     6110.065     6369.097    6796.5156      -666.15    4.0702497   -406.29768   -4442.1143 
41107000    57.594776    -5273.209   -5158.0123    -5273.209            0    7060.3743     17.82139     22.58438    19.151456    7708.1748    8119.1059    6714.9618    6347.0552    497.44154    203.77055    303.46833   -4364.3145 
41108000    57.146903   -5271.6171   -5157.3163   -5271.6171            0    5644.5632    17.954459    22.605395    19.075438    7742.1027    4957.0513    5923.4779    6053.1605    424.05761    138.24946   -490.86863   -4519.9851 
41109000    56.564115   -5273.1871   -5160.0519   -5273.1871            0    7252.3427    17.847255    22.554314    19.133195    7701.7348    7560.8011    7277.1649     6919.062    786.40297   -783.34184   -92.726849   -4345.4549 
41110000    55.322764   -5263.5287   -5152.8763   -5263.5287            0    7564.7907    17.848196    22.499217    19.173208    7699.3935    8218.6148    7909.6187    6566.1388    247.63528    87.203633   -46.322163   -4303.4429 
41111000    60.057709   -5271.6001   -5151.4773   -5271.6001            0    6491.3585    17.845268    22.611055    19.115902     7713.273    7713.2957    6200.8525    5559.9273    286.46386   -454.03159    317.14084   -4421.2632 
41112000    54.700883   -5264.8694   -5155.4608   -5264.8694            0    6811.9232    17.814331     22.55947    19.167821    7703.2002    6775.9548    7501.2316    6158.5834   -209.03507    214.66971    120.57968   -4390.1871 
41113000    57.691488   -5277.6008   -5162.2107   -5277.6008            0    6508.1509    17.750813    22.680297    19.147197    7708.5407     6709.651    6706.0856    6108.7162   0.44640679    -105.8864      319.483   -4430.5568 
41114000    57.982486   -5270.6103   -5154.6382   -5270.6103            0    6693.0237    17.821108    22.672863    19.110415     7721.669    6061.0793    6931.5055    7086.4862    144.33921    113.43635   -4.0372443   -4400.9192 
41115000    57.222707   -5273.8952   -5159.4428   -5273.8952            0    7137.2196    17.793842    22.604664    19.151068    7703.0159    6732.7829    7453.9083    7224.9675    368.31971    -81.54411    -335.0651   -4357.6433 
41116000    54.202739   -5275.3536   -5166.9414   -5275.3536            0    6070.6983    17.771683    22.667484    19.191917    7731.2588    6024.5934     6629.245    5558.2565    531.94829    355.04371    471.95239   -4482.4552 
41117000    52.215106   -5268.9878   -5164.5511   -5268.9878            0     7449.356    17.769943    22.679058    19.089375    7693.1239     8158.922    7580.7783    6608.3677    830.30314   -23.614184    1000.8925   -4328.7608 
41118000     54.65661   -5272.3044   -5162.9844   -5272.3044            0    7218.5466     17.75774    22.688172    19.092733    7692.2837    7590.8098     7254.669    6810.1609   -298.23975    30.974306   -388.25445   -4353.1785 
41119000    55.957634   -5278.9395   -5167.0173   -5278.9395            0    6205.6474    17.753121    22.763227    19.135515    7733.0122    6094.2945    6158.1481    6364.4997   -505.65176   -191.73378   -380.20199   -4467.1564 
41120000    55.605067   -5270.6622   -5159.4452   -5270.6622            0    7173.5105    17.775969    22.736265    19.060817    7703.6038     6819.589    7250.3773    7450.5653   -827.57304    128.43413   -201.01874   -4353.5073 
41121000    56.596992   -5277.1533   -5163.9523   -5277.1533            0    7110.7321    17.748033    22.718648    19.103805    7702.8704    7526.4524    7176.5056    6629.2382     294.0212     631.5544    271.31431   -4365.1436 
41122000    56.571802   -5266.8149   -5153.6643   -5266.8149            0    7041.4789    17.784455    22.767434     19.05146    7714.0583    6731.3302    6928.3733    7464.7332   -3.0011194    622.81851   -91.156171   -4361.4865 
41123000    55.345987   -5268.6167   -5157.9179   -5268.6167            0    6917.0617    17.745636    22.797556    19.033839    7700.2756    7394.3706    6512.3619    6844.4525    1069.0551   -442.27746   -249.47576   -4381.1275 
41124000    58.026915   -5275.7046   -5159.6436   -5275.7046            0    6321.9934    17.792613    22.735031    19.095371    7724.3756    6501.2763    6042.5935    6422.1105    147.17078    406.36899    314.70653   -4447.4578 
41125000    56.687474   -5267.8557   -5154.4737   -5267.8557            0    6714.1979    17.763522    22.719478    19.116523    7715.0069    7277.8068    6490.3588    6374.4281   -151.89844     296.6385   -423.28407   -4399.0227 
41126000    57.279824   -5277.7229   -5163.1562   -5277.7229            0     6438.442    17.823633    22.711198     19.05932    7715.1377    7121.4573    5875.9501    6317.9187    -1186.112   -389.10952   -1047.5843   -4438.7196 
41127000    55.620052   -5275.5634   -5164.3164   -5275.5634            0    6213.3019    17.839785    22.760393    19.035753    7729.2871    6135.2183    5865.2182    6639.4692   -158.77925     39.31391    455.32951   -4463.9299 
41128000    55.376157   -5273.4757   -5162.7166   -5273.4757            0    7075.9168    17.736267    22.757261     19.08925    7704.9721    7854.9487    6374.4152    6998.3865   -156.24559    270.33806    644.24758   -4367.6021 
41129000    56.401813   -5264.3161   -5151.5055   -5264.3161            0    5956.3245    17.830249    22.609044    19.175217    7730.0073    6095.3606    5931.4392    5842.1737   -659.21082   -159.02685    631.62004   -4480.0238 
41130000    53.955873   -5274.4449   -5166.5265   -5274.4449            0     6689.499    17.783238    22.640187    19.144457    7707.8613    7477.8631    6638.2385    5952.3954   -1.3213164    96.665649    562.98805   -4414.5515 
41131000    55.637413   -5277.1949   -5165.9132   -5277.1949            0    7725.0456    17.794397    22.709569     19.04381    7695.6626    8278.3361    7255.2517    7641.5489   -56.849425   -209.08943   -264.11031   -4298.9054 
41132000    57.841399   -5269.2293   -5153.5393   -5269.2293            0    6595.4304    17.856449    22.623226    19.106373    7718.4106    6225.6758    6812.0211    6748.5944    303.60397    288.28511    738.63437    -4411.124 
41133000    57.184328   -5267.3293   -5152.9536   -5267.3293            0    7531.1531    17.878846    22.585605    19.069568    7700.3783    6333.5272    7941.4508    8318.4813   -377.43566   -550.93183      294.524   -4307.1891 
41134000    53.822774   -5272.8154   -5165.1632   -5272.8154            0    6854.8943    17.857723    22.598102    19.131449    7720.5087    7050.8612    7459.3903    6054.4314   -635.59645       36.009   -642.89844   -4393.3315 
41135000    55.526281   -5272.8204    -5161.761   -5272.8204            0    7616.2658    17.805855    22.469535    19.247776    7700.8288    8216.7755    8401.5363    6230.4855   -223.73639    842.57658     10.17708   -4306.3881 
41136000    59.852422   -5273.0422   -5153.3299   -5273.0422            0    6780.1025    17.826438    22.680035    19.065392    7708.2186    6434.9456    6382.8207    7522.5414   -334.48652    -437.3395   -245.12363   -4391.1348 
41137000    56.035537   -5273.7546   -5161.6766   -5273.7546            0    6992.9253     17.75404    22.683556    19.135821    7706.4691     7210.003    7260.2615    6508.5113    1143.9707    64.247162   -642.27588   -4375.7351 
41138000    57.415269   -5274.1125   -5159.2749   -5274.1125            0    6683.6234    17.813359    22.666433    19.086597    7706.5059    6278.5605    6914.2827    6858.0271    34.177371    42.889208   -93.049126   -4408.0925 
41139000    54.180156   -5277.6642   -5169.2972   -5277.6642            0     6386.481    17.763908    22.771739    19.109721    7730.1701    7195.5341     6252.742     5711.167   -522.51779   -252.94762   -335.86303    -4449.307 
41140000    58.291549     -5271.56   -5154.9697     -5271.56            0    6418.0879    17.802966    22.681649    19.097366    7711.5283    5364.0928    7234.5841    6655.5868    593.98444    349.96137   -177.18315   -4433.1611 
41141000     57.20511   -5277.6302   -5163.2129   -5277.6302            0    6808.7363    17.803365    22.727533    19.051549    7708.7631    6558.1051    6957.1111    6910.9928    338.67619    445.60756   -248.08153   -4397.7448 
41142000    57.379735   -5275.0462   -5160.2797   -5275.0462            0    7093.1976    17.842445    22.604579    19.129442    7715.3045    7079.6524    7393.0867    6806.8536    -357.7979    10.354835    857.00571   -4362.1545 
41143000    58.629641   -5280.8337   -5163.5672   -5280.8337            0    6197.4538    17.867972    22.650581    19.070301    7718.1311    6288.0144    5941.6048    6362.7423   -38.258172   -136.88493   -599.21739   -4465.9754 
41144000    54.466819   -5266.2869   -5157.3466   -5266.2869            0    7582.8353     17.88257    22.474625    19.129524    7688.2331    7811.8788    8026.1872    6910.4399    466.94955     293.6858    71.761455   -4307.1212 
41145000    57.657649   -5277.1669   -5161.8445   -5277.1669            0    6674.8657    17.889436    22.551214    19.127884    7716.7332    6233.7335    6822.1294    6968.7343   -995.54606   -553.69661   -612.49059   -4410.6509 
41146000    54.969576   -5270.5458   -5160.5999   -5270.5458            0    7003.7565     17.80383    22.501023    19.233468    7705.0118    6941.3369    7138.8754    6931.0572   -393.74278   -443.67288   -284.37533   -4373.5899 
41147000    54.511603   -5277.3216   -5168.2916   -5277.3216            0    6654.2601    17.900157    22.567999    19.114544    7721.7163    6387.7759    6573.7751    7001.2292    -966.0148    442.66114   -594.60759   -4418.9333 
41148000    56.808695   -5277.0005   -5163.3761   -5277.0005            0    6500.3609    17.899837    22.565061    19.128328    7726.1408    6977.9874    6114.2923    6408.8031   -539.44643    15.094722    244.36301   -4430.9295 
41149000    59.037585   -5270.1495    -5152.067   -5270.1495            0    6790.2973    17.741903    22.623049    19.183309    7699.7188    6879.7316     7639.897    5851.2632   -369.54863   -579.90298    207.79053   -4389.5676 
41150000    56.371418   -5277.5582   -5164.8084   -5277.5582            0    5897.7535    17.882898    22.476943    19.227864    7728.6952    5637.4517     6432.019    5623.7899     392.0549   -408.85884   -897.54219   -4500.0426 
41151000    62.614609   -5273.6305   -5148.3935   -5273.6305            0    7417.8208    17.795857    22.580353    19.159131    7698.8428    7001.0729    7802.9322    7449.4571    79.380118    159.63561     12.26206   -4315.5226 
41152000     54.97088    -5270.267   -5160.3184    -5270.267            0    6697.6738    17.764517    22.708786    19.131206    7717.7317    7176.6157    5897.4594    7018.9461   -613.84826   -586.19987    -538.6223   -4406.4604 
41153000    55.056075   -5264.6489   -5154.5299   -5264.6489            0    6826.9851    17.763379    22.810105    19.027839    7709.7863    7427.6689    6477.5384     6575.748     698.9358   -123.82207   -586.69712   -4386.9083 
41154000    56.788435   -5272.8074   -5159.2235   -5272.8074            0    7520.8685    17.789048    22.613838    19.122754    7692.6752    7881.6541    7291.5835    7389.3679   -782.47148    378.15285   -792.43075    -4315.459 
41155000    54.871916   -5273.5798   -5163.8292   -5273.5798            0    5849.7703    17.865006    22.605443    19.161634    7738.3562    5508.1391     6202.065    5839.1066    271.99037    739.78463    557.22513   -4503.6476 
41156000    53.908265   -5271.7279   -5163.9047   -5271.7279            0    7308.3407    17.702958    22.760099    19.080151    7687.7952    7718.5729    6921.4596    7284.9896    192.14607   -195.47747   -221.16015   -4344.5037 
41157000    53.726113   -5265.6296   -5158.1708   -5265.6296            0    7981.7382    17.764726    22.603539    19.135227    7683.6678    8715.7877    7938.2453    7291.1816   -304.39401     553.4869   -352.16996   -4263.7498 
41158000    56.941836   -5282.2098   -5168.3191   -5282.2098            0    6207.8528    17.875529    22.594422    19.140668    7730.6717    6230.2025    6239.7976    6153.5584    167.57714   -78.297463   -376.06199   -4468.4215 
41159000    54.895849   -5275.7139   -5165.9154   -5275.7139            0    6168.5999    17.823484    22.565039    19.215368    7728.1828    7237.6428    6079.2347    5188.9222    554.96261    -202.7042   -37.962846   -4470.6672 
41160000    56.031917   -5270.0308   -5157.9601   -5270.0308            0    6292.9737    17.896635    22.583939    19.132888    7733.0638    5964.0085    6558.5096    6356.4031    150.87947   -899.25035   -951.80798    -4448.246 
41161000    55.875326   -5277.1493   -5165.3917   -5277.1493            0    7793.7148    17.875429    22.493946    19.126461    7690.5384    8088.7349    8226.7076     7065.702   -682.82416   -142.08894   -76.580953   -4291.2595 
41162000    55.849073   -5272.2727   -5160.5676   -5272.2727            0    6230.1935    17.828321    22.647397    19.122815    7721.1248    6228.3846    6573.0605    5889.1355    -144.7949    129.97667    625.47177   -4459.0187 
41163000    56.480068   -5275.4244   -5162.4573   -5275.4244            0    6192.3295    17.849615    22.626182    19.119524    7721.7764    6310.8051    6197.3916    6068.7918    -215.9358   -550.02877    385.51635   -4465.1131 
41164000    56.210598   -5274.8123   -5162.3842   -5274.8123            0    7457.2144    17.851069    22.572205    19.073434    7685.4112    7661.9327    7837.9682    6871.7422   -101.47003    646.81047    324.17174    -4326.551 
41165000     53.96418   -5269.4358   -5161.5008   -5269.4358            0    6402.4782    17.806359    22.681464    19.109625    7717.8864    6634.2251    6650.2273    5922.9822    613.07823    301.52252   -201.60399   -4440.8541 
41166000    58.744464   -5269.2019   -5151.7058   -5269.2019            0    6776.9104    17.805859    22.752878    19.053775    7719.3422    6621.9438    6345.3611    7363.4263   -356.81403     93.51797    358.77534   -4388.7701 
41167000    54.449726   -5271.4866   -5162.5805   -5271.4866            0    6506.0728    17.768991    22.794259    19.057671    7718.9471    6139.6405    6519.1824    6859.3954    223.24335     657.1571    389.24799   -4430.1728 
41168000    57.264034   -5268.4786   -5153.9435   -5268.4786            0    7291.8989    17.753124    22.778022    19.051158    7703.9273    7279.3292    7461.4054    7134.9619   -195.80283   -473.85201    12.182093   -4334.6704 
41169000    60.743827   -5274.2636   -5152.7685   -5274.2636            0    6667.4199    17.721932    22.771988    19.116532    7714.7366    5924.0676    7073.7201     7004.472     415.0289    582.40148   -559.76686   -4402.6069 
41170000    54.876575   -5268.0414   -5158.2815   -5268.0414            0    6458.8871    17.897904    22.648295    19.030681      7714.22    5805.9443    6084.8064    7485.9106   -234.45958    166.26435    123.27298    -4431.631 
41171000    55.713995    -5267.158   -5155.7231    -5267.158            0    6895.1335     17.84312    22.629494    19.093904    7709.7517    6328.4834    7023.0474    7333.8697     246.3594    577.49308    -1331.862   -4380.4425 
41172000    54.688756   -5271.7485   -5162.3642   -5271.7485            0    7072.2973    17.750805    22.663669    19.125779    7694.2694     6764.405    7481.4336    6971.0534   -153.42038   -269.59616   -430.18466   -4368.7603 
41173000    54.620308   -5276.8457   -5167.5983   -5276.8457            0     6098.098       17.763    22.823257    19.079609    7735.0548    6464.5813    5396.4946    6433.2182   -720.92912   -147.52771   -117.15741   -4479.6851 
41174000    55.117346   -5272.3972   -5162.1557   -5272.3972            0    7228.5006    17.888869    22.644606    19.017006    7703.5305    6352.0255    7482.1563    7851.3199   -168.18348    -257.0156    259.74754   -4350.0474 
41175000    56.526001   -5274.5549    -5161.496   -5274.5549            0    7193.2853    17.821157     22.63976      19.0732    7695.4015    6190.6483    8306.5959    7082.6116    511.25897    459.64732    425.34921   -4354.1969 
41176000    56.531391   -5273.5029   -5160.4331   -5273.5029            0    7594.9486    17.833092    22.672173    19.038193     7697.426    7234.2308    7901.2041    7649.4109   -280.99666    557.02045   -77.424002   -4307.8313 
41177000    59.083213   -5273.0889   -5154.9151   -5273.0889            0    6647.2624    17.862041    22.572594    19.137646     7716.157    6898.7539    6411.4164     6631.617     775.9908    90.398535   -115.87835   -4406.8838 
41178000     54.51234   -5266.7355   -5157.7041   -5266.7355            0    7044.5506    17.802431    22.692828    19.113444    7721.5925    6485.3678    7377.5724    7270.7116    856.86585   -692.03886     437.1786   -4364.4066 
41179000    57.355806   -5272.6969   -5157.9782   -5272.6969            0    6039.8524    17.854161    22.696688    19.074736    7729.6614    5863.9747    5658.8851    6596.6973    402.02467   -438.99269    899.81761   -4477.1106 
41180000     56.47182   -5269.9994   -5157.0488   -5269.9994            0    7316.1308    17.828477    22.726517    18.991869    7695.1097    7090.3791    6741.0381    8116.9754   -222.92513    419.67645    169.66281   -4335.9939 
41181000    54.907073   -5274.5055   -5164.6845   -5274.5055            0    7032.3258    17.845016    22.605855    19.132459    7718.0693    6582.8865    7758.6481    6755.4429     445.6858    480.17312    403.45714   -4373.1251 
41182000    56.465607   -5269.2917   -5156.3535   -5269.2917            0      6903.78    17.780673    22.695413    19.101013    7708.0176    6759.1468    6765.3431    7186.8501    503.17538   -884.57712     267.3331   -4380.2752 
41183000    54.093618   -5272.9521   -5164.7582   -5272.9521            0    7120.0782     17.85205    22.575932    19.107351    7700.7718    7746.7235    6699.4213    6914.0899    466.37104   -106.86104    54.186308   -4365.1174 
41184000    55.230051    -5277.627   -5167.1601    -5277.627            0    6791.7952    17.836862    22.648559     19.10043    7716.1769    7723.4143    6016.8825    6635.0887   -508.49027    46.279815    139.57472   -4402.8622 
41185000    55.523931   -5264.9756   -5153.9209   -5264.9756            0    7024.8618    17.785031    22.686852    19.114406    7712.4024    6206.1934    7365.6828    7502.7092   -644.93526     289.0253   -170.16866   -4363.7821 
41186000    56.835013   -5271.3601   -5157.6831   -5271.3601            0    6536.9586    17.855869     22.69428    19.048924    7719.1209     6281.597     5953.343    7375.9357   -638.94344    1.6352353     29.67182   -4421.7819 
41187000    58.288053   -5277.9049   -5161.3216   -5277.9049            0    6967.8877    17.790622    22.711526    19.059421    7701.0002    6961.3193    6851.9318    7090.4121    330.58883    481.06989   -59.293242   -4378.7499 
41188000     57.10378   -5268.9193   -5154.7047   -5268.9193            0    6856.8472    17.810231    22.689625    19.066252    7704.8147    5948.4965    7127.1406    7494.9045   -181.33944   -2.5755777   -117.89639   -4384.2226 
41189000    51.852941   -5271.1671   -5167.4548   -5271.1671            0    6306.0188    17.826545    22.677647    19.114048    7727.1231    5654.3088    7013.1537    6250.5939   -605.54551    913.75272     281.3796   -4456.8159 
41190000    57.291724   -5266.2876   -5151.6971   -5266.2876            0     6245.062    17.861035    22.649926    19.095029    7724.9156    6748.4135    6113.8485    5872.9241   -348.19648   -2.6890017   -636.51555   -4448.1286 
41191000     56.49336   -5272.2855   -5159.2918   -5272.2855            0    6005.0771    17.785923    22.669789    19.167186     7728.269    6370.2298    6166.9822    5478.0194    108.53037   -13.938895   -906.86233   -4482.4664 
41192000    58.707737   -5272.3234   -5154.9007   -5272.3234            0    7429.2397    17.812121    22.578374    19.145281    7699.6337    7434.3804    7641.6376    7211.7011     703.5316   -174.41114    345.55269    -4320.662 
41193000    56.849143   -5276.5691   -5162.8638   -5276.5691            0    6719.5192    17.868073    22.553522    19.136588    7711.8149    6455.0691    6992.8658    6710.6228    745.54478   -452.29128   -230.87804   -4407.1268 
41194000    57.915293   -5272.7419   -5156.9041   -5272.7419            0    6836.4399    17.818069    22.661721     19.10678    7715.0903    6214.9535    7073.9897    7220.3764   -121.19177   -157.31182    -382.2384   -4387.6906 
41195000    57.502618   -5272.8133    -5157.801   -5272.8133            0    7789.7379    17.784935    22.571137    19.154313    7689.0432    7774.5116    8054.9731    7539.7289     -376.267    423.45195   -677.91761   -4284.2847 
41196000    55.662906   -5273.8442   -5162.5115   -5273.8442            0    6966.6062    17.909229    22.452109    19.187342    7715.2295    7469.2612    7185.8655     6244.692    620.32833    285.37317   -328.67103    -4378.638 
41197000    56.156977   -5273.7643   -5161.4435   -5273.7643            0    6242.7482    17.897481    22.645228     19.08231     7733.918    6620.6058    5856.4659     6251.173   -319.26233   -272.70038   -1497.0938    -4457.316 
41198000    57.159492   -5272.0981    -5157.772   -5272.0981            0    7230.5675    17.798568    22.693941    19.058921    7698.2728    7281.5469     7262.226    7147.9297    242.23377     133.9041   -229.61564    -4345.986 
41199000    58.161228   -5272.6027   -5156.2731   -5272.6027            0    7169.2363    17.775269    22.796024    19.001606    7699.5548    7015.4729    6388.5738    8103.6621    557.05586   -362.78987     -148.551   -4351.2387 
41200000     55.12999   -5273.7658    -5163.499   -5273.7658            0    6014.0729    17.751516    22.712058    19.170153    7728.8971    5979.1127    6226.4028    5836.7033     132.2865    50.737542    18.950572   -4485.6045 
41201000    58.748782   -5276.1242   -5158.6193   -5276.1242            0    7321.8079    17.787082    22.643797    19.108589    7696.3105    7303.1955    7046.3314     7615.897   -715.62799    271.59067     1026.688   -4336.7992 
41202000    55.992605   -5276.3559   -5164.3637   -5276.3559            0     5761.046    17.826706    22.762644    19.058144    7733.4702     5699.805    6042.2845    5541.0486    -183.5661    461.85892    329.98185   -4514.6057 
41203000     52.35497   -5271.1054    -5166.389   -5271.1054            0    6881.4006    17.777995    22.759091    19.055693    7710.1431    6467.2103    7049.8571    7127.1345     334.1051    111.00405   -622.08807   -4392.6131 
41204000    54.307514   -5278.5942   -5169.9725   -5278.5942            0    5956.7105    17.896608    22.648988    19.081158    7734.3574    5166.3765    6010.7533    6693.0018   -52.693165    238.35939    362.91234   -4498.0694 
41205000    56.714004   -5279.8304   -5166.3953   -5279.8304            0    6777.6983    17.830539    22.744294    19.025554     7715.681    6266.8634    7097.6821    6968.5493   -717.83025    236.34484   -1449.9324   -4403.7329 
41206000    54.710614    -5273.693    -5164.265    -5273.693            0    6865.3313     17.78393    22.700893    19.103975    7712.4867    6582.3465    6919.6978    7093.9497    230.82927   -8.5911033    35.924035   -4392.0614 
41207000    55.805678   -5271.6654   -5160.0471   -5271.6654            0    6711.5425    17.890158     22.59327    19.095597    7718.3863    6723.3499    6670.3899    6740.8876    258.88511    167.79309   -234.66837   -4404.5641 
41208000    58.251649   -5268.2037   -5151.6932   -5268.2037            0    7535.9932    17.842553    22.640183    19.017757    7682.3879    6621.9688    7801.6732    8184.3375    104.47317   -45.955729    287.98391   -4307.3624 
41209000    58.312942   -5273.8827   -5157.2496   -5273.8827            0    6887.5069    17.739587    22.686661    19.099709    7686.7163    7457.9101    6633.2717    6571.3389    258.73314    -461.0445    425.61851   -4385.1403 
41210000    56.807598   -5269.5811   -5155.9588   -5269.5811            0    6972.2609    17.836049    22.616147    19.120357    7712.8214    6863.4609    6818.9648    7234.3571    -427.8503   -173.89845    214.49955   -4371.6939 
41211000    56.527346    -5274.668   -5161.6063    -5274.668            0     6513.202    17.884745    22.664079    19.056656    7724.4494    5950.3918    6647.7576    6941.4567    349.82922    38.185575    166.58061   -4427.8735 
41212000    58.537807   -5278.5077   -5161.4249   -5278.5077            0    6084.3146    17.759844    22.788934    19.076738    7720.8887    6886.4854    5447.6437    5918.8147    -847.3905   -446.09359     163.5201   -4476.3235 
41213000    54.591616   -5268.1289   -5158.9389   -5268.1289            0    7454.6516     17.81969    22.636084    19.085286    7698.3937    6860.7607     7540.467    7962.7272    198.78849   -349.74974   -1121.2299   -4321.9815 
41214000    55.841123   -5273.4681   -5161.7789   -5273.4681            0    6563.5221    17.872103     22.63373    19.056885    7708.7453    6944.5223     6656.146    6089.8981     200.6072    738.12427    374.03298   -4423.8806 
41215000    54.357302   -5279.5201   -5170.7988   -5279.5201            0    6644.3358    17.848523    22.658125    19.086052    7718.6681    6506.5592     6989.211    6437.2371   -172.93099    1155.9608   -67.852779   -4422.8535 
41216000    56.199106   -5273.2814   -5160.8763   -5273.2814            0    7254.4423    17.699624    22.728628    19.143682     7701.277    7843.5634    7127.7079    6792.0557    34.685332    345.51094    703.75401   -4346.0919 
41217000     53.82117   -5278.9203   -5171.2713   -5278.9203            0    6308.4455    17.843782    22.660696    19.144183    7740.9988    7238.5666    5912.4705    5774.2993     39.37082     204.0683    311.62317   -4459.0823 
41218000    56.853959   -5269.0334   -5155.3184   -5269.0334            0    6953.3978    17.838924    22.543401     19.17501    7711.2306    7688.6526    6701.0492    6470.4917   -203.22373   -61.002069    461.60921   -4373.3366 
41219000    54.261401   -5271.7318   -5163.2023   -5271.7318            0    6498.8467     17.85158    22.526364    19.200057    7720.9416    5794.1093    7063.9636    6638.4671   -699.40501    21.760927   -469.82604   -4431.4191 
41220000    53.292314   -5271.9991   -5165.4079   -5271.9991            0    6812.4531     17.81309    22.541787    19.190953     7705.914    6551.4431    7192.0299    6693.8862    503.56238    167.90536   -164.70768    -4399.805 
41221000    54.505305   -5271.2334   -5162.2161   -5271.2334            0    7041.2084    17.826589    22.661307    19.059098    7699.3764    7059.3556    6828.1302    7236.1393   -664.97892   -22.242637    635.00228   -4371.5763 
41222000    55.509078   -5282.1527   -5171.1276   -5282.1527            0    6642.6603    17.828608    22.605053    19.152142    7718.6316    6221.3416    7366.7673     6339.872   -960.03251    282.17952   -383.98995   -4423.3745 
41223000    56.491889   -5279.6351   -5166.6443   -5279.6351            0    7205.7231    17.835136    22.609442    19.102474    7702.9284     7292.487    6793.0609    7531.6214   -19.035846    74.802041    344.42613   -4357.1584 
41224000    55.211837   -5271.8633   -5161.4328   -5271.8633            0    6068.2542    17.775774    22.771261    19.108581    7734.7098    6082.4134    5761.1769    6361.1724   -134.13569   -310.37377   -31.332749   -4476.9167 
41225000    54.071543   -5272.7638    -5164.614   -5272.7638            0    6870.6107    17.873377    22.636177    19.076689     7718.141     6654.464    6642.0779    7315.2902   -1058.0717    315.43904   -301.25514     -4391.25 
41226000    56.877317   -5277.0522   -5163.2906   -5277.0522            0    6744.9191    17.830821    22.612549    19.145305    7719.3928    6956.6013    6560.2196    6717.9364    415.93331   -78.844998   -29.352456   -4403.9514 
41227000    59.260204   -5265.4755   -5146.9478   -5265.4755            0     6439.425    17.808929    22.666639    19.123923    7719.7266    6819.0915    6112.9736    6386.2098   -71.749876   -1015.9504    49.568505   -4421.9696 
41228000    58.560769   -5272.0509   -5154.9221   -5272.0509            0    6929.4899    17.872979    22.644335     19.07554    7720.2854    6387.6887    7474.6959    6926.0852   -417.23623    287.22453    638.10741   -4374.7139 
41229000    59.101317   -5274.8651   -5156.6552   -5274.8651            0    7691.5391    17.828007    22.573505    19.118504     7694.062    7771.2845    8052.7979     7250.535   -538.66696    423.50014   -525.01539   -4293.5875 
41230000    60.307657   -5272.3363   -5151.7136   -5272.3363            0    6573.6556     17.88225    22.563797    19.157408    7729.8507    5386.5157    7102.8823    7231.5688    1150.0513    44.915957    673.66827   -4410.6526 
41231000    59.161898   -5271.9134   -5153.5823   -5271.9134            0    6679.4507    17.795942    22.733993     19.06316    7712.4364     7106.281    5869.2201    7062.8511   -190.10904   -782.39877    66.237397   -4402.2912 
41232000    57.397078   -5274.0921   -5159.2908   -5274.0921            0    6999.7508    17.826913    22.668828    19.074147    7708.1533    6352.5018    7247.9422    7398.8083   -190.73126    530.48776   -173.06287   -4372.4103 
41233000     54.61734   -5272.7253   -5163.4838   -5272.7253            0    6766.2437    17.827769     22.60267    19.151308    7717.1188    6905.9325    6439.4753    6953.3233    448.30934   -429.25741   -520.37109   -4401.9684 
41234000    56.199388   -5266.6029   -5154.1972   -5266.6029            0    7534.5292    17.832317    22.634606    19.079001    7700.8088    7642.2237    7673.8153    7287.5486    291.69056   -166.12791    520.41336   -4308.0063 
41235000    56.301071   -5278.7643   -5166.1552   -5278.7643            0    7260.7441    17.875093    22.611298    19.063597    7705.1064    6578.3952    7520.5639    7683.2731    393.09267   -26.182734    230.63099   -4350.2576 
41236000    55.950221   -5275.5634    -5163.656   -5275.5634            0    6619.3886    17.871477     22.63617    19.077455    7717.6278     6337.059    7236.1512    6284.9556    35.382508   -25.358028   -142.57735   -4418.6195 
41237000    58.317676   -5280.3745    -5163.732   -5280.3745            0    6899.5993    17.785971     22.63356    19.140453    7705.1777    6736.8297      7025.43    6936.5383      -67.769    510.35993     990.2224   -4388.4094 
41238000    55.054983   -5266.4097   -5156.2929   -5266.4097            0    6818.4821    17.857816    22.599601      19.1191     7716.077    6597.1277    7186.7443    6671.5741   -792.67132    266.32494    4.2017058   -4389.0018 
41239000    56.663722   -5270.9214    -5157.587   -5270.9214            0    7560.6718    17.790208    22.552165    19.181995    7695.9643    7076.1548     8097.375    7508.4855    209.31297   -273.52259    311.08143   -4308.9942 
41240000    55.688433   -5267.4218    -5156.038   -5267.4218            0    7114.8306    17.829681    22.564978      19.1457    7702.8197    7218.1334    7273.6715    6852.6867    -336.2873    70.515171   -280.59655   -4356.7741 
41241000    54.597427   -5277.2364   -5168.0348   -5277.2364            0     6087.244    17.806941    22.669038    19.177366    7741.2546    6569.8718    5852.7432    5839.1169    103.56676   -375.85406    -371.4255   -4480.7956 
41242000    54.715124   -5270.4131   -5160.9761   -5270.4131            0    7293.8985    17.858423    22.589215    19.108009    7708.3191    6793.1332    6835.1266    8253.4356    583.81551   -269.93277     1160.606   -4341.0112 
41243000    60.181306   -5276.3618   -5155.9918   -5276.3618            0    6452.9484    17.880698    22.537315    19.199686    7737.1456    5183.8362     7816.451    6358.5581    663.85512    509.44301    288.61513   -4427.8518 
41244000    55.172156   -5267.9595   -5157.6084   -5267.9595            0    6153.7494    17.860398    22.647264    19.119206    7733.5112    6280.7599    5990.5696    6189.9187   -55.108497   -517.93341    201.61505   -4463.5557 
41245000    59.277581   -5269.5973   -5151.0348   -5269.5973            0    7029.8588    17.850343    22.605608    19.075929    7697.4783    6632.7523    7196.6525    7260.1716    405.42699   -768.15842    706.93726   -4361.8641 
41246000    53.511752   -5268.0825   -5161.0524   -5268.0825            0    7158.8958    17.809444    22.642926    19.089872    7698.1419    6775.1286    7086.0909    7615.4679    537.11959   -91.855858    433.55096   -4357.3267 
41247000    55.940345   -5271.6813   -5159.7937   -5271.6813            0    6784.3352    17.802401    22.660381    19.120618    7713.4328    6545.9495    6956.5897    6850.4663     716.3188  -0.10736071    90.229834   -4396.6068 
41248000    56.960353   -5270.6025   -5156.6748   -5270.6025            0    6877.6862    17.877862    22.556256    19.148898    7721.9394    7029.2888    7060.2841    6543.4858   -795.86528   -85.727989    -370.4632   -4382.1334 
41249000    56.084137   -5276.4278   -5164.2526   -5276.4278            0    6905.9847    17.823062    22.587795    19.167436    7716.4966    6342.3684    7504.1509    6871.4349   -1003.7145     595.2486   -1661.9194   -4387.0725 
41250000    57.870827   -5268.8862   -5153.1374   -5268.8862            0    6608.3703    17.805447    22.741251    19.061638    7718.4029     5885.191    6859.5385    7080.3813    599.41431    104.44607     0.994118   -4409.2663 
Loop time of 445.106 on 64 procs for 250000 steps with 1008 atoms

Performance: 97.056 ns/day, 0.247 hours/ns, 561.664 timesteps/s
195.5% CPU use with 32 MPI tasks x 2 OpenMP threads

MPI task timing breakdown:
Section |  min time  |  avg time  |  max time  |%varavg| %total
---------------------------------------------------------------
Pair    | 37.52      | 40.8       | 47.472     |  33.4 |  9.17
Bond    | 1.0529     | 1.2881     | 2.1242     |  16.0 |  0.29
Kspace  | 217.35     | 225.91     | 232.14     |  27.6 | 50.75
Neigh   | 0.44716    | 0.48358    | 0.53153    |   4.0 |  0.11
Comm    | 66.108     | 72.93      | 79.277     |  41.7 | 16.38
Output  | 0.45646    | 0.45671    | 0.45817    |   0.0 |  0.10
Modify  | 85.2       | 88.781     | 93.513     |  15.8 | 19.95
Other   |            | 14.45      |            |       |  3.25

Nlocal:        31.5000 ave          36 max          28 min
Histogram: 3 4 2 6 0 5 8 3 0 1
Nghost:        2963.97 ave        2981 max        2948 min
Histogram: 2 0 3 8 5 8 2 0 2 2
Neighs:        10813.3 ave       12345 max        9570 min
Histogram: 3 4 2 5 3 3 8 3 0 1

Total # of neighbors = 346027
Ave neighs/atom = 343.28075
Ave special neighs/atom = 2.0000000
Neighbor list builds = 980
Dangerous builds = 0

unfix		3
unfix		2
unfix		1

write_data	data.final.${pid}
write_data	data.final.0
System init for write_data ...
PPPM initialization ...
  extracting TIP4P info from pair style
  using 12-bit tables for long-range coulomb (../kspace.cpp:340)
  G vector (1/distance) = 0.380037
  grid = 24 27 32
  stencil order = 5
  estimated absolute RMS force accuracy = 0.0023799854
  estimated relative force accuracy = 7.1672553e-06
  using double precision FFTW3
  3d grid and FFT values/proc = 5355 672
Last active /omp style is kspace_style pppm/tip4p/omp
WARNING: Not all mixed pair coeffs generated from mixing. Use write_data with 'pair ij' option to store all pair coeffs. (../write_data.cpp:312)

write_restart   restart.lmp.${pid}
write_restart   restart.lmp.0
System init for write_restart ...
PPPM initialization ...
  extracting TIP4P info from pair style
  using 12-bit tables for long-range coulomb (../kspace.cpp:340)
  G vector (1/distance) = 0.380037
  grid = 24 27 32
  stencil order = 5
  estimated absolute RMS force accuracy = 0.0023799854
  estimated relative force accuracy = 7.1672553e-06
  using double precision FFTW3
  3d grid and FFT values/proc = 5355 672
Last active /omp style is kspace_style pppm/tip4p/omp
Total wall time: 0:07:25
