LAMMPS data file via write_data, version 30 Jul 2021, timestep = 13000000

864 atoms
2 atom types
576 bonds
1 bond types
288 angles
1 angle types

-0.7823257582170555 18.989898158210536 xlo xhi
0.17005486391999014 23.459122936072603 ylo yhi
-0.9544355977225294 23.16763139772329 zlo zhi

Masses

1 1.00794
2 15.9994

Pair Coeffs # lj/cut/tip4p/long/omp

1 0 0
2 0.21084 3.1668

Bond Coeffs # harmonic/omp

1 450 0.9572

Angle Coeffs # harmonic/omp

1 55 104.52

Atoms # full

253 1 2 -1.1794 6.78832020584013 1.145909091036021 1.762921916285734 -2 11 -6
255 1 1 0.5897 6.855513840547021 2.0113017156820248 1.3593983151510907 -2 11 -6
254 1 1 0.5897 7.695164568058386 0.8848226786177189 1.923293212874551 -2 11 -6
224 1 1 0.5897 8.382094064143596 4.1227869935641275 0.2640620362067183 2 -2 -5
317 1 1 0.5897 1.3143531993642834 3.1220366912402944 0.8850614965646617 -7 -6 0
708 1 1 0.5897 4.609401149263423 5.408585753209293 2.563385142849754 2 -2 -7
775 1 2 -1.1794 -0.12376884894882567 1.8114452859386514 3.8338169503025474 3 -2 3
316 1 2 -1.1794 0.6391301578506097 2.4447166136459404 0.9247237741954191 -7 -6 1
706 1 2 -1.1794 3.9051797683747083 4.930150425316656 3.000904586214982 2 -2 -7
701 1 1 0.5897 3.2678828477828255 3.455804594219162 0.18896467153062724 3 1 2
700 1 2 -1.1794 2.7776512901835697 4.109990707522691 0.6869226388392258 3 1 2
488 1 1 0.5897 4.437031435919509 3.548511352794477 4.083148190316224 -1 -7 1
776 1 1 0.5897 0.08538109150216455 0.9646064304356619 3.439631397588868 3 -2 3
777 1 1 0.5897 0.7200170875988612 2.15363830804594 4.129104733079265 3 -2 3
702 1 1 0.5897 3.3618835419382886 4.351974191286765 1.4055078686562035 3 1 2
223 1 2 -1.1794 7.607658938282514 3.610345903355285 0.496354084551748 2 -2 -5
561 1 1 0.5897 5.126124153866188 1.1514314099615306 4.359564269928602 4 1 1
707 1 1 0.5897 3.6674650360778287 5.481585427186021 3.7463368911274433 2 -2 -7
318 1 1 0.5897 0.15942351897636653 2.631005350922759 1.7318562850215766 -7 -6 1
559 1 2 -1.1794 5.519606218970784 0.3305120393784404 4.063523177999886 4 1 1
560 1 1 0.5897 5.944728679388585 0.5531276762281319 3.2352957640153504 4 1 1
144 1 1 0.5897 7.243288989235184 5.650406765967235 4.191603940907649 -4 5 6
225 1 1 0.5897 6.978420642442551 4.257474179051788 0.8150549038668342 2 -2 -5
53 1 1 0.5897 6.886649369712949 5.760208317364455 1.8515789255821522 -4 1 2
52 1 2 -1.1794 6.0867936652079475 5.794440076658544 1.3267459908146337 -4 1 2
487 1 2 -1.1794 4.618093149313465 2.817850940074097 4.674416062857541 -1 -7 1
143 1 1 0.5897 8.474867586393975 4.909296158230231 3.7162590438810996 -4 5 6
142 1 2 -1.1794 7.839261564760257 5.572354795977096 3.4466347286593058 -4 5 6
176 1 1 0.5897 1.0717892431614946 0.829435504458882 0.40141608590191113 2 -3 1
359 1 1 0.5897 5.743005828003057 0.31098487042972855 0.09945556834810776 2 -4 -4
155 1 1 0.5897 7.893786902228975 2.0936598314044312 -0.9378322455631256 6 4 -5
587 1 1 0.5897 8.323670121918354 10.384579588296317 0.42224655916277265 -1 3 6
125 1 1 0.5897 3.5310068225695117 7.280530631739169 -0.6367731928664606 1 0 0
364 1 2 -1.1794 8.326698632556056 8.311466936629662 2.873432323714744 2 5 1
541 1 2 -1.1794 4.345503652084393 10.52104199910717 4.891948298610705 -5 -1 2
373 1 2 -1.1794 5.989131362958985 8.147918745547415 -0.4498832047465101 2 3 1
209 1 1 0.5897 2.4163604665161054 10.063318221400946 0.8518234471267367 3 -4 2
337 1 2 -1.1794 6.736836244761223 10.173210561958332 1.6053372917013506 -2 0 8
644 1 1 0.5897 2.1434910846627995 8.341684532517831 3.093839778602864 2 -3 1
643 1 2 -1.1794 2.178205004891326 8.635470570228263 4.004193192301183 2 -3 1
126 1 1 0.5897 2.769972209921866 6.276386569035202 0.20254504119881167 1 0 0
309 1 1 0.5897 4.690580314671698 9.595477788602228 1.6987000059386772 0 4 -3
543 1 1 0.5897 3.786641698029027 9.84634243242826 4.506320275592088 -5 -1 2
365 1 1 0.5897 8.225154029550186 7.431927745223716 3.2372326767296586 2 5 1
208 1 2 -1.1794 1.8158024879209012 10.437609209021224 0.20724079690919917 3 -4 2
338 1 1 0.5897 6.452429940479545 10.911917988545458 2.1435506036100858 -2 0 8
366 1 1 0.5897 8.93978990356585 8.201243735488024 2.1466463164791403 2 5 1
307 1 2 -1.1794 3.74538847948713 9.444183407200962 1.6984258865553619 0 4 -3
54 1 1 0.5897 6.265026923423421 6.458373058592687 0.6606208596567096 -4 1 2
124 1 2 -1.1794 2.9399214457548024 7.214142354230184 0.11319772538760198 1 0 0
308 1 1 0.5897 3.627830832126013 8.661158711781315 1.1605491993914652 0 4 -3
729 1 1 0.5897 5.090246182361026 11.703897749541907 3.5339637923530605 0 4 -1
339 1 1 0.5897 7.215621342505403 9.606132990876386 2.209849350275921 -2 0 8
375 1 1 0.5897 6.281693541977244 8.847117195382966 0.1347456152522848 2 3 1
645 1 1 0.5897 1.2634017026703068 8.784732851243366 4.243226189000814 2 -3 1
210 1 1 0.5897 1.3401342078323797 11.115309155105619 0.6875630449466754 3 -4 2
374 1 1 0.5897 6.792357556758412 7.824392746278867 -0.8578383539154263 2 3 1
588 1 1 0.5897 8.960063298535363 10.699607837351078 -0.9148003926014078 -1 3 6
468 1 1 0.5897 6.299600771746694 3.2549238866900363 7.521872865280699 5 -3 5
597 1 1 0.5897 7.212764759710458 1.8571736922588515 9.363743617911053 3 -3 0
466 1 2 -1.1794 6.2484089698095255 3.7336935810160434 6.694583296273367 5 -3 5
467 1 1 0.5897 7.078241152985386 3.5450220161934602 6.256369989285528 5 -3 5
39 1 1 0.5897 5.770924048864133 5.65729997420072 6.076213454898143 -3 1 -2
782 1 1 0.5897 1.467675784845214 1.2407622409014878 6.630723116284164 -3 -1 2
218 1 1 0.5897 1.2201717447446199 5.018839734170943 8.041801623587046 7 -1 -3
136 1 2 -1.1794 0.7819261921409892 3.358252816939621 8.542714800932242 4 -6 2
138 1 1 0.5897 0.8067900484157171 2.516389366934704 8.087827207979265 4 -6 2
137 1 1 0.5897 -0.14257162580756533 3.4903568460198238 8.752739005802159 4 -6 2
781 1 2 -1.1794 0.9833178309201209 0.8871527197090041 7.3768041806581195 -3 -1 2
596 1 1 0.5897 6.511758927003806 2.967572627095236 10.117099231998589 4 -3 0
18 1 1 0.5897 1.5780383971192635 3.6527073747066665 5.4116914771888895 -4 4 5
595 1 2 -1.1794 6.397511944005158 2.3582086130156847 9.387804972556467 3 -3 0
240 1 1 0.5897 4.842065343473233 1.4280268356827939 9.554274167358608 -6 -6 0
489 1 1 0.5897 5.052059093459402 3.2199399279091225 5.426934671138852 -1 -7 1
219 1 1 0.5897 1.8968712611309648 5.796279442302418 6.932923075483962 7 -1 -3
217 1 2 -1.1794 1.4040605295438944 5.910295874216372 7.745563432662021 7 -1 -3
320 1 1 0.5897 1.8058443326626867 3.1224441528457496 10.15540282859982 6 0 1
835 1 2 -1.1794 8.610785117687652 0.6657916812386538 9.191183728861615 -2 2 -4
187 1 2 -1.1794 8.85029287195714 2.6952915285568966 5.665827750673345 0 4 3
238 1 2 -1.1794 4.10732810364682 0.8760664248512927 9.822218114349214 -6 -6 0
239 1 1 0.5897 3.4862654987290025 1.4824734369895478 10.225758427359294 -6 -6 0
646 1 2 -1.1794 2.8449334847088905 5.986711438130455 5.350252834415145 -4 -3 1
16 1 2 -1.1794 1.8413388870673209 2.734753116377485 5.345827683792062 -4 4 5
319 1 2 -1.1794 2.279886596694593 2.643121427253858 10.834951058093417 6 0 1
783 1 1 0.5897 1.5700755770170982 0.232353336381539 7.755310361882538 -3 -1 2
17 1 1 0.5897 2.777912146518852 2.767117511555872 5.150563289133831 -4 4 5
321 1 1 0.5897 1.701895600715198 1.9148194248142874 11.062505929251389 6 0 1
440 1 1 0.5897 -0.730768660254012 8.753442341501898 5.80654085869923 2 1 -1
647 1 1 0.5897 2.4586596859358782 6.8280747625024905 5.107037148148996 -4 -3 1
351 1 1 0.5897 0.02686508235319085 6.7799783330533865 7.480307864449992 -9 2 -4
192 1 1 0.5897 0.24213900833778923 10.603586052465332 10.288499828760884 10 5 -3
37 1 2 -1.1794 5.545758460696576 6.293378692424022 5.397275837014282 -3 1 -2
648 1 1 0.5897 3.7123060825894125 6.209590577168744 5.6882729003456785 -4 -3 1
681 1 1 0.5897 8.405308976566031 10.911206318637163 7.528342940416527 -8 -6 2
679 1 2 -1.1794 8.561188998941802 10.175972506961488 6.935542462993476 -8 -6 2
439 1 2 -1.1794 -0.2700548245184249 9.299168879670633 5.169217486252599 2 1 -1
230 1 1 0.5897 0.9891921140531403 9.76433836877821 6.516495483773064 3 5 2
523 1 2 -1.1794 5.540970983981865 8.797534935194767 9.309682871824732 0 -1 4
567 1 1 0.5897 6.938370043439774 9.16903527740169 6.631463641547981 0 3 -7
191 1 1 0.5897 0.10781122587818581 10.477192266280744 8.785858857731437 10 5 -3
542 1 1 0.5897 4.953057733426539 10.038072196081528 5.452190910591245 -5 -1 2
565 1 2 -1.1794 6.016509718231611 8.930410892950828 6.533849502100816 0 3 -7
566 1 1 0.5897 5.694535288991748 8.844528726021679 7.431180004826814 0 3 -7
844 1 2 -1.1794 2.593115660891497 8.359150415350726 9.395832089245992 2 -2 4
231 1 1 0.5897 2.192535630370216 10.572210537568145 6.9538586074411635 3 5 2
524 1 1 0.5897 5.674938218863564 9.744995829560677 9.335738919067554 0 -1 4
229 1 2 -1.1794 1.4032654843217847 10.14742017577187 7.289827287831475 3 5 2
38 1 1 0.5897 5.65610787545837 7.14498374758779 5.820169871797989 -3 1 -2
525 1 1 0.5897 4.589913097973423 8.68938689344309 9.316090232122798 0 -1 4
190 1 2 -1.1794 -0.40111131123888916 10.451427000581395 9.596159798240544 10 5 -3
481 1 2 -1.1794 5.293397250924498 11.691647436758574 9.20884906797869 -3 4 -4
845 1 1 0.5897 2.225905823541204 8.996886810632148 8.7837000113995 2 -2 4
846 1 1 0.5897 2.3808729979529013 7.508331541553762 9.01202762994694 2 -2 4
441 1 1 0.5897 -0.6596394151302731 10.167603607028495 5.270755557150474 2 1 -1
56 1 1 0.5897 9.043631572102274 10.483625920225094 5.107502054288166 -5 -1 -1
649 1 2 -1.1794 0.3134575255541112 2.8286487259652087 13.795936352915252 1 -2 0
312 1 1 0.5897 7.447144872143461 4.118446979926204 12.078270708312532 -2 2 2
576 1 1 0.5897 6.608443453034019 2.1100316584082277 12.85062708302156 4 2 1
651 1 1 0.5897 1.1271831792841425 3.317699805666882 13.673610756406143 1 -2 0
310 1 2 -1.1794 6.619867664124382 3.6685365608425804 11.906674422784338 -2 2 2
311 1 1 0.5897 6.034004572128945 3.970418498883992 12.600929908428984 -2 2 2
343 1 2 -1.1794 2.6591224401060467 4.397133873413124 12.924180704585705 -2 0 -4
574 1 2 -1.1794 6.703620749006986 1.3962035436656741 13.481218056148046 4 2 1
426 1 1 0.5897 4.335156500611695 4.865922386907167 13.792134382953199 5 -5 2
178 1 2 -1.1794 8.605984889038112 3.0665838557994562 15.25485728402273 -8 -2 -1
180 1 1 0.5897 7.901718550247951 2.5056635980146673 14.929856866070134 -8 -2 -1
519 1 1 0.5897 7.521997969238155 4.421443769782093 16.08212363417635 -1 -2 -4
345 1 1 0.5897 2.7765129007230134 3.8188037115156264 12.1705235334881 -2 0 -4
518 1 1 0.5897 6.360623725255166 5.1829669778443455 15.479428353953939 -1 -2 -4
517 1 2 -1.1794 6.882469336779401 5.1061389951819764 16.278195715099123 -1 -2 -4
424 1 2 -1.1794 5.22965132647526 5.128542038693476 14.009392808209114 5 -4 2
344 1 1 0.5897 2.379589527058252 5.230754785326203 12.545751992379438 -2 0 -4
108 1 1 0.5897 -0.6287041679717034 4.519957573044928 16.497528762440858 2 0 4
650 1 1 0.5897 -0.08079565064394578 3.211052664041012 14.579910952557523 1 -2 0
575 1 1 0.5897 6.272070812329307 0.6496915829487886 13.065598380763685 4 2 1
377 1 1 0.5897 3.2727013638632867 5.774520350817084 16.436477779255945 -1 2 0
179 1 1 0.5897 8.952880673287433 3.4942339510492126 14.471894221174148 -8 -2 -1
315 1 1 0.5897 0.3235421297462231 1.0786128649621367 14.436955617138237 -2 -1 0
313 1 2 -1.1794 -0.0738431933017526 0.24908602156442192 14.70201400625323 -2 -1 0
398 1 1 0.5897 4.205964776556221 11.75334820811071 12.23524818982452 3 4 -4
389 1 1 0.5897 8.10020352564341 6.3445087696582165 16.52797102770425 0 4 3
474 1 1 0.5897 5.363824016839245 9.472762557592596 15.759975613738096 4 2 -1
388 1 2 -1.1794 8.531944996418723 7.178972077444827 16.344768868368938 0 4 4
774 1 1 0.5897 1.9122242044977034 9.31877320586123 16.310022231997028 1 -2 2
160 1 2 -1.1794 0.9505114897814138 11.190512880144091 11.8237316232287 2 5 3
161 1 1 0.5897 1.815593189379463 11.54949543135383 12.021259284919365 2 5 3
457 1 2 -1.1794 8.082119761607114 10.673388174262527 13.834764412659968 1 2 1
12 1 1 0.5897 8.127995543442598 11.561351559409868 15.98494519546492 -2 1 4
459 1 1 0.5897 8.70364097569146 11.370047426947844 13.623476140130668 1 2 1
458 1 1 0.5897 7.346415568368398 10.819642992440135 13.240120194945533 1 2 1
19 1 2 -1.1794 5.080079018025023 7.6689661486659615 12.3803937449329 -4 -3 1
169 1 2 -1.1794 5.425140679803934 10.530096792294085 12.743339818599404 0 2 -3
425 1 1 0.5897 5.26496830318251 6.060662119378544 13.79456362222874 5 -4 2
515 1 1 0.5897 0.9148335814047475 8.874031305290913 14.396702660477294 -1 -4 -1
472 1 2 -1.1794 4.743986914538207 9.973830305403363 15.22988186450931 4 2 -1
58 1 2 -1.1794 2.3605184308756484 7.415368384890134 12.172589124247187 6 -3 -3
170 1 1 0.5897 5.028545055587935 10.617750414784668 13.61014619337723 0 2 -3
516 1 1 0.5897 -0.5245320910664482 8.477641439009645 14.145609901742798 -1 -4 -1
473 1 1 0.5897 3.892252663311101 9.581179477937143 15.421286452127852 4 2 -1
514 1 2 -1.1794 0.2716863825047455 8.761812955131585 13.69668323147253 -1 -4 -1
162 1 1 0.5897 0.8388536256487129 10.475111288902681 12.449893501773495 2 5 3
773 1 1 0.5897 2.444893181140793 7.908924158845471 16.166479093131223 1 -2 2
772 1 2 -1.1794 2.205056640323955 8.683048003357879 15.65706026129969 1 -2 2
59 1 1 0.5897 1.6121898742801122 7.816684679001389 12.614401336166436 6 -3 -3
20 1 1 0.5897 4.177090458509259 7.523892133753532 12.09767565508486 -4 -3 0
376 1 2 -1.1794 2.7773933961779584 6.292452204384102 17.07103988292233 -1 2 0
171 1 1 0.5897 5.308612424315356 9.607030813188326 12.518358694821222 0 2 -3
29 1 1 0.5897 7.12996492532636 8.482848574029171 16.905330827216925 -8 -3 4
186 1 1 0.5897 1.1582744132422857 11.170323222061006 16.68169729195283 -4 9 3
21 1 1 0.5897 5.614061766953899 7.304449503192584 11.674530255989463 -4 -3 1
10 1 2 -1.1794 8.552028277503133 11.68406005204171 16.834288427214446 -2 1 4
60 1 1 0.5897 2.4644229529118213 7.922860152846604 11.367662869475717 6 -3 -3
76 1 2 -1.1794 7.6342282513655935 2.320611639977918 19.61230483564132 -7 -4 -5
77 1 1 0.5897 7.848948969331698 2.247981311453838 20.54229108146018 -7 -4 -5
207 1 1 0.5897 2.316940006895102 3.089827204615893 19.92378933836031 -4 4 -4
88 1 2 -1.1794 3.9954463380667837 3.2308020025397877 20.428463791115526 6 0 7
205 1 2 -1.1794 1.3881450180598618 3.090234043668232 19.6922770632337 -4 4 -4
620 1 1 0.5897 0.9107922033188129 1.3379240491975342 19.513532081631016 2 -1 5
89 1 1 0.5897 4.090539778762882 2.286230043139353 20.550990512035135 6 0 7
90 1 1 0.5897 4.750318481732115 3.4808817066723905 19.895666074387254 6 0 7
206 1 1 0.5897 0.9323994494758412 2.991684619689001 20.5282370971673 -4 4 -4
78 1 1 0.5897 8.343881967683249 1.8591353153496903 19.165414727206795 -7 -4 -5
290 1 1 0.5897 0.6659481675859464 4.518053013984713 18.525548187364713 -5 -9 -7
608 1 1 0.5897 6.57758723441814 3.6128313556998646 18.85155662237016 4 5 3
512 1 1 0.5897 5.990233960566368 3.2542463241146984 23.02908949677065 0 2 -9
127 1 2 -1.1794 4.268345660539862 0.6641699852942933 21.122573387287787 -5 3 -2
513 1 1 0.5897 4.746989484460177 3.119225480163693 22.175793478059077 0 2 -9
607 1 2 -1.1794 5.970327804830353 4.321486833052789 18.638697266542767 4 5 3
340 1 2 -1.1794 0.14434301333274557 2.570530164365387 22.027375820248444 5 0 2
289 1 2 -1.1794 0.4475555448486801 5.107496196820665 17.80367039759954 -5 -9 -7
154 1 2 -1.1794 7.652294682344781 1.6353771777035744 22.37930331976714 6 4 -6
291 1 1 0.5897 1.2933160793157348 5.433090354481123 17.495448081820875 -5 -9 -7
156 1 1 0.5897 6.9299991426574685 1.0624406341491652 22.636799628578743 6 4 -6
657 1 1 0.5897 7.934098240435574 4.731421700384555 20.591062840528288 1 3 -1
619 1 2 -1.1794 0.5755815949854317 0.450626507209395 19.384665207756818 2 -1 5
128 1 1 0.5897 3.4070290577026014 0.25954026073916886 21.225794185395117 -5 3 -2
655 1 2 -1.1794 8.262494539672067 4.920867690398558 21.470012129754398 0 3 -1
129 1 1 0.5897 4.640185167533308 0.6653772836131813 22.004620509342626 -5 3 -2
609 1 1 0.5897 6.270198370406091 4.6477685838591904 17.79023322912717 4 5 3
511 1 2 -1.1794 5.069374662384102 2.9959504696595207 23.068620835408097 0 2 -9
342 1 1 0.5897 -0.7818702350676386 2.3681160269789503 21.895382774836545 5 0 2
341 1 1 0.5897 0.2282413161045449 2.7058345352798967 22.97128289172194 5 0 2
568 1 2 -1.1794 3.020735393871042 11.073074730848552 19.832631313882704 -1 1 0
665 1 1 0.5897 4.851287790320793 10.271887470981666 19.615088703107038 5 1 4
250 1 2 -1.1794 4.754411208383106 7.015855325809611 18.95643078644181 6 -4 3
252 1 1 0.5897 5.256471485658646 6.201413481985488 18.9862293718598 6 -4 3
251 1 1 0.5897 5.276839255058234 7.599857722673253 18.40663832486427 6 -4 3
112 1 2 -1.1794 -0.4317687935720131 9.803612540716967 19.48598104783455 -5 -3 2
185 1 1 0.5897 0.550837492056141 10.436048647615483 17.858060733048966 -4 9 3
815 1 1 0.5897 8.70416652806809 6.9870464161208545 22.134003161235622 -4 10 -5
570 1 1 0.5897 2.5721181093721364 10.908260001633199 19.003259561780595 -1 1 0
443 1 1 0.5897 8.98473981131718 10.220296813470755 20.522013876466843 3 8 -3
546 1 1 0.5897 -0.6494880785092534 6.729342754983058 18.18073083105101 0 2 1
578 1 1 0.5897 2.1363652731870633 9.342830826946804 21.685672681277108 0 4 -4
814 1 2 -1.1794 8.499048581249424 7.796424695388726 22.60206533086912 -4 10 -5
579 1 1 0.5897 1.11960632726986 10.192066055760064 22.41847864065446 0 4 -4
816 1 1 0.5897 8.686601639144337 8.492164201485284 21.971968593393335 -4 10 -5
664 1 2 -1.1794 5.804783564353587 10.303778058943696 19.536830860182913 5 1 4
28 1 2 -1.1794 6.279283056320005 8.796518147835734 17.212329104245782 -8 -3 4
862 1 2 -1.1794 4.162771703538638 8.410727781717302 21.54746392156693 0 2 2
444 1 1 0.5897 7.512953250836373 10.349838265282713 20.852195575326434 3 8 -3
863 1 1 0.5897 4.984777152227889 8.45402430181143 22.0360476687648 0 2 2
442 1 2 -1.1794 8.383996441986765 10.394347253194262 21.24662718363965 3 8 -3
569 1 1 0.5897 2.392923304371113 10.803058411645754 20.50286918037507 -1 1 0
184 1 2 -1.1794 1.369964889154991 10.54515184565893 17.374960739725662 -4 9 3
577 1 2 -1.1794 1.365072418334489 9.891575196785443 21.543413872676915 0 4 -4
30 1 1 0.5897 6.490877318939625 9.463409236445466 17.865601380389954 -8 -3 4
864 1 1 0.5897 4.376947436662655 7.908070913412997 20.7615112407744 0 2 2
378 1 1 0.5897 3.425665414733854 6.555551155656313 17.72433911353516 -1 2 0
666 1 1 0.5897 6.006029416245942 11.233854637520079 19.433093142691195 5 1 4
113 1 1 0.5897 0.23245291617759367 9.631120827353811 20.153310923539607 -5 -3 2
688 1 2 -1.1794 4.367498118234776 16.946449809220017 3.299576320620596 3 -2 6
448 1 2 -1.1794 4.420306630463675 15.535577705090727 0.8733413256999916 2 -5 -4
689 1 1 0.5897 3.9198802236262447 16.593343633255344 2.5306724421277913 3 -2 6
450 1 1 0.5897 5.345294314045083 15.53891463002524 1.1196035965400402 2 -5 -4
157 1 2 -1.1794 0.7049126331049784 13.005694651533451 0.878100988629553 1 1 -2
449 1 1 0.5897 4.169152243130211 14.61219002738419 0.8963548808655049 2 -5 -4
40 1 2 -1.1794 7.496732879582227 15.955211516654222 0.8137746691087209 -2 -1 4
158 1 1 0.5897 0.4424678020879267 13.116209602352445 -0.03576744377651209 1 1 -2
427 1 2 -1.1794 3.546125081024253 12.852593547436001 1.0956050990879342 -1 3 -1
159 1 1 0.5897 1.6618037606031861 13.000189461482664 0.8540033952752577 1 1 -2
41 1 1 0.5897 8.310012547789864 15.469181918756156 0.9502035044727761 -2 -1 4
42 1 1 0.5897 7.691387908429197 16.84018712811845 1.122281935845682 -2 -1 4
770 1 1 0.5897 5.484420113741453 15.524812923212254 4.083006426690465 7 1 1
428 1 1 0.5897 4.02075670610755 12.585836362709621 1.8829138283058828 -1 3 -1
728 1 1 0.5897 5.723882885235682 13.077893033947344 3.4831513333792223 0 4 -1
278 1 1 0.5897 -0.3330653081898731 13.670917527832138 2.290271254900169 1 1 5
279 1 1 0.5897 -0.3277464772208425 14.362785960590951 3.6368308075849836 1 1 5
727 1 2 -1.1794 5.66630595952055 12.252597413036742 3.0016694680957916 0 4 -1
429 1 1 0.5897 3.788084186992295 12.201228381866619 0.43721485472480026 -1 3 -1
769 1 2 -1.1794 5.709025705929433 14.678203454522064 4.469076347037099 7 1 1
723 1 1 0.5897 6.275085838843714 20.20935120654324 -0.8905064796424071 -5 0 -1
719 1 1 0.5897 8.732960157990764 22.507528361400023 3.0795006362076105 5 6 2
690 1 1 0.5897 4.654599027895585 17.81904886185141 3.0304783179399335 3 -2 6
177 1 1 0.5897 0.28985167461281125 23.10512530541717 -0.407028890318064 2 -4 1
806 1 1 0.5897 8.775091689531763 18.823056537066943 0.9711017564824564 2 -4 -5
175 1 2 -1.1794 1.1233324396876323 23.231007908102438 0.04653558010991188 2 -4 1
843 1 1 0.5897 3.548438883511828 18.09209280201723 4.85328371721996 0 3 -1
805 1 2 -1.1794 8.498194875612455 18.498228765905182 1.8278902058695223 2 -4 -5
697 1 2 -1.1794 8.06652832891502 22.25765147580392 4.6200999897417026 -3 2 -4
698 1 1 0.5897 7.321588668610195 22.857511187850342 4.581566968148604 -3 2 -4
818 1 1 0.5897 5.3443795837414525 19.957086600928896 1.9221250940218315 4 -1 2
329 1 1 0.5897 6.330959922734212 19.934386269008066 4.2269988277953034 3 3 2
721 1 2 -1.1794 6.322452647771244 20.499123947595997 0.020563154526657357 -5 0 -1
739 1 2 -1.1794 1.4734693234469214 22.436971000026922 2.638108911107176 -2 2 0
617 1 1 0.5897 4.401097907641414 22.29090540289523 4.029691616056718 -3 4 2
722 1 1 0.5897 7.101189277158497 20.065855594273344 0.3700266261630336 -5 0 -1
741 1 1 0.5897 0.7547823332798664 21.83429938323794 2.8292710105731276 -2 2 0
699 1 1 0.5897 7.677080144044229 21.40294418203305 4.804738143597572 -3 2 -4
328 1 2 -1.1794 7.251427414127807 19.734016271267762 4.396818260919569 3 3 2
330 1 1 0.5897 7.574527002380922 19.372363508276884 3.571552126691672 3 3 2
618 1 1 0.5897 3.025945836162109 21.8882708857374 3.5409132569350783 -3 4 2
616 1 2 -1.1794 3.7775964887365383 21.564640913522442 4.037469129890711 -3 4 2
817 1 2 -1.1794 4.991081192258842 19.51042781708225 2.6914905403144154 4 -1 2
740 1 1 0.5897 1.5102296435281954 22.471108232407573 1.6822055105217957 -2 2 0
819 1 1 0.5897 4.363222876448886 20.130799382818672 3.0619066647886806 4 -2 2
499 1 2 -1.1794 -0.7191559944575863 20.802908203750064 2.555643682149596 -2 0 -3
360 1 1 0.5897 6.114983346074436 22.278010396260388 -0.5375948442259947 2 -5 -4
358 1 2 -1.1794 5.847965448316406 23.172259333543 -0.7503908383749791 2 -5 -4
718 1 2 -1.1794 9.025042755041092 22.911140538892248 2.262164109563129 5 6 2
322 1 2 -1.1794 9.00071326364158 19.181293354406172 -0.6514159255914698 2 0 -2
735 1 1 0.5897 3.087730899139489 15.246045384044871 6.756851846479072 -7 4 -3
303 1 1 0.5897 3.871173987803039 17.15336923032925 6.945619447822972 -3 0 7
302 1 1 0.5897 5.011728077392065 16.74773389579957 7.854787940489091 -3 0 7
301 1 2 -1.1794 4.108811934727688 16.525297324014794 7.62777370201017 -3 0 7
483 1 1 0.5897 4.60756240596597 11.978047805905044 8.60564210790944 -3 4 -4
767 1 1 0.5897 3.11115655114171 16.05787562213228 9.46974279646984 1 -2 2
733 1 2 -1.1794 2.7019452105588124 14.778403061485724 6.016087402178934 -7 4 -3
257 1 1 0.5897 0.9926580787293222 14.766376006987754 5.653386413527725 -2 -1 0
64 1 2 -1.1794 7.7131118645528804 14.706479854146032 6.842480169418452 6 -2 -6
65 1 1 0.5897 7.751820215740752 13.896792997203105 7.3515622935964835 6 -2 -6
531 1 1 0.5897 7.270987878189272 16.082600012341715 7.767126287909301 -4 -4 -5
530 1 1 0.5897 7.322369947631378 16.67519699964221 9.159295735604138 -4 -4 -5
256 1 2 -1.1794 0.03859669049500336 14.768338759161578 5.575759432605195 -2 -1 0
529 1 2 -1.1794 7.016370232235309 16.85593205618115 8.270489509245735 -4 -4 -5
258 1 1 0.5897 -0.19988356918047823 13.842739438789106 5.524251207689795 -2 -1 0
61 1 2 -1.1794 -0.16691502661861735 16.714607902584984 9.61913208881926 -1 1 1
768 1 1 0.5897 1.7975009429564763 16.162481717947614 10.214931478388948 1 -2 2
734 1 1 0.5897 3.367605906095963 14.825114225935037 5.329802650325247 -7 4 -3
139 1 2 -1.1794 8.214060447456054 15.827348806965166 10.698520332812446 2 -3 -1
66 1 1 0.5897 8.618854040482631 15.014773727954106 6.812752649153023 6 -2 -6
70 1 2 -1.1794 7.676560239979402 12.477434978589438 8.384692481266601 6 4 -6
141 1 1 0.5897 8.489192548677414 14.953878592485681 10.419953312238622 2 -3 -1
766 1 2 -1.1794 2.722339495023844 15.948253771433547 10.337530332753898 1 -2 2
72 1 1 0.5897 6.794525546345999 12.131752564296136 8.521713417581008 6 4 -6
62 1 1 0.5897 -0.3485583996199947 17.635009166169727 9.429092674659053 -1 1 1
71 1 1 0.5897 7.954103794324109 12.776967222283561 9.250430847448962 6 4 -6
462 1 1 0.5897 3.3376506026857458 13.23750620119992 6.681380130974928 4 4 2
460 1 2 -1.1794 3.7232508162376696 12.42211605921895 7.001899987732097 4 4 2
216 1 1 0.5897 0.05247687082553709 16.727320352355697 6.499952470861913 4 -1 1
214 1 2 -1.1794 0.33174952085852305 17.6299965691611 6.346888478000756 4 -1 1
771 1 1 0.5897 6.359580256897788 14.885396017042252 5.139971476753259 7 1 1
419 1 1 0.5897 -0.6737261954136176 14.604298281184608 7.439108497737889 -5 -1 7
63 1 1 0.5897 -0.6174823467955148 16.547007438278328 10.44686795397764 -1 1 1
482 1 1 0.5897 4.925695938787554 11.842976788874298 10.079578753080687 -3 4 -4
461 1 1 0.5897 3.974387364681937 11.947611833074099 6.209416025293796 4 4 2
784 1 2 -1.1794 1.408828550000306 20.77663800100522 10.299969716636273 3 4 3
675 1 1 0.5897 0.13356604445736375 19.931199934500427 9.074600627719214 -6 -6 0
841 1 2 -1.1794 3.2304996123095826 18.340620183264782 5.721272378586763 0 3 -1
842 1 1 0.5897 2.302386599025305 18.106542507892 5.712999936901198 0 3 -1
785 1 1 0.5897 1.7937925424764374 21.4691581503715 9.762861904969084 3 4 3
692 1 1 0.5897 4.017368717912789 19.90553753785109 6.569786480383178 2 2 3
786 1 1 0.5897 2.1569749074440048 20.256437379874562 10.593126678248122 3 4 3
4 1 2 -1.1794 7.389273961371311 22.001001550323988 10.658867675915163 -2 2 -2
691 1 2 -1.1794 4.517346302540543 20.72123891522658 6.539793515316926 2 2 3
571 1 2 -1.1794 3.419868190808975 19.03394121718613 10.705682223899398 7 0 -7
572 1 1 0.5897 3.231237947360979 18.097631162286614 10.769108318977525 7 0 -7
199 1 2 -1.1794 8.12073220309033 19.02056188828232 7.093790727199064 5 -3 -1
693 1 1 0.5897 4.1951650838969385 21.171630631086742 5.7590295061146906 2 2 3
200 1 1 0.5897 7.678016745906829 18.23245606018089 7.408654512916701 5 -3 -1
674 1 1 0.5897 0.3056410976888473 18.844934469727917 8.034215554859 -6 -6 0
201 1 1 0.5897 7.69799920230669 19.215346727352827 6.257367851406671 5 -3 -1
673 1 2 -1.1794 -0.3609344712482504 19.369970063341167 8.47726647365613 -6 -6 0
551 1 1 0.5897 6.839511308125144 19.78620267741904 8.719162581785481 -4 6 -7
552 1 1 0.5897 5.733919911866658 20.753052970651954 8.352014268657381 -4 6 -7
751 1 2 -1.1794 2.812633343573758 22.075437901331295 8.389241460039974 5 1 1
836 1 1 0.5897 8.118713318056692 23.34913046334037 9.745463805402348 -2 1 -4
550 1 2 -1.1794 6.113531017678492 20.284064414251205 9.095111916068621 -4 6 -7
5 1 1 0.5897 7.05991896905539 21.38742356014516 10.002134575526819 -2 2 -2
573 1 1 0.5897 4.308504915106184 19.07630597207946 10.352421622621339 7 0 -7
753 1 1 0.5897 3.3482768033625216 22.784171977423416 8.745733104190236 5 1 1
752 1 1 0.5897 3.330251603587259 21.72464063173971 7.664484446328345 5 1 1
405 1 1 0.5897 8.922651269635155 23.036497076942428 5.94364269187509 4 -2 1
215 1 1 0.5897 -0.3271041729812171 17.987370034591123 5.751516681732668 4 -1 1
404 1 1 0.5897 9.009973568898147 23.42855851251378 7.403327922836832 4 -2 1
73 1 2 -1.1794 2.5229291985295688 14.366822805177536 14.965163414689883 3 -2 2
273 1 1 0.5897 6.999122170338809 16.539079644785467 14.02042353568499 -1 3 6
271 1 2 -1.1794 7.065061988006246 15.942911640258037 13.274442127863242 -1 3 6
74 1 1 0.5897 1.9180845087829708 13.97185800903462 14.33713895783542 3 -2 2
75 1 1 0.5897 2.342621071944517 15.305517721444895 14.914254762020207 3 -2 2
272 1 1 0.5897 6.163506936658219 15.66915787638529 13.10557741546011 -1 3 6
705 1 1 0.5897 3.588792584964345 14.734225141989814 13.543863958126572 5 0 -1
703 1 2 -1.1794 4.175478694957611 14.716346290936919 12.78773408224082 5 0 -1
456 1 1 0.5897 3.6697192826404565 13.193593271847185 15.698507068195205 3 -2 -1
235 1 2 -1.1794 0.4959177251193452 13.391155223829001 13.432803596832638 0 1 -1
237 1 1 0.5897 0.3492311381970781 12.630268953707759 12.870841085194272 0 1 -1
605 1 1 0.5897 -0.22772459542176504 12.917200074262572 15.078880805121354 -9 1 -2
399 1 1 0.5897 3.8238282497487575 13.21084706953463 12.08825946177402 3 4 -4
263 1 1 0.5897 8.347220271713221 14.872117555948847 14.376378764089784 6 -4 7
671 1 1 0.5897 5.599956464526132 14.049290499630043 16.185725137001903 4 3 3
397 1 2 -1.1794 3.542461500691597 12.326984759441222 11.851899810073956 3 4 -4
264 1 1 0.5897 7.9421432545545105 14.196694934821661 15.669341069698802 6 -4 7
704 1 1 0.5897 3.6885972304084174 15.163681675257004 12.095573750207496 5 0 -1
262 1 2 -1.1794 8.663224658080237 14.26241590599571 15.043234411967603 6 -4 7
269 1 1 0.5897 -0.46054425521063425 16.404043234778154 13.169019191330376 -1 4 6
454 1 2 -1.1794 4.097734743316648 12.747612879781872 16.42937481899673 3 -2 -1
236 1 1 0.5897 0.1554570877271868 14.130606181308737 12.929257744734885 0 1 -1
355 1 2 -1.1794 2.700084790009705 17.310057812555456 14.463378673574608 -1 -4 2
604 1 2 -1.1794 -0.171414379891076 12.403416501753838 15.88454910713368 -9 1 -2
606 1 1 0.5897 -0.7246180872010073 12.873738324646284 16.508275039687696 -9 1 -2
268 1 2 -1.1794 -0.6379100056835851 15.952582735820508 12.343802626332597 -1 4 6
672 1 1 0.5897 6.00094640994846 15.44080111811921 16.62714175768891 4 3 3
140 1 1 0.5897 7.852114948106653 15.696811557312344 11.574991571451719 2 -3 -1
455 1 1 0.5897 4.4265166292559375 11.931215287982795 16.05299123154865 3 -2 -1
670 1 2 -1.1794 6.339716467099092 14.551009192539054 16.52827391389687 4 3 3
759 1 1 0.5897 8.910915247565077 17.03364009318464 16.93471401341944 1 2 5
259 1 2 -1.1794 1.2854343297914186 17.437500162443623 17.127878809609 3 -3 10
6 1 1 0.5897 6.625692805764131 22.2088633620243 11.197392976822837 -2 2 -2
35 1 1 0.5897 8.93521637975733 20.222590370027877 12.603289663946752 -7 3 1