LAMMPS data file via write_data, version 30 Jul 2021, timestep = 500000

864 atoms
2 atom types
576 bonds
1 bond types
288 angles
1 angle types

0.5259979691720087 17.681574430828363 xlo xhi
1.7110873990719728 21.91809040093304 ylo yhi
0.6417162938012471 21.571479506197868 zlo zhi

Masses

1 1.00794
2 15.9994

Pair Coeffs # lj/cut/tip4p/long/omp

1 0 0
2 0.21084 3.1668

Bond Coeffs # harmonic/omp

1 450 0.9572

Angle Coeffs # harmonic/omp

1 55 104.52

Atoms # full

122 1 1 0.5897 3.5032883594923323 5.942032364182046 3.3836551472349075 1 -2 0
674 1 1 0.5897 1.704062264387028 6.190324933697132 6.691386691356424 -3 -1 -1
673 1 2 -1.1794 2.3362366574976976 6.379715771049761 5.9981163865521845 -3 -1 -1
675 1 1 0.5897 3.1424514425624195 6.603312044116751 6.4630464792017355 -3 -1 -1
79 1 2 -1.1794 4.782589166981612 7.383655788517709 3.751648962104605 1 1 -4
174 1 1 0.5897 2.627911018826383 7.106741367363311 1.5128476322125584 2 2 -1
172 1 2 -1.1794 2.5091123652969944 7.935891920135793 1.0496631627067818 2 2 -1
622 1 2 -1.1794 6.0132922902017 4.610532032637476 3.546627579110906 5 -1 2
334 1 2 -1.1794 3.458995782416471 3.2039511706182022 1.1872319826795186 5 0 3
319 1 2 -1.1794 2.643657111362995 2.910052786793881 6.925005276092137 2 -1 2
123 1 1 0.5897 3.2354987388755383 4.81479834379826 2.409333287778675 1 -2 0
121 1 2 -1.1794 2.8347637072784915 5.594622372635701 2.7932968820346193 1 -2 0
336 1 1 0.5897 2.8438952445267365 2.730563980134167 1.7473196372591642 5 0 3
320 1 1 0.5897 3.060873968717396 3.047581942331768 6.0746184217631765 2 -1 2
261 1 1 0.5897 5.260367592940129 7.752713115993563 2.152008893680602 2 -1 6
516 1 1 0.5897 5.2131687196579675 3.3342594524957865 4.384319841855479 -4 -3 0
80 1 1 0.5897 4.181477524223105 8.078929457078598 4.018862802728149 1 1 -4
231 1 1 0.5897 1.3425004110563532 5.030934845573768 3.9394521473595514 2 4 2
514 1 2 -1.1794 4.606922558642381 2.7693519256138495 4.8633676835310276 -4 -3 0
515 1 1 0.5897 5.171238207027076 2.2071067010876626 5.393993624016162 -4 -3 0
260 1 1 0.5897 4.489598609417813 8.131662434939699 0.9054293973164467 2 -1 6
624 1 1 0.5897 6.201995267257928 5.242003003255735 4.240727329300492 5 -1 2
243 1 1 0.5897 5.308597431486736 6.943527739599877 7.057920290682964 -1 -2 2
149 1 1 0.5897 1.5495289395294325 7.698828748059886 5.170541356910016 -4 -1 1
318 1 1 0.5897 1.2737602851536378 2.8731484938953895 3.2304935775729424 -5 -4 1
81 1 1 0.5897 5.399708522234278 7.3071831765520985 4.479282199642169 1 1 -4
623 1 1 0.5897 5.992448751576188 5.133723235654767 2.745394123739895 5 -1 2
259 1 2 -1.1794 5.354338962227726 7.85079070720108 1.2045445739908465 2 -1 6
316 1 2 -1.1794 1.7747299263490957 2.1050937392943325 2.956154590165466 -5 -4 1
689 1 1 0.5897 0.9167973875166746 3.1009045343717014 6.630102465704866 3 0 4
241 1 2 -1.1794 4.4644243509633075 6.821960113247063 7.492346334142419 -1 -2 2
596 1 1 0.5897 4.824776610705362 1.7824509261598538 3.3965515989661683 2 -3 0
321 1 1 0.5897 3.1145043087891073 3.4930967782742637 7.520407989843801 2 -1 2
450 1 1 0.5897 5.950436172266275 6.266350050364699 0.878054198986818 6 -2 -2
147 1 1 0.5897 6.740755643826351 3.1424356913680187 6.761057110813522 -1 2 -3
806 1 1 0.5897 7.708017522935336 3.76447003791937 3.292034191599591 1 -1 -3
145 1 2 -1.1794 7.210413165772602 3.9754078569036095 6.719548032510303 -1 2 -3
186 1 1 0.5897 10.162410203827994 4.825059131989023 5.013493242224582 0 5 4
184 1 2 -1.1794 10.54973672661371 5.368325899832529 4.327212627663391 0 5 4
185 1 1 0.5897 11.114281150324048 4.770199541256563 3.8376506464427895 0 5 4
807 1 1 0.5897 8.993042559019871 4.563355416408775 3.2458170817681626 1 -1 -3
805 1 2 -1.1794 8.640769075444688 3.686808221874995 3.0918515806281217 1 -1 -3
795 1 1 0.5897 9.454049894676041 6.625661099456895 3.4937745836338365 -4 1 5
793 1 2 -1.1794 8.626501325897832 6.965066857065191 3.1530241883030032 -4 1 5
794 1 1 0.5897 8.593282111279029 6.652998874120083 2.2487843639114473 -4 1 5
192 1 1 0.5897 8.471629374836386 3.0476488048275288 1.3471522295997989 3 4 -4
467 1 1 0.5897 6.816217218225752 5.636176344454456 6.0517408159175075 5 -2 6
854 1 1 0.5897 11.44638524024173 7.317631789205658 4.988919565627511 -3 1 1
533 1 1 0.5897 9.221497068099497 2.1163168174873705 3.7672515862951506 -6 -1 -2
101 1 1 0.5897 9.91994857660768 2.5721370748975 5.626111761097381 4 -5 -1
466 1 2 -1.1794 6.622249596004453 6.410436388745559 5.523505011342407 5 -2 6
468 1 1 0.5897 7.427457245843901 6.9272003368370765 5.55045005305831 5 -2 6
100 1 2 -1.1794 9.88763803116547 3.435088897106742 6.038923370744598 4 -5 -1
486 1 1 0.5897 8.260696939360397 7.648508297245385 7.496027751287993 -1 1 0
485 1 1 0.5897 9.590192365624235 7.358127272441873 6.832868424144388 -1 1 0
469 1 2 -1.1794 11.300783105947446 6.912077573056416 7.368639525034125 1 -3 3
471 1 1 0.5897 11.738047041817609 7.756124499002225 7.480566367988206 1 -3 3
102 1 1 0.5897 8.960419913017484 3.5745961027665234 6.23113029841833 4 -5 -1
484 1 2 -1.1794 8.786361959358052 7.866729511466997 6.726485197268206 -1 1 0
294 1 1 0.5897 7.652195218862825 8.402120802446058 3.8986786028864624 -1 -1 2
311 1 1 0.5897 10.820616352714534 3.4529335731861033 7.605759230359426 -1 3 2
448 1 2 -1.1794 6.464832401614931 5.459649521127558 0.850242165543746 6 -2 -2
201 1 1 0.5897 10.147942389566394 7.860337538722511 1.7337028907980894 1 -2 0
853 1 2 -1.1794 12.15503057277345 7.912547443601144 4.743911018926643 -3 1 1
37 1 2 -1.1794 12.83679565557941 3.8094815239710624 3.1267567605396986 -1 3 -2
128 1 1 0.5897 13.010224803278863 1.9499763933475953 3.7751913924164753 -1 1 -3
39 1 1 0.5897 12.872721524964684 3.950822089363087 2.1807797275538388 -1 3 -2
150 1 1 0.5897 17.66211572450279 8.08469972484464 4.143433265938279 -5 -1 1
497 1 1 0.5897 13.396236387989154 6.809368168766925 4.197497466129356 1 0 3
480 1 1 0.5897 13.717249927936619 8.299827297108116 1.2649499152134456 -3 3 -4
38 1 1 0.5897 13.251274395658111 4.586639482485174 3.5014251832442334 -1 3 -2
353 1 1 0.5897 15.84541568350212 4.826203724465547 6.330004699014964 5 3 -1
498 1 1 0.5897 14.382967746604027 5.8499777675138915 4.828055522433323 1 0 2
496 1 2 -1.1794 14.047201830124834 6.142017750123261 3.9806375091676522 1 0 3
354 1 1 0.5897 15.598278484452209 6.310576866078717 6.495029601316268 5 3 -1
230 1 1 0.5897 17.26912995715478 4.923675981928664 3.0620414805765064 1 4 2
352 1 2 -1.1794 15.154854480401173 5.487712514216932 6.28908511276147 5 3 -1
229 1 2 -1.1794 17.61561730374826 4.661075716199242 3.914757955539664 1 4 2
688 1 2 -1.1794 17.219301171577023 3.468263524256481 6.398895407208901 2 0 4
690 1 1 0.5897 17.377408417680627 3.949569692701428 5.586806984258419 2 0 4
520 1 2 -1.1794 16.583498914124128 5.325279262569237 1.4175156452869466 -3 0 -2
494 1 1 0.5897 15.5337813589155 7.165789706778 3.151164263403707 -2 -1 0
522 1 1 0.5897 16.34434045863502 4.405985336323852 1.300042213908342 -3 0 -2
493 1 2 -1.1794 16.03619640968284 7.978656414621053 3.0968684337978782 -2 -1 0
328 1 2 -1.1794 15.580265909171628 8.120643866652081 7.088088620613958 2 4 0
530 1 1 0.5897 16.19368801492741 1.943874194697759 5.977864077262485 -3 0 -5
566 1 1 0.5897 15.342648506503261 2.2622160263485735 2.065419375642085 -1 5 -6
329 1 1 0.5897 14.62964280249227 8.217231260812259 7.143967015462647 2 4 0
246 1 1 0.5897 15.10886198761188 6.511205028787227 0.6862247190886621 -4 3 0
565 1 2 -1.1794 15.30465190696838 2.7472761033711723 1.241151973053991 -1 5 -6
240 1 1 0.5897 13.675301329221925 4.9224899416238035 7.346375649580697 -5 -4 -1
521 1 1 0.5897 17.12636867231133 5.531148346837213 0.656559505014062 -3 0 -2
567 1 1 0.5897 15.895609902179357 2.273156744412577 0.6562394653617807 -1 5 -6
148 1 2 -1.1794 1.1099419462371878 8.457274317966771 4.786268046348184 -4 -1 1
270 1 1 0.5897 0.765235151961847 8.744859082924041 0.9572933306037326 1 5 6
359 1 1 0.5897 2.5626358177642596 9.261644989958182 4.574800656150705 2 0 -5
413 1 1 0.5897 2.9652804483832456 10.886131743393427 1.242424690845147 2 -2 3
412 1 2 -1.1794 3.0862649340767065 11.176352652294117 2.1464585211201355 2 -2 3
414 1 1 0.5897 4.032505189910491 11.139412663776076 2.2857583651873314 2 -2 3
653 1 1 0.5897 4.7457973533045745 9.696883945017458 5.66599199994661 -1 0 0
651 1 1 0.5897 1.4186649460449847 14.849609008708512 1.7346562909077563 1 -1 0
429 1 1 0.5897 3.567365588946153 14.118013212272233 2.016196429169315 2 0 -3
427 1 2 -1.1794 2.842218319973297 13.836349879557075 1.4585551231631086 2 0 -3
428 1 1 0.5897 2.6364483091795607 12.951857889415825 1.7609974723922912 2 0 -3
360 1 1 0.5897 3.3881504765280215 10.056358371961077 3.585542927572591 2 0 -5
358 1 2 -1.1794 3.447441282376032 9.59259168396975 4.420736668219336 2 0 -5
98 1 1 0.5897 2.3027900489219757 12.630379034548383 4.681777783598602 3 -7 6
135 1 1 0.5897 4.199786984977159 13.900348043244774 4.944627440757593 0 -5 -1
134 1 1 0.5897 3.981815726899357 12.607346216529919 5.701132752728389 0 -5 -1
133 1 2 -1.1794 4.198077055342366 12.949631892346234 4.833831006999621 0 -5 -1
632 1 1 0.5897 5.1994130886500844 11.65108295890594 3.832324208021699 3 4 3
631 1 2 -1.1794 5.560402632370074 11.069262792969106 3.163514469487995 3 4 3
730 1 2 -1.1794 1.4093050527811068 10.158380844701524 6.819610018003098 3 1 -5
97 1 2 -1.1794 1.427130634592329 12.294778574901928 4.87344605028371 3 -7 6
99 1 1 0.5897 1.5746281328944078 11.577534529231087 5.489842041071365 3 -7 6
652 1 2 -1.1794 5.394782630583634 9.571507048612848 6.358262722427001 -1 0 0
654 1 1 0.5897 4.877484966793953 9.47887451024009 7.158237551663156 -1 0 0
647 1 1 0.5897 0.5782292538240834 13.65861068434681 4.700416199421413 -4 0 0
821 1 1 0.5897 5.744077713457228 13.979021777887546 2.062865217056353 2 2 5
702 1 1 0.5897 6.16876385168183 11.999789449477177 1.607299753224285 4 0 1
612 1 1 0.5897 5.374199706212478 13.83175389809678 7.413068193508627 4 2 -1
633 1 1 0.5897 6.159740614485704 10.496455457230194 3.6418710521591997 3 4 3
731 1 1 0.5897 1.1393776325698006 9.574522122128606 6.110816435010358 3 1 -5
732 1 1 0.5897 0.6035844105837342 10.601289017638173 7.085672085497157 3 1 -5
711 1 1 0.5897 1.4011614407116544 15.099884351272834 7.381185144275592 -5 -2 -1
820 1 2 -1.1794 5.36917836504967 14.562502200723873 2.722520207543107 2 2 5
535 1 2 -1.1794 3.5197413478279014 12.130185199273585 7.4487258900187525 5 6 2
536 1 1 0.5897 2.843028599007884 11.486719499528759 7.238626344619741 5 6 2
855 1 1 0.5897 11.710342150347907 8.681686944340846 4.387804710616683 -3 1 1
200 1 1 0.5897 10.189096739446386 9.371370896932344 1.8157816022770994 1 -2 0
54 1 1 0.5897 6.601716165643575 10.875753927284773 6.507990862475885 -5 -1 4
700 1 2 -1.1794 6.333384454410103 12.647404408892612 0.9220029192425024 4 0 1
136 1 2 -1.1794 7.2213684200687895 13.17351321149127 4.61468742563775 7 -6 1
292 1 2 -1.1794 7.674851403203841 9.29634738996652 4.239239407734484 -1 -1 2
293 1 1 0.5897 7.7878494236938245 9.190624288592318 5.183797978164531 -1 -1 2
265 1 2 -1.1794 9.328564239028008 13.508227287420368 2.844015051524927 -3 0 -2
266 1 1 0.5897 9.187617341216198 12.619059955841276 2.5189710101289515 -3 0 -2
560 1 1 0.5897 9.582537118708558 9.945549893874285 4.301319243248951 4 0 2
559 1 2 -1.1794 10.443131140330557 10.19473223290179 4.638106288919435 4 0 2
561 1 1 0.5897 10.295430471835733 10.370808008490279 5.567258621819683 4 0 2
569 1 1 0.5897 8.498927580773813 10.618900677546396 1.4797007600030985 1 0 0
586 1 2 -1.1794 9.958440327537508 11.384293833022628 7.197947109753078 0 2 4
588 1 1 0.5897 9.003531280787417 11.388479050461939 7.132626178622117 0 2 4
267 1 1 0.5897 9.81836982195054 13.39135185464454 3.657995573100812 -3 0 -2
53 1 1 0.5897 7.296136982786248 12.088242827689488 5.925490349025748 -5 -1 4
52 1 2 -1.1794 7.2070134074877785 11.582230395443927 6.733043670437616 -5 -1 4
568 1 2 -1.1794 9.391295838542844 10.916881395150302 1.6558341201476443 1 0 0
113 1 1 0.5897 10.522906362555625 12.721438036655856 5.676309896665978 -2 -3 2
112 1 2 -1.1794 10.350098203536936 13.635606026893223 5.451418144711732 -2 -3 2
114 1 1 0.5897 9.666434127205088 13.908167014422144 6.0633450422981685 -2 -3 2
834 1 1 0.5897 11.136279336949713 13.587205389961762 2.113097388042042 2 -3 1
138 1 1 0.5897 6.448877138851722 13.66953768513156 4.343835714048971 7 -6 1
30 1 1 0.5897 7.5957187066237575 14.580323774174103 7.337643608438014 -6 -1 5
570 1 1 0.5897 9.687755908360344 11.290434380509724 0.8259469554333763 1 0 0
839 1 1 0.5897 11.96182509124417 10.903260638189314 3.8341087939953695 -2 -2 -3
69 1 1 0.5897 11.716929193342073 14.801092139859984 5.8145765487717584 4 -2 -3
28 1 2 -1.1794 8.454668225931417 14.955760735502093 7.144268157328968 -6 -1 5
137 1 1 0.5897 7.900484887378518 13.426704872447969 3.9895199249242004 7 -6 1
199 1 2 -1.1794 10.749181748805155 8.604219135550519 1.6978396357323104 1 -2 0
330 1 1 0.5897 15.89156899517668 8.976618852801144 6.793914666854269 2 4 0
649 1 2 -1.1794 17.644603749611846 15.024792909783478 1.8803033365254542 0 -1 0
832 1 2 -1.1794 12.065714872252048 13.519671885659054 1.894631776013874 2 -3 1
195 1 1 0.5897 17.62505004932109 11.516899153358272 3.1969419747787886 2 -4 1
650 1 1 0.5897 17.198890711024468 14.558677847988257 1.173048730792999 0 -1 0
479 1 1 0.5897 12.44366005633167 9.073127501929491 1.5326121206152632 -3 3 -4
478 1 2 -1.1794 13.396341365450432 9.164693759611753 1.5202217272306475 -3 3 -4
495 1 1 0.5897 15.59992761053565 8.571733556225517 3.7084821280672395 -2 -1 0
662 1 1 0.5897 12.793345529396342 8.69913189539809 6.200973840367599 -3 -4 1
268 1 2 -1.1794 17.02469699873214 9.081099475969502 0.9653214295842485 0 5 6
609 1 1 0.5897 14.255633698208937 14.443856499214816 5.293230964482643 4 3 2
269 1 1 0.5897 16.617300937358948 8.660395217650844 1.7224079249046695 0 5 6
194 1 1 0.5897 16.978055753250345 10.802242683138019 2.0297563906688865 2 -4 1
833 1 1 0.5897 12.39725225349286 12.828239220216584 2.467468797727216 2 -3 1
661 1 2 -1.1794 13.041663732627349 9.049086715677117 7.056544221263216 -3 -4 1
608 1 1 0.5897 14.585474259856094 13.651622299246787 4.04614859404999 4 3 2
607 1 2 -1.1794 13.984588712826366 13.67559369675654 4.790790838593748 4 3 2
193 1 2 -1.1794 16.775545084934585 11.23092925590267 2.861236481238267 2 -4 1
840 1 1 0.5897 13.130981175896087 10.50723289723067 2.9578073369621047 -2 -2 -3
648 1 1 0.5897 17.393958653530007 14.683943164963035 3.639820903463377 -5 0 0
838 1 2 -1.1794 12.792801076240805 11.228712473431818 3.4881303776551045 -2 -2 -3
646 1 2 -1.1794 17.304028617791147 14.504710308069345 4.57573184981429 -5 0 0
555 1 1 0.5897 15.721756307797618 10.654859921317215 4.18402505139537 -5 -5 3
554 1 1 0.5897 14.475056610910276 10.647946003220117 5.042725556767029 -5 -5 3
553 1 2 -1.1794 15.324395998656628 10.219229268329231 4.937997273915433 -5 -5 3
45 1 1 0.5897 13.727222395189987 12.416855502035785 6.015055763765883 2 5 -1
43 1 2 -1.1794 13.478636332258489 11.714197718602893 6.615567175054855 2 5 -1
27 1 1 0.5897 15.861816586816701 12.924081223555934 2.7761736615399815 -2 7 6
25 1 2 -1.1794 15.146559604258846 13.451747681307197 2.421041119140617 -2 7 6
663 1 1 0.5897 13.17837713653772 9.983895533550847 6.90297172029177 -3 -4 1
391 1 2 -1.1794 16.313018488711077 11.403999466340721 7.563784942835763 3 -3 -1
26 1 1 0.5897 14.740111044231053 12.891286244347436 1.7601189262285046 -2 7 6
393 1 1 0.5897 15.720069435703817 11.376085675228937 6.81293602595053 3 -3 -1
405 1 1 0.5897 14.425222821422777 10.733968282708418 0.8947713555459924 4 -2 2
771 1 1 0.5897 12.51490627585146 15.043361141252 2.7470665914359 3 -1 1
44 1 1 0.5897 13.02516310304093 12.159422439848276 7.331300600121195 2 5 -1
787 1 2 -1.1794 3.969073607097236 15.693580733514182 5.292118293989195 3 -1 6
710 1 1 0.5897 0.8535393628782745 15.23805857923121 5.976666142461293 -5 -2 -1
693 1 1 0.5897 3.620647067185447 16.809987034364315 3.566053416280315 2 0 3
788 1 1 0.5897 3.2136377263320255 15.981616487143013 5.8044580585435055 3 -1 6
789 1 1 0.5897 4.714573328725105 16.142534218696753 5.690628231837959 3 -1 6
709 1 2 -1.1794 1.2278216589324527 15.745876327141028 6.696510446035102 -5 -2 -1
691 1 2 -1.1794 3.0414032934248896 17.417152018143156 3.105650109268383 2 0 3
597 1 1 0.5897 5.704823126996655 20.790922207136553 3.1124495750002494 1 -4 0
844 1 2 -1.1794 3.960113665054377 19.313188233745535 4.671933508709669 -1 0 3
595 1 2 -1.1794 4.934147447093131 21.257648213976637 2.789393303564867 1 -4 0
845 1 1 0.5897 3.603177350427496 18.585978468285532 4.162129102018607 -1 0 3
749 1 1 0.5897 4.2450959468311815 21.025588025167423 1.2127397876612283 2 4 0
692 1 1 0.5897 3.50794587616068 17.62713734201532 2.2967078277305144 2 0 3
846 1 1 0.5897 4.228745658194893 19.956774230833 4.016360659117869 -1 0 3
477 1 1 0.5897 3.485804834565422 18.46211021856685 6.564435568441482 5 -3 -2
317 1 1 0.5897 1.7995675449913078 21.752110714262777 3.7319998355711492 -5 -5 0
822 1 1 0.5897 5.72153540576087 15.425996219190456 2.507195809377275 2 2 5
475 1 2 -1.1794 3.0552039607348505 17.884499063219316 7.194587302032741 5 -3 -2
141 1 1 0.5897 5.491909913265641 18.265939311964956 5.4828250456323175 -2 -3 0
626 1 1 0.5897 0.5377995639724134 17.577637461074097 6.2545048842407205 -5 -2 3
139 1 2 -1.1794 6.014997446648389 17.635183898369768 5.977462578335405 -2 -3 0
726 1 1 0.5897 1.1356229438057623 17.461861446482594 3.2028769767853533 1 -5 3
373 1 2 -1.1794 1.6291556327692398 20.702601275752066 5.182366334128666 4 4 0
374 1 1 0.5897 2.4555833268375795 20.23007824988457 5.082957356414118 4 4 0
375 1 1 0.5897 1.0067960833360812 20.038082478114397 5.477706780488092 4 4 0
551 1 1 0.5897 2.047344407238877 19.92192130273127 0.8119486025278135 -2 5 -3
550 1 2 -1.1794 1.1313772050788438 19.66594476465071 0.7041851577734082 -2 5 -3
32 1 1 0.5897 6.22819350957301 17.79255797470951 1.44411731844897 3 5 1
215 1 1 0.5897 0.720925745528505 16.483994540152096 0.7910548687507917 0 1 2
532 1 2 -1.1794 9.592534002729954 21.593492132644393 4.263057717190107 -6 -2 -2
534 1 1 0.5897 10.516728419207922 21.57972561468536 4.014440404540453 -6 -2 -2
33 1 1 0.5897 7.312910845588199 17.0418967706861 2.1867794450138227 3 5 1
140 1 1 0.5897 6.842431181667008 17.582210239149223 5.499253043954878 -2 -3 0
440 1 1 0.5897 9.140402568894233 15.665279573741996 2.709811385590302 0 -1 0
796 1 2 -1.1794 7.216896438261394 19.894044163741505 3.522271536245892 0 -4 -3
798 1 1 0.5897 8.122754845770729 20.056948845294976 3.25955989099015 0 -4 -3
441 1 1 0.5897 8.688384833022546 15.719226608582598 1.2660563828194709 0 -1 0
272 1 1 0.5897 8.769369715329551 20.801207323642508 1.1064520808828664 -2 2 4
264 1 1 0.5897 6.872200235511908 20.659827850974033 5.339237007282933 3 -3 4
797 1 1 0.5897 6.955723453307322 19.123441061179115 3.0181902115112975 0 -4 -3
48 1 1 0.5897 8.380836625697945 16.2249097704985 5.795411003150811 2 -2 -2
46 1 2 -1.1794 8.351049410107475 16.74775784536699 4.994235275107027 2 -2 -2
47 1 1 0.5897 9.000016995928307 17.437388422599682 5.133470245034587 2 -2 -2
233 1 1 0.5897 10.301035447106504 17.52198510538131 2.811169027813475 -2 0 0
232 1 2 -1.1794 10.637996462849651 18.387961525135076 3.040703182780127 -2 0 0
31 1 2 -1.1794 6.392146866240271 17.296485556769106 2.2460919618812802 3 5 1
234 1 1 0.5897 10.139533376996043 18.992789512540668 2.491283975488741 -2 0 0
262 1 2 -1.1794 6.33458376885253 21.07507105476484 6.013539628270648 3 -3 4
439 1 2 -1.1794 8.93247174685791 16.27760147909545 2.00414619301808 0 -1 0
810 1 1 0.5897 10.428775181708403 18.888654117180188 5.080539232391447 3 -1 -1
808 1 2 -1.1794 9.858478591031067 19.100290389982376 5.819534397817826 3 -1 -1
263 1 1 0.5897 6.908484878839756 21.130616215974044 6.7775395212652 3 -3 4
809 1 1 0.5897 9.658213010557464 20.02977722033726 5.709618168901619 3 -1 -1
825 1 1 0.5897 11.230388935974856 16.80695455269504 6.883804983155554 -2 3 2
824 1 1 0.5897 10.641535432931594 18.145293713898035 7.275934092881349 -2 3 2
271 1 2 -1.1794 9.222696321501084 19.989359337757605 1.3334575844608452 -2 2 4
273 1 1 0.5897 8.884459775305286 19.344008794262734 0.7127668855549514 -2 2 4
683 1 1 0.5897 10.931847233436432 20.750879444596855 0.7897835089395755 4 -1 -3
349 1 2 -1.1794 13.269481450777425 21.757607110730632 7.013731303192457 -8 0 -2
350 1 1 0.5897 12.494042186566752 21.270067909544558 7.29145892472818 -8 0 -2
290 1 1 0.5897 15.2841237578476 15.343398847351063 2.6844589303228563 -7 -5 -6
67 1 2 -1.1794 12.123250944139082 15.667717992024599 5.816077459729671 4 -2 -3
68 1 1 0.5897 12.516457532239162 15.749908108565105 4.947300815528936 4 -2 -3
127 1 2 -1.1794 12.731068029684604 21.384972243564484 4.267346828413153 -1 0 -3
529 1 2 -1.1794 15.759979354960791 21.29849007668166 5.939482517990009 -3 -1 -5
129 1 1 0.5897 13.062968025707313 21.532022584032312 5.1529708224414295 -1 0 -3
680 1 1 0.5897 16.3281293785581 20.75837857138304 4.021508294223776 -7 -5 1
768 1 1 0.5897 15.913919318594772 15.579684278190154 6.407632195858863 -3 -2 2
766 1 2 -1.1794 15.003271272642555 15.42309720118577 6.657321012949982 -3 -2 2
531 1 1 0.5897 14.90233334522134 21.447491054171863 6.337443836090706 -3 -1 -5
625 1 2 -1.1794 17.335635548712446 18.36621656225374 5.846700745523028 -6 -2 3
769 1 2 -1.1794 12.498048023587838 15.991369902739343 2.87795029228951 3 -1 1
679 1 2 -1.1794 16.454860014330706 21.03218275723689 3.113154956525057 -7 -5 1
627 1 1 0.5897 17.366086307256737 18.185484217260196 4.907259199169597 -6 -2 3
289 1 2 -1.1794 15.126635655106707 16.26607782513089 2.484469460729894 -7 -5 -6
291 1 1 0.5897 15.982572532323722 16.6827081346228 2.5840981702114956 -7 -5 -6
770 1 1 0.5897 13.39178400908966 16.27590253365502 2.6871086093804375 3 -1 1
767 1 1 0.5897 14.597368662574937 16.28975633018358 6.640367909334602 -3 -2 2
332 1 1 0.5897 14.714612636534321 18.99364611889836 2.1009206648570182 -1 -2 -3
599 1 1 0.5897 13.124221324758645 19.5800465344551 3.82076974381465 0 -4 -4
600 1 1 0.5897 12.586242138145899 18.26159047558688 3.3070490236227204 0 -4 -4
598 1 2 -1.1794 13.380104810266047 18.67423236645287 3.6471136124712404 0 -4 -4
226 1 2 -1.1794 14.52385722732678 18.083153846131793 6.012839033165234 1 -3 0
227 1 1 0.5897 15.43721201779894 18.36860543631122 5.991810866702217 1 -3 0
228 1 1 0.5897 14.216946467902545 18.19422107600107 5.1130546415191835 1 -3 0
681 1 1 0.5897 17.352827270064125 21.362335600864967 3.0850891426778295 -7 -5 1
724 1 2 -1.1794 17.44526336765807 17.907415767761854 3.157972284958811 0 -5 3
725 1 1 0.5897 17.531045334357955 18.511480983001768 2.4204836442106203 0 -5 3
446 1 1 0.5897 16.165506175990505 20.415579667906 7.28643984136782 2 -2 -1
333 1 1 0.5897 15.755699950160901 19.987465696218933 1.6317467415860318 -1 -2 -3
331 1 2 -1.1794 15.221270899696123 19.252477554647157 1.3312161895010985 -1 -2 -3
432 1 1 0.5897 13.649329434899697 18.527873332354694 7.568322736153788 -6 -3 -2
152 1 1 0.5897 11.966254199585888 15.970411161001536 1.0836210728731683 2 -1 -1
753 1 1 0.5897 15.142981734943328 15.91065174956046 0.7305773519625303 2 1 0
242 1 1 0.5897 4.3607154828020285 7.601667909984421 8.0377293002602 -1 -2 2
781 1 2 -1.1794 5.218359084935445 7.44172290471358 10.37685359651754 -3 1 2
218 1 1 0.5897 3.2098113831567585 5.101632381441406 9.73199379768109 5 0 -2
347 1 1 0.5897 1.0938857476768113 3.0320506211022566 13.101560503221702 -3 3 -4
346 1 2 -1.1794 1.9346005911388298 2.720166267761967 13.436315575924004 -3 3 -4
481 1 2 -1.1794 1.7470406388387103 6.378001283072792 10.40585844025193 -1 2 -1
482 1 1 0.5897 1.1090408570675008 6.08119197703805 11.054700119448814 -1 2 -1
217 1 2 -1.1794 3.745003699318926 4.780256384057997 9.006441172979926 5 0 -2
782 1 1 0.5897 5.000911283326918 6.686858605880294 10.92369783119974 -3 1 2
219 1 1 0.5897 3.904058779594289 5.55322318800453 8.464811648295932 5 0 -2
306 1 1 0.5897 3.9237848307033536 5.433005789536061 12.542332024344978 3 0 -6
304 1 2 -1.1794 4.6883883023604955 5.208089660780908 12.012299247740858 3 0 -6
83 1 1 0.5897 1.494820111252725 5.705313524168531 13.235700905810118 -2 -2 -6
82 1 2 -1.1794 2.347164735246709 5.870863922768101 13.638492988506012 -2 -2 -6
483 1 1 0.5897 2.0946262580437054 7.193549050352661 10.76670208470851 -1 2 -1
348 1 1 0.5897 2.530480343232464 2.789411460709726 12.690476407263755 -3 3 -4
783 1 1 0.5897 5.506166754243225 8.11201791759382 10.996540994746326 -3 1 2
163 1 2 -1.1794 3.5154122864746453 2.790719004585408 11.304783968999173 -4 2 -1
305 1 1 0.5897 4.435970994999893 4.405903226063478 11.555216995973892 3 0 -6
617 1 1 0.5897 2.9417776758992478 7.705705354762836 12.790058154824628 0 3 0
165 1 1 0.5897 2.7395642786372774 2.7171817240725757 10.749098825379825 -4 2 -1
164 1 1 0.5897 3.6901896084532035 1.8947794769687736 11.592683157576495 -4 2 -1
818 1 1 0.5897 5.300182334495117 3.5900217509255086 9.045787744533326 3 0 0
758 1 1 0.5897 0.8050390298478698 6.183599481633797 8.790239022173372 1 1 2
819 1 1 0.5897 5.4866278041239 2.100844267223489 9.24389883284669 3 -1 0
817 1 2 -1.1794 5.967767878127473 2.928067407686158 9.225451929738208 3 0 0
400 1 2 -1.1794 1.0698364316306064 1.9013661140101183 10.17813885323876 -1 -2 1
381 1 1 0.5897 4.9264702065997925 4.381177259192139 13.595374877155828 8 3 0
616 1 2 -1.1794 2.883659680606437 8.435526973177275 12.173521691699767 0 3 0
84 1 1 0.5897 2.2267648108159186 5.6382809839725905 14.559119226329365 -2 -2 -6
379 1 2 -1.1794 4.971697134348554 4.0580285989429115 14.495193167422942 8 3 0
380 1 1 0.5897 5.743028492367719 3.4914406371640396 14.508214475386923 8 3 0
421 1 2 -1.1794 5.165568484595882 7.88704578759748 14.347974120493877 -3 1 4
470 1 1 0.5897 11.946855347578916 6.267107120618737 7.6562603186337395 1 -3 3
146 1 1 0.5897 7.454866990571333 4.158532048734012 7.626659637922363 -1 2 -3
585 1 1 0.5897 6.390354998106162 2.733658599138783 11.057460430731924 1 -3 1
78 1 1 0.5897 7.634321348642921 4.316086124351607 12.361220608916453 -5 -4 -5
170 1 1 0.5897 7.017133253160051 7.193052675177928 9.536627828306942 -4 5 -1
171 1 1 0.5897 8.00424739029576 6.046054787418735 9.577358020033392 -4 5 -1
169 1 2 -1.1794 7.823112969266166 6.873311127892288 9.131291108268165 -4 5 -1
539 1 1 0.5897 8.190490271545173 3.7295631433344654 10.086440089929475 -3 -3 1
473 1 1 0.5897 10.19049882768056 5.1433952574004715 11.172243489003643 0 0 -3
538 1 2 -1.1794 8.750268390139068 4.378247365268271 9.659824926110922 -3 -3 1
540 1 1 0.5897 9.53209842381543 3.889143672934846 9.403581670142826 -3 -3 1
729 1 1 0.5897 8.62727733196105 7.071439698280136 12.301342942804311 -1 2 0
474 1 1 0.5897 11.160143068545395 6.302399016792847 11.081880702727819 0 0 -3
310 1 2 -1.1794 11.042705336586929 3.3223062326328376 8.527580085813407 -1 3 2
642 1 1 0.5897 9.434740051834632 7.593816240701975 9.76615365466919 3 1 -4
640 1 2 -1.1794 10.379314117279304 7.737063468354297 9.70782241561209 3 1 -4
641 1 1 0.5897 10.631681993518333 7.337504071158967 8.875475447260175 3 1 -4
77 1 1 0.5897 8.362113142367615 5.058712891434567 13.461445975654403 -5 -4 -5
179 1 1 0.5897 11.893901415166562 1.715105286528086 12.691517463738213 -7 1 -1
76 1 2 -1.1794 8.026830305937363 5.1634585812461165 12.571077341089076 -5 -4 -5
472 1 2 -1.1794 10.986081051490286 5.497409939198931 11.569563295831578 0 0 -3
512 1 1 0.5897 10.926382475072867 5.626444107903494 13.32146175259578 -1 2 -4
511 1 2 -1.1794 10.90896343337415 5.674499918902227 14.277249328587303 -1 2 -4
591 1 1 0.5897 10.43206476465362 2.497387543199277 14.099512925908295 2 5 3
583 1 2 -1.1794 6.931272879146506 2.7354422252544297 11.847108560048882 1 -3 1
584 1 1 0.5897 7.589768867990611 2.0591704007075173 11.688434782452386 1 -3 1
312 1 1 0.5897 11.77117702610023 3.9225312424271515 8.686299335138857 -1 3 2
727 1 2 -1.1794 8.793109278374262 8.005796750436906 12.176363932242506 -1 2 0
728 1 1 0.5897 9.733848240561665 8.104257369664815 12.322853411336935 -1 2 0
513 1 1 0.5897 10.610067644678539 4.808885989670264 14.55564587564437 -1 2 -4
757 1 2 -1.1794 17.54574585958396 6.194703762545264 7.92774089841702 0 1 2
340 1 2 -1.1794 16.939155381620424 5.899167124176712 12.271235134020479 2 3 3
59 1 1 0.5897 17.242384152525666 3.2784972402326313 9.448031923523077 3 -1 -2
60 1 1 0.5897 16.84000768273158 4.278795847433493 8.385410408229216 3 -1 -2
759 1 1 0.5897 16.90338666811786 6.9024002859523295 7.979519285375783 0 1 2
341 1 1 0.5897 16.621049022340863 4.996438256766612 12.265800528835037 2 3 3
187 1 2 -1.1794 16.390359549010874 3.277584519579189 12.609711879815507 -2 5 1
342 1 1 0.5897 16.507337631056348 6.301237185398759 13.024903329874576 2 3 3
238 1 2 -1.1794 13.150787859862572 5.0055515943208695 8.142697290661529 -5 -4 -1
189 1 1 0.5897 16.37396069904309 2.3746690072301035 12.292514571048313 -2 5 1
239 1 1 0.5897 13.755370836403372 5.3649851853947546 8.791872792449098 -5 -4 -1
581 1 1 0.5897 13.988664553139081 4.876256090563773 11.628170808947642 -2 -2 0
582 1 1 0.5897 12.580590744891401 4.357864455914449 11.828836113428594 -2 -2 0
580 1 2 -1.1794 13.456279431547168 4.3390487200535315 12.214784482123472 -2 -2 0
615 1 1 0.5897 15.338425793677699 6.644291024235191 10.322648331129585 -7 1 4
58 1 2 -1.1794 16.533223293080006 3.869099302333447 9.194219939973893 3 -1 -2
614 1 1 0.5897 15.574810125359612 5.210186482224417 9.899407536056179 -7 1 3
613 1 2 -1.1794 14.88474624694247 5.815195071101093 10.171282423316695 -7 1 4
188 1 1 0.5897 15.876290278354709 3.2577555504248785 13.416853416382908 -2 5 1
665 1 1 0.5897 13.249242251691786 6.213278302738772 12.665199803176177 0 1 3
664 1 2 -1.1794 13.530240378227203 7.120003612816691 12.787799418417105 0 1 3
762 1 1 0.5897 15.279651364033638 2.4988390675874026 9.340783919641927 0 -3 -1
760 1 2 -1.1794 14.732554683349285 1.716032288880272 9.277212849095173 0 -3 -1
158 1 1 0.5897 13.75714970762271 2.527298964658208 12.082419796324558 2 2 -2
666 1 1 0.5897 13.441071352259648 7.5180365457569645 11.921913244733732 0 1 3
196 1 2 -1.1794 16.306402671225296 8.280465743450051 10.281409551625002 -3 -2 0
110 1 1 0.5897 12.024318844315378 8.126406060638423 13.0936000830204 0 0 -7