LAMMPS data file via write_data, version 30 Jul 2021, timestep = 31250000

864 atoms
2 atom types
576 bonds
1 bond types
288 angles
1 angle types

0.6644053022283032 17.543167097752086 xlo xhi
1.8741129552723734 21.755064844709946 ylo yhi
0.8105729168462226 21.402622883141277 zlo zhi

Masses

1 1.00794
2 15.9994

Pair Coeffs # lj/cut/tip4p/long/omp

1 0 0
2 0.21084 3.1668

Bond Coeffs # harmonic/omp

1 450 0.9572

Angle Coeffs # harmonic/omp

1 55 104.52

Atoms # full

573 1 1 0.5897 3.3838850762775947 5.332463070863925 4.278035618315821 2 -2 0
572 1 1 0.5897 2.218222178959614 5.681375045648515 3.3772920166221922 2 -2 0
521 1 1 0.5897 2.5365072641007904 3.3678300948897033 2.9834133849818 -1 3 -2
571 1 2 -1.1794 2.719651043813808 4.938221532676756 3.7127241801407886 2 -2 0
438 1 1 0.5897 4.3064805356151545 3.462456802321178 4.526323119247246 -2 7 2
520 1 2 -1.1794 2.2217529154992146 2.466144349717561 2.9191166941550897 -1 3 -2
194 1 1 0.5897 0.6722177639690436 4.74313154008806 4.502406490030079 10 -4 -1
291 1 1 0.5897 2.0241720439662214 2.2493385580396064 4.696731826807375 -8 -3 -4
361 1 2 -1.1794 0.8744457187916113 6.6257615523497675 2.3131627488217457 5 -1 -5
522 1 1 0.5897 1.7051082432729763 2.449212341482186 2.1134966415036396 -1 3 -2
501 1 1 0.5897 1.3601913637419578 6.666124431002719 5.471261666888906 0 4 -3
798 1 1 0.5897 3.481689036787393 5.83442890634011 9.068082459697864 1 -2 -3
796 1 2 -1.1794 3.742303259217047 4.913452837775228 9.055330497842858 1 -2 -3
794 1 1 0.5897 3.683108285962124 4.36209574086845 7.3598001516926965 -2 3 6
797 1 1 0.5897 3.824690759209672 4.674550000812626 9.97858799518388 1 -2 -3
795 1 1 0.5897 3.0249404623315312 3.3959922827027746 6.397866907351162 -2 3 6
447 1 1 0.5897 0.8281941758229954 3.7211868977661493 8.316029075328963 5 -3 -5
320 1 1 0.5897 1.0032173921735639 5.274709095266907 9.769304432435256 4 -2 -4
319 1 2 -1.1794 0.9574045365565751 5.174632283966777 10.720151486817716 4 -2 -4
21 1 1 0.5897 2.659453942010389 2.3929801904999444 9.564254880326374 -2 -7 -2
445 1 2 -1.1794 1.2676291914506457 2.8731862632237655 8.379463192198706 4 -3 -5
793 1 2 -1.1794 3.529275406376654 4.209002600067123 6.427541288398248 -2 3 6
446 1 1 0.5897 1.3453828664595728 2.574816569524668 7.473284659677871 4 -3 -5
156 1 1 0.5897 2.698548910815919 4.907115673147642 11.559348052785422 6 3 1
115 1 2 -1.1794 4.815207821192997 4.7048271464584115 14.501498458551406 -4 -1 5
117 1 1 0.5897 3.933889375346388 4.335522784207285 14.557315630411921 -4 -1 5
199 1 2 -1.1794 1.7390428699195852 6.271353311011161 13.990435446739383 1 -2 0
416 1 1 0.5897 0.7680238060967503 3.415235284441253 11.371135845120063 -7 4 2
415 1 2 -1.1794 0.9513695899623544 2.5494621941745916 11.73590073361157 -7 4 2
417 1 1 0.5897 1.769455223763766 2.281131634626772 11.317613313331547 -7 4 2
671 1 1 0.5897 4.532658965653569 6.161883200298676 12.183758386163248 18 4 4
540 1 1 0.5897 1.6509602311986742 3.21321211823974 15.055768625951782 2 -2 1
154 1 2 -1.1794 3.6255909074820214 4.72290196346301 11.710683901755917 6 3 1
201 1 1 0.5897 2.0399081971453277 5.552539839332038 14.546380885624629 1 -2 0
155 1 1 0.5897 3.627364257181189 3.964419266908109 12.294567788621253 6 3 1
538 1 2 -1.1794 2.1646915118210153 3.9965149945956986 15.252667118804307 2 -2 1
490 1 2 -1.1794 4.530613574252352 2.021583796691935 13.76708240629943 3 7 5
539 1 1 0.5897 2.1035976359499555 4.090916987579293 16.203238641192 2 -2 1
116 1 1 0.5897 4.855859209836672 5.338149789182131 15.218075638305185 -4 -1 5
491 1 1 0.5897 4.861839897807221 2.8310134816471004 14.156105170120265 3 7 5
224 1 1 0.5897 4.2960758229093985 5.783059899850532 19.42357540346598 0 2 -7
87 1 1 0.5897 1.6339290931730346 4.411309867315213 19.052280176450815 3 4 2
313 1 2 -1.1794 1.9546547119069055 4.45523456282956 20.902793738368562 2 2 0
225 1 1 0.5897 3.6110754934726863 4.7580535013199565 18.54495291985902 0 2 -7
86 1 1 0.5897 1.2348235129977856 5.174950011186951 17.80749084277187 3 4 2
85 1 2 -1.1794 1.7717595010543854 4.440691823980616 18.105504696914522 3 4 2
223 1 2 -1.1794 4.472995147775762 5.111607287698223 18.764736185681958 0 2 -7
202 1 2 -1.1794 3.8166622994090558 2.5526177625618747 20.41575961985566 -5 2 -2
203 1 1 0.5897 4.536522284531192 2.9354570662131643 19.91424550171774 -5 2 -2
842 1 1 0.5897 4.652781601786515 1.9052313352647723 17.358473124405357 3 7 3
204 1 1 0.5897 4.22102901320725 2.2638893828016986 21.233911763118286 -5 2 -2
476 1 1 0.5897 1.7876239696607183 2.4667149519451588 18.349142855078217 3 -2 -2
315 1 1 0.5897 2.6310197108986286 3.7861957577059986 20.797116069792917 2 2 0
314 1 1 0.5897 2.4131335851104905 5.200906665609245 21.290094971421816 2 2 0
355 1 2 -1.1794 4.093684869637595 6.799204981975124 21.095754939575603 -4 0 5
546 1 1 0.5897 4.709543256579749 6.062758290348118 17.135099310257775 -2 5 4
544 1 2 -1.1794 4.879869896473811 6.571873543574935 16.34261777935516 -2 5 4
774 1 1 0.5897 1.9854065482727843 9.898356957303575 2.960092402508547 5 -1 0
363 1 1 0.5897 1.1124668526530295 7.538573305241246 2.47552264652336 5 -1 -5
773 1 1 0.5897 3.258137318289899 9.095372783957917 3.12513066660659 5 -1 0
772 1 2 -1.1794 2.3434288446427622 9.130157444431628 3.404968495075304 5 -1 0
53 1 1 0.5897 4.3871288579125975 10.812405911074944 4.640528464803213 0 0 5
703 1 2 -1.1794 4.831963212333147 8.351725968609628 2.500047841732397 8 3 -1
463 1 2 -1.1794 1.2321302677574146 11.62512339033941 3.361475197280444 4 -1 -2
500 1 1 0.5897 2.1672734387731762 7.807282879565611 4.8896994261532924 0 4 -3
499 1 2 -1.1794 2.1314058718388544 7.208701517882912 5.635772970670666 0 4 -3
54 1 1 0.5897 3.1648018555217625 10.516174482855712 5.483167207557502 0 0 5
52 1 2 -1.1794 4.058391715020338 10.854798210517272 5.538495816808789 0 0 5
356 1 1 0.5897 4.470600178965889 7.265620408606888 1.2497651270201775 -4 0 6
399 1 1 0.5897 4.672925762791412 11.380069914956827 2.359720828383901 0 4 -6
189 1 1 0.5897 1.4145802385409962 9.089570315655143 6.391167191072707 1 2 3
55 1 2 -1.1794 1.8716705932789277 8.11577093652371 10.43987319424349 -8 -2 5
619 1 2 -1.1794 1.8356533510253923 11.068027816337853 8.86252402322952 5 -2 3
620 1 1 0.5897 2.6461916359680933 10.831845033489934 9.313604323176774 5 -2 3
57 1 1 0.5897 2.2506250602138964 7.9996277755331215 9.568600728407597 -8 -2 5
645 1 1 0.5897 2.720888640039733 7.133244940077761 7.383058100778559 1 2 1
644 1 1 0.5897 3.8709480854692035 7.955539932190336 7.924384306494999 1 2 1
621 1 1 0.5897 1.1395391371267904 10.765137712860017 9.445559838283089 5 -2 3
187 1 2 -1.1794 1.4798183763385644 10.040547959169515 6.30399899412792 1 2 3
292 1 2 -1.1794 4.3520573638358515 10.120500629077037 10.069151688083968 -4 -2 2
188 1 1 0.5897 1.6611465454874184 10.350973813228219 7.191112069613974 1 2 3
56 1 1 0.5897 1.1173535736611704 7.526687142010949 10.453967132643745 -8 -2 5
293 1 1 0.5897 4.416961060848499 10.614767455872435 10.886287646735004 -4 -2 2
643 1 2 -1.1794 3.1337259631215435 7.4111489944611115 8.200704269501308 1 2 1
297 1 1 0.5897 4.882031879245992 9.280823494548326 6.159795443591415 6 1 2
626 1 1 0.5897 4.684125131646461 11.470541542554098 7.14236059217079 0 -2 2
294 1 1 0.5897 4.826761439208406 9.307503900598725 10.242107575156227 -4 -2 2
391 1 2 -1.1794 3.643232739150421 8.147189225549342 14.535854264007526 6 7 2
268 1 2 -1.1794 1.7333658388153714 9.47911732011233 12.853231562586895 7 -2 2
270 1 1 0.5897 2.565262384758202 9.206309340724534 13.240192548269382 7 -2 2
269 1 1 0.5897 1.6753538847375622 8.984631224656136 12.035717344680139 7 -2 2
162 1 1 0.5897 1.8272931178360692 10.878794683487547 15.165513445820926 -5 9 1
716 1 1 0.5897 2.4703094302314845 11.241200594979118 12.286499861493413 6 -10 -7
160 1 2 -1.1794 0.9454148818008379 10.655037879160325 15.462889614519892 -5 9 1
802 1 2 -1.1794 3.6293589351228452 11.610104300308 14.994510310401312 7 -1 -7
392 1 1 0.5897 3.981021535202156 7.799801406610189 15.361351324428897 6 7 2
393 1 1 0.5897 4.222036404951771 7.781579126197566 13.86688245642139 6 7 2
161 1 1 0.5897 0.7984391047125652 9.768743129368449 15.132605176346841 -5 9 1
803 1 1 0.5897 3.924511154003873 10.875250137884349 14.456846066600127 7 -1 -7
200 1 1 0.5897 2.4442653976812476 6.917321604141836 14.030760709013267 1 -2 0
354 1 1 0.5897 1.7540798363040513 7.631211135949406 17.9828460269575 7 3 -4
722 1 1 0.5897 2.813712077124447 9.142250400061126 19.34178767428723 8 -6 -1
721 1 2 -1.1794 3.205387157820228 8.565636834382094 18.68578867448875 8 -6 -1
723 1 1 0.5897 3.574697072210731 9.160569419166297 18.033181960261977 8 -6 -1
1 1 2 -1.1794 1.5937779270812085 9.61891798058655 20.64625361997927 5 -1 5
622 1 2 -1.1794 1.182505199745758 11.326479985911119 18.145671718242387 2 -1 -5
624 1 1 0.5897 0.8402973896939426 11.207504566481422 17.25969794089113 2 -1 -5
441 1 1 0.5897 4.524303722033084 10.709336663634577 20.586615085963984 1 -1 0
357 1 1 0.5897 3.9174177972743034 7.4829155493421355 20.44947529981256 -4 0 5
2 1 1 0.5897 1.1687212564521396 10.108271442867801 19.94192332484585 5 -1 5
421 1 2 -1.1794 4.757053501629726 9.960172031546827 16.98939591864735 -9 3 7
3 1 1 0.5897 2.366725706766683 10.138593303484981 20.866968754373836 5 -1 5
352 1 2 -1.1794 1.0109419270341802 7.058442369072581 17.79339724525767 7 3 -4
423 1 1 0.5897 4.526334520174442 10.658091807026086 16.376299875105904 -9 3 7
439 1 2 -1.1794 3.870633911168372 11.124403126922473 21.149334926734365 1 -1 0
353 1 1 0.5897 0.6742439795916719 7.371879176670766 16.953992617289288 7 3 -4
243 1 1 0.5897 2.747584356073649 14.281251394791878 3.5181794729105285 1 1 7
242 1 1 0.5897 2.878404741353403 12.787828194689077 3.7289438336679006 1 1 7
211 1 2 -1.1794 1.5124265995293915 16.120377448905483 3.3635377059571905 4 -4 2
464 1 1 0.5897 0.9069567542606173 11.946516203395452 4.202434335467808 4 -1 -2
326 1 1 0.5897 4.028558233331254 13.799848579928325 1.622598838536789 3 0 -4
241 1 2 -1.1794 3.394371364995531 13.591748557521235 3.6680974125196593 1 1 7
212 1 1 0.5897 2.104293980281842 16.679961685784924 3.8663218415517293 4 -4 2
11 1 1 0.5897 4.693124530179514 13.98635094284089 4.836586484588061 -4 -1 -1
213 1 1 0.5897 0.7631936200925092 15.98179650182382 3.9429119963274144 4 -4 2
465 1 1 0.5897 0.7700099493779698 12.150963711986652 2.7086650703877613 4 -1 -2
456 1 1 0.5897 4.49863963063636 16.536235732504103 1.4272009609654215 -6 7 -2
384 1 1 0.5897 1.3760627367582252 15.322001628738475 7.751505239660367 -12 -1 0
143 1 1 0.5897 2.7819979874069256 12.786301642108604 7.665876532358097 -2 0 8
383 1 1 0.5897 2.3234241115964696 16.341170322072237 8.347864350794232 -12 -1 0
168 1 1 0.5897 1.3213633294407665 13.05489093499498 9.698567970368096 -3 -2 5
834 1 1 0.5897 4.645586716011266 13.07643372336121 9.380936947444896 5 -3 -1
167 1 1 0.5897 0.7751184940181715 14.396072245245128 10.139828138277245 -3 -2 5
142 1 2 -1.1794 2.7134710167177203 13.474480774589 7.0041152420770345 -2 0 8
166 1 2 -1.1794 1.5892350812242464 13.950037207755821 9.90635318707933 -3 -2 5
303 1 1 0.5897 4.166735739897903 15.563767084128752 9.201936518349456 -4 7 4
833 1 1 0.5897 3.5125885659256224 13.889041037560958 9.970756420879649 5 -3 -1
832 1 2 -1.1794 4.460537428060622 13.896714270400388 9.838230179729932 5 -3 -1
382 1 2 -1.1794 1.4929128930344027 16.26352556430856 7.878361658873845 -12 -1 0
281 1 1 0.5897 1.180826471682178 13.178855511409663 6.075007382169587 0 -7 -4
144 1 1 0.5897 3.5608373413347225 13.464650795715874 6.5590353230087866 -2 0 8
301 1 2 -1.1794 3.8405789243058597 16.450337249072476 9.356303652482353 -4 7 4
302 1 1 0.5897 3.300120036962929 16.373688587947086 10.142599864337672 -4 7 4
847 1 2 -1.1794 2.3298736475934327 16.643862151069392 11.732272559470527 9 -3 5
636 1 1 0.5897 2.6847810746099476 14.731743895935157 13.874112739565193 -10 2 0
457 1 2 -1.1794 1.4709688839295463 15.168547148384924 15.034680841167164 -1 -6 -4
634 1 2 -1.1794 3.317686670605434 14.406997607059635 13.233658775402228 -10 2 0
717 1 1 0.5897 2.920397124359779 12.680586149090848 12.418618876898812 6 -10 -7
635 1 1 0.5897 4.117570002320258 14.261957455816166 13.738989758747426 -10 2 0
458 1 1 0.5897 1.125392652261703 15.917099066846477 14.54834899754384 -1 -6 -4
849 1 1 0.5897 2.716194424690224 15.84174003529895 12.083835136741623 9 -3 5
715 1 2 -1.1794 2.918257267908465 11.940889147393849 11.811094563866389 6 -10 -7
804 1 1 0.5897 4.306330230500446 12.277298029477919 14.881477742428133 7 -1 -7
459 1 1 0.5897 0.790654951294297 14.499289534774357 14.960421589459246 -1 -6 -4
311 1 1 0.5897 1.139869014757338 12.275646303698847 11.801622658432326 -7 7 0
753 1 1 0.5897 3.223641697384837 15.718386949307027 16.2365775962454 2 -2 -7
182 1 1 0.5897 3.6405085112348075 13.961042179837714 17.894524129266465 -11 5 -4
325 1 2 -1.1794 4.252159236914785 13.978272208303297 21.301190292332432 3 0 -5
691 1 2 -1.1794 1.8440988790126582 15.03303160382298 20.302827139434207 -3 -2 -3
752 1 1 0.5897 4.0600872995920305 15.937319941335215 17.47927205190181 2 -2 -7
519 1 1 0.5897 1.310301194448203 15.096657223289636 16.74518421100836 2 -2 -7
751 1 2 -1.1794 3.925234331763052 15.325341494081833 16.7557110091222 2 -2 -7
181 1 2 -1.1794 3.5065128942141377 13.22316396295015 18.489344983883946 -12 5 -4
693 1 1 0.5897 1.6133722438431104 15.848704823801828 20.747418967202073 -3 -2 -3
517 1 2 -1.1794 1.1444484563024964 15.309654359809256 17.663519628503124 2 -2 -7
327 1 1 0.5897 3.5417135157623805 14.536299238596387 20.98482187191029 3 0 -5
183 1 1 0.5897 3.585058942706491 13.603010404798797 19.364432144658405 -12 5 -4
692 1 1 0.5897 1.482004027389871 15.12909200134962 19.421993480749407 -3 -2 -3
623 1 1 0.5897 1.9128628061467843 11.936264056698612 18.040957294215 2 -1 -5
440 1 1 0.5897 3.97535252668788 12.062001203896047 20.98760459154199 1 -1 0
141 1 1 0.5897 2.8853653108289716 20.253134562428595 4.1371425449475865 3 -2 -2
290 1 1 0.5897 1.5005385388453627 21.17423251346801 5.747324776596612 -8 -4 -4
808 1 2 -1.1794 2.5059503960928424 17.562828006824788 5.711535829260641 5 0 2
790 1 2 -1.1794 4.7625364699453 21.602950171688754 2.0404887447834614 -1 1 0
176 1 1 0.5897 4.464429399911014 18.895169535400864 4.5166041035667615 8 0 2
662 1 1 0.5897 1.3155812695795825 17.412779486428754 1.6530581264347846 1 -7 1
140 1 1 0.5897 1.9614736747854153 19.20110300793399 3.5613682400349624 3 -2 -2
139 1 2 -1.1794 2.8221788156066303 19.60160708292175 3.4387630729638934 3 -2 -2
245 1 1 0.5897 1.1641384265845405 18.71657650272729 5.522385359175302 -7 -2 -3
782 1 1 0.5897 0.9050524630417598 20.34323859090936 1.4313119623895092 -6 -5 3
289 1 2 -1.1794 2.236106930329954 21.754511221194516 5.551201987644129 -8 -4 -4
791 1 1 0.5897 3.8383968523975858 21.548298406893426 2.283793119353339 -1 1 0
809 1 1 0.5897 3.399992308339355 17.226493850163678 5.650070518026307 5 0 2
455 1 1 0.5897 4.7500677851615345 17.948314497194975 0.9426791033503457 -6 7 -2
365 1 1 0.5897 4.697270450549433 20.818062579845662 6.731932540235894 6 3 2
341 1 1 0.5897 3.2836088568101602 19.146475613024673 7.057994046040592 5 5 -1
20 1 1 0.5897 2.9344781701741782 20.849896697985205 9.998302086686039 -2 -8 -3
340 1 2 -1.1794 3.377579899914787 19.757988853078253 7.788357479729049 5 5 -1
68 1 1 0.5897 1.8892965087733355 18.201996507836633 10.819400096757404 14 -7 -5
342 1 1 0.5897 4.225051170689447 19.540007071591678 8.17633010249217 5 5 -1
426 1 1 0.5897 0.8978635194610056 19.25631385488209 8.987266042070791 10 -1 2
67 1 2 -1.1794 2.0905364150195958 19.126956872630245 10.67731872609962 14 -7 -5
19 1 2 -1.1794 3.2664663481520386 21.743888746843137 10.08080762607804 -2 -8 -2
810 1 1 0.5897 2.121510325476664 17.089102079590333 6.449097298728465 5 0 2
848 1 1 0.5897 1.5740105907897788 16.812706058979806 12.294752358372946 9 -3 5
102 1 1 0.5897 3.307275337679083 20.77286009910709 13.189174002147952 8 -7 -4
101 1 1 0.5897 1.8605305976007092 20.65127277172641 13.618140923894675 8 -7 -4
16 1 2 -1.1794 2.0832240064356795 17.975683679672326 15.461574427859654 -6 8 2
710 1 1 0.5897 3.956439059689734 17.73300592604115 12.67036894278011 -6 4 -1
100 1 2 -1.1794 2.57437775859703 20.157689047555404 13.214380434039525 8 -7 -4
18 1 1 0.5897 2.1501222138979763 18.87202601457623 15.1324653246634 -6 8 2
668 1 1 0.5897 3.6996049099255695 20.986804873928925 15.168782357708432 -4 1 0
524 1 1 0.5897 0.7796502266362555 17.70976966951468 14.083849220943547 1 -3 -2
69 1 1 0.5897 2.135544816514498 19.50069837629402 11.557383524323868 14 -7 -5
667 1 2 -1.1794 3.4898162613441293 20.733095278993 16.06758037933642 -4 1 1
17 1 1 0.5897 1.9014067629761437 18.076044581135363 16.395971180690246 -6 8 2
801 1 1 0.5897 3.3434850263412064 20.463302360572936 19.421054190086036 2 -2 0
799 1 2 -1.1794 3.4081088445763505 19.609505271971138 19.848933230113445 2 -2 0
663 1 1 0.5897 2.5006177599775814 17.52896206540884 21.310203641249405 1 -7 0
475 1 2 -1.1794 1.6208184562370502 21.453495823305477 18.051074126019373 3 -3 -2
629 1 1 0.5897 1.4067091535540817 19.588342376628724 18.063730850356794 -4 0 4
628 1 2 -1.1794 1.4024537760601166 18.632380746366916 18.11240539751363 -4 0 4
783 1 1 0.5897 1.7844421623272988 20.465500617505832 20.797137458746445 -6 -5 2
800 1 1 0.5897 2.9134407771725486 19.018538244158172 19.281214711920303 2 -2 0
661 1 2 -1.1794 1.5437937361805483 17.504203454975624 21.32000860520293 1 -7 0
850 1 2 -1.1794 4.815166514032945 17.15543762005219 18.506582745596113 -10 -3 -3
477 1 1 0.5897 2.0037051156161083 21.417357313302723 17.174546583210766 3 -3 -2
781 1 2 -1.1794 1.1412726559093924 20.94604107148688 21.318334309580873 -6 -5 2
852 1 1 0.5897 4.639028971933722 17.263604380731206 19.441202567203852 -10 -3 -3
454 1 2 -1.1794 4.226979980055216 17.16753851832544 21.353008038001086 -6 7 -3
669 1 1 0.5897 4.1926284550199275 20.13342841035043 16.317939943472602 -4 1 1
137 1 1 0.5897 7.885418728756286 6.391768305323139 3.4765246920020636 11 -5 -2
330 1 1 0.5897 6.920223842971733 3.4910681147843245 4.504306353287326 4 3 3
436 1 2 -1.1794 5.172054047241909 3.091661601686441 4.354410141150416 -2 7 2
329 1 1 0.5897 8.116682742899826 4.2281739272302366 3.9412693226605056 4 3 3
250 1 2 -1.1794 5.757366158610345 4.451804922065984 1.3018589066312023 3 2 7
136 1 2 -1.1794 7.947507890927634 5.744695549605097 2.773898673489704 11 -5 -2
695 1 1 0.5897 7.096298598832006 3.2179969830031747 1.1823299862441383 2 -6 6
251 1 1 0.5897 6.286893833063929 4.921672173376297 1.9460931659855567 3 2 7
328 1 2 -1.1794 7.861055131510344 3.614594820514924 4.630033721972362 4 3 3
138 1 1 0.5897 8.43119889559225 6.19087252685717 2.078775738536937 11 -5 -2
257 1 1 0.5897 5.184719652140391 5.730854438311809 5.038274789355984 -4 5 0
694 1 2 -1.1794 7.746342649392968 2.6176600095383917 0.8172958375634503 2 -6 6
696 1 1 0.5897 8.588108307439455 2.9727615989849676 1.1030039903310758 2 -6 6
252 1 1 0.5897 5.103978694823866 5.090469962458022 1.0165429882956174 3 2 7
437 1 1 0.5897 5.054212715424088 2.56309157602703 3.5651355816154706 -2 7 2
256 1 2 -1.1794 5.225636092459476 6.587633964119972 4.6134654124106405 -4 5 0
567 1 1 0.5897 6.81082491894242 4.989497405458206 7.4273249977014215 -3 1 -10
689 1 1 0.5897 8.319732949822368 6.284607247378708 7.719950574167111 6 -3 6
215 1 1 0.5897 6.459495725523641 3.7938600526099284 9.547992393262684 1 0 4
396 1 1 0.5897 5.500153903374996 2.0471890600121645 10.312122784130246 0 4 3
170 1 1 0.5897 8.667997413350585 6.016746583219774 10.277640161344141 -5 2 -1
214 1 2 -1.1794 6.361164226888842 4.668503966512964 9.17176766761364 1 0 4
566 1 1 0.5897 7.652642882394298 5.011946618798381 6.1692560564491306 -3 1 -10
90 1 1 0.5897 8.963897879931944 2.9622935272536988 7.6841976380145836 8 -1 3
565 1 2 -1.1794 6.999403473726951 5.518354906794295 6.652035083712502 -3 1 -10
216 1 1 0.5897 5.416176748178758 4.780439383771493 9.068411613862168 1 0 4
394 1 2 -1.1794 6.398900280054676 2.3053907787144965 10.516568327490608 0 4 4
84 1 1 0.5897 7.132856528192871 2.7788986943911853 14.150894551578938 -8 0 2
83 1 1 0.5897 6.789344071412705 4.051600867284495 13.406486787634392 -8 0 2
31 1 2 -1.1794 7.427226554899392 5.775729475318361 12.947446741441722 3 3 5
184 1 2 -1.1794 7.289139876808268 2.6737617426783205 16.140170665913022 -3 10 5
713 1 1 0.5897 8.78997394351668 3.270220207033292 13.152769512455933 -11 -3 0
82 1 2 -1.1794 7.00888026388734 3.1300922601727557 13.269126723614006 -8 0 2
226 1 2 -1.1794 7.923878606044186 5.6476414519791405 15.650626044957292 3 1 2
228 1 1 0.5897 8.865874756747782 5.8068271328414465 15.591195068949688 3 1 2
227 1 1 0.5897 7.852182678413337 4.756538585374036 15.992694207641796 3 1 2
171 1 1 0.5897 8.790338306934514 5.824701865704187 11.774301742454577 -5 2 -1
395 1 1 0.5897 6.342368367919642 2.7043266267720667 11.384820675097394 0 4 4
32 1 1 0.5897 7.383001805428197 5.852997684361942 13.900489937945213 3 3 5
33 1 1 0.5897 6.579662666049061 6.09808307964086 12.64095136012577 3 3 5
405 1 1 0.5897 8.653619764978782 2.7660991497816227 18.491547434025208 1 -6 -2
185 1 1 0.5897 6.558515342641364 2.4942856177623787 16.731941052429192 -3 10 5
38 1 1 0.5897 6.647163823430794 6.614807606909693 19.15516173195907 1 3 -4
206 1 1 0.5897 6.541908056023092 4.225861892225268 18.83625024772992 -10 6 -3
205 1 2 -1.1794 7.403538332175644 4.502261958281888 19.14837774064432 -10 6 -3
207 1 1 0.5897 7.59263517448556 3.9162613561728357 19.88122013646496 -10 6 -3
841 1 2 -1.1794 5.366190519605594 2.2045092133353563 17.9221155000984 3 7 3
564 1 1 0.5897 8.390682733090067 6.814908126908998 20.361189487922665 -1 -1 4
545 1 1 0.5897 5.831489663501471 6.673201768247952 16.322428077437003 -2 5 4
397 1 2 -1.1794 5.2266345500098215 11.217434446115343 3.123407671197584 0 4 -6
532 1 2 -1.1794 7.635095494657559 10.063116571029711 4.584490731329431 -1 0 1
814 1 2 -1.1794 7.431075859527246 9.026632859609371 1.779492026473299 -7 7 -3
534 1 1 0.5897 7.327037711447532 10.729831177207123 5.198355618224782 -1 0 1
705 1 1 0.5897 5.595788999145669 8.870081444120153 2.246865099331936 8 3 -1
533 1 1 0.5897 7.252155357167433 10.315267192250422 3.74425660944478 -1 0 1
551 1 1 0.5897 8.202097484993459 8.3078072773691 4.78025684815576 2 15 -2
550 1 2 -1.1794 8.234191407788487 7.363020484333119 4.930462043963821 2 15 -2
815 1 1 0.5897 7.72867330580522 9.461211230762412 0.9802387342269514 -7 7 -3
816 1 1 0.5897 8.228193145469334 8.665432820611223 2.1672755668758645 -7 7 -3
258 1 1 0.5897 5.241283207971216 7.2138560614105645 5.3372363911048 -4 5 0
704 1 1 0.5897 5.187369978812464 7.653402798136012 3.0498522594082567 8 3 -1
552 1 1 0.5897 7.439761406378464 7.172177301903958 5.429136365734354 2 15 -2
221 1 1 0.5897 8.433980991607953 8.460350777990719 7.516893473874396 8 -1 6
122 1 1 0.5897 6.769514701299618 8.668245287170265 10.269533558190334 -1 0 6
718 1 2 -1.1794 7.678245945236845 10.109915738063455 9.953755399644484 3 4 -1
719 1 1 0.5897 7.596746849977287 9.732593351190744 9.07783724840574 3 4 -1
220 1 2 -1.1794 7.936032373970932 9.276275735508666 7.46667599162227 8 -1 6
121 1 2 -1.1794 6.288665908979549 7.841435025239037 10.306684695653894 -1 0 6
295 1 2 -1.1794 5.233256704428589 8.49757917090027 6.583330067716366 6 1 2
222 1 1 0.5897 8.601277074032437 9.964434603188877 7.476945625964047 8 -1 6
720 1 1 0.5897 7.458979594323104 11.034449983241368 9.83812899671276 3 4 -1
627 1 1 0.5897 5.031125887488435 11.054090080797508 8.555866335765014 0 -2 2
296 1 1 0.5897 6.181520491521766 8.62796707775163 6.580448722124637 6 1 2
123 1 1 0.5897 6.54921379133881 7.376363188261542 9.511677500880532 -1 0 6
688 1 2 -1.1794 8.881734662798056 6.89919502681474 8.191813071220949 6 -3 6
625 1 2 -1.1794 5.15408944592543 11.762139569351135 7.923592355672104 0 -2 2
780 1 1 0.5897 7.746322832191252 11.431248250797893 14.961710650942756 -4 3 -5
262 1 2 -1.1794 6.760321422564917 8.446106996679783 15.936460609918553 6 0 4
49 1 2 -1.1794 7.663162969826573 8.468235503964461 13.491895481009848 8 -5 -2
786 1 1 0.5897 5.8809240468431545 10.997720641003445 12.461038306713787 0 11 5
50 1 1 0.5897 8.535618902054736 8.850956373568359 13.584391509480776 8 -5 -2
779 1 1 0.5897 7.026456172375188 10.262654301141177 15.600484850527119 -4 3 -5
51 1 1 0.5897 7.824647036131496 7.568599928606479 13.20766125461156 8 -5 -2
778 1 2 -1.1794 7.342621722047083 11.147717149788342 15.781982354254309 -4 3 -5
785 1 1 0.5897 6.2184865716745845 9.647378984330127 13.056416321010271 0 11 5
672 1 1 0.5897 5.281971152051583 7.393022089372919 11.720431691747388 18 4 4
263 1 1 0.5897 6.9427364065156585 8.265891336705685 15.01424965022745 6 0 4
784 1 2 -1.1794 5.508743920588232 10.28512477339042 12.980559084232517 0 11 5
134 1 1 0.5897 9.099259283212785 11.505697941914987 12.465735744735964 -1 -5 1
670 1 2 -1.1794 4.965129487862634 6.951652846717278 12.508477228233414 18 4 4
133 1 2 -1.1794 8.548216117885513 11.785760363721241 13.196594683138025 -1 -5 1
37 1 2 -1.1794 6.90421615413229 7.526841513703901 19.29054474666767 1 3 -4
829 1 2 -1.1794 9.044689249192913 7.677846737620092 17.24618629381537 5 1 5
15 1 1 0.5897 6.09551721147827 9.042032538271036 19.45458677204067 0 -7 -3
14 1 1 0.5897 5.543647456299885 10.233272331892733 18.700774441691763 0 -7 -3
39 1 1 0.5897 7.678819965083057 7.642087357012217 18.740149105791513 1 3 -4
638 1 1 0.5897 6.9535361505595175 11.192009841126188 20.29964317825089 -14 -5 4
422 1 1 0.5897 5.309849971283676 9.366953725669891 16.48075013163952 -9 3 7
264 1 1 0.5897 7.45287131273787 7.9874156189851 16.412142737246164 6 0 4
13 1 2 -1.1794 5.818726294796052 9.950653466165265 19.572938348953812 0 -7 -3
126 1 1 0.5897 8.669797591474508 10.747954146262245 17.036318308930575 1 4 6
637 1 2 -1.1794 7.4929992159385925 11.719623504701973 20.888566871509642 -14 -5 4
639 1 1 0.5897 8.392937686799701 11.473010879903146 20.675210476456844 -14 -5 4
43 1 2 -1.1794 7.1230018921939955 13.436298934813289 2.3724201761331978 5 12 -1
45 1 1 0.5897 7.234986356220993 12.975028948490845 1.5411767825453087 5 12 -1
307 1 2 -1.1794 5.943017201239639 16.109578877010975 2.8179230851007526 0 6 -4
12 1 1 0.5897 5.724763045105977 13.4168917537846 5.787000510043518 -4 -1 -1
308 1 1 0.5897 6.552213184982491 16.692913362208586 2.3653458861432144 0 6 -4
10 1 2 -1.1794 5.198104079319664 14.198848362871928 5.621494673009577 -4 -1 -1
44 1 1 0.5897 6.6485463713304425 14.234989660640053 2.1417016480821016 5 12 -1
309 1 1 0.5897 6.317664836648409 16.00287411232417 3.6922612304897022 0 6 -4
179 1 1 0.5897 9.053534532192677 13.277560213542404 2.9404054683601055 -10 -1 1
232 1 2 -1.1794 7.89384191917792 16.124758135091056 4.939905275091745 -2 2 -1
233 1 1 0.5897 8.361390171472541 15.31061416775938 5.126429488815588 -2 2 -1
398 1 1 0.5897 5.768697971311667 12.00277118242656 3.1984216202375073 0 4 -6
234 1 1 0.5897 8.245312300748754 16.415995049456345 4.098553702497128 -2 2 -1
277 1 2 -1.1794 8.553296214697614 16.684127247866147 2.270390992631812 -3 0 -1
279 1 1 0.5897 8.677179270393912 15.872199807387995 1.7788238388168067 -3 0 -1
658 1 2 -1.1794 8.133480418669073 12.891953172606852 9.382798288547587 -1 -1 0
435 1 1 0.5897 7.900357567720976 15.54772691119931 8.005274889121806 -7 2 -7
433 1 2 -1.1794 7.074868217671296 15.201662871906901 8.344418389740387 -7 2 -7
659 1 1 0.5897 7.6180434607915375 13.661965399033814 9.142734788674808 -1 -1 0
434 1 1 0.5897 6.4075532019962 15.550606426885443 7.753535973364982 -7 2 -7
836 1 1 0.5897 6.8645398586358874 12.43752203819092 7.093578920022339 5 1 1
837 1 1 0.5897 7.97020173397882 13.063643561917242 6.27057011349803 5 1 1
153 1 1 0.5897 5.393959239135913 15.198431879753556 10.762384560318473 5 -3 0
96 1 1 0.5897 5.100883946172316 15.978510570568769 6.160026578578099 0 4 2
660 1 1 0.5897 8.645439776174673 12.69201888061216 8.599123577484225 -1 -1 0
147 1 1 0.5897 6.941808282332713 12.877197246793443 10.91309050199855 3 -3 -8
835 1 2 -1.1794 7.304744850850039 12.376062921856924 6.245841067153558 5 1 1
94 1 2 -1.1794 5.111857619614251 16.784321302929893 6.67652009181086 0 4 2
135 1 1 0.5897 7.722777253558295 12.047017556224924 12.788419097903844 -1 -5 1
157 1 2 -1.1794 8.87395422732034 14.709504649002648 11.906240050199948 -2 -1 -2
130 1 2 -1.1794 5.469365855328912 13.827007068399793 14.842272059204415 -5 3 1
159 1 1 0.5897 8.052263962398346 14.913292960467249 11.45956608021401 -2 -1 -2
132 1 1 0.5897 6.3834955331796275 14.092620841348522 14.942635916321738 -5 3 1
805 1 2 -1.1794 7.929318539443128 14.846185223370467 14.695895895434392 1 -1 -2
806 1 1 0.5897 7.5773949033421735 15.734364566300837 14.755103710205749 1 -1 -2
807 1 1 0.5897 8.221279072569574 14.76376141434583 13.78804959763062 1 -1 -2
554 1 1 0.5897 8.621948096156043 14.376686749641031 16.143582649475064 -8 -5 8
151 1 2 -1.1794 6.058841298972859 15.502758164618369 11.380080486851464 5 -3 0
145 1 2 -1.1794 6.431947172893984 12.700546061664124 11.70370350428583 3 -3 -8
152 1 1 0.5897 5.682302328217638 16.29260230374835 11.768139393487916 5 -3 -1
146 1 1 0.5897 5.93527182008378 13.504927351335121 11.85367609510019 3 -3 -8
131 1 1 0.5897 4.998783177564351 14.330757557444093 15.506368123296532 -5 3 1
863 1 1 0.5897 5.890047831447304 14.58076424806242 20.339920818969595 0 -7 5
864 1 1 0.5897 6.701662663520396 14.209952595142765 19.116953360175362 0 -7 5
338 1 1 0.5897 8.43046912585205 14.640575608618343 20.20890767592193 2 3 -1
335 1 1 0.5897 7.325239758856816 15.805899227146814 17.758241712116902 8 -3 4
853 1 2 -1.1794 6.283169336239226 12.825869762263936 17.878615902980673 -4 -3 3
553 1 2 -1.1794 8.775906459381074 14.19146033165591 17.06998889127403 -8 -5 8
862 1 2 -1.1794 6.639597899853866 14.861824811294854 19.81511947131248 0 -7 5
555 1 1 0.5897 8.171620544580357 13.47821519138504 17.27577359026443 -8 -5 8
854 1 1 0.5897 5.363745104315103 12.940630897920727 18.118832958763072 -4 -3 3
855 1 1 0.5897 6.266603431457828 12.191385647799391 17.162111302899515 -4 -3 3
334 1 2 -1.1794 7.461968180090897 16.74229548176688 17.614314348859228 8 -3 4
792 1 1 0.5897 5.052838973614439 20.692012479479057 1.9943820849680431 -1 1 0
487 1 2 -1.1794 8.382526276559751 20.22576890683298 2.345851148371255 -2 -11 0