#include		in.partitions
include		in.temp
variable        temperature equal 194.50
variable	tempDamp equal 100.0
include		in.pressure
variable        pressure equal 3707.9
variable        pressureDamp equal 1000.0 # This is 1 ps
include		in.seed
variable        seed equal 745823

units		real
atom_style	full
read_restart	restart.lmp.${pid}
read_restart	restart.lmp.1
Reading restart file ...
  restart file = 30 Jul 2021, LAMMPS = 30 Jul 2021
  restoring atom style full from restart
  orthogonal box = (0.44656345 1.6175240 0.54480636) to (17.761009 22.011654 21.668389)
  2 by 4 by 4 MPI processor grid
  restoring pair style lj/cut/tip4p/long/omp from restart
  restoring bond style harmonic/omp from restart
  restoring angle style harmonic/omp from restart
  864 atoms
  576 bonds
  288 angles
Finding 1-2 1-3 1-4 neighbors ...
  special bond factors lj:    0        0        0       
  special bond factors coul:  0        0        0       
     2 = max # of 1-2 neighbors
     1 = max # of 1-3 neighbors
     1 = max # of 1-4 neighbors
     2 = max # of special neighbors
  special bonds CPU = 0.002 seconds
  read_restart CPU = 0.007 seconds
include 	in.setup
variable	out_freq equal 1000
variable	out_freq2 equal 10000
variable	out_freq3 equal 1000

timestep	2.0

neigh_modify    delay 7 every 1

include		in.tip4p
# This is TIP4P/Ice

# create groups ###
group ox type 2
288 atoms in group ox
group hy type 1
576 atoms in group hy

# set charges - beside manually ###
set group ox charge -1.1794
Setting atom values ...
  288 settings made for charge
set group hy charge 0.5897
Setting atom values ...
  576 settings made for charge

# ### TIP3P Potential Parameters ###
pair_style lj/cut/tip4p/long/omp 2 1 1 1 0.1577 8.5
pair_coeff 1 1*2 0.000 0.000
pair_coeff 2 2 0.21084 3.1668
bond_style  harmonic
bond_coeff  1 450 0.9572
angle_style harmonic
angle_coeff 1 55 104.52
kspace_style pppm/tip4p/omp 1.0e-5
pair_modify tail yes

thermo          ${out_freq}
thermo          1000
thermo_style    custom step temp pe etotal epair emol press lx ly lz vol pxx pyy pzz pxy pxz pyz enthalpy

restart 	${out_freq3} restart.lmp.${pid} restart2.lmp.${pid}
restart 	1000 restart.lmp.${pid} restart2.lmp.${pid}
restart 	1000 restart.lmp.1 restart2.lmp.${pid}
restart 	1000 restart.lmp.1 restart2.lmp.1


include         in.dump
dump            myDump all atom ${out_freq2} dump.water.${pid}
dump            myDump all atom 10000 dump.water.${pid}
dump            myDump all atom 10000 dump.water.1
dump            myDump2 all dcd ${out_freq2} dump.dcd
dump            myDump2 all dcd 10000 dump.dcd
dump_modify     myDump append yes
dump_modify     myDump2 append yes


variable natoms 	equal  "count(all)"                        # NUMBER ATOMS
variable H      	equal  "enthalpy/v_natoms"                 # ENTHALPY-per-atom
variable Vol      	equal  "vol/v_natoms"                 # volume-per-atom
fix AVG all 		ave/time ${out_freq} 1 ${out_freq} v_Vol v_H file vol_enthalpy.dat
fix AVG all 		ave/time 1000 1 ${out_freq} v_Vol v_H file vol_enthalpy.dat
fix AVG all 		ave/time 1000 1 1000 v_Vol v_H file vol_enthalpy.dat


timer           timeout 23:50:00 every 1000
New timer settings: style=normal  mode=nosync  timeout=23:50:00

fix 		1 all shake 1e-6 200 0 b 1 a 1
       0 = # of size 2 clusters
       0 = # of size 3 clusters
       0 = # of size 4 clusters
     288 = # of frozen angles
  find clusters CPU = 0.000 seconds
fix             2 all nph iso ${pressure} ${pressure} ${pressureDamp}
fix             2 all nph iso 3707.9 ${pressure} ${pressureDamp}
fix             2 all nph iso 3707.9 3707.9 ${pressureDamp}
fix             2 all nph iso 3707.9 3707.9 1000
fix             3 all temp/csvr ${temperature} ${temperature} ${tempDamp} ${seed}
fix             3 all temp/csvr 194.5 ${temperature} ${tempDamp} ${seed}
fix             3 all temp/csvr 194.5 194.5 ${tempDamp} ${seed}
fix             3 all temp/csvr 194.5 194.5 100 ${seed}
fix             3 all temp/csvr 194.5 194.5 100 745823

run             250000
PPPM initialization ...
  extracting TIP4P info from pair style
  using 12-bit tables for long-range coulomb (../kspace.cpp:340)
  G vector (1/distance) = 0.37419091
  grid = 24 24 25
  stencil order = 5
  estimated absolute RMS force accuracy = 0.0030797318
  estimated relative force accuracy = 9.274521e-06
  using double precision FFTW3
  3d grid and FFT values/proc = 3822 576
Last active /omp style is kspace_style pppm/tip4p/omp
Neighbor list info ...
  update every 1 steps, delay 7 steps, check yes
  max neighbors/atom: 2000, page size: 100000
  master list distance cutoff = 10.8154
  ghost atom cutoff = 10.8154
  binsize = 5.4077, bins = 4 4 4
  1 neighbor lists, perpetual/occasional/extra = 1 0 0
  (1) pair lj/cut/tip4p/long/omp, perpetual
      attributes: half, newton on, omp
      pair build: half/bin/newton/omp
      stencil: half/bin/3d
      bin: standard
Per MPI rank memory allocation (min/avg/max) = 10.20 | 10.20 | 10.22 Mbytes
Step Temp PotEng TotEng E_pair E_mol Press Lx Ly Lz Volume Pxx Pyy Pzz Pxy Pxz Pyz Enthalpy 
15000000     199.9349   -4116.0751   -3773.3935   -4116.0751            0    3898.4672    17.314446     20.39413    21.123583    7459.0128    3341.7928    4595.7806    3757.8282    -381.2637   -1060.6639    1004.0699   -3349.3103 
15001000    198.05075   -4146.0611   -3806.6089   -4146.0611            0    4044.7983    17.303815    20.381609    21.110614    7445.2831    4417.8555     2922.369    4794.1704   -41.751809    -866.3305   -463.38789   -3367.4173 
15002000    182.59752   -4130.7134   -3817.7475   -4130.7134            0    3758.2905    17.389114     20.48208    21.214679    7555.9308    4320.5382    3815.2388    3139.0945   -309.16209   -549.44674    674.57006   -3403.6008 
15003000    199.73804   -4151.3768   -3809.0326   -4151.3768            0    3407.2913    17.304746    20.382705    21.111749    7446.4838    3666.5774    3013.0004    3542.2963    1770.5239    452.60468   -699.50154    -3439.003 
15004000    185.87569   -4161.2556    -3842.671   -4161.2556            0    3741.6678    17.345967    20.431258    21.162039    7499.8253    4094.2568    3484.7473    3645.9992    1358.4575   -882.98993      19.0635   -3433.4177 
15005000    198.85057   -4143.7181   -3802.8951   -4143.7181            0    3760.8677    17.334974    20.418309    21.148627    7485.5746    3919.9384     4317.971    3044.6938    806.22416   -438.47968    -751.2161   -3392.3233 
15006000    198.51776   -4136.4599   -3796.2072   -4136.4599            0    1661.3967    17.378735    20.469855    21.202016    7542.4092    3123.3213     313.4038    1547.4649    1020.5852    735.06206    721.18383   -3613.4564 
15007000    190.89664   -4130.5872   -3803.3968   -4130.5872            0    2885.3445    17.334707    20.417995    21.148302     7485.229    3950.7263    1646.1754     3059.132    1187.9952    222.95376   -160.41127     -3488.42 
15008000    194.85933   -4135.4888   -3801.5066   -4135.4888            0    2936.5553    17.349314      20.4352    21.166123    7504.1675    4296.9099    2887.7678     1624.988   -1251.2453     -21.2778   -1119.1178   -3480.1283 
15009000    200.38885   -4133.8063   -3790.3466   -4133.8063            0    3299.2976    17.337272    20.421016    21.151431     7488.552    4121.4567    3987.3287    1789.1073     2242.435   -1202.7016   -1257.9741    -3430.021 
15010000    198.80426   -4142.6125   -3801.8689   -4142.6125            0    3565.3639    17.314868    20.394628    21.124099    7459.5595    4728.2239     2899.005    3068.8629    787.48295   -237.15209   -178.69498   -3413.9928 
15011000       189.33   -4131.8997   -3807.3945   -4131.8997            0    4014.3282    17.277177    20.350233    21.078116    7410.9514    4514.6209    4248.9772    3279.3863    1007.2688   -438.99064   -1069.1514   -3373.5214 
15012000    200.49046   -4112.5319   -3768.8981   -4112.5319            0    3177.9431    17.331097    20.413743    21.143898    7480.5539    3726.6804    3173.4636    2633.6853   -161.63509   -7.2910892    70.095863   -3422.1966 
15013000    207.00974   -4136.2734   -3781.4657   -4136.2734            0    4802.5728    17.269673    20.341394    21.068961    7401.2991    5286.0073    5089.5978    4032.1134   -109.16725     -1046.21   -1167.6302   -3263.0743 
15014000    182.65883   -4132.6561   -3819.5851   -4132.6561            0    3085.1358    17.322406    20.403506    21.133294    7469.3052    3903.5037    3220.6476     2131.256    358.73165    117.58825    802.47941   -3483.5147 
15015000    192.17809   -4130.8114   -3801.4247   -4130.8114            0    5216.4185    17.270461    20.342322    21.069923    7402.3124    7512.4785    4655.6587    3481.1183    165.32234    1459.2052    1103.7439   -3238.2856 
15016000    189.66378   -4123.3381   -3798.2609   -4123.3381            0    3372.6931     17.31332    20.392804     21.12221    7457.5587     5126.756    2697.7164     2293.607    1083.0005    1333.7867     1002.425   -3431.4439 
15017000    205.32178   -4150.6328   -3798.7183   -4150.6328            0    2614.1324    17.315427    20.395285     21.12478     7460.281     3422.474    2503.5385    1916.3847    241.31597    877.43973   -414.10515   -3514.2992 
15018000    186.80337   -4149.7432   -3829.5686   -4149.7432            0    3395.5003    17.314147    20.393778    21.123219    7458.6267    2444.9346    3105.2726    4636.2936   -309.04709    41.510361    856.05769   -3460.2182 
15019000    192.90288   -4129.8625   -3799.2335   -4129.8625            0    2727.5683    17.326335    20.408135    21.138089    7474.3898    3973.0946    2739.2313    1470.3791   -420.55309    90.112931    135.41743   -3501.9114 
15020000    183.45405   -4132.2479    -3817.814   -4132.2479            0    3195.1467    17.306493    20.384763    21.113881      7448.74    4667.7298    3207.2908    1710.4196     1355.291   -186.51045   -694.87932   -3470.7181 
15021000    185.64589   -4134.7787    -3816.588   -4134.7787            0    3234.9139     17.32107    20.401933    21.131665    7467.5776    4702.6607    3571.5103    1430.5707   -162.73001    175.22414   -55.892977   -3464.2834 
15022000    196.05979   -4123.7456   -3787.7058   -4123.7456            0    3077.2593    17.290719    20.366183    21.094636    7428.3905    4369.5972    2158.5718    2703.6089   -161.92122    -596.8373   -176.96989   -3454.3295 
15023000     180.2301   -4131.0742    -3822.166   -4131.0742            0    3501.9997    17.345403    20.430593    21.161351    7499.0929    4659.8095    3807.9081    2038.2816    740.85178   -1205.8893   -240.89981   -3439.1643 
15024000    207.20461   -4119.8484   -3764.7068   -4119.8484            0    2059.2948      17.3671     20.45615    21.187821    7527.2701    2595.9207     1313.937    2268.0267    250.26138    -755.5995    672.64273   -3538.6425 
15025000      193.571   -4123.0147   -3791.2407   -4123.0147            0     3334.425    17.302656    20.380243      21.1092    7443.7866    3451.4909    4546.1787    2005.6053    686.91828    787.60979    159.01131   -3429.2555 
15026000    199.11038   -4116.9629   -3775.6945   -4116.9629            0    3003.5207    17.338557    20.422529    21.152998    7490.2171    4136.9769    2430.0733     2443.512    1638.9355   -548.79877    295.78494   -3447.5985 
15027000    207.69856   -4139.0369   -3783.0487   -4139.0369            0    4539.5393     17.27612    20.348987    21.076826    7409.5905    5996.8094    4656.3422    2965.4662       590.69    492.12935    17.925309   -3292.5003 
15028000    189.49309   -4139.7113   -3814.9266   -4139.7113            0    3785.0346     17.28772    20.362651    21.090978    7424.5262    5838.1876    2844.5674    2672.3489     1083.019   -525.17204    -1801.326   -3405.0865 
15029000    176.90374   -4137.7728   -3834.5658   -4137.7728            0    2394.8396    17.347394    20.432939     21.16378    7501.6765    2277.5245    2627.0629    2279.9314    737.03943    372.32673    293.86994   -3572.5602 
15030000     204.6881   -4138.5767   -3787.7483   -4138.5767            0    4521.3649    17.279481    20.352946    21.080927    7413.9164    4263.5073    5073.1379    4227.4495    901.84269   -240.16027    164.45697   -3298.8785 
15031000    198.02136    -4112.987   -3773.5852    -4112.987            0    3936.0855    17.293939    20.369976    21.098566    7432.5424    3413.6228    4059.2655    4335.3681    681.98965    243.98765    100.50348   -3346.9292 
15032000     192.9608   -4118.2345   -3787.5063   -4118.2345            0    3290.7644    17.273799    20.346254    21.073994    7406.6048    3866.1017     3215.512    2790.6795    187.63575   -274.78962   -198.74871   -3432.0453 
15033000    201.40926   -4143.6531   -3798.4445   -4143.6531            0    4198.8378    17.278365    20.351632    21.079565    7412.4801    4600.0212    4068.6668    3927.8253    472.01388    1132.0197    44.149585   -3344.5358 
15034000    184.50371   -4137.3005   -3821.0675   -4137.3005            0    5357.7217    17.234535    20.300006    21.026092    7356.2129    6363.6468    6035.1394    3674.3789   -299.27992    406.43318   -343.96889    -3246.276 
15035000    196.37336   -4158.3537   -3821.7765   -4158.3537            0    4930.7091    17.277772    20.350933    21.078841    7411.7165    4516.5403    5206.6339     5068.953    310.49077   -1228.6175    453.78396   -3288.8049 
15036000     194.1012   -4147.7132   -3815.0304   -4147.7132            0    4045.6757    17.316008     20.39597    21.125489    7461.0321    4601.8065    2449.0468    5086.1739    528.87905    81.308089    124.13708   -3374.8143 
15037000    201.02202   -4137.8793   -3793.3345   -4137.8793            0     2752.768    17.335859    20.419352    21.149707    7486.7214    2644.6632    3072.7574    2540.8833    213.65392   -1820.2264    1162.5361   -3492.7703 
15038000    190.22018   -4128.3126   -3802.2818   -4128.3126            0    1307.9932    17.366692     20.45567    21.187324      7526.74    1679.0304    1593.9899    650.95948    644.65002    11.812623   -1147.1616   -3658.7036 
15039000    191.08091   -4125.6416   -3798.1355   -4125.6416            0    4152.2707    17.296678    20.373202    21.101906    7436.0733    4503.3146    4418.9087    3534.5889     26.66587   -1366.3173   -386.39336   -3347.8321 
15040000    198.76797   -4149.9158   -3809.2343   -4149.9158            0    5630.2114    17.251635    20.320147    21.046954    7378.1313    5881.4625    5798.1362    5211.0356   -1190.7802   -588.81076   -1105.0517   -3203.4096 
15041000    191.46374   -4138.3435   -3810.1812   -4138.3435            0    4331.1031    17.300575    20.377792    21.106661     7441.101    4710.5889    4039.0302    4243.6902    412.84311     671.7507    198.64727   -3340.1663 
15042000    199.08091   -4146.8787   -3805.6609   -4146.8787            0    3638.9222      17.3486    20.434359    21.165251    7503.2409    4917.0825    2862.1614    3137.5226    1498.0968    1082.8776   -100.83398   -3407.4643 
15043000    199.27557   -4139.6039   -3798.0524   -4139.6039            0    2871.8967     17.37779    20.468741    21.200863    7541.1787    2791.6635    3615.8685    2208.1583    844.98943    835.16989    626.48148   -3482.2001 
15044000    199.15837   -4133.5784   -3792.2277   -4133.5784            0    4094.6661    17.325632    20.407306    21.137231      7473.48    4486.2257    4770.6336     3027.139    227.83881   -1928.0941   -1072.1907   -3345.9376 
15045000    188.65263   -4161.5063   -3838.1622   -4161.5063            0    4062.6197    17.318642    20.399072    21.128702    7464.4372    5733.8474    3309.6987    3144.3129    1353.1748     34.74524    525.00951   -3395.9007 
15046000    200.88107   -4132.5152    -3788.212   -4132.5152            0    5463.0567    17.301821    20.379259    21.108181    7442.7084    7902.1008    4088.0957    4398.9737     -404.643   -959.44599    745.69816   -3195.2285 
15047000    197.61592   -4149.6899    -3810.983   -4149.6899            0    4420.1874    17.283374    20.357531    21.085676     7418.928    5896.7523    3621.1819    3742.6279    588.58146   -1064.3366    71.330265   -3332.7299 
15048000    200.01079   -4134.9267    -3792.115   -4134.9267            0    5578.0673    17.265828    20.336865     21.06427    7396.3561    4358.2168    6559.9565    5816.0285    169.83554   -712.23263    390.05397   -3190.4186 
15049000    193.23189   -4120.5013   -3789.3085   -4120.5013            0    3664.7188    17.295754    20.372114     21.10078    7434.8825    4625.6482    3055.9943     3312.514   -493.96727   -241.55795   -96.658934   -3391.9425 
15050000    192.99108   -4147.0037   -3816.2236   -4147.0037            0    1850.0499    17.331488    20.414203    21.144375    7481.0597    3607.7338    1246.8408    695.57508    1379.1768     469.5298     14.57274   -3614.3765 
15051000    203.39458   -4135.9657   -3787.3544   -4135.9657            0    2893.7752    17.343805    20.428712    21.159402    7497.0213    4282.5931    1304.7854    3093.9472   -462.45262   -750.19839   -482.49702   -3470.9595 
15052000    187.24547   -4125.9977   -3805.0654   -4125.9977            0    6067.7962    17.253442    20.322275    21.049158    7380.4494     6568.899    5547.6694    6086.8202   -818.03205   -217.48252   -601.16271   -3151.9504 
15053000    196.13276   -4154.2654   -3818.1006   -4154.2654            0    3754.2695    17.277262    20.350333     21.07822    7411.0607    3998.8041    3755.4515    3508.5528    904.79917   -723.21283   -606.46455   -3412.3289 
15054000    203.93612   -4136.7079   -3787.1684   -4136.7079            0    4892.5263     17.25663    20.326031    21.053048    7384.5417    3966.8953     5793.718    4916.9656   -292.29924    -440.8521    -1.982028    -3260.263 
15055000    186.80873   -4132.4942   -3812.3104   -4132.4942            0     3698.602    17.303919    20.381731    21.110741     7445.417    4111.4411    3710.3296    3274.0353   -139.55468    1170.6341    1183.5681   -3410.7023 
15056000    208.85175   -4132.3099   -3774.3452   -4132.3099            0    4371.3377    17.289011    20.364171    21.092553    7426.1896    4401.4578    5131.2422    3581.3133    636.74367   -802.19891    380.13664   -3300.9146 
15057000    196.36614   -4146.5595   -3809.9947   -4146.5595            0    4321.8043    17.275103     20.34779    21.075586    7408.2827    4487.5602    4739.0245    3738.8282   -131.33308    426.37951    -1067.476   -3343.0574 
15058000    192.60418   -4137.2653   -3807.1483   -4137.2653            0    4194.3078    17.286156    20.360809     21.08907    7422.5118    4672.2164    3573.4606    4337.2465    650.86038   -482.09981   -707.13661   -3353.1156 
15059000    207.16412   -4149.0224   -3793.9501   -4149.0224            0    3807.4037    17.296578    20.373084    21.101785    7435.9449    5394.8113    2354.8375    3672.5621    335.76828    963.66431    880.73724   -3381.0539 
15060000    192.01668   -4160.2643   -3831.1543   -4160.2643            0    2707.4674    17.328932    20.411193    21.141257    7477.7507    3527.5094     2302.266    2292.6269     538.2086    338.62375   -1007.1189   -3535.8906 
15061000    197.72506   -4152.1225   -3813.2285   -4152.1225            0    3294.9394    17.290844     20.36633    21.094789    7428.5519    2958.2939    3205.6895    3720.8349    601.75182   -291.87605   -71.006449    -3456.262 
15062000    203.01291   -4145.9222   -3797.9651   -4145.9222            0    2993.4643    17.308905    20.387604    21.116824    7451.8547    3583.0322    2614.2751    2783.0856    788.18538     240.7871    1354.6468   -3472.6424 
15063000    197.91774   -4117.3462    -3778.122   -4117.3462            0    4015.3504    17.314247    20.393896    21.123341     7458.756    3419.3795    4056.4638    4570.2077    1126.0578    1141.4161    33.666285    -3341.339 
15064000    194.26355   -4136.6379   -3803.6768   -4136.6379            0    4712.3578    17.280688    20.354368    21.082399    7415.4696    6795.5563    3774.1975    3567.3196    1663.2498    293.57054    503.48658   -3294.0494 
15065000    193.93145   -4161.0717   -3828.6798   -4161.0717            0    2937.6499    17.294466    20.370596    21.099208    7433.2211    3862.9199    2571.0954    2378.9343    939.38599    751.96744    63.505798   -3510.2212 
15066000    205.34942   -4142.6747   -3790.7128   -4142.6747            0    2391.7665     17.32047    20.401226    21.130933    7466.8012    3791.5566    2398.5313     985.2115   -639.39497   -1538.5609    1651.1249   -3530.2599 
15067000    188.20243   -4166.2012   -3843.6287   -4166.2012            0    3288.6576    17.302224    20.379735    21.108673    7443.2291    3115.4952    2782.8256     3967.652    177.56197    988.80665    844.28891   -3486.6388 
15068000    190.10442    -4144.666   -3818.8335    -4144.666            0    3398.6246    17.309078    20.387808    21.117035    7452.0783    3432.9483    3035.2405    3727.6849   -518.51985   -500.25756    234.19566   -3449.4679 
15069000    182.26096   -4157.2452   -3844.8561   -4157.2452            0    2472.1937    17.321914    20.402927    21.132695    7468.6698    2758.8601     2787.006    1870.7149    -359.2827    9.5329333   -803.51343   -3575.5777 
15070000    189.14164   -4131.0027   -3806.8204   -4131.0027            0    3280.7171    17.295489    20.371802    21.100457    7434.5407    3737.6316    3313.5226    2790.9972     271.0794    227.09511    573.97626   -3451.1081 
15071000     192.5503   -4140.8213   -3810.7967   -4140.8213            0    4039.7974    17.316863    20.396977    21.126532    7462.1372    4949.6784    3771.2838    3398.4301    532.90711    28.644644   -209.86319   -3371.1552 
15072000    207.94267   -4127.1557   -3770.7491   -4127.1557            0    1568.0984    17.367264    20.456343    21.188022    7527.4838    3148.0569    1515.1205    41.117642    870.74547    288.68734   -2019.7534   -3598.6022 
15073000     181.8732   -4151.9054    -3840.181   -4151.9054            0    2734.6024    17.325092     20.40667    21.136572     7472.781    2472.9984    1780.3912    3950.4177    15.308434   -89.519076   -169.59509   -3542.1562 
15074000    196.82679   -4160.4403   -3823.0859   -4160.4403            0    3629.9203    17.326759    20.408633    21.138605    7474.9374    4770.4849     2366.956    3752.3202    1736.6024    1490.4352    885.99984   -3427.3727 
15075000    188.88553   -4138.8679   -3815.1245   -4138.8679            0    3173.0315    17.344468    20.429492     21.16021     7497.881    3421.3139    3534.1235    2563.6569    818.82469   -1135.0539   -506.79064    -3468.157 
15076000    191.90704   -4140.9805   -3812.0584   -4140.9805            0    5037.5961    17.295275    20.371549    21.100195    7434.2642    5041.6848    4576.3956     5494.708    376.05479    612.75895    986.74866   -3265.8766 
15077000     196.2447   -4164.5853   -3828.2286   -4164.5853            0    2281.6276    17.334417    20.417653    21.147948    7484.8535    2234.6132    1236.0891    3374.1805      1035.08    202.95918   -995.20964   -3579.1687 
15078000    200.90985     -4123.37   -3779.0174     -4123.37            0    4856.0825    17.305378     20.38345    21.112521    7447.3007    4368.3828    4807.7306     5392.134    186.31492   -12.979401    648.44741   -3251.5923 
15079000      194.041   -4140.8506    -3808.271   -4140.8506            0    3612.3735     17.29062    20.366067    21.094516    7428.2636    3750.7987    3673.6825    3412.6391   -549.79614    839.56861   -444.11916   -3416.9295 
15080000    203.26033   -4128.4244   -3780.0431   -4128.4244            0    2881.9232    17.294142    20.370215    21.098813    7432.8041    2626.1277    3352.3111    2667.3309    15.996715    163.82205   -1916.1032   -3467.6432 
15081000    196.75829   -4139.3087   -3802.0717   -4139.3087            0    4709.1433    17.292556    20.368346    21.096877    7430.7582    4848.9753    5374.6579    3903.7966    821.07884   -912.59306   -276.77316    -3291.742 
15082000    194.92826   -4157.9807   -3823.8803   -4157.9807            0    3068.9338    17.343346    20.428171    21.158842    7496.4265    3194.9648     2488.505    3523.3317    406.54855   -520.06821    669.15831   -3488.3609 
15083000    189.26872    -4155.178   -3830.7779    -4155.178            0    1950.2326    17.357796    20.445191     21.17647    7515.1786    2283.3782    3455.6589    111.66085    84.172512   -482.00276    789.89152   -3617.0301 
15084000    198.59651   -4126.4922   -3786.1045   -4126.4922            0    2851.3393    17.321258    20.402154    21.131894    7467.8205    4366.8562    1706.7673    2480.3943   -797.35442   -907.78952    289.54741   -3475.5637 
15085000    195.41463    -4144.518    -3809.584    -4144.518            0    4891.4832    17.276014    20.348863    21.076697    7409.4549    5685.5543    3693.6508    5295.2445    54.876017    165.87242   -1234.4337   -3281.0138 
15086000    179.38982   -4121.2278   -3813.7598   -4121.2278            0    3694.3771    17.324055    20.405449    21.135307    7471.4393    2609.9566    6760.0294    1713.1455   -1622.5558    574.98359    742.15284   -3411.2084 
15087000    187.49121   -4143.3286   -3821.9751   -4143.3286            0    5362.4671    17.286665    20.361408    21.089691    7423.1667    5542.6296    5076.0706     5468.701   -535.22238    666.90599     580.9614   -3241.4383 
15088000     201.7144   -4133.5775   -3787.8459   -4133.5775            0    3704.7047      17.3109    20.389954    21.119258    7454.4318    4658.5545     2760.295    3695.2645   -933.64496   -1281.5893    261.73495    -3385.088 
15089000    187.61686   -4161.2292   -3839.6603   -4161.2292            0    4097.0063    17.323791    20.405138    21.134985    7471.0978    4814.0268    3714.2289    3762.7633      234.049    237.60502   -262.93009   -3393.2574 
15090000    200.52206   -4150.3917   -3806.7037   -4150.3917            0    4155.6061    17.329062    20.411346    21.141415    7477.9188    3615.6744    4529.4474    4321.6966   -304.57794    112.59078   -1709.8713   -3353.5026 
15091000    187.44179   -4149.8353   -3828.5665   -4149.8353            0    4627.2144    17.286052    20.360687    21.088944    7422.3781    5173.2517    3548.6316    5159.7598   -262.66343    62.252145    44.335685   -3327.6808 
15092000    203.09759   -4146.3952   -3798.2928   -4146.3952            0    4492.6452    17.282961    20.357045    21.085172    7418.3964     4320.874    4491.6635    4665.3982    264.44357    -22.15906    22.629226   -3312.2349 
15093000    196.23645    -4160.176   -3823.8335    -4160.176            0    4139.7849    17.288488    20.363555    21.091915    7425.5159    5777.8754    4201.3276    2440.1519   -1151.4239   -160.26952   -273.02275   -3375.5215 
15094000    186.29775   -4138.7092   -3819.4012   -4138.7092            0    4168.0512     17.33384    20.416974    21.147245    7484.1066    4501.4419    4527.9388     3474.773     416.6132   -265.84291    218.01345   -3364.4667 
15095000    185.10366   -4137.1202   -3819.8589   -4137.1202            0    4390.6197    17.263598    20.334238    21.061549    7393.4904    4663.0703    3498.0183    5010.7704    704.42664    908.53623    359.66465   -3346.4338 
15096000    200.43222   -4142.3322   -3798.7983   -4142.3322            0    3932.3092    17.330372    20.412889    21.143013    7479.6149    5529.6702    2140.7978    4126.4598    37.822438   -259.80199   -435.87188   -3369.8521 
15097000     193.7563   -4143.1737    -3811.082   -4143.1737            0    2892.9518    17.299851    20.376939    21.105778    7440.1669    3028.6082    2347.1402    3303.1069    770.56958   -1031.0807    532.21006   -3497.1759 
15098000    189.27561   -4159.4886   -3835.0767   -4159.4886            0    3451.8488    17.313504    20.393021    21.122435    7457.7962    2963.5754    1243.3785    6148.5925   -598.91701   -1133.2438    1476.9532   -3459.6387 
15099000    194.38113   -4136.4936    -3803.331   -4136.4936            0    3763.8981     17.30074    20.377986    21.106862    7441.3139    4325.9428    2870.4986     4095.253     794.1554    341.93681   -1179.2748    -3394.858 
15100000    197.69119   -4166.5103   -3827.6743   -4166.5103            0    4353.6993    17.288214    20.363232    21.091581    7425.1627    4411.8194    4147.7763    4501.5022    486.84189   -278.09937    1209.7464   -3356.2193 
15101000    194.83861   -4171.7711   -3837.8244   -4171.7711            0    3513.6957    17.327515    20.409524    21.139528     7475.917    3736.0626    4503.5462    2301.4783   -245.23627   -111.67565    585.85839   -3454.7311 
15102000    195.77622   -4135.1267    -3799.573   -4135.1267            0    3760.0234    17.316694    20.396778    21.126326    7461.9192    5254.9431    2913.2132    3111.9138    514.95403    695.51214    619.57295   -3390.3905 
15103000     193.4549   -4131.7478   -3800.1727   -4131.7478            0    4077.4329    17.290544    20.365977    21.094423    7428.1652    4346.0139    2995.7886    4890.4962    346.01102    345.41808   -389.31171   -3358.4555 
15104000    189.20508   -4144.3071   -3820.0161   -4144.3071            0    3819.1289    17.305789    20.383933    21.113022    7447.8302    5399.6484    2179.3133    3878.4251   -240.00571   -918.04897   -206.25148   -3405.1862 
15105000     205.7328   -4149.6108   -3796.9918   -4149.6108            0    3690.7447    17.283323    20.357472    21.085614    7418.8629    5010.4153    3439.0718     2622.747    1085.8679    1535.5667    42.487389   -3397.6661 
15106000    191.55326   -4159.9208    -3831.605   -4159.9208            0    3595.3412    17.298381    20.375208    21.103985    7438.2707    5702.1609    2741.3319    2342.5306   -87.532061   -849.19486    1700.7283   -3441.5841 
15107000    189.00814   -4154.2206   -3830.2671   -4154.2206            0    3572.1388    17.336044     20.41957    21.149934    7486.9618    4310.6562    1912.9334    4492.8268   -68.700541    49.811357    1258.6801   -3440.2265 
15108000    193.80381   -4143.8409   -3811.6678   -4143.8409            0    2515.2728    17.325832    20.407542    21.137475    7473.7388    3493.3516    3021.3113    1031.1556   -27.274289    459.94948    278.64422   -3537.5111 
15109000    194.97111    -4144.356   -3810.1822    -4144.356            0    3737.4439    17.270449    20.342307    21.069907    7402.2958    3730.5971     2865.624    4616.1106   -1226.4325   -356.67362   -519.57475   -3406.7068 
15110000    191.47847   -4143.8792   -3815.6916   -4143.8792            0    6447.5495    17.225942    20.289884    21.015609    7345.2151    6716.2478    6632.7576    5993.6431    779.90578   -428.94142   -564.95884   -3125.0145 
15111000    198.13486   -4143.2313   -3803.6349   -4143.2313            0    2978.6221    17.307971    20.386503    21.115684    7450.6479     2734.442    3455.6867    2745.7377    -341.2481   -1145.1775    1070.7736   -3479.9777 
15112000    191.79554    -4142.464    -3813.733    -4142.464            0    3622.1401    17.316496    20.396545    21.126084    7461.6627    5796.2884    2202.0692    2868.0626    456.36265    214.72452    -606.8645   -3419.5692 
15113000    192.59224   -4147.4282   -3817.3317   -4147.4282            0     3940.025    17.283087    20.357193    21.085325    7418.5581    3991.4649    4380.3145    3448.2956    587.31101    4.5336642    672.21434   -3391.0523 
15114000    201.59021   -4127.9307    -3782.412   -4127.9307            0    3650.2852    17.307953    20.386483    21.115663    7450.6254     3567.768    3080.5199    4302.5677   -730.98129      341.868    770.82085    -3385.773 
15115000    193.54336   -4125.6222   -3793.8955   -4125.6222            0    2425.3849    17.350292    20.436352    21.167316    7505.4368    2179.2054    3317.8384    1779.1108   -195.42597    752.94985   -793.58359   -3528.4151 
15116000    190.69379   -4146.6096    -3819.767   -4146.6096            0    5108.9028    17.286737    20.361493    21.089779    7423.2601    4330.2442    5230.9543    5765.5099   -428.37999   -965.03874   -1424.6945   -3266.6739 
15117000    177.19728   -4139.5769   -3835.8668   -4139.5769            0    5514.7078    17.264756    20.335602    21.062962    7394.9783    5984.7027    4365.4647     6193.956    998.43673    189.34729   -15.938688   -3241.1157 
15118000    186.09027   -4147.1633    -3828.211   -4147.1633            0    4114.0479    17.275907    20.348737    21.076566    7409.3169    5215.4592    2671.5903    4455.0942    713.21182    378.89152    295.73145   -3383.6581 
15119000    189.79702   -4118.3864   -3793.0808   -4118.3864            0    5701.1367    17.212111    20.273593    20.998735    7327.5361    7555.5593      4955.84    4592.0108    1305.8639     867.6267    1574.6699   -3183.8311 
15120000     192.1785   -4147.9373     -3818.55   -4147.9373            0    6154.6996    17.248008    20.315875    21.042529    7373.4783    6782.5303    4667.7525     7013.816    44.964897   -113.88188    236.57363   -3156.7067 
15121000    195.52341   -4160.1238   -3825.0033   -4160.1238            0    3368.3169    17.352579    20.439046    21.170106    7508.4047    4843.4686    3478.2898    1783.1924    615.92627    -425.2093    4.2686133   -3456.1646 
15122000    193.81776   -4127.4544   -3795.2574   -4127.4544            0    4343.8764    17.333315    20.416355    21.146603    7483.4256    6700.7093     1618.285    4712.6349    592.24619      -166.11   -359.76518   -3321.1751 
15123000    194.47296   -4171.8076   -3838.4876   -4171.8076            0    3760.5241    17.278893    20.352254    21.080209    7413.1597    5058.6388    4670.3535    1552.5801   -596.22335    574.83162    167.79834   -3431.9248 
15124000    194.40699    -4132.695   -3799.4881    -4132.695            0    2251.6141    17.341932    20.426505    21.157117    7494.5926    3056.0098     2085.085    1613.7474   -88.502935    403.51396    46.347226   -3553.3845 
15125000    202.98693   -4130.5995   -3782.6869   -4130.5995            0    3351.3832     17.30625    20.384476    21.113584    7448.4254    4350.6001    1892.4414     3811.108    343.30527   -160.27053    1053.4551    -3418.634 
15126000     194.4299   -4144.2979   -3811.0517   -4144.2979            0     4371.909    17.290617    20.366063    21.094513    7428.2597    5042.0583    4282.2064    3791.4622    656.54185    382.09564    168.78292   -3337.4273 
15127000    200.29476   -4140.7435   -3797.4451   -4140.7435            0    3483.5119    17.292043    20.367742    21.096251    7430.0968    3245.7501    3129.3103    4075.4753   -809.53486   -741.74795    1140.3106   -3419.9706 
15128000    192.88281    -4136.521   -3805.9265    -4136.521            0    4794.4254    17.296436    20.372917    21.101612    7435.7622    6224.7962    1503.7848    6654.6952    1015.8128   -504.21768   -555.67565   -3286.0048 
15129000    203.95129   -4137.1255     -3787.56   -4137.1255            0     4024.626    17.261902    20.332241     21.05948     7391.312    5194.2647      3347.44    3532.1734     285.7913    290.30883    726.88436   -3353.7266 
15130000    192.44954   -4154.8318   -3824.9799   -4154.8318            0    4175.7775    17.244784    20.312077    21.038596     7369.344    4957.5886    3268.8734    4300.8705    110.10228   -860.03447    903.55852    -3376.191 
15131000    185.50265   -4156.8291   -3838.8839   -4156.8291            0    4302.1137    17.262298    20.332707    21.059963    7391.8206    5598.8633    2720.2157    4587.2621    170.00923    627.96938   -511.59969   -3375.1069 
15132000    207.95526   -4148.9819   -3792.5537   -4148.9819            0    3486.8617    17.281137    20.354897    21.082947    7416.0485     3192.863    4460.1938    2807.5283   -263.27682   -1733.9119    194.13755   -3415.4306 
15133000    191.59045   -4151.5717   -3823.1922   -4151.5717            0    2009.0907    17.343977    20.428914    21.159612    7497.2447    3297.5763    33.444757    2696.2509    66.167969   -140.11514   -216.19072    -3603.519 
15134000    190.87437   -4161.3703   -3834.2182   -4161.3703            0    2960.8806    17.316127     20.39611    21.125635    7461.1863    3998.6078    2457.7404    2426.2936    49.906933     293.2039     602.3644   -3512.0337 
15135000    186.43428   -4165.3367   -3845.7947   -4165.3367            0    2146.7595    17.332616    20.415532    21.145751    7482.5203    3814.6584    1094.0747    1531.5454    1429.7591   -1165.7846    551.86717   -3611.5298 
15136000    186.00264    -4127.374   -3808.5718    -4127.374            0    3349.5279     17.29957    20.376608    21.105434    7439.8037    5105.4629     2698.109    2245.0118    609.14702   -628.96304    968.44564   -3445.1417 
15137000    188.71504    -4150.251   -3826.7999    -4150.251            0    4114.0785    17.287699    20.362626    21.090952    7424.4989     3836.301    4238.2009    4267.7336    133.59041   -332.59803    1228.7433   -3381.3328 
15138000    199.52292   -4157.6956   -3815.7202   -4157.6956            0    2306.4377    17.338819    20.422838    21.153318    7490.5567    4232.2436    956.27739    1730.7921    1512.0269    1433.5198   -43.822031   -3563.7601 
15139000    178.21907   -4159.9297   -3854.4683   -4159.9297            0    4452.7811     17.26531    20.336255    21.063638     7395.691    5825.4083    5196.3597    2336.5751    1480.2879   -642.25211    -893.2107   -3374.1977 
15140000    192.00744   -4149.0266   -3819.9324   -4149.0266            0    2869.0801    17.328068    20.410175    21.140202    7476.6323    3044.1338    3198.2146     2364.892    1160.4497   -656.19488   -989.45477   -3507.0907 
15141000    182.11879    -4148.589   -3836.4436    -4148.589            0    1611.3119    17.314161    20.393795    21.123236    7458.6451    2539.3358    353.23249    1941.3673     905.0637   -277.14358   -1093.9512   -3661.1704 
15142000    192.96424   -4152.8848   -3822.1507   -4152.8848            0    2842.6406     17.30354    20.381284    21.110278     7444.927    4358.9155    2014.8885    2154.1178   -560.30572    22.096493    298.84223   -3513.5063 
15143000    183.39954   -4136.2496   -3821.9091   -4136.2496            0    4016.4721    17.319823    20.400463    21.130143    7465.9645    4470.5491    3051.6731    4527.1942    312.05002    201.36901    126.13461   -3384.5818 
15144000    188.63438     -4126.29   -3802.9771     -4126.29            0     6551.958    17.199062    20.258223    20.982815    7310.8834    7486.0591    6283.6892    5886.1258    552.20578    103.20109   -1972.3549    -3104.396 
15145000    207.41849   -4152.1582     -3796.65   -4152.1582            0     2876.503    17.333937    20.417088    21.147362    7484.2316    3752.7454    1495.4234    3381.3402    806.29917    142.07729    586.24548   -3482.6801 
15146000    188.11892   -4148.0182   -3825.5888   -4148.0182            0    2173.2656    17.352219    20.438622    21.169667    7507.9378    3318.1819     1121.081    2080.5339   -23.713211   -547.28053    66.510637   -3587.6258 
15147000    189.51124   -4163.1056   -3838.2898   -4163.1056            0    3745.2665    17.284175    20.358475    21.086653    7419.9595    4370.2959    3466.6426    3398.8611    992.71955    572.02638    608.93459   -3433.0051 
15148000    193.33224   -4164.1264   -3832.7615   -4164.1264            0    4483.7964    17.245674    20.313125    21.039681    7370.4851    6382.6798    2528.2311    4540.4783   -1491.1153   -100.54397    400.03268   -3350.7939 
15149000    194.12167    -4117.155   -3784.4371    -4117.155            0     3718.653    17.328917    20.411176    21.141239    7477.7318    4315.2088    2774.8277    4065.9223   -410.09052    595.30865   -863.16346   -3378.8992 
15150000     191.2991   -4147.5902   -3819.7101   -4147.5902            0    2859.7526    17.322164    20.403221       21.133    7468.9925    3557.5126    3668.9552      1352.79   -984.28128   -306.84209    106.99392   -3508.2041 
15151000    205.22663   -4133.7969   -3782.0454   -4133.7969            0    3006.7153    17.290028    20.365369    21.093793       7427.5    3177.1734    2643.4034    3199.5693    -780.9555   -1811.4885    729.32815   -3456.3506 
15152000    193.77838   -4157.7298   -3825.6003   -4157.7298            0    4812.9513    17.256749    20.326171    21.053194    7384.6947    5880.0618     4578.431    3980.3612   -547.02697   -464.47819   -906.47692   -3307.2541 
15153000    199.86189   -4146.0276   -3803.4711   -4146.0276            0    1142.9702    17.379771    20.471074     21.20328    7543.7574    1864.5489     1910.405   -346.04326   -814.05349   -1359.3408    1056.8987   -3677.7239 
15154000    180.93621   -4137.7219   -3827.6034   -4137.7219            0    3706.5029    17.281887     20.35578    21.083862    7417.0137    4043.9554    3369.1734      3706.38    849.69019   -64.147073   -950.59752   -3426.6727 
15155000    191.30409   -4143.9012   -3816.0125   -4143.9012            0    2585.0115    17.337686    20.421504    21.151937    7489.0894    2146.7681    2930.1593    2678.1071    980.40386    -1093.124   -110.26416   -3533.6758 
15156000     182.0597   -4155.8939   -3843.8498   -4155.8939            0     3210.302    17.277091    20.350131    21.078011    7410.8401    3901.1364     2186.403    3543.3667   -1036.7797    -1240.081    685.84102    -3496.882 
15157000    185.36891   -4147.5037   -3829.7878   -4147.5037            0    3457.4128    17.316002    20.395964    21.125483    7461.0252    4292.0623    2464.1083    3616.0677    -278.7585    719.36036    177.97778   -3453.5818 
15158000    197.70279   -4159.1962   -3820.3404   -4159.1962            0    3996.4762    17.268637    20.340173    21.067696    7399.9662    5042.9759     3720.584    3225.8687    334.90733    69.049179   -381.56729    -3389.037 
15159000    191.95006   -4144.4486   -3815.4528   -4144.4486            0    2718.4374    17.248585    20.316554    21.043233    7374.2183    3498.5303    2229.8191    2426.9628   -419.83468   -97.169416    107.19568   -3523.0973 
15160000    197.59295    -4127.827   -3789.1595    -4127.827            0    3610.7587    17.285261    20.359755    21.087979    7421.3591    3531.2532    3995.8518    3305.1712   -72.424403   -1059.7647   -533.16269   -3398.3565 
15161000    173.26684   -4122.5264    -3825.553   -4122.5264            0    4772.9754    17.247397    20.315155    21.041784     7372.695    4773.6667    4583.7881    4961.4712    66.029658    1403.9022    32.767889   -3312.3474 
15162000    182.76718   -4127.0821   -3813.8254   -4127.0821            0    3946.6609    17.280278    20.353885    21.081899     7414.942    3762.7886     4803.223    3273.9712    735.19474   -1274.9894   -288.18225   -3387.0362 
15163000    196.15426   -4138.8292   -3802.6275   -4138.8292            0    4168.2216    17.249307    20.317405    21.044114    7375.1449    4956.7343    3050.1967    4497.7337   -406.65986    390.14364    952.82358   -3354.2981 
15164000    193.95224   -4149.3487   -3816.9212   -4149.3487            0    3644.8486     17.27989    20.353428    21.081425    7414.4426    3725.0351    5123.9372    2085.5734   -559.36092    107.25286    944.24621   -3422.7962 
15165000    190.23356   -4138.7811   -3812.7273   -4138.7811            0    4607.8921     17.30493    20.382922    21.111975    7446.7223    5111.2931    3769.1469    4943.2364    508.58597   -649.55003    335.32245   -3312.2972 
15166000    200.31841   -4144.0944   -3800.7555   -4144.0944            0    4208.6283    17.287898     20.36286    21.091195    7424.7556    4996.2913    3256.9219    4372.6718    334.90213    254.31102   -118.34098   -3345.0349 
15167000    181.52523   -4147.4794   -3836.3514   -4147.4794            0    3779.6008    17.316048    20.396017    21.125538    7461.0842    5117.1508    1788.7561    4432.8955   -96.092302    669.70024    634.09192   -3425.0845 
15168000    196.17838   -4116.6211   -3780.3781   -4116.6211            0    3250.2639    17.322801    20.403972    21.133777    7469.8171    3256.9319     2775.424    3718.4359    295.76814    19.369555    100.87333   -3426.2955 
15169000    201.23117   -4134.2271   -3789.3238   -4134.2271            0    2456.7972    17.378074    20.469076     21.20121    7541.5482    1480.6639    2193.7129    3696.0149   -372.47285   -652.62169   -1604.8777   -3519.1111 
15170000    193.56952    -4143.627   -3811.8555    -4143.627            0     3394.407    17.313421    20.392923    21.122333    7457.6886    3778.4496     2321.113    4083.6583     83.30768   -1026.3992    79.438891   -3442.6705 
15171000    197.29483   -4148.1606    -3810.004   -4148.1606            0     2838.604    17.345899    20.431178    21.161957    7499.7374    3367.9771    1914.1396    3233.6952    870.98205   -245.98101    727.33595   -3499.5289 
15172000     194.6763   -4142.6221   -3808.9536   -4142.6221            0    4871.5434    17.309943    20.388826     21.11809    7453.1952    4260.7726     5136.706    5217.1515   -910.97388   -442.02928   -129.22679   -3279.4304 
15173000    194.39284   -4148.3438   -3815.1612   -4148.3438            0    3808.2322    17.275315    20.348039    21.075844    7408.5552    4360.5225    2319.0475    4745.1265   -270.75449   -118.49641     192.5662   -3403.6962 
15174000    191.39045   -4154.9524   -3826.9158   -4154.9524            0    4282.3464    17.308818    20.387501    21.116717    7451.7422    4471.9489    3935.4995    4439.5907   -1173.8214      899.994    339.19419   -3361.5274 
15175000    191.87896   -4126.5953   -3797.7214   -4126.5953            0    3365.8409     17.33008    20.412545    21.142657    7479.2366    3100.4621    3961.7956     3035.265   -354.55272   -881.43642    191.47793   -3430.5856 
15176000    198.05781   -4163.2253    -3823.761   -4163.2253            0    3453.5958    17.350743    20.436883    21.167866    7506.0217    4036.6572    2644.1822     3679.948    1065.3468   -161.21487    711.47417    -3445.704 
15177000    200.78153    -4135.812   -3791.6794    -4135.812            0    3130.0819    17.353306    20.439902    21.170993    7509.3486    3316.0991    2383.8129    3690.3338    560.05129    794.96891   -715.02441   -3448.8849 
15178000    198.33591   -4131.3301   -3791.3892   -4131.3301            0    4291.9475    17.299553    20.376589    21.105415    7439.7828    4304.6204    3212.6584    5358.5637    1736.7081    955.67556   -177.70811    -3325.706 
15179000    180.79502   -4122.5085   -3812.6321   -4122.5085            0    2540.3636    17.345525    20.430737      21.1615    7499.2514    2951.0697    2158.1695    2511.8514    168.76724   -12.540738   -662.53261   -3534.7953 
15180000    196.10954   -4153.7263   -3817.6013   -4153.7263            0    4497.4441    17.314059    20.393675    21.123112    7458.5137    5009.5791    4012.1804    4470.5728   -580.13172   -778.08258   -591.98117   -3328.3928 
15181000    195.06429   -4140.0365    -3805.703   -4140.0365            0    2381.9084    17.350653    20.436778    21.167756    7505.9052    2379.6347    2842.0365    1924.0541   -127.06722   -331.66204    1457.7014   -3544.9652 
15182000    206.94987   -4135.3485   -3780.6435   -4135.3485            0    4435.9878     17.30402     20.38185    21.110864    7445.5468    6073.3144    3533.7856    3700.8633    761.86955    502.40685    234.35669   -3298.9588 
15183000    191.19226   -4148.4439    -3820.747   -4148.4439            0    4431.7548    17.324749    20.406266    21.136153    7472.3365     4083.444    3184.6743    6027.1461    93.691818   -617.97387   -288.95043   -3337.7904 
15184000    185.46333   -4132.4045   -3814.5267   -4132.4045            0    3907.3037    17.307595    20.386061    21.115226    7450.1632    3745.4541      3494.39     4482.067   -252.00662   -836.96648    157.98376   -3389.9864 
15185000    196.39418   -4126.9608   -3790.3479   -4126.9608            0    4035.2108    17.291562    20.367176    21.095665     7429.477    4235.0603    4694.7102    3175.8619   -1431.8854   -467.23639   -408.94174   -3353.1275 
15186000    202.01833   -4138.4674   -3792.2149   -4138.4674            0    3593.1931    17.363582    20.452006     21.18353    7522.6968     4019.268    3683.2626    3077.0489    600.40856    672.79737    2078.9325   -3398.0028 
15187000    189.82467   -4138.0973   -3812.7443   -4138.0973            0    4806.0293     17.29936    20.376361    21.105179    7439.5339    5210.5969    5599.8614    3607.6295    -63.06782    233.24118     46.05524   -3291.2999 
15188000    204.76395   -4130.6077   -3779.6493   -4130.6077            0    4338.1903    17.285586    20.360137    21.088374    7421.7767    5149.0469    4225.5359    3639.9883   -481.48921   -975.03138    955.50082   -3310.0879 
15189000    183.39275   -4142.1008   -3827.7719   -4142.1008            0    3586.2796    17.340944    20.425341    21.155911    7493.3112    4594.8772    2688.6464    3475.3151   -1143.0855   -891.80068    468.76863   -3435.8552 
15190000    215.17487    -4141.928   -3773.1257    -4141.928            0    4046.9367    17.334221    20.417422    21.147709    7484.5994    3508.4482    4681.2108    3951.1512   -908.71765   -385.44384    342.59577   -3331.3815 
15191000    187.24911   -4116.4298   -3795.4912   -4116.4298            0    4629.5853    17.299367    20.376369    21.105187    7439.5419    4372.3895    4297.0051    5219.3614   -496.27006    1235.7714    769.20977   -3293.1901 
15192000    196.50605   -4138.1334   -3801.3288   -4138.1334            0    2907.8645     17.34446    20.429483    21.160201    7497.8705     3879.271    3465.7631    1378.5593    1246.9697    1670.9899     134.1332   -3483.3574 
15193000    187.05273   -4124.4114   -3803.8094   -4124.4114            0    4614.8625    17.325828    20.407537     21.13747    7473.7331    5542.2791    5148.6164    3153.6922   -591.44107   -813.43386    218.03691   -3300.8045 
15194000    198.02152   -4130.8649   -3791.4628   -4130.8649            0    2744.9633    17.360879    20.448823    21.180232    7519.1848    4446.9878      1609.71    2178.1921    306.52351    21.572136    393.54615   -3490.4513 
15195000    193.84815   -4141.4615   -3809.2124   -4141.4615            0    3768.2718    17.341347    20.425817    21.156403    7493.8347    3482.0218    3484.1959    4338.5977    984.22341    593.67419    1956.8283   -3397.3784 
15196000    197.27906   -4148.9932   -3810.8636   -4148.9932            0      2769.84    17.375118    20.465594    21.197604    7537.7007    3454.5926    2878.8563    1976.0713    -320.8864   -697.74035    2050.7463   -3506.3761 
15197000    192.14804   -4131.9765   -3802.6413   -4131.9765            0     4110.971    17.330771     20.41336    21.143501    7480.1322    4961.6528    4394.1568    2977.1035   -871.13939   -426.55282    2075.5102   -3354.1753 
15198000    190.46972   -4130.0704   -3803.6119   -4130.0704            0     2708.341    17.344723    20.429792    21.160521    7498.2113    4013.4421     1849.601      2261.98   -768.03861     192.4853    654.41181   -3507.4447 
15199000    195.95646   -4117.6878   -3781.8251   -4117.6878            0    4512.6046    17.302491    20.380049    21.108998    7443.5734    4653.2909    5061.3141    3823.2087    833.44163   -435.36234    -517.2849   -3291.9508 
15200000    192.05939   -4139.1374   -3809.9541   -4139.1374            0     3995.715    17.332612    20.415527    21.145746    7482.5155    2992.9572    4880.6618     4113.526    1825.3083    766.91695    -657.6758   -3373.9225 
15201000     191.0775   -4128.3422   -3800.8419   -4128.3422            0    3924.0946    17.351808    20.438138    21.169165     7507.404    2925.7023    4073.7519    4772.8297    1044.6486    1200.8614   -732.11685   -3371.2014 
15202000    187.90578   -4116.9716   -3794.9075   -4116.9716            0    6225.6575    17.264081    20.334806    21.062138    7394.1107    5989.2599    7453.2009    5234.5117    -78.39033   -222.50937    1655.7948   -3123.5605 
15203000     189.2397   -4144.8602   -3820.5098   -4144.8602            0    4453.7254    17.292827    20.368666    21.097208    7431.1076    4601.3908    4950.0395    3809.7458    -34.22248     1020.485    1567.2206   -3337.8369 
15204000    191.29032   -4153.0754   -3825.2104   -4153.0754            0    4162.8835     17.29147    20.367067    21.095553    7429.3586    3812.9721     3548.012    5127.6665    445.70222   -898.12866    2032.3034   -3374.1637 
15205000    181.65033   -4138.9198   -3827.5773   -4138.9198            0    4751.9229    17.297049    20.373639    21.102359     7436.552    5518.8258    4139.7374    4597.2055     571.1133   -723.45665    1089.8841     -3312.21 
15206000    189.86567   -4149.5697   -3824.1464   -4149.5697            0     3447.725    17.311704    20.390901    21.120238    7455.4702    5278.8147    1888.9967    3175.3636    739.76235    1597.0986    830.17942    -3449.274 
15207000    195.13146   -4142.7931   -3808.3445   -4142.7931            0    4733.2263    17.254326    20.323317    21.050237    7381.5839    3902.2604     5283.737    5013.6815   -41.764647    938.81626    454.10441   -3298.7993 
15208000     195.9457   -4124.6639   -3788.8197   -4124.6639            0    4609.5414     17.27203    20.344169    21.071836     7404.329    5829.1392    4765.8328    3233.6522   -1769.9742   -1041.9908    1698.1377   -3291.0605 
15209000    197.85181   -4149.2161   -3810.1049   -4149.2161            0    4624.8726    17.274987    20.347653    21.075444    7408.1331    6498.4519    3099.4081    4276.7577    568.53491    1254.1138    283.67198   -3310.4335 
15210000    201.15722   -4135.0135   -3790.2369   -4135.0135            0    3842.1696    17.340952    20.425351    21.155921    7493.3218    3969.5962    2891.2435     4665.669    635.60083    -219.6712    -468.8465   -3370.3553 
15211000    190.31181    -4146.501   -3820.3131    -4146.501            0    2741.4398    17.360238    20.448067    21.179449    7518.3509    2669.8798    3128.9168     2425.523   -290.88428    535.83976    659.24043   -3519.7212 
15212000     196.6729   -4136.2123   -3799.1217   -4136.2123            0     5653.442    17.261786    20.332103    21.059338    7391.1625     5382.164     5185.617     6392.545   -1350.6142    548.92804    350.41295   -3189.7229 
15213000    204.98084   -4139.2883   -3787.9581   -4139.2883            0    4197.7176    17.297555    20.374235    21.102977    7437.2049    4799.3815    3276.2481    4517.5231   -875.56626    198.13995     1059.902   -3332.6569 
15214000    192.96114   -4153.7932   -3823.0644   -4153.7932            0    2908.1803    17.349507    20.435428    21.166358    7504.4178    3518.9047    1399.8072    3805.8289    494.88361     1051.561    451.96188   -3504.7808 
15215000    184.03874   -4165.4766   -3850.0405   -4165.4766            0    4344.6576    17.316048    20.396017    21.125538    7461.0839    5498.4045    2760.0607    4775.5076    58.546586    518.83163    382.31587   -3377.2885 
15216000    193.01328   -4152.7628   -3821.9447   -4152.7628            0    2718.8913    17.363113    20.451453    21.182957    7522.0869    2399.2792    2510.5419    3246.8528    424.95785     347.9407    26.102289   -3523.6771 
15217000    189.72983    -4145.851   -3820.6606    -4145.851            0    2541.5659    17.322762    20.403926    21.133729    7469.7664    3617.1312    1763.4998    2244.0666   -613.30432   -365.83799   -122.94182   -3543.7853 
15218000     199.9062    -4147.811   -3805.1786    -4147.811            0    2654.7422    17.333759    20.416879    21.147146    7484.0014    3526.4583    2421.1199    2016.6482   -163.30486    589.68379    539.52502   -3515.4228 
15219000    204.05055   -4139.3971   -3789.6615   -4139.3971            0    5333.3527     17.31046    20.389435     21.11872    7453.8628    6312.4162    4873.3698    4814.2721    842.92348    470.70656   -222.01377    -3209.889 
15220000    192.39965    -4153.892   -3824.1256    -4153.892            0    1707.2791    17.337223    20.420958    21.151371    7488.4887    1740.7321    1891.9664    1489.1388     916.4812   -435.31209    188.48851   -3637.6704 
15221000    193.66614   -4136.2807   -3804.3435   -4136.2807            0    3407.6962    17.325306    20.406922    21.136833    7473.0574    2945.6904    3374.2033     3903.195    502.10431   -625.14365   -408.78089   -3432.9493 
15222000    178.91458    -4128.479   -3821.8256    -4128.479            0    3384.7808    17.324055    20.405448    21.135306    7471.4383    4041.0788    3437.5785    2675.6851    277.67755    843.27901    1286.1973   -3453.0088 
15223000    178.72307   -4128.9947   -3822.6695   -4128.9947            0    3708.9183    17.346727    20.432153    21.162966    7500.8104    3307.0657    3579.9541    4239.7351   -196.05416    57.278359   -41.037691   -3416.9449 
15224000    195.12172   -4144.4034   -3809.9714   -4144.4034            0    4664.3484    17.328263    20.410405     21.14044    7476.8842     5479.855    4502.3906    4010.7995   -276.87041   -801.32109     208.5288   -3301.3584 
15225000    189.92299   -4141.0118   -3815.4903   -4141.0118            0    4383.2254    17.291615    20.367239     21.09573    7429.5463    3411.9604    4678.0645    5059.6513   -96.771669    97.858143   -449.85906   -3340.5577 
15226000     192.2373   -4133.0617   -3803.5735   -4133.0617            0    3746.4198    17.350536    20.436639    21.167613    7505.7527    3887.5217    4242.6449    3109.0926    413.47604   -336.48214   -401.56089   -3393.4765 
15227000    206.89607   -4108.9876   -3754.3748   -4108.9876            0     2379.261    17.336098    20.419634    21.149999    7487.0313    2817.4242     2003.667    2316.6918   -900.39751   -166.79061   -416.23232   -3494.5817 
15228000    201.55831   -4134.4551   -3788.9911   -4134.4551            0    4986.8503    17.296275    20.372727    21.101415    7435.5536    6638.4741    4717.2706    3604.8062    168.22352    1607.3843   -193.96205   -3248.2174 
15229000    203.66295   -4147.9149   -3798.8436   -4147.9149            0    3690.3732    17.318716     20.39916    21.128793     7464.533    3125.6467    3192.1528    4753.3203    18.970822   -1005.2668    718.21048   -3397.1001 
15230000    200.27571   -4120.6796   -3777.4139   -4120.6796            0    3452.2648    17.315641    20.395538    21.125042     7460.558    2784.7743    4341.1047    3230.9155   -266.79693    433.57087    1326.2795   -3401.7916 
15231000    195.23012    -4122.183   -3787.5653    -4122.183            0    5413.9968    17.293423    20.369368    21.097936    7431.8767    6853.6874    4768.5708    4619.7323   -293.70996   -148.48649    534.04651   -3200.7622 
15232000    190.76901   -4124.9792   -3798.0077   -4124.9792            0    3393.6181    17.307543       20.386    21.115162    7450.0957     3731.805    1403.8711    5045.1783    1351.0717   -544.08414   -619.89552   -3429.2843 
15233000    189.63062   -4146.1694   -3821.1491   -4146.1694            0    3849.7424    17.348563    20.434316    21.165207    7503.1933    3729.5457    4036.4112    3783.2704   -380.57515    569.94787   -291.80262   -3399.8857 
15234000    206.36643   -4142.8217   -3789.1167   -4142.8217            0     2699.253    17.360222    20.448049    21.179431     7518.331    3289.4625    2685.9108    2122.3856    268.95593   -1154.9924    1385.0501   -3493.1513 
15235000     185.6481   -4141.3802   -3823.1857   -4141.3802            0    3215.6409    17.317221    20.397399     21.12697    7462.6008     4077.206    1597.9809    3971.7359    651.46247    611.59484   -199.24158   -3473.2134 
15236000    188.33021   -4137.1889   -3814.3974   -4137.1889            0     3109.516    17.343413    20.428249    21.158923    7496.5123    4101.4503    3266.8753    1960.2224    764.47928    1700.4754    1612.0978   -3474.4373 
15237000    197.33255   -4148.5346   -3810.3134   -4148.5346            0    2639.9906    17.374688    20.465088    21.197079    7537.1413    2328.9544    3438.2613     2152.756   -60.310246    89.953637    1053.8961   -3520.1217 
15238000    195.49074     -4129.57   -3794.5056     -4129.57            0    4236.0595    17.302869    20.380494     21.10946    7444.0616    5493.5771    3964.5676    3250.0338    1227.5827   -1301.7668    78.999624    -3334.622 
15239000     195.0334   -4134.2353   -3799.9548   -4134.2353            0    3946.0139    17.319162    20.399686    21.129338    7465.1106    4456.4146    3531.4217    3850.2054   -945.03719    666.49352   -631.63772   -3370.3484 
15240000    191.30524   -4126.1094   -3798.2187   -4126.1094            0    3831.2671    17.312887    20.392294    21.121682     7456.999     2967.118    3133.0055    5393.6779   -656.46074     1657.393    1361.7074   -3381.5582 
15241000    189.34123   -4149.4377   -3824.9133   -4149.4377            0    4185.4232    17.286027    20.360657    21.088913    7422.3455    4821.5733    4475.9791    3258.7173    507.32553   -983.09622    124.53197   -3371.8526 
15242000     193.9915   -4138.7646   -3806.2698   -4138.7646            0    2784.7808    17.380452    20.471876     21.20411    7544.6442    4121.3971    2025.9462     2206.999   -529.11719   -964.39764    1256.8938   -3499.8579 
15243000     199.4879   -4124.0952   -3782.1798   -4124.0952            0    3980.6752     17.33939    20.423511    21.154015    7491.2972    4439.8862    3134.0049    4368.1346    -1129.745    16.283404   -248.15648   -3347.2795 
15244000     196.1068   -4137.2899   -3801.1695   -4137.2899            0    4267.5357    17.303184    20.380865    21.109844    7444.4681    4537.3266    3981.4384     4283.842    1490.9125   -657.60174    363.40208   -3337.8435 
15245000    205.11843   -4131.3754   -3779.8095   -4131.3754            0    4534.7399    17.312766    20.392151    21.121534    7456.8423     5210.541    5074.4927     3319.186    868.23165   -202.76917   -171.29918   -3286.6547 
15246000    189.60947   -4135.4198   -3810.4357   -4135.4198            0    2672.8547    17.372945    20.463034    21.194952    7534.8726    2978.1245    1936.2133    3104.2263    450.42429    1012.5418   -582.91164     -3516.72 
15247000    179.75536   -4118.0084   -3809.9139   -4118.0084            0     4715.492    17.334991     20.41833    21.148649    7485.5974    4467.7625    6084.4644    3594.2493    2213.1791    468.66564    478.14087   -3295.1247 
15248000    200.27214   -4129.6009   -3786.3413   -4129.6009            0    2073.7479    17.365209    20.453922    21.185514    7524.8116    3531.9438    1633.1188    1056.1811    579.85515   -833.74379   -703.83235   -3558.7648 
15249000    189.15921   -4148.8026   -3824.5902   -4148.8026            0    3973.2576    17.329462    20.411817    21.141903    7478.4371    3820.2208    3525.7578    4573.7941     305.8275   -1490.8831    230.59445   -3391.2455 
15250000    194.50363   -4113.4382   -3780.0657   -4113.4382            0    2616.2708    17.362189    20.450365     21.18183    7520.8859    2726.8201    3648.2073     1473.785      929.495     122.1574   -1136.5193   -3493.1016 
Loop time of 351.297 on 64 procs for 250000 steps with 864 atoms

Performance: 122.973 ns/day, 0.195 hours/ns, 711.648 timesteps/s
192.1% CPU use with 32 MPI tasks x 2 OpenMP threads

MPI task timing breakdown:
Section |  min time  |  avg time  |  max time  |%varavg| %total
---------------------------------------------------------------
Pair    | 24.544     | 31.623     | 37.458     |  62.9 |  9.00
Bond    | 0.92822    | 1.0497     | 1.5592     |  11.4 |  0.30
Kspace  | 159.7      | 166.93     | 176.09     |  32.0 | 47.52
Neigh   | 1.7586     | 1.8292     | 1.9627     |   4.4 |  0.52
Comm    | 61.91      | 65.909     | 67.848     |  18.2 | 18.76
Output  | 0.66364    | 0.66432    | 0.68047    |   0.4 |  0.19
Modify  | 64.198     | 66.163     | 68.946     |  15.2 | 18.83
Other   |            | 17.13      |            |       |  4.88

Nlocal:        27.0000 ave          32 max          18 min
Histogram: 1 1 2 1 2 5 4 8 3 5
Nghost:        2468.22 ave        2518 max        2432 min
Histogram: 3 0 7 5 5 6 4 1 0 1
Neighs:        8224.34 ave        9860 max        5300 min
Histogram: 1 2 1 2 3 3 4 3 9 4

Total # of neighbors = 263179
Ave neighs/atom = 304.60532
Ave special neighs/atom = 2.0000000
Neighbor list builds = 6025
Dangerous builds = 0

unfix		3
unfix		2
unfix		1

write_data	data.final.${pid}
write_data	data.final.1
System init for write_data ...
PPPM initialization ...
  extracting TIP4P info from pair style
  using 12-bit tables for long-range coulomb (../kspace.cpp:340)
  G vector (1/distance) = 0.37396416
  grid = 24 24 25
  stencil order = 5
  estimated absolute RMS force accuracy = 0.00310503
  estimated relative force accuracy = 9.3507056e-06
  using double precision FFTW3
  3d grid and FFT values/proc = 3822 576
Last active /omp style is kspace_style pppm/tip4p/omp
WARNING: Not all mixed pair coeffs generated from mixing. Use write_data with 'pair ij' option to store all pair coeffs. (../write_data.cpp:312)

write_restart   restart.lmp.${pid}
write_restart   restart.lmp.1
System init for write_restart ...
PPPM initialization ...
  extracting TIP4P info from pair style
  using 12-bit tables for long-range coulomb (../kspace.cpp:340)
  G vector (1/distance) = 0.37396416
  grid = 24 24 25
  stencil order = 5
  estimated absolute RMS force accuracy = 0.00310503
  estimated relative force accuracy = 9.3507056e-06
  using double precision FFTW3
  3d grid and FFT values/proc = 3822 576
Last active /omp style is kspace_style pppm/tip4p/omp
Total wall time: 0:05:51
