LAMMPS data file via write_data, version 30 Jul 2021, timestep = 18750000

864 atoms
2 atom types
576 bonds
1 bond types
288 angles
1 angle types

0.505969780036942 17.70160261996338 xlo xhi
1.6874968377759014 21.941680962222502 ylo yhi
0.6172819498317832 21.595913850179013 zlo zhi

Masses

1 1.00794
2 15.9994

Pair Coeffs # lj/cut/tip4p/long/omp

1 0 0
2 0.21084 3.1668

Bond Coeffs # harmonic/omp

1 450 0.9572

Angle Coeffs # harmonic/omp

1 55 104.52

Atoms # full

125 1 1 0.5897 2.256439639948563 2.390580083485294 4.904729166953789 2 1 5
54 1 1 0.5897 1.4856115844020135 4.903924407836488 3.295472371480682 -7 -2 2
107 1 1 0.5897 4.610739942835324 5.575112062311055 2.0813237197030814 -3 1 5
126 1 1 0.5897 2.282996321201648 3.8940381089733913 5.0802874699567795 2 1 5
106 1 2 -1.1794 4.760968666035343 5.301633238186238 2.986245563651528 -3 1 5
53 1 1 0.5897 2.9445878432274246 5.289925164015781 3.4151693348353316 -7 -2 2
52 1 2 -1.1794 2.118968251866089 5.291586551579233 3.8995178828196435 -7 -2 2
124 1 2 -1.1794 2.404169577556817 3.073828589605856 5.55863428610935 2 1 5
773 1 1 0.5897 0.6780644213206977 3.969745943062564 1.0854462748663962 -2 -3 3
772 1 2 -1.1794 0.5645547810215438 4.302855529234667 1.9756118781027021 -2 -3 3
220 1 2 -1.1794 0.6423636454479726 4.045199233979929 8.803886975212793 1 -6 5
277 1 2 -1.1794 0.661744987962364 5.904921676038289 6.8676399123586584 0 3 3
221 1 1 0.5897 0.6931655837785502 3.1861141720755946 8.384761377912554 1 -6 5
105 1 1 0.5897 3.5866036193381583 6.65609056602263 6.971196150555263 -3 0 8
706 1 2 -1.1794 2.290207357356791 5.777530075542876 10.221531993947055 -2 -4 -4
819 1 1 0.5897 4.25383862350339 2.830547906763664 8.872112568717199 4 0 3
707 1 1 0.5897 2.0707703364975414 4.865428089821817 10.031389699904414 -2 -4 -4
817 1 2 -1.1794 4.578678836044473 3.1754103483743745 9.703853705630813 4 1 3
272 1 1 0.5897 2.757650628352615 2.140549869861216 7.118771112098118 -2 3 2
708 1 1 0.5897 2.716956418259739 6.092805140816031 9.424818329893451 -2 -4 -4
103 1 2 -1.1794 3.4373703726771314 5.887543815977856 7.521926560838947 -3 0 8
818 1 1 0.5897 3.8501143602926384 3.057653968413712 10.313417791880804 4 1 3
279 1 1 0.5897 1.5439926672240458 5.695440254976654 7.174226801019831 0 3 3
104 1 1 0.5897 4.046923381579088 5.230052460347446 7.186681526998142 -3 0 8
450 1 1 0.5897 0.843868940583315 6.618959246220211 9.67508518373558 5 2 -2
806 1 1 0.5897 4.463873485665104 3.2857334621589676 5.993282513514804 0 3 -3
180 1 1 0.5897 4.574272309932033 1.962603313715419 13.098162491413108 -6 2 -3
527 1 1 0.5897 1.6097576740277997 3.535588533134593 11.920356469450391 -4 -5 4
417 1 1 0.5897 2.6888801425734763 5.80042834617543 12.054481385549419 -2 -2 -1
315 1 1 0.5897 3.3713871544060416 5.9219679017891265 14.997515524338317 -1 -1 1
528 1 1 0.5897 3.01769309737662 3.4741960780965417 12.47346862091997 -4 -5 4
751 1 2 -1.1794 3.526733452087693 3.0063219697062924 14.3002839581598 5 0 -1
752 1 1 0.5897 2.7289478302707537 2.4826671690258237 14.374879528995404 5 0 -1
526 1 2 -1.1794 2.510100228242012 3.320595365081797 11.67658922315253 -4 -5 4
313 1 2 -1.1794 3.202358355370821 5.632228068614007 15.894020357668465 -1 -1 1
415 1 2 -1.1794 2.74890422036756 5.995709871965319 12.989633020808263 -2 -2 -1
753 1 1 0.5897 3.332509618979096 3.8096838998935927 14.783113179013407 5 0 -1
416 1 1 0.5897 2.154259126765848 6.734531647713332 13.119165164996781 -2 -2 -1
314 1 1 0.5897 2.300136793370123 5.901110741025864 16.06705234738341 -1 -1 1
190 1 2 -1.1794 2.22282637461523 6.190430519278308 19.815860296654343 7 6 -6
101 1 1 0.5897 4.590270521749661 3.739295513435756 18.935107933453907 6 -4 0
191 1 1 0.5897 2.263069276715104 5.325502055276759 19.407765843964143 7 6 -6
549 1 1 0.5897 2.9207788084741386 4.422141172873239 17.506196282380053 10 -3 6
727 1 2 -1.1794 0.9598069855579888 3.225380477238395 20.55570712451898 0 6 0
547 1 2 -1.1794 2.731869204963446 3.841635625955082 18.24347331405918 10 -3 6
111 1 1 0.5897 2.775139760690611 2.4607941798525035 20.94516203165025 -1 0 -6
548 1 1 0.5897 2.623057315518338 2.977364236093636 17.846685232248916 10 -3 6
109 1 2 -1.1794 3.377809944691118 1.7239423928037192 21.04561512901831 -1 0 -6
728 1 1 0.5897 0.8699184386152561 3.7277027972365437 19.74583225132548 0 6 0
110 1 1 0.5897 4.196863836563176 2.1222430286624947 21.340139839356283 -1 0 -6
93 1 1 0.5897 3.4620387766058762 6.644338623022153 21.125501968524894 3 -8 0
634 1 2 -1.1794 1.3053825467206672 10.685961009576104 1.3211187102050865 -7 -1 1
26 1 1 0.5897 4.418566543447565 11.224682436725196 3.5833383360156197 4 4 6
170 1 1 0.5897 3.2906402166163335 9.303348994380729 3.013338146410965 -4 4 -3
636 1 1 0.5897 2.022918645014924 10.11264568766243 1.5907361167805223 -7 -1 1
97 1 2 -1.1794 1.258209673751212 7.776753202201613 4.597595152560672 3 -4 8
92 1 1 0.5897 3.7671201307760454 7.564449456531222 1.3097261780151892 3 -8 1
25 1 2 -1.1794 3.508582384605503 10.928384186509591 3.6026751924086833 4 4 6
27 1 1 0.5897 3.1547766172233476 11.292654590690997 4.414074531426733 4 4 6
466 1 2 -1.1794 3.681018032106152 8.029125437065701 5.856403613422053 4 -4 7
169 1 2 -1.1794 2.9780023531043662 8.526780164849578 2.5491785599449575 -4 4 -3
171 1 1 0.5897 2.2433238023009743 8.211936216544961 3.0758471866917763 -4 4 -3
467 1 1 0.5897 4.475964554991531 7.946623827961771 5.329607871249264 4 -4 7
99 1 1 0.5897 1.4568543562685268 6.877042576492571 4.338051874281021 3 -4 8
468 1 1 0.5897 2.9661037562617394 7.973659857431387 5.222315512171194 4 -4 7
635 1 1 0.5897 0.7817567569706405 10.804014960117936 2.113660324780329 -7 -1 1
654 1 1 0.5897 0.6325312904248929 11.502812766423059 4.3488805193816304 0 0 -2
91 1 2 -1.1794 4.144466834839564 6.860353250758767 0.7823780403158409 3 -8 1
98 1 1 0.5897 0.9096861134298108 7.698914843362738 5.485690841578688 3 -4 8
742 1 2 -1.1794 2.0918445635464877 11.633686382534124 5.768418223591625 -1 0 2
618 1 1 0.5897 4.668100166249187 10.007150597971984 8.11177694855554 0 2 -2
625 1 2 -1.1794 3.4998531019710857 9.57377796781524 9.914319160442973 -6 -1 4
541 1 2 -1.1794 1.598464284023778 10.084335210388502 8.073188945554374 -8 0 3
617 1 1 0.5897 4.600968575039095 9.406284916647952 6.723841373009748 0 2 -2
543 1 1 0.5897 2.2659594097965474 9.727168241553835 8.658964473620918 -8 0 3
627 1 1 0.5897 3.6032624941952784 8.91689432585018 10.602838074112242 -6 -1 4
626 1 1 0.5897 4.208408271173937 10.198232395578227 10.070033813110536 -6 -1 4
542 1 1 0.5897 1.0560756280365577 9.33097365962239 7.8397123168829 -8 0 3
744 1 1 0.5897 1.8966271436018216 11.015339964724172 6.472544004204189 -1 0 2
292 1 2 -1.1794 2.0727629691826124 10.86479059667095 12.840063454062223 -2 0 1
713 1 1 0.5897 3.7778858133677 10.886421519892131 13.185519184858027 -5 -2 3
294 1 1 0.5897 2.1942690370108044 9.91653345722478 12.887834502433478 -2 0 1
330 1 1 0.5897 1.045402530437117 8.657813366721253 14.477049345461026 2 7 1
329 1 1 0.5897 2.5288398868840742 8.407435021593045 14.646286307830396 2 7 1
293 1 1 0.5897 1.7835571476159637 11.114202081689704 13.717788064029504 -2 0 1
328 1 2 -1.1794 1.8412795908906092 8.462084628487428 13.982572346712058 2 7 1
580 1 2 -1.1794 4.496859027622226 8.07661035045138 12.015257653647176 -4 -4 2
582 1 1 0.5897 4.136165232303387 7.500205594519697 12.688976166793823 -4 -4 2
37 1 2 -1.1794 3.873911408105931 8.838376289350819 15.903753721054107 -3 2 -4
39 1 1 0.5897 3.7980868621754675 9.77142344372497 16.103614808338932 -3 2 -4
712 1 2 -1.1794 4.731100290418533 10.803751737742225 13.157157909325887 -5 -2 3
38 1 1 0.5897 4.695532384568422 8.762888435018517 15.418492794169081 -3 2 -4
287 1 1 0.5897 3.1414369662870234 10.9512835644769 19.919624795742983 3 1 0
288 1 1 0.5897 2.5703989316281746 9.698410019684541 20.549027861049524 3 1 0
299 1 1 0.5897 3.9647121485520067 8.24947463387345 17.526074249144543 -4 -1 -1
1 1 2 -1.1794 0.9918867473805855 9.434193375001254 18.264572221773186 1 -4 6
300 1 1 0.5897 3.5190185798325677 8.785401844822317 18.869973355108236 -4 -1 -1
298 1 2 -1.1794 3.9118672850197536 8.018317328136552 18.453443886048667 -4 -1 -1
286 1 2 -1.1794 3.383706157522938 10.07170129794643 20.20926324948131 3 1 0
2 1 1 0.5897 1.089309753748223 9.792358465802206 17.382201857241192 1 -4 6
248 1 1 0.5897 0.9130408868100817 6.8174315879761185 21.219229594925913 -7 3 -2
192 1 1 0.5897 2.603021783383616 6.780694649558703 19.16524627185219 7 6 -6
40 1 2 -1.1794 3.5103140954368954 11.355824493329656 16.752802062625136 3 -3 3
113 1 1 0.5897 3.2842064451053945 15.268590242249363 5.163511437738996 -1 -2 0
660 1 1 0.5897 1.269697201063104 16.73760747946588 3.1524813177912105 1 -2 1
509 1 1 0.5897 1.0386986089811778 14.700380453431428 5.060056828388314 1 -1 3
114 1 1 0.5897 2.711996270807359 15.198321090879412 3.763666240942585 -1 -2 0
112 1 2 -1.1794 3.172597152137763 14.67583830506071 4.420255280796862 -1 -2 0
697 1 2 -1.1794 2.225790963419486 13.15192834601493 1.7654545666292405 -2 -1 -3
659 1 1 0.5897 1.988663000331469 16.281188060674125 1.9008105869640486 1 -2 1
699 1 1 0.5897 2.456566453508886 13.176963978887335 2.694090928095093 -2 -1 -3
658 1 2 -1.1794 1.6818327426443687 15.97157683357021 2.7530037918881765 1 -2 1
698 1 1 0.5897 2.0081954496144894 12.23515666609043 1.596875780122709 -2 -1 -3
585 1 1 0.5897 3.8536598182165074 13.542795858105457 1.1636612257956243 4 0 4
584 1 1 0.5897 4.633458402600578 14.772915582414441 0.750515579468086 4 0 4
59 1 1 0.5897 4.430030652076608 16.23152295164904 6.454617737872274 3 2 0
840 1 1 0.5897 3.234397183759895 13.15084272487524 8.366426105634416 -1 -3 -2
552 1 1 0.5897 0.5273138875999317 14.950320688017605 7.781090467043069 -1 2 -4
839 1 1 0.5897 4.047408048604753 13.067754556015895 7.092045932832932 -1 -3 -2
60 1 1 0.5897 3.460629993142214 15.29761884646159 7.147441993131157 3 2 0
447 1 1 0.5897 2.0772067830667105 15.53614565069479 9.396065683530695 0 -1 1
474 1 1 0.5897 4.462959846762098 16.017258221387685 9.77760672457251 1 1 0
58 1 2 -1.1794 3.5264315955424324 16.172628725382076 6.764968969098841 3 2 0
838 1 2 -1.1794 3.2303370583665485 13.417761771614122 7.447196021025149 -1 -3 -2
445 1 2 -1.1794 2.698179155887813 15.699491459377128 10.105964981351821 -1 -1 1
631 1 2 -1.1794 2.9927309961292226 12.869203531917366 10.607223013361933 4 5 5
743 1 1 0.5897 2.4666262660031686 12.393734957363495 6.213517511366991 -1 0 2
508 1 2 -1.1794 0.6094760765004282 14.72890189587708 5.91515666643901 1 -1 3
446 1 1 0.5897 2.6455622398999497 14.917510372171524 10.655507048162326 -1 -1 1
633 1 1 0.5897 2.4031546522016347 12.243950609118999 11.0287934951643 4 5 5
476 1 1 0.5897 1.4682555075275388 16.829759713235156 11.067387901005128 8 -1 -2
258 1 1 0.5897 1.1365666398501733 14.075297507351923 12.604436861548402 4 -4 -1
223 1 2 -1.1794 3.594353247119592 15.514182285824615 14.854367757179272 7 3 -6
267 1 1 0.5897 1.5338920382859216 13.051113743929315 14.7976972507433 0 -1 -1
256 1 2 -1.1794 1.3973752525633585 14.468323024460323 13.437353554927228 4 -4 -1
266 1 1 0.5897 0.5770438127994522 11.937907943856555 15.168041734748858 0 -1 -1
225 1 1 0.5897 2.979713496229546 15.113389981773286 14.239695482850694 7 3 -6
257 1 1 0.5897 0.6465162258074829 15.002619062611867 13.696152240438005 4 -4 -1
265 1 2 -1.1794 1.5069383776065801 12.125518062578697 15.040152394700256 0 -1 -1
224 1 1 0.5897 3.292489175726771 16.418469607330632 14.940310108030333 7 3 -6
632 1 1 0.5897 3.7505904910633845 12.915020919620623 11.190138544800138 4 5 5
710 1 1 0.5897 2.922600182422319 14.594451581743208 16.15938633914513 -5 -2 -5
746 1 1 0.5897 4.759510800180197 13.51465293128351 13.199193712324513 1 7 -9
42 1 1 0.5897 2.9126744341350994 11.834007766897233 16.17795024873898 3 -3 3
72 1 1 0.5897 1.5267188550162878 13.180863727671042 19.65359509916476 3 4 -9
738 1 1 0.5897 4.64428457191384 13.09211530844326 19.626612720928804 -1 0 2
709 1 2 -1.1794 2.464102474639269 14.25309184419195 16.92717797849842 -5 -2 -5
733 1 2 -1.1794 2.6215565281901325 16.181488202855462 18.766938938719022 3 0 -4
711 1 1 0.5897 2.676625226623815 14.869981844007473 17.627556639927384 -5 -2 -5
71 1 1 0.5897 2.1581863614184003 13.07149203420532 18.282026385260494 3 4 -9
269 1 1 0.5897 0.7620206715176803 14.202060513178045 16.779391872455378 -1 2 7
331 1 2 -1.1794 0.9604101933665392 14.657420648174302 20.78505200211542 -1 -1 -5
70 1 2 -1.1794 2.0337897630615984 12.588126716489736 19.098807827451992 3 4 -9
41 1 1 0.5897 3.578443262088146 11.90199507666333 17.535937204860936 3 -3 3
583 1 2 -1.1794 4.526431370024347 13.842581800454404 21.530928554973613 4 0 3
735 1 1 0.5897 2.613500881727661 16.301001597694007 19.716662132982826 3 0 -4
332 1 1 0.5897 1.3232937837537286 14.190835130906702 21.537952044449668 -1 -1 -5
734 1 1 0.5897 3.2161713368297074 16.85893503873158 18.44482703907334 3 0 -4
802 1 2 -1.1794 2.579880970132621 19.014693021506687 5.078140774530874 7 -1 -1
595 1 2 -1.1794 2.698483130623515 21.31998113147155 3.5362352083716435 3 -7 1
168 1 1 0.5897 4.043206604154625 16.914229974864632 0.7872174435084845 -2 3 4
123 1 1 0.5897 4.348837875005615 19.793685360432107 1.230950755258419 0 1 -1
810 1 1 0.5897 0.9727513032688695 21.808930895309018 3.0898026458977816 5 -4 -2
803 1 1 0.5897 3.326014486091448 18.539766709051854 4.712095304400697 7 -1 -1
432 1 1 0.5897 1.577278631409359 19.71158651088691 1.2597690861739932 -5 -1 -4
133 1 2 -1.1794 4.7433009836310065 17.667474289841692 4.136841951551006 -3 -5 1
596 1 1 0.5897 3.48278258598137 21.510406461082866 3.0215954393165947 4 -7 1
597 1 1 0.5897 2.941601455592468 20.566614773801625 4.074363654029844 3 -7 1
430 1 2 -1.1794 2.291274646719211 19.640418731400366 0.6262116098475681 -5 -1 -4
371 1 1 0.5897 0.8631242714721918 18.473356857914965 4.868418553949043 4 7 0
167 1 1 0.5897 2.892176656702596 17.883255821381475 0.6197937137215206 -2 3 4
48 1 1 0.5897 0.7581625432380046 18.149241805374878 8.126342068218591 2 -4 -2
28 1 2 -1.1794 3.6480295764114024 19.117158736887824 10.440638613147803 -9 1 7
775 1 2 -1.1794 2.6450391421044888 18.478408103294527 7.7295750050300756 5 -3 3
273 1 1 0.5897 3.6674832289668395 21.192975527586526 7.259818407022758 -2 2 2
804 1 1 0.5897 2.7335635982128603 19.011681830199876 6.022936718915563 7 -1 -1
777 1 1 0.5897 3.0411282745452537 18.67592743903984 8.578307398736083 5 -3 3
438 1 1 0.5897 1.4224941025642133 21.470219658833607 7.825494661761602 -4 7 3
29 1 1 0.5897 3.027968443979275 19.71497425899019 10.858271964809603 -9 1 7
776 1 1 0.5897 3.0575654317235537 17.658741511050984 7.457149577211755 5 -3 3
30 1 1 0.5897 4.3894529491099465 19.67168023527823 10.197618351115185 -9 1 7
271 1 2 -1.1794 3.2088036691189856 21.859335879534008 7.771497179967979 -2 2 2
377 1 1 0.5897 1.8095603735559866 20.613825871782133 12.443909194945237 2 4 3
22 1 2 -1.1794 2.66708888462386 18.07739852343888 15.392100253818924 -6 4 0
297 1 1 0.5897 1.366854844389339 20.5061855240477 14.533917477257981 1 2 1
778 1 2 -1.1794 0.8454514983243471 19.03213763299712 13.702661728016741 -2 -2 -2
24 1 1 0.5897 2.1009170920227227 18.388950970930843 14.685940812686658 -6 4 0
295 1 2 -1.1794 1.575993860830563 21.43060166917332 14.667919570473028 1 2 1
23 1 1 0.5897 2.1117524064862128 18.09744567355724 16.171490084874364 -6 4 0
779 1 1 0.5897 0.7062514363551018 18.42088142238864 12.979316087554663 -2 -2 -2
378 1 1 0.5897 1.8678617817121042 21.8643638991891 11.592630726670947 2 4 3
376 1 2 -1.1794 1.8635730453987838 20.908907645947572 11.534925940366888 2 4 3
161 1 1 0.5897 4.406658343774263 18.32147101404967 15.582881938812987 1 5 2
296 1 1 0.5897 0.7294995696259685 21.847170198329827 14.829656914041832 1 2 1
318 1 1 0.5897 4.37548494821358 18.96324527991861 11.899857473824769 -5 -3 -2
475 1 2 -1.1794 0.7743074266982508 17.214026104189717 11.603127666767238 8 -1 -2
316 1 2 -1.1794 4.643857167898548 18.91197440210879 12.817244817975215 -5 -3 -2
317 1 1 0.5897 4.706888395483016 19.82423116562363 13.100201016388322 -5 -3 -3
166 1 2 -1.1794 3.124304790409303 16.959675931992496 21.501661662453834 -2 3 3
79 1 2 -1.1794 2.788290823103008 21.5139559325412 17.195879281478504 1 -1 -2
854 1 1 0.5897 1.221646544697899 18.843348999586752 18.085109071487935 -1 3 -1
375 1 1 0.5897 1.6217875096364514 20.00593242040255 19.93289712423904 4 6 -2
855 1 1 0.5897 1.3907233570050006 17.339147837017485 18.111564488787472 -1 3 -1
373 1 2 -1.1794 1.1793309800934069 20.34376017894349 19.154217137391477 4 6 -2
853 1 2 -1.1794 1.0416825712627902 18.052350196188804 17.57699715691742 -1 3 -1
374 1 1 0.5897 1.8725115758559403 20.77021946747014 18.650352010023326 4 6 -2
80 1 1 0.5897 3.706037616388517 21.52902820517604 16.924239983864055 1 -1 -2
431 1 1 0.5897 2.507903758516512 20.546410668212843 21.38461438775171 -5 -1 -5
81 1 1 0.5897 2.298545197677716 21.403970606061982 16.38083574806005 1 -1 -2
309 1 1 0.5897 7.350119446125161 4.50863577086262 2.3172469837369665 1 5 -1
116 1 1 0.5897 5.727527413378303 2.3525389378822346 2.1837541378985788 0 -1 3
108 1 1 0.5897 5.172354064283989 6.0599239849816415 3.4009703224723125 -3 1 5
139 1 2 -1.1794 7.960256967342146 2.269498729495035 4.707084539581786 -2 -1 0
218 1 1 0.5897 7.407596825095315 2.335669366242975 0.704803440386556 4 2 0
307 1 2 -1.1794 7.598790428204979 4.570523859914953 3.2395257196314398 1 5 -1
308 1 1 0.5897 6.874176344783743 5.04026830191922 3.6524662835724646 1 5 -1
141 1 1 0.5897 8.345466451011031 2.6420615429248304 5.500211068785576 -2 -1 0
140 1 1 0.5897 7.808748711342438 3.023303816363261 4.1369420040285 -2 -1 0
115 1 2 -1.1794 4.830397563455695 2.521139917645267 2.471818853327407 0 -1 3
638 1 1 0.5897 8.33019655921457 6.481500794965943 5.597331062438577 -6 1 3
117 1 1 0.5897 4.82292166546069 3.4501636382316283 2.702254915172631 0 -1 3
398 1 1 0.5897 8.692568355874952 4.772633018638703 10.385001882134882 4 6 -8
302 1 1 0.5897 6.853960385182579 3.0848698083550667 9.928780838808878 0 3 4
397 1 2 -1.1794 9.019615720109382 5.6534514291873394 10.567861674892722 4 6 -8
319 1 2 -1.1794 5.614772895790249 5.722423213977055 10.901538910033578 -1 -1 -1
530 1 1 0.5897 7.82474813835785 6.414020940866516 9.335809535671169 -4 2 -6
805 1 2 -1.1794 5.364300160765071 3.5384036970617263 6.197458775043503 0 3 -3
807 1 1 0.5897 5.684310082770234 2.842936993474033 6.7720633330615865 0 3 -3
301 1 2 -1.1794 7.747398734481881 3.2911903416540977 10.203471521528845 0 3 4
356 1 1 0.5897 8.02459919538125 4.6697547562022566 6.69745761699911 3 0 -1
357 1 1 0.5897 6.5464818726772425 4.806083911363328 6.399957425792433 3 0 -1
321 1 1 0.5897 6.075978796797636 6.267831169036257 10.264250748570038 -1 -1 -1
355 1 2 -1.1794 7.367877414461845 5.297550908071079 6.396080606818884 3 0 -1
531 1 1 0.5897 7.093644888839264 6.267471452800022 8.018252130650797 -4 2 -6
320 1 1 0.5897 5.169268064027389 5.060357520756845 10.372856849494934 -1 -1 -1
195 1 1 0.5897 8.830216161340632 2.0098676201653514 13.128889649747874 -1 -3 4
173 1 1 0.5897 6.750975739174769 4.235862109174285 14.197778292603726 6 5 -3
193 1 2 -1.1794 8.048945726089098 1.7577298261473793 12.636594659988154 -1 -3 4
174 1 1 0.5897 6.166870581445579 4.401787110331657 15.584579887156128 6 5 -3
690 1 1 0.5897 6.569512968455951 5.8637252045270225 12.370648164468017 4 -1 2
172 1 2 -1.1794 6.439146299697309 3.736482092147388 14.95253438598646 6 5 -3
688 1 2 -1.1794 7.072613058756338 5.8568261774846 13.184945173097093 4 -1 2
44 1 1 0.5897 5.7493547147009085 1.7801083295971425 15.178421250422558 0 9 -2
587 1 1 0.5897 8.003575581531004 3.4462223708100996 16.038052808675165 0 2 1
689 1 1 0.5897 6.855794792874159 6.687637917016782 13.608042482466647 4 -1 2
303 1 1 0.5897 7.78361280348475 3.024758856827705 11.122156363236181 0 3 4
102 1 1 0.5897 5.642681455495 4.661457392302853 18.357135548989064 6 -4 0
463 1 2 -1.1794 7.155237725879753 4.241096797741935 21.344053546169917 4 2 -2
187 1 2 -1.1794 8.88536891922644 5.025308351308665 18.47633220907756 0 5 3
465 1 1 0.5897 7.858570158135756 4.821313683918199 21.052654867466593 4 2 -2
588 1 1 0.5897 8.918172588924364 3.6781604204609533 17.22195777354805 0 2 1
189 1 1 0.5897 9.064322682782379 5.712117827786691 19.118599051827097 0 5 3
464 1 1 0.5897 6.467090314075437 4.349671946589157 20.687610708195812 4 2 -2
586 1 2 -1.1794 8.74504373766574 3.064582903213816 16.507963202702264 0 2 1
95 1 1 0.5897 6.180506436136134 2.418925220224378 18.75617917398238 -4 1 1
100 1 2 -1.1794 5.473821027053061 4.0722725122992 19.092430097957298 6 -4 0
640 1 2 -1.1794 5.969676208938603 5.631647151661287 16.92361825916982 4 2 -5
641 1 1 0.5897 6.439404724133844 6.415160305333143 17.209495510849173 4 2 -5
642 1 1 0.5897 5.094241763776213 5.945811322936037 16.697435885786767 4 2 -5
511 1 2 -1.1794 9.098663590979209 6.097447534423885 21.083538656633912 1 1 -5
188 1 1 0.5897 9.10015860791522 4.210397370601026 18.93024162606344 0 5 3
363 1 1 0.5897 6.457494671203434 9.128764090044678 1.3631619500640553 4 -5 -1
362 1 1 0.5897 6.632267199873682 9.856942871233166 2.678885016645069 4 -5 -1
361 1 2 -1.1794 6.7672247653750075 9.006614264549468 2.2605970091764545 4 -5 -1
703 1 2 -1.1794 8.088408966212189 10.079585296022493 5.115900437985246 1 -3 -2
500 1 1 0.5897 6.276034960497302 7.945863191588869 3.5533935813645448 -1 -1 -2
704 1 1 0.5897 8.112211659848775 9.137299986415186 5.282551268607768 1 -3 -2
637 1 2 -1.1794 8.63936010268144 7.289375913292638 5.187454365132749 -6 1 3
386 1 1 0.5897 8.295377548027513 9.04494717475172 1.3157767946545498 -5 -2 1
499 1 2 -1.1794 6.153829599864852 7.3441574409860335 4.287738014172403 -1 -1 -2
763 1 2 -1.1794 6.212933057650624 11.480141007428225 3.659433772523804 -5 -1 -2
501 1 1 0.5897 7.03027147174302 7.234605496314173 4.656663804573478 -1 -1 -2
764 1 1 0.5897 6.796058408952958 11.178172554501096 4.355876521205208 -5 -1 -2
846 1 1 0.5897 7.979965628156077 10.430697396564977 8.279211556957172 -5 1 2
529 1 2 -1.1794 7.122016420923462 6.800174921069861 8.813035656255973 -4 2 -6
164 1 1 0.5897 7.501591333399213 8.573901897966682 9.438779040557225 -4 1 -1
163 1 2 -1.1794 7.70235346785049 9.399460456683608 9.87970108542792 -4 1 -1
705 1 1 0.5897 8.100330120731535 10.477617113813732 5.986340225896222 1 -3 -2
616 1 2 -1.1794 5.0430282673241065 10.084579579946766 7.234466029053575 0 2 -2
199 1 2 -1.1794 5.718812545378604 11.212178515068606 10.613455833016095 4 -5 -3
201 1 1 0.5897 6.358896970862662 10.55043944838044 10.35139119114524 4 -5 -3
844 1 2 -1.1794 8.03588004783644 11.168702016077296 7.672186262700223 -5 1 2
165 1 1 0.5897 8.045910519620332 9.13790759551798 10.73399494450319 -4 1 -1
732 1 1 0.5897 5.4560539722596015 11.621104305963552 6.609353887712884 1 5 -3
231 1 1 0.5897 5.906240777580631 8.566603170916398 13.272661946301717 2 7 0
230 1 1 0.5897 7.088532845278222 8.992334911804814 14.116964292843694 2 7 0
289 1 2 -1.1794 7.972495983609429 11.152047361136564 14.671179331637207 -9 -5 -10
229 1 2 -1.1794 6.374478736984162 8.355900590049895 14.080507588074532 2 7 0
290 1 1 0.5897 8.748598562465862 10.902161852493588 15.172700141565477 -9 -5 -10
714 1 1 0.5897 4.941839223781363 10.774948466849143 12.223879424120469 -5 -2 3
291 1 1 0.5897 7.382278694216827 11.537661027165468 15.318622667145393 -9 -5 -10
667 1 2 -1.1794 8.75608993908146 8.253025453426304 12.214445221873515 -8 -3 -1
581 1 1 0.5897 4.874338646758363 7.481651894740891 11.367359969591167 -4 -4 2
213 1 1 0.5897 8.40304570497338 7.903653766970676 15.268604872724996 3 2 2
668 1 1 0.5897 9.03422625017228 8.157642751838207 13.125370832467452 -8 -3 -2
669 1 1 0.5897 8.70877000649273 7.356344813151351 11.882822668053981 -8 -3 -1
17 1 1 0.5897 7.895637519481343 11.780397734510245 13.132214253879559 2 3 -1
785 1 1 0.5897 7.611241497400662 11.34762729824283 17.56618224369882 5 6 1
264 1 1 0.5897 6.302155109648765 7.392196761853897 19.394983933748968 -1 -3 5
283 1 2 -1.1794 8.588193474342365 11.773061970003797 19.20690237845487 4 3 -2
216 1 1 0.5897 6.1245365938898555 8.717537321351044 20.446428981039027 -2 3 1
612 1 1 0.5897 6.740964883721798 8.982993264405408 17.434417337144446 2 5 -2
610 1 2 -1.1794 7.060169973608683 8.093479533715122 17.586474088539852 2 5 -2
786 1 1 0.5897 6.17207160942438 11.639326932319848 17.934439060044355 5 6 1
784 1 2 -1.1794 6.709886665135338 11.138006255926653 17.32151779001959 5 6 1
214 1 2 -1.1794 5.978123594830983 9.61464185006855 20.746463295083643 -2 3 1
263 1 1 0.5897 5.762076270733346 6.960681229469203 20.741843465494995 -1 -3 5
262 1 2 -1.1794 6.5759719023675505 7.176085939369452 20.286396783980308 -1 -3 5
215 1 1 0.5897 5.030447996279183 9.7358084082863 20.687359344404513 -2 3 1
611 1 1 0.5897 7.893872590303667 8.212198593215225 18.041540619958965 2 5 -2
815 1 1 0.5897 6.427898731400327 11.231346082628939 21.2487395222251 -4 5 -7
353 1 1 0.5897 8.980484359414183 9.878402467642942 19.132487179951376 7 5 -5
513 1 1 0.5897 8.432864952120372 6.778108297839612 20.98530456413385 1 1 -5
407 1 1 0.5897 8.25805939573944 12.987314046374772 4.351469563230667 -4 -2 3
408 1 1 0.5897 8.355812473427356 14.36949482069707 4.9613574843309785 -4 -2 3
365 1 1 0.5897 4.825915452780834 14.416319758375568 3.7083384420358723 -1 3 2
661 1 2 -1.1794 5.799566813140986 16.392761937283268 1.2637594832293422 -2 -4 -1
406 1 2 -1.1794 8.191050556271858 13.45343369582374 5.184831642330084 -4 -2 3
422 1 1 0.5897 7.750938836732306 12.40256930669203 1.9908565881166969 -2 2 6
364 1 2 -1.1794 5.738769236336614 14.204030750850588 3.513719255758696 -1 3 2
423 1 1 0.5897 8.725760773005844 13.560233526068183 1.9528704716290357 -2 2 6
203 1 1 0.5897 6.302148993054921 15.026085675607252 5.26658634997275 -3 2 2
421 1 2 -1.1794 8.51986869252223 12.759553083834723 2.4353188754684973 -2 2 6
765 1 1 0.5897 6.090909705313802 12.412931529974333 3.8362132296244313 -5 -1 -2
787 1 2 -1.1794 8.97214721631197 16.03581191964475 4.367248095300225 2 -5 5
366 1 1 0.5897 5.988609257963791 14.824219287515639 2.8287482961858594 -1 3 2
788 1 1 0.5897 9.007801200682055 16.782194207916877 4.965479866823651 2 -5 5
619 1 2 -1.1794 9.075480560086305 14.91105738365108 0.8146441874863221 -1 -5 5
472 1 2 -1.1794 5.359104993595666 16.03080360395071 9.441478897811887 1 1 0
490 1 2 -1.1794 5.972575514593686 13.343291220993954 9.007985841413912 -1 2 3
492 1 1 0.5897 5.594881831791751 13.188651405051319 8.142143613180078 -1 2 3
204 1 1 0.5897 6.7406411790455305 15.402351519987905 6.665893971073484 -3 2 2
322 1 2 -1.1794 7.698971468008414 16.49512355861406 10.791749088694777 5 -2 -4
153 1 1 0.5897 8.018014177941705 13.586533497016676 9.391901772548678 -1 -3 0
457 1 2 -1.1794 8.085832691499801 15.592160139025136 7.9727888042451 1 1 -2
491 1 1 0.5897 5.690544089224052 14.228553280122664 9.238218745332928 -1 2 3
459 1 1 0.5897 8.904381586037438 15.855568232853964 7.552262602743348 1 1 -2
323 1 1 0.5897 6.810293763381983 16.187636059509117 10.612805971185571 5 -2 -4
458 1 1 0.5897 8.066614969474191 16.087261343096714 8.791813537216713 1 1 -2
730 1 2 -1.1794 5.538744920594516 12.561506735814604 6.451054078318949 1 5 -3
151 1 2 -1.1794 8.86958745113033 13.223918323551613 9.147790956796584 -1 -3 0
202 1 2 -1.1794 6.190991742374437 15.697332952753118 5.939869718209003 -3 2 2
200 1 1 0.5897 5.976030095354213 11.998687548926583 10.132311103835073 4 -5 -3
473 1 1 0.5897 5.4068992262481155 16.830571087208824 8.917697994658122 1 1 0
845 1 1 0.5897 8.239441024480511 11.92130560329633 8.227539115052174 -5 1 2
731 1 1 0.5897 6.4595575277520885 12.686129566589187 6.221249912912983 1 5 -3
152 1 1 0.5897 9.081655113466562 13.64813775685342 8.316338201562452 -1 -3 -1
6 1 1 0.5897 6.653779569040874 13.820851728072995 15.314377320291118 1 -1 -3
859 1 2 -1.1794 8.503961662629457 14.611241739043791 12.911898046392134 -2 -4 4
606 1 1 0.5897 4.9643003063445095 16.177653626654823 13.952721880008783 -5 -2 -1
860 1 1 0.5897 8.137136655149181 14.654485538589608 13.794972248143 -2 -4 4
604 1 2 -1.1794 5.661328508313922 16.47121395282724 13.366023407811898 -5 -2 -1
324 1 1 0.5897 7.962401478098191 16.021688071798536 11.580881847027554 5 -2 -4
4 1 2 -1.1794 7.308727215610233 14.46729886573446 15.577830618992321 1 -1 -3
861 1 1 0.5897 8.230042877066795 13.756283494286043 12.579829092462312 -2 -4 4
602 1 1 0.5897 7.643302526005582 16.4270156102387 15.631135724232252 5 4 0
754 1 2 -1.1794 5.331905178293649 12.62280873959048 14.99239233134993 -5 -4 0
18 1 1 0.5897 7.018599107551474 12.028104492230987 11.923344580392817 2 3 -1
16 1 2 -1.1794 7.926183250256469 12.078912931683737 12.223255230097566 2 3 -1
5 1 1 0.5897 7.911196249138261 13.98238029668113 16.141872674176746 1 -1 -3
747 1 1 0.5897 4.999088701741741 14.889505094792684 12.612409738958984 1 7 -9
756 1 1 0.5897 5.295053246673433 11.853474139092432 14.424053285645329 -5 -4 0
745 1 2 -1.1794 4.929538642906915 13.965525293619727 12.37210076275492 1 7 -9
755 1 1 0.5897 4.883478116614007 12.35122491101569 15.793283212601017 -5 -4 0
814 1 2 -1.1794 6.821059898674234 12.099500618294252 21.338094373648232 -4 5 -7
281 1 1 0.5897 5.402038439037022 16.16428858877097 17.89568785248605 1 0 -1
620 1 1 0.5897 8.59229440426504 15.457634929568117 21.17357899783496 -1 -5 4
157 1 2 -1.1794 7.706509063288808 16.14562914619374 19.73144295856485 1 2 0
159 1 1 0.5897 7.091611659351043 15.777559524403875 19.096865711225057 1 2 0
282 1 1 0.5897 6.322528075038285 15.309569680053686 17.05065916806872 1 0 -1
280 1 2 -1.1794 5.902632262036617 15.34852484099166 17.90997049761608 1 0 -1
737 1 1 0.5897 5.341116946991394 13.699072733679444 18.427468969839083 -1 0 2
662 1 1 0.5897 6.345118938339349 16.008431842250857 21.55614560982847 -2 -4 -2
736 1 2 -1.1794 5.023817998029625 12.866487970878278 18.77730010901172 -1 0 2
816 1 1 0.5897 6.0747855846475085 12.69655420239768 21.39155595168223 -4 5 -7
284 1 1 0.5897 7.822363362411859 12.044842897594641 19.71276488451877 4 3 -2
158 1 1 0.5897 8.221196424249078 16.776876684748817 19.228575943654867 1 2 0
219 1 1 0.5897 7.716327221221424 21.119888307054786 0.894068585131805 4 1 0
425 1 1 0.5897 7.155214798471854 21.115606359008424 4.49317662260719 12 -7 2