LAMMPS data file via write_data, version 30 Jul 2021, timestep = 16250000

1008 atoms
2 atom types
672 bonds
1 bond types
336 angles
1 angle types

-3.200588508136091 14.810587507690299 xlo xhi
0.04202155824372511 22.53797744175024 ylo yhi
-0.05931420960864564 19.289312209610458 zlo zhi
-0.2508249080375396 -6.388549223787791 0.27009017151284875 xy xz yz

Masses

1 1.008
2 15.999

Pair Coeffs # lj/cut/tip4p/long/omp

1 0 0
2 0.21084 3.1668

Bond Coeffs # harmonic/omp

1 450 0.9572

Angle Coeffs # harmonic/omp

1 55 104.52

Atoms # full

21 7 1 0.5897 1.23574242028511 2.224667847570997 1.0343257987805508 0 0 0
55 19 2 -1.1794 -0.6187586661691675 4.34061649026573 3.5496917161406585 0 0 0
56 19 1 0.5897 -1.352514552283895 3.893013849628327 3.1282126184158465 0 0 0
57 19 1 0.5897 0.10726330290899888 4.243588337219721 2.9336204627711684 0 0 0
121 41 2 -1.1794 -2.4772371888865674 2.721345633482544 2.5099584334561715 1 0 0
122 41 1 0.5897 -2.608901722711973 2.3172600404323984 1.6521893673522177 1 0 0
86 29 1 0.5897 -2.514275919496122 1.567380462597747 3.9410897719115026 1 0 0
31 11 2 -1.1794 1.4162181971844667 1.1280714899984343 2.432166251545685 0 0 0
32 11 1 0.5897 1.1979393712077542 1.515299574038378 3.2799076765541653 0 0 0
123 41 1 0.5897 -3.3358548389694396 3.074397622359322 2.743123585820179 1 0 0
46 16 2 -1.1794 1.866660896497816 4.847606007208239 2.254475064194019 0 0 0
52 18 2 -1.1794 3.926663158010787 3.1321523652665766 3.3715943825119035 0 0 0
158 53 1 0.5897 -4.367525061410533 4.483862183757566 4.48706537866073 1 0 0
33 11 1 0.5897 0.7477996404219991 0.4566116758451141 2.295570366421798 0 0 0
603 201 1 0.5897 -0.05176282061794879 3.9581416561158034 0.25271736968180253 1 0 1
53 18 1 0.5897 4.764438889763916 2.968972222774231 2.9384337219937624 0 0 0
602 201 1 0.5897 -0.5648899131049299 5.278754592335307 0.7865172277011424 1 0 1
482 161 1 0.5897 -1.1628967335187683 0.19585659327023897 1.1400925466672227 1 1 0
71 24 1 0.5897 3.1029894435926186 0.8895779038751717 1.7145971546623127 0 0 0
78 26 1 0.5897 -0.04345729990318237 2.8189349858969055 4.402592274978699 0 0 0
54 18 1 0.5897 3.4065722248919617 3.6018436450281306 2.7193422978722404 0 0 0
101 34 1 0.5897 -2.663217088094349 4.364010305102456 0.30208613285699853 1 0 0
70 24 2 -1.1794 3.828125500853054 0.5337965385404081 1.2010709101602657 0 0 0
527 176 1 0.5897 4.015105824619689 1.982196435175539 0.042142742267053016 0 0 1
47 16 1 0.5897 2.008196853303718 5.296718013232104 1.4210893392714543 0 0 0
601 201 2 -1.1794 -0.8165162212873169 4.533816068842976 0.2404898454155307 1 0 1
6 2 1 0.5897 3.862789105773876 1.6191657926733825 4.266619554833005 0 0 0
16 6 2 -1.1794 5.556612134566699 4.81474813067093 0.2947676566534345 0 0 0
19 7 2 -1.1794 1.1669226297970337 2.6995289231864152 0.2059764941087341 0 0 0
163 55 2 -1.1794 -2.19452876005211 1.3332066126700002 0.18882453820049716 1 0 0
48 16 1 0.5897 1.999657642639189 5.524954207138467 2.9177201630731666 0 0 0
114 38 1 0.5897 -3.411112550856712 5.664033165671542 1.6556957246041366 1 0 0
76 26 2 -1.1794 0.6044821591522407 2.1786252211243036 4.696984233490788 0 0 0
5 2 1 0.5897 3.2778329994243887 0.31614741968998233 4.768612234723433 0 0 0
134 45 1 0.5897 -2.2021297481430966 2.5601950654226067 6.05061486972443 1 0 0
135 45 1 0.5897 -1.3999207968494276 3.695826916945375 6.649834989832992 1 0 0
60 20 1 0.5897 2.9837314279154192 3.5374715385837625 6.6405314273508225 0 0 0
34 12 2 -1.1794 0.27767537086721505 1.4058134958028226 7.19708804171119 0 0 0
35 12 1 0.5897 0.49817730799799254 1.986444063784186 7.925545367247286 0 0 0
36 12 1 0.5897 -0.4245022078015084 0.8508997921738758 7.536445967077282 0 0 0
22 8 2 -1.1794 0.5387598893827459 3.0004049532197388 9.430088999085266 0 0 0
44 15 1 0.5897 -0.1738372598393294 5.428938973214105 7.837495352427754 0 0 0
124 42 2 -1.1794 -4.940625501332645 2.6120139434229426 7.608965015625322 1 0 0
58 20 2 -1.1794 2.2970629199452777 3.946982360004161 6.113957117684558 0 0 0
59 20 1 0.5897 1.992259155764791 3.249908295017896 5.532928708872011 0 0 0
4 2 2 -1.1794 3.937754245640896 0.9784720033280924 4.973941253942104 0 0 0
43 15 2 -1.1794 -0.1445989876399958 5.0215670056699615 6.971743491650055 0 0 0
126 42 1 0.5897 -4.0341142698902575 2.793539142634213 7.361167193313553 1 0 0
45 15 1 0.5897 0.7588387427877197 4.719016704110788 6.879424648252918 0 0 0
133 45 2 -1.1794 -2.2734099479436907 3.3043596620003783 6.648511970138584 1 0 0
90 30 1 0.5897 -5.224528824529856 1.51729564420788 6.121401644688593 1 0 0
159 53 1 0.5897 -3.1731500993855684 4.361620459860072 5.409625008049578 1 0 0
67 23 2 -1.1794 -2.2232035316310546 0.5393619061121183 8.227344214722393 0 0 0
669 223 1 0.5897 -5.209927407637554 1.8183540512637961 9.206144468195419 1 0 0
77 26 1 0.5897 0.3025282051868534 1.9134361729024179 5.565710494811639 0 0 0
69 23 1 0.5897 -2.3659261064151265 1.3725440724559588 8.676562953442748 0 0 0
87 29 1 0.5897 -3.4349857382332605 1.22025398138491 5.091436602439733 1 0 0
98 33 1 0.5897 -3.8933647542603214 5.374164193562801 8.58433879362877 1 0 0
401 134 1 0.5897 2.4852424739109615 0.3716110399696416 8.960799804450756 0 1 0
522 174 1 0.5897 2.304071218204725 5.681151193924966 9.048526037752822 0 0 0
125 42 1 0.5897 -5.436258547864033 3.3571427463592998 7.268930194266352 1 0 0
97 33 2 -1.1794 -3.7749402806327006 5.059621114187358 9.48068159261189 1 0 0
157 53 2 -1.1794 -3.6789662405808192 4.999987027032771 4.906464605909512 1 0 0
68 23 1 0.5897 -3.091706941904932 0.2814240799330196 7.918274375529187 0 0 0
24 8 1 0.5897 1.1093052494930227 3.757308814083145 9.563875185165271 0 0 0
11 4 1 0.5897 2.45125190468657 5.684050420390703 5.149772743706042 0 0 0
525 175 1 0.5897 -1.3239910776533375 3.0364279791248427 9.577961910983415 0 0 0
85 29 2 -1.1794 -2.512243015631807 1.2311122180370009 4.837336513571939 1 0 0
23 8 1 0.5897 0.8281920109174088 2.3633063464486455 10.083371230772428 0 0 0
627 209 1 0.5897 -6.697721657838761 3.109000843830983 12.24167159013045 1 0 0
560 187 1 0.5897 -4.503311479161033 3.9610875641977947 12.600292935511897 0 0 0
575 192 1 0.5897 1.5610516075876948 0.41178636348088454 11.68123025911963 0 0 0
606 202 1 0.5897 -5.825198198962294 4.852914677163806 9.810683649915457 1 0 0
550 184 2 -1.1794 -1.3669822290985874 5.263863690218109 12.162677956145945 0 0 0
574 192 2 -1.1794 0.8987143255625014 0.9031202159977832 11.194993392385882 0 0 0
520 174 2 -1.1794 2.333999799581269 5.030181313867784 9.749759195870553 0 0 0
535 179 2 -1.1794 -1.645262986353437 1.2482530134970249 12.392078847973611 0 0 0
536 179 1 0.5897 -2.092312318554881 1.5958569478235187 13.163754311900185 0 0 0
537 179 1 0.5897 -1.847802567546307 1.873080089083167 11.695649677650932 0 0 0
576 192 1 0.5897 0.18514922492223107 1.0278498002735201 11.820575548885522 0 0 0
625 209 2 -1.1794 -5.8210806635225305 2.7695502555326423 12.061333112142316 1 0 0
556 186 2 -1.1794 0.7409708160639328 3.7124223527506097 12.916271888888174 0 0 0
561 187 1 0.5897 -3.4261276517860217 3.736535618289085 13.64041610769915 0 0 0
668 223 1 0.5897 -5.628945092408012 1.5888155224265137 10.642656670722094 1 0 0
558 186 1 0.5897 -0.11538694924042314 4.095867417226915 12.726431360312025 0 0 0
559 187 2 -1.1794 -3.853870429465517 4.424084193187451 13.12969910804639 0 0 0
551 184 1 0.5897 -1.1422349281727477 5.8342638035127425 12.897891717600569 0 0 0
552 184 1 0.5897 -2.2889695845891866 5.046738689666387 12.300361581830325 0 0 0
626 209 1 0.5897 -5.641726846611889 2.1703354246509976 12.786038423356771 1 0 0
557 186 1 0.5897 0.5664993583424565 3.0579398636614563 13.592668850315151 0 0 0
667 223 2 -1.1794 -5.352691561825464 1.126028036328001 9.851605919526403 1 0 0
523 175 2 -1.1794 -2.1297806750704766 2.7606586965339064 10.014692159692567 0 0 0
589 197 2 -1.1794 -5.536525054417822 1.2423096671399723 14.349438940024658 1 0 0
524 175 1 0.5897 -2.7375196089090945 3.48765547684372 9.878328857498513 0 0 0
986 329 1 0.5897 -4.00325547075167 0.20037850675440108 10.722634077286115 1 1 0
521 174 1 0.5897 2.011810963022601 5.494674042798493 10.522196971935339 0 0 0
165 55 1 0.5897 -9.212432406091157 1.03603813405627 19.0919013949323 1 0 -1
581 194 1 0.5897 -2.920755399629093 2.061751157051176 15.328902646249006 0 0 0
582 194 1 0.5897 -1.918740088167075 3.125427505109063 14.933524632819097 0 0 0
571 191 2 -1.1794 -5.8470023423546635 0.6055197424954156 17.833723199536173 0 0 0
580 194 2 -1.1794 -2.643082191283935 2.602565007754031 14.589559312365186 0 0 0
563 188 1 0.5897 -0.9766777829809961 5.085539759420724 15.572361355375723 0 0 0
639 213 1 0.5897 -5.924031290102917 4.274582026536848 15.62001675723202 1 0 0
20 7 1 0.5897 -5.3959029843465425 2.290752885291639 18.902550147040664 0 0 -1
538 180 2 -1.1794 -3.3509311086586075 1.2214797093036747 16.9277920076955 0 0 0
539 180 1 0.5897 -3.066356388800651 1.8546893084167617 17.58694640823837 0 0 0
547 183 2 -1.1794 -3.738297740922838 5.098986918761568 16.97532817017509 0 0 0
540 180 1 0.5897 -4.25903527448988 1.0262175275466996 17.15877514394161 0 0 0
638 213 1 0.5897 -6.413671886464268 3.1669848849515225 16.52854610545041 1 0 0
549 183 1 0.5897 -4.4124183099963235 4.486350018065529 16.68105870326174 0 0 0
562 188 2 -1.1794 -1.1349602222888393 4.333197155173202 16.14267319422111 0 0 0
508 170 2 -1.1794 0.7058171241210145 1.5149514398661452 14.698262875453343 0 0 0
564 188 1 0.5897 -1.8561822870758515 4.608675839621979 16.70841200065604 0 0 0
637 213 2 -1.1794 -5.630261864016768 3.4903029364831717 16.08379959342622 1 0 0
164 55 1 0.5897 -8.128431863808474 2.05970717359349 18.829552249604944 1 0 -1
628 210 2 -1.1794 -8.05356293091635 2.8857241843678905 17.12040885884811 1 0 0
629 210 1 0.5897 -8.57411501828783 3.6727339515518787 16.958815037730915 1 0 0
548 183 1 0.5897 -3.7752308216267583 5.817693636010592 16.34406022538792 0 0 0
630 210 1 0.5897 -8.257766954606916 2.307810053772074 16.38507163499282 1 0 0
590 197 1 0.5897 -5.399722043549895 1.90441956272251 15.02715133024516 1 0 0
591 197 1 0.5897 -4.998402601346269 0.5005813613668022 14.626506992157791 1 0 0
528 176 1 0.5897 -3.1550870654605427 3.5068832815904316 19.062814530747552 0 0 0
526 176 2 -1.1794 -2.3671626831605 3.0206616735984464 18.81984686298702 0 0 0
593 198 1 0.5897 -7.398805629907762 1.1013096548203363 14.661857392776755 1 0 0
661 221 2 -1.1794 -7.082435443154205 5.60457350240663 14.815640550864215 1 0 0
84 28 1 0.5897 -4.1289183379844445 5.79963998511653 18.432690901104465 0 0 -1
18 6 1 0.5897 -1.20317984600171 4.2942750503218035 19.251490016534234 0 0 -1
662 221 1 0.5897 -7.460993705235717 4.795731248136196 14.470935472872497 1 0 0
289 97 2 -1.1794 -2.9992239492211716 10.25342524103006 2.212687796572131 1 0 0
255 85 1 0.5897 -2.5098163688742576 9.1254939139198 3.877160445677454 1 0 0
146 49 1 0.5897 -1.5617434591923727 6.7759114481943 1.8341092714558531 1 0 0
147 49 1 0.5897 -1.1498493868236754 7.6920442632678645 0.7014241948957235 1 0 0
332 111 1 0.5897 -2.4050133272089425 9.596466687758227 0.6571526169130293 1 0 0
145 49 2 -1.1794 -0.7931932947098708 7.104490652856611 1.3678177736587898 1 0 0
112 38 2 -1.1794 -3.346623657755642 6.275449530088292 2.3894374786838317 1 0 0
291 97 1 0.5897 -3.87094330148609 10.357764031155215 2.5939213877353713 1 0 0
221 74 1 0.5897 4.423857634166268 10.743127605500934 2.9453848015532067 0 0 0
224 75 1 0.5897 -0.6787946752358329 11.243563086641263 3.706655900230729 0 0 0
189 63 1 0.5897 1.9482754817672907 10.656949255926664 0.11704737952652847 0 0 0
199 67 2 -1.1794 1.063614084932074 8.766112977748069 2.4231196799121184 0 0 0
187 63 2 -1.1794 1.0108952826140944 10.524694621473266 0.2583925176590387 0 0 0
200 67 1 0.5897 0.415895165862862 8.10431985034044 2.180622156537846 0 0 0
188 63 1 0.5897 0.9541257867479507 10.113415435446607 1.1209143372489336 0 0 0
10 4 2 -1.1794 2.2120800559842895 6.441236725278925 4.615034683474869 0 0 0
174 58 1 0.5897 3.4957247938651204 9.234791538211079 4.38982661221263 0 0 0
240 80 1 0.5897 3.3121421773741595 7.162967365051496 0.979416359541508 0 0 0
201 67 1 0.5897 1.9014152402507465 8.303990782155951 2.3937582162427438 0 0 0
290 97 1 0.5897 -2.49840075958128 10.995144313534357 2.552411313650466 1 0 0
220 74 2 -1.1794 3.6775643892777534 10.880794175964448 3.5286309853707194 0 0 0
239 80 1 0.5897 3.792999540205928 8.59832345411764 0.952991966833838 0 0 0
245 82 1 0.5897 0.6798036675793822 9.580704814390831 4.084803853179866 0 0 0
238 80 2 -1.1794 3.7202967818031425 7.834767179558179 1.5257567402852792 0 0 0
9 3 1 0.5897 -0.7028214628400846 6.175672897277488 4.196875915534474 0 0 0
113 38 1 0.5897 -3.4378262633158725 5.726268841430408 3.1681478014395883 1 0 0
173 58 1 0.5897 3.081612565793302 7.817760714976059 4.725518457241693 0 0 0
12 4 1 0.5897 1.261827055078924 6.509903860075503 4.707352409964843 0 0 0
696 232 1 0.5897 4.231591036877063 10.891816283422795 0.011286189046340891 0 0 1
244 82 2 -1.1794 0.3986902860503001 10.233159694001111 4.726324344588562 0 0 0
191 64 1 0.5897 0.25965740746859334 9.94695202144229 8.611914641165109 0 0 0
110 37 1 0.5897 -4.063223694537061 6.12033741691308 6.253789288579786 1 0 0
109 37 2 -1.1794 -4.163582062902836 6.592847180852085 7.08020154591559 1 0 0
837 279 1 0.5897 -6.099589403302339 8.566774664818475 9.099220069461012 1 0 0
293 98 1 0.5897 -4.224309864937435 10.628653571186812 7.180565861438528 1 0 0
111 37 1 0.5897 -5.047266949453185 6.958840460295292 7.0414545645527085 1 0 0
292 98 2 -1.1794 -5.127077195148246 10.351099352679894 7.335894246574014 1 0 0
172 58 2 -1.1794 3.7348306119851937 8.485305489908924 4.935330432366672 0 0 0
246 82 1 0.5897 0.18466158447146785 9.724105486514764 5.508191057281548 0 0 0
294 98 1 0.5897 -5.107687753430776 9.94639330565602 8.203185925838115 1 0 0
301 101 2 -1.1794 -2.6463031570053888 11.057204413646794 6.36598137198823 1 0 0
64 22 2 -1.1794 2.014078202347603 7.11150576859888 7.931607251544965 0 0 0
692 231 1 0.5897 -1.5726569066222278 10.525791714453169 9.608765156290593 0 0 0
202 68 2 -1.1794 0.04226409197632153 8.829125050295639 7.111823712747687 0 0 0
203 68 1 0.5897 -0.7994433326732193 8.484480817130112 7.40993226237066 0 0 0
204 68 1 0.5897 0.6542975496800332 8.102434500729142 7.229289631537625 0 0 0
588 196 1 0.5897 -1.3739741056240362 6.90644147479554 9.277558324736415 0 0 0
235 79 2 -1.1794 -2.261987179092002 8.125842780145632 8.37171995571083 0 0 0
236 79 1 0.5897 -3.0642370323006562 7.6802159108026675 8.099488087283797 0 0 0
237 79 1 0.5897 -2.5643542109735864 8.939793767378491 8.774701480361708 0 0 0
302 101 1 0.5897 -2.624394123360342 10.2053978888387 5.929698178750848 1 0 0
8 3 1 0.5897 -0.5691236648563609 6.4404100624202965 5.68154662397059 0 0 0
228 76 1 0.5897 1.6603485868324492 11.10227526809976 5.7764073700188625 0 0 0
258 86 1 0.5897 -5.169828630230279 9.267744316368972 5.7993155284401094 1 0 0
66 22 1 0.5897 2.8354653191099537 6.847181298038711 7.517387836570398 0 0 0
65 22 1 0.5897 2.2751224546457234 7.746749125899627 8.598483206991741 0 0 0
190 64 2 -1.1794 0.18137244632441618 10.413622624772122 9.444003180422527 0 0 0
192 64 1 0.5897 0.953105319591117 10.978923702100971 9.475895195535939 0 0 0
303 101 1 0.5897 -1.7312820812168126 11.241940756533802 6.57793589421144 1 0 0
257 86 1 0.5897 -4.354289102350975 8.410990057678545 4.854483366855189 1 0 0
586 196 2 -1.1794 -0.7351545723189554 6.261831430469924 9.582330902841285 0 0 0
253 85 2 -1.1794 -2.512761757834883 8.825032525099418 4.786030762424883 1 0 0
254 85 1 0.5897 -1.8590596247372135 8.126108859162395 4.810070697964601 1 0 0
7 3 2 -1.1794 -0.5351933897047667 6.87463893083568 4.829126664491366 0 0 0
663 221 1 0.5897 -6.909876483896195 6.138325143414837 14.040011100152123 1 0 0
794 265 1 0.5897 -5.036559497093675 10.809544640769738 12.39909862385247 1 0 0
617 206 1 0.5897 -7.086842246650647 7.468393699756145 12.06306648162288 1 0 0
513 171 1 0.5897 -4.005975560770471 6.05048093023341 14.10433126983616 0 0 0
742 248 2 -1.1794 0.15956739694669242 8.289357662289138 11.286923841865685 0 0 0
691 231 2 -1.1794 -2.5044568410547696 10.415448400698729 9.797789641623408 0 0 0
616 206 2 -1.1794 -6.504088341876954 6.738651665072072 12.273661148121606 1 0 0
693 231 1 0.5897 -2.531147472926126 10.119882427594382 10.707877097673673 0 0 0
649 217 2 -1.1794 -4.02368964545111 7.219801685632916 11.002969878294534 1 0 0
650 217 1 0.5897 -3.411095406384582 7.770705071952676 11.490447533239449 1 0 0
651 217 1 0.5897 -4.762506603716615 7.0971353712442795 11.598919263856576 1 0 0
795 265 1 0.5897 -5.6806381626577975 9.898643465202339 11.375463420203266 1 0 0
744 248 1 0.5897 -0.032789798239629686 7.529562308139104 10.737283909155774 0 0 0
793 265 2 -1.1794 -5.608159483244011 10.045933959707357 12.318550625703239 1 0 0
534 178 1 0.5897 1.6646964592216733 7.3584580185855994 11.844197009960686 0 0 0
759 253 1 0.5897 -5.482040797268472 9.128835706718348 13.730262386489285 1 0 0
703 235 2 -1.1794 -2.2770353448324405 8.764527592363105 12.231384382480371 0 0 0
704 235 1 0.5897 -1.3462277598638508 8.74159793389411 12.009483077124383 0 0 0
705 235 1 0.5897 -2.3184888082038535 9.276322039046978 13.039265241817535 0 0 0
743 248 1 0.5897 0.22174040887995972 9.020621005774359 10.67231783704726 0 0 0
724 242 2 -1.1794 0.8792466420723093 10.914732421766884 12.973657137737447 0 0 0
836 279 1 0.5897 -4.975670022848989 8.353466758440268 10.091130266960375 1 0 0
587 196 1 0.5897 -1.1545560102978065 5.84559927659851 10.335331295000726 0 0 0
618 206 1 0.5897 -6.616451152213517 6.124684421002476 11.547844561455703 1 0 0
750 250 1 0.5897 -2.9933339225227016 11.019444657829872 14.284423184087645 0 0 0
678 226 1 0.5897 0.37576549748987365 9.52000771004778 13.886446936151867 0 0 0
514 172 2 -1.1794 -1.0015504910318818 6.566009559052052 14.419471572235182 0 0 0
809 270 1 0.5897 -7.192956430123118 10.889109497046555 12.587536920507608 1 0 0
726 242 1 0.5897 0.190040851604536 11.260248658233685 12.406101530104854 0 0 0
99 33 1 0.5897 -3.6339319521402307 5.853329147299898 9.996924045645248 1 0 0
516 172 1 0.5897 -0.5507526159856102 7.408400682379302 14.360574133508353 0 0 0
835 279 2 -1.1794 -5.489839537948662 9.039833103570123 9.665643066725503 1 0 0
797 266 1 0.5897 -6.832096251418296 10.669652496863243 16.663243671122643 1 0 0
695 232 1 0.5897 -2.562870808016668 10.162185337036167 18.297773337466943 0 0 0
741 247 1 0.5897 -5.513402742341167 9.308406347434165 18.504308117518647 0 0 0
758 253 1 0.5897 -5.251822568344126 9.514585725081444 15.17611386232823 1 0 0
740 247 1 0.5897 -6.240456290516911 8.168290680515582 17.823274794443797 0 0 0
568 190 2 -1.1794 -1.0836303793417148 7.016558241012565 17.80103581364385 0 0 0
798 266 1 0.5897 -7.938818382981744 9.862315502814921 16.018509026959862 1 0 0
805 269 2 -1.1794 -5.267797811028265 11.188433176379316 15.928118829733776 1 0 0
615 205 1 0.5897 -7.229814304685014 6.225836558758042 16.73500527880747 1 0 0
83 28 1 0.5897 -4.811086517572249 7.116751619890975 18.73626750241531 0 0 -1
569 190 1 0.5897 -0.9478877715925007 6.454022240853083 18.563631046359284 0 0 0
749 250 1 0.5897 -2.742941017875701 9.886788325394132 15.257444865010672 0 0 0
333 111 1 0.5897 -8.358191130200073 9.965600712191003 18.559244980211822 1 0 -1
613 205 2 -1.1794 -7.33200849175973 6.7148636523916485 17.55153642184395 1 0 0
796 266 2 -1.1794 -7.7515082979263505 10.425591456468513 16.769525777122965 1 0 0
706 236 2 -1.1794 -2.8081219098426713 8.998916285031328 16.7784882775928 0 0 0
707 236 1 0.5897 -3.6738930114264594 8.813145727522917 17.141788902896224 0 0 0
708 236 1 0.5897 -2.3143392845902113 8.189204365981945 16.908820373373814 0 0 0
739 247 2 -1.1794 -5.385901360993536 8.596085699315104 17.877682452173964 0 0 0
570 190 1 0.5897 -0.2738460016953139 6.936864268392485 17.29706829132205 0 0 0
515 172 1 0.5897 -1.927215205416208 6.794692764602342 14.503734376870595 0 0 0
511 171 2 -1.1794 -3.8054792274989957 6.652513036913655 14.821092655843422 0 0 0
614 205 1 0.5897 -7.273201106079838 6.050403977713728 18.23815286778332 1 0 0
331 111 2 -1.1794 -8.519275751378977 9.333323383225032 19.259655793240924 1 0 -1
762 254 1 0.5897 -7.316147721154745 8.414769324239176 14.666998884776225 1 0 0
731 244 1 0.5897 -1.4933869267781024 11.497043738781146 15.718173842352305 0 0 0
748 250 2 -1.1794 -2.3336921520862264 10.375967549679585 14.543737942344373 0 0 0
512 171 1 0.5897 -4.444684851906857 7.358920909808594 14.727012944022501 0 0 0
676 226 2 -1.1794 0.45616548817981606 8.860015155107519 14.57518273536966 0 0 0
82 28 2 -1.1794 -4.274809816764588 6.432018453687427 19.1363452548999 0 0 -1
694 232 2 -1.1794 -2.632598028353917 10.340521719028729 19.235656344780693 0 0 0
757 253 2 -1.1794 -5.4114612744440995 8.759024879101537 14.610388050535025 1 0 0
280 94 2 -1.1794 -3.5477094550813177 13.963915173252067 2.5922737190367737 1 0 0
406 136 2 -1.1794 3.6550963292389023 15.555544150435894 1.880905305153533 0 0 0
369 123 1 0.5897 0.9261841397607569 16.385140247463866 3.35844789254976 0 0 0
407 136 1 0.5897 4.498059945155942 15.14337985754314 2.0704887764472213 0 0 0
281 94 1 0.5897 -3.4760329922399884 13.657867205586552 3.4964726192344706 1 0 0
282 94 1 0.5897 -2.644365892474768 13.995444349920314 2.2774861315323602 1 0 0
423 141 1 0.5897 -2.5720571340569203 16.372847575701986 3.869604026587588 1 0 0
250 84 2 -1.1794 2.0594144149535127 14.025705326191542 0.0693012590686469 0 0 0
214 72 2 -1.1794 1.6725368131038039 12.704802790020608 2.5580639681239785 0 0 0
313 105 2 -1.1794 -1.023901571788599 14.629989357089025 1.4321680315814465 1 0 0
315 105 1 0.5897 -0.692625194459568 13.940598039454386 0.8565785425926142 1 0 0
368 123 1 0.5897 2.0223098044951495 15.779925782767226 2.5076437165201515 0 0 0
314 105 1 0.5897 -0.24349938325181997 14.978077691758044 1.8636908595374482 1 0 0
216 72 1 0.5897 0.7848671769639433 12.347267136944561 2.578009768240602 0 0 0
223 75 2 -1.1794 -1.0873147068997513 11.840953015680201 3.0799600838864536 0 0 0
225 75 1 0.5897 -1.0951975479213836 12.68799392456369 3.5258885445221777 0 0 0
367 123 2 -1.1794 1.099192956792507 16.032222343098873 2.4856517943438976 0 0 0
252 84 1 0.5897 2.6223326157910103 14.631799319020242 0.5511617599094097 0 0 0
180 60 1 0.5897 2.0128396298437137 13.723835823046558 4.058417222279185 0 0 0
408 136 1 0.5897 3.8749502922804746 16.314591127466436 1.3407073140528745 0 0 0
215 72 1 0.5897 1.7308417309798196 13.155012598666145 1.7153120045383505 0 0 0
500 167 1 0.5897 -1.8343196351783349 15.932621387828469 0.35242520654232595 1 0 0
222 74 1 0.5897 3.1013901976276728 11.473317446182811 3.045448064882466 0 0 0
499 167 2 -1.1794 -2.530579684598886 16.529341029172954 0.07739739922982938 1 0 0
269 90 1 0.5897 -3.675948350927849 12.373771658124841 1.0617207554990349 1 0 0
184 62 2 -1.1794 4.8374939911750765 12.5754456044124 0.18969381236485003 0 0 0
404 135 1 0.5897 -1.6550695452347295 16.037662563627165 7.831817934912204 0 0 0
178 60 2 -1.1794 1.9640925200755452 13.989650106242747 4.976721179806862 0 0 0
326 109 1 0.5897 -3.5308612412398954 12.19314066045023 5.344106897481761 1 0 0
327 109 1 0.5897 -4.28633465945763 13.494126082624293 5.514401727965311 1 0 0
425 142 1 0.5897 -4.358492702365179 16.104620135321188 4.782017497715254 1 0 0
211 71 2 -1.1794 -0.30634033206680433 12.453124821007444 7.191181585548624 0 0 0
227 76 1 0.5897 1.4636335622984458 11.891882465094934 7.053083229850568 0 0 0
213 71 1 0.5897 -0.38492344404529755 13.167126606125404 6.558373375535771 0 0 0
212 71 1 0.5897 -0.2596138106906145 12.890192344640035 8.041564013469689 0 0 0
340 114 2 -1.1794 3.5129319220840216 16.228003223435525 5.041762732541532 0 0 0
232 78 2 -1.1794 1.9932735599568154 14.537964037840343 8.396185740619641 0 0 0
179 60 1 0.5897 2.06153222594162 13.173925970559843 5.4681874335984695 0 0 0
234 78 1 0.5897 1.336665604408319 14.968194129729635 7.8481831100478185 0 0 0
370 124 2 -1.1794 0.12688607715210898 16.319946085957667 7.322295757285877 0 0 0
405 135 1 0.5897 -2.4954062015793754 16.70005090757407 8.902716915637818 0 0 0
277 93 2 -1.1794 -4.447679124559814 14.159921906725856 7.349431634190243 1 0 0
278 93 1 0.5897 -3.849055715540809 14.834139223129775 7.6710663358078515 1 0 0
176 59 1 0.5897 -1.234721651133884 14.839646192992614 4.8893610047497695 0 0 0
177 59 1 0.5897 0.11644159749599758 14.158417090752726 4.840213546025637 0 0 0
403 135 2 -1.1794 -2.501837770347584 15.978218272701843 8.274002760295836 0 0 0
233 78 1 0.5897 2.7736325065716727 14.491531251465423 7.843957152082214 0 0 0
267 89 1 0.5897 -3.8445973570870215 12.987628875536744 8.751759257623815 1 0 0
422 141 1 0.5897 -2.3392301135148914 16.89136804037961 5.272885633477114 1 0 0
756 252 1 0.5897 -1.5170102350271986 14.611735102861015 9.055179410733764 0 0 0
279 93 1 0.5897 -5.314772983547419 14.458192474551325 7.623948966289004 1 0 0
226 76 2 -1.1794 2.1280157994499582 11.648162159940266 6.408640576227351 0 0 0
341 114 1 0.5897 3.0541250165946217 15.38886817854848 5.082351840507366 0 0 0
175 59 2 -1.1794 -0.8233672114370032 13.976984245869172 4.834337227184578 0 0 0
1004 335 1 0.5897 -5.169201632177263 16.84079001401721 8.868149465236852 1 0 0
372 124 1 0.5897 0.14962452272611237 16.63884555146095 6.420010310150666 0 0 0
325 109 2 -1.1794 -4.130713865628356 12.785278643468857 4.890176452234513 1 0 0
462 154 1 0.5897 -4.894995886749392 16.751670353795454 6.536708735153754 1 0 0
754 252 2 -1.1794 -0.9345553354150495 13.982584248077414 9.481134502301373 0 0 0
421 141 2 -1.1794 -2.5589345417878757 16.096889637892865 4.78612886076474 1 0 0
1005 335 1 0.5897 -4.728153873344762 16.100959880507606 10.113381988356522 1 0 0
1003 335 2 -1.1794 -5.462895217948744 16.591281855876677 9.74431955614627 1 0 0
917 306 1 0.5897 -2.161632600805092 16.97287907635304 13.837632010305764 0 0 0
718 240 2 -1.1794 -1.2285761253739653 12.345286841403105 11.837405907554423 0 0 0
912 304 1 0.5897 1.401171277352793 15.209023997670478 11.788742855503168 0 0 0
720 240 1 0.5897 -0.9401221441512693 13.017768442028693 12.45462816665159 0 0 0
728 243 1 0.5897 -2.998153214578333 12.252712939124386 12.301516940724383 0 0 0
755 252 1 0.5897 -0.29053962114298226 14.523264030134703 9.938648962371824 0 0 0
727 243 2 -1.1794 -3.823032120516123 12.119727567018865 12.768383142144284 0 0 0
784 262 2 -1.1794 -6.1962325061646535 14.297882182636355 12.267666099705137 1 0 0
729 243 1 0.5897 -4.054251284814692 12.98781009938625 13.099071949265074 0 0 0
911 304 1 0.5897 0.003659540189887789 15.78217263399597 11.68537335457764 0 0 0
910 304 2 -1.1794 0.7217323080960711 15.437927260879201 11.154314581695376 0 0 0
831 277 1 0.5897 -7.425939750553714 12.29069581590073 14.225182460563266 1 0 0
772 258 2 -1.1794 -6.504454817446801 12.357818104563224 10.088600446840767 1 0 0
719 240 1 0.5897 -1.1289503543081496 12.751249449850167 10.976265500174042 0 0 0
786 262 1 0.5897 -6.358370797753654 13.854575568032919 13.100412970045175 1 0 0
817 273 2 -1.1794 -3.76837907195593 14.951226005200388 11.277388316809107 1 0 0
818 273 1 0.5897 -4.544855562607811 14.826852500577488 11.822971797194748 1 0 0
819 273 1 0.5897 -3.706801558766087 14.147639856338017 10.760838892818335 1 0 0
873 291 1 0.5897 -2.375206443881733 15.8119718070643 11.970220688259825 0 0 0
871 291 2 -1.1794 -1.705444563916025 16.487336816825945 12.077727793464096 0 0 0
785 262 1 0.5897 -6.998543591696041 14.791891026388393 12.098295276802286 1 0 0
682 228 2 -1.1794 -0.9326329149448389 14.056938922001654 14.040766305927164 0 0 0
688 230 2 -1.1794 2.0096112434631603 12.433229820897841 10.168248928870408 0 0 0
725 242 1 0.5897 1.0832118775858754 11.635512864786966 13.569697367804386 0 0 0
773 258 1 0.5897 -6.445559567070123 12.881653236655275 10.887652834920646 1 0 0
846 282 1 0.5897 0.23594781620122607 16.77419813904221 14.311388786016575 0 0 0
680 227 1 0.5897 -2.6801664995244385 14.389132597393681 14.349961552900266 0 0 0
962 321 1 0.5897 -5.829194588475125 17.066244253492126 12.80512660959838 1 0 0
774 258 1 0.5897 -5.601110997794584 12.28902417615647 9.779760907285041 1 0 0
690 230 1 0.5897 1.871632200501594 13.206343770792817 9.620809312437832 0 0 0
265 89 2 -1.1794 -3.8485225595693207 12.797641560692577 9.689956966833806 1 0 0
266 89 1 0.5897 -3.3334239799209944 11.995183194648448 9.77463902542633 1 0 0
829 277 2 -1.1794 -6.734276802277282 12.904691366384393 14.472048286117163 1 0 0
875 292 1 0.5897 -3.0937046248234648 16.795788820171104 16.146830498781902 0 0 0
717 239 1 0.5897 -2.694678514958161 12.909375339970607 17.018276136291185 0 0 0
738 246 1 0.5897 -0.5019839558973702 14.75330383424415 17.279691118448376 0 0 0
926 309 1 0.5897 -4.8464127286873815 15.622930912644371 14.702875193490192 1 0 0
681 227 1 0.5897 -3.6572721948825713 14.037696632488899 15.451440057118417 0 0 0
830 277 1 0.5897 -7.069562506060213 13.342122413851435 15.254643291152993 1 0 0
679 227 2 -1.1794 -3.6114501725439183 14.40859292445829 14.570155180027788 0 0 0
715 239 2 -1.1794 -3.6256737703527353 13.105288287830092 17.123624741120196 0 0 0
716 239 1 0.5897 -3.6918914932727933 13.493286260116708 17.996197375330155 0 0 0
874 292 2 -1.1794 -3.46148852621059 16.43682254252927 16.95432570066535 0 0 0
907 303 2 -1.1794 -6.045711659091164 15.894912825362168 17.957843384647106 0 0 0
806 269 1 0.5897 -5.782333537702373 11.717797202897703 15.318563963475164 1 0 0
876 292 1 0.5897 -2.789276196685363 15.837304127825906 17.27868216552875 0 0 0
736 246 2 -1.1794 -1.165215759109702 15.060013210324403 17.8978928497013 0 0 0
909 303 1 0.5897 -5.2160139738836255 16.157570799021737 17.55949731492953 0 0 0
781 261 2 -1.1794 -7.7764807353661 14.135696371278737 16.69886355920871 1 0 0
782 261 1 0.5897 -7.5092461802470165 13.715172782237634 17.516297258977502 1 0 0
730 244 2 -1.1794 -0.984967202628515 12.141085716223657 16.211248008540856 0 0 0
908 303 1 0.5897 -6.4517134655930555 15.319361845886254 17.309509661068226 0 0 0
251 84 1 0.5897 -5.014987275059366 14.849994320413554 19.045162312965964 0 0 -1
783 261 1 0.5897 -8.67928383137333 14.41264238886471 16.855205640301783 1 0 0
683 228 1 0.5897 -0.9155339138115588 13.287868732968684 14.610525532429682 0 0 0