LAMMPS data file via write_data, version 30 Jul 2021, timestep = 16000000

864 atoms
2 atom types
576 bonds
1 bond types
288 angles
1 angle types

0.14421096789390297 18.063361432093153 xlo xhi
0.22934767072663753 23.39983012928618 ylo yhi
0.08032354754139881 22.132872252462846 zlo zhi

Masses

1 1.00794
2 15.9994

Atoms # full

707 1 1 0.5897 3.3530968025466077 2.124565660296632 3.6407647604164586 0 0 0
706 1 2 -1.1794 3.6066046307792337 2.120817059547144 2.717820920672159 0 0 0
495 1 1 0.5897 8.559780591833295 2.166894724763983 3.1473997022053477 0 0 0
1 1 2 -1.1794 1.1996637427147814 3.164249071620884 1.563897325077764 0 0 0
846 1 1 0.5897 7.617356978210842 1.9432031051877496 5.3278149059387205 0 0 0
708 1 1 0.5897 2.883785387308861 2.5590882917483757 2.2686876273261927 0 0 0
29 1 1 0.5897 5.201912859192269 2.7298583624180175 2.388441986722575 0 0 0
28 1 2 -1.1794 5.980459502190784 3.22410298459332 2.131687717229976 0 0 0
2 1 1 0.5897 0.6330831921967542 2.6702901039634575 2.156534833260876 0 0 0
494 1 1 0.5897 7.046170105505674 2.1973561283536722 3.1375188957334297 0 0 0
30 1 1 0.5897 5.815826396264047 4.112553639846375 2.4477238487223474 0 0 0
493 1 2 -1.1794 7.792294497846254 1.7935993177020795 3.5808392861794047 0 0 0
3 1 1 0.5897 1.1346260505119585 4.069429008339451 1.8684315978590922 0 0 0
597 1 1 0.5897 1.0212229153817853 5.8463019736474084 3.5302853210176495 0 0 0
137 1 1 0.5897 4.898822322340383 5.745944463507046 3.582772504376028 0 0 0
668 1 1 0.5897 5.275129129029263 3.290309992109423 0.27463875789214587 0 0 0
595 1 2 -1.1794 1.1189000144192782 5.7943555900159724 2.579567430822097 0 0 0
136 1 2 -1.1794 5.214604914872034 5.780822724067799 2.67989812697339 0 0 0
181 1 2 -1.1794 0.9795387260444156 5.505657519218989 5.356505673663713 0 0 0
188 1 1 0.5897 3.5621604685873005 0.342350372429566 2.2744662789861962 0 1 0
487 1 2 -1.1794 3.0253387503454183 1.7142688894172506 5.260886567958089 0 0 0
489 1 1 0.5897 2.927579608988176 0.8070744309736481 5.550303934255078 0 0 0
785 1 1 0.5897 1.2469293474490184 3.1091099339080577 7.607435970757285 0 0 0
686 1 1 0.5897 5.09820051863208 4.753168587537862 6.109082360772532 0 0 0
36 1 1 0.5897 1.5178534620072994 2.509095530887932 9.890195145830868 0 0 0
673 1 2 -1.1794 2.64349663393525 1.4638052454286627 10.589649270950346 0 0 0
35 1 1 0.5897 0.8443113293748007 3.864229557661071 9.936390238490397 0 0 0
678 1 1 0.5897 4.8930094265476995 4.465594255882412 9.943958850242527 0 0 0
674 1 1 0.5897 3.4035421828558614 1.8521218715421794 10.156283386733797 0 0 0
355 1 2 -1.1794 7.454405386994611 2.039429800352746 10.471114131757243 0 0 0
84 1 1 0.5897 5.933333995577872 2.427294417268994 6.421066630386969 0 0 0
844 1 2 -1.1794 7.673731695406415 1.9534534633416074 6.283218013746161 0 0 0
274 1 2 -1.1794 4.84339878427495 2.7429796146162557 9.4997840518658 0 0 0
356 1 1 0.5897 7.63264406551318 1.1283419109239825 10.237660844511169 0 0 0
182 1 1 0.5897 0.22481495760216297 5.853914589417823 5.831247824363031 1 0 0
675 1 1 0.5897 2.5511471052677757 0.6012299007690978 10.185008299224858 0 0 0
786 1 1 0.5897 0.35389774904898164 2.681989454559736 6.462095184827636 0 0 0
784 1 2 -1.1794 1.2094128674817815 3.067126020117091 6.651973656438576 0 0 0
276 1 1 0.5897 5.723036293251017 2.559666050814763 9.829797011376773 0 0 0
82 1 2 -1.1794 5.140965618778544 2.913026411044345 6.650240156305402 0 0 0
275 1 1 0.5897 4.952668758221408 2.8129509939429784 8.551495601118324 0 0 0
176 1 1 0.5897 9.087293552639258 2.6619805211809426 9.87700880192562 0 0 0
34 1 2 -1.1794 0.8490181294925813 3.037253643941996 9.454334251533922 0 0 0
677 1 1 0.5897 5.461243434290333 5.862315529337667 9.80815180999914 0 0 0
488 1 1 0.5897 2.342670051978325 2.191575218343614 5.732476925081748 0 0 0
83 1 1 0.5897 4.444692483909943 2.4854861002502453 6.151546851394221 0 0 0
845 1 1 0.5897 7.650568674613908 1.0301680167118774 6.53488845190308 0 0 0
183 1 1 0.5897 1.072364640655661 4.608795194508267 5.6779728214475105 0 0 0
685 1 2 -1.1794 5.065045284541263 5.643225818564267 5.758356847805891 0 0 0
112 1 2 -1.1794 0.7647873689267244 5.596623182263176 10.537858478257634 0 0 0
676 1 2 -1.1794 4.772851404926507 5.36476468581322 10.249535943200272 0 0 0
166 1 2 -1.1794 3.0339593498033754 2.2317932964281164 13.239897882343888 0 0 0
167 1 1 0.5897 3.0312636642415023 1.9412411618947307 12.327932263656729 0 0 0
762 1 1 0.5897 4.819855301730143 4.996379856217192 13.350933773044503 0 0 0
459 1 1 0.5897 4.626785411066361 2.8842124679089776 13.627436202275383 0 0 0
168 1 1 0.5897 2.1791596411337233 2.644744769502142 13.36275445114872 0 0 0
593 1 1 0.5897 7.597942037032786 0.9956428060415596 13.364308070011761 0 0 0
365 1 1 0.5897 0.9028621780395026 5.172165951465171 13.63035982754778 0 0 0
592 1 2 -1.1794 7.479708923103653 1.9016985349868516 13.07899648521035 0 0 0
458 1 1 0.5897 6.135774076046234 2.848683825483306 13.510256345486576 0 0 0
594 1 1 0.5897 8.23423541998065 2.3673544691430366 13.439727306468937 0 0 0
457 1 2 -1.1794 5.415383461184301 3.3777772886372475 13.852860643959533 0 0 0
113 1 1 0.5897 0.8535213141257838 5.7689563962875425 11.475152233997315 0 0 0
71 1 1 0.5897 5.1773799155418025 3.49954766526875 15.651368978119777 0 0 0
468 1 1 0.5897 0.38608666263526714 3.3142806729219325 15.20071187695014 0 0 0
466 1 2 -1.1794 0.5184618995365753 3.5717265055682 14.28840284350779 0 0 0
761 1 1 0.5897 4.728874328728828 5.777973446543305 12.057671972704712 0 0 0
760 1 2 -1.1794 4.554341772649107 5.8449592400364665 12.996366426194415 0 0 0
357 1 1 0.5897 7.4245154595124045 2.040553713432206 11.427779004869075 0 0 0
737 1 1 0.5897 3.144971293443888 0.6143288598220845 13.846471600837077 0 1 0
70 1 2 -1.1794 5.160229946910353 3.504678490125162 16.60832052247231 0 0 0
364 1 2 -1.1794 0.8093162119662293 6.00520211661187 13.16820719198821 0 0 0
323 1 1 0.5897 7.632505580329566 0.7562813161095944 16.548478889494305 0 1 0
134 1 1 0.5897 0.5377235655125744 4.032668240689599 17.24392339021638 0 0 0
648 1 1 0.5897 0.8683891557086456 5.910852359513945 19.18281664692293 0 0 0
278 1 1 0.5897 5.207333037259741 5.16467962137963 17.20114051546176 0 0 0
291 1 1 0.5897 2.233895227750925 2.353535956506409 17.270149555226922 0 0 0
41 1 1 0.5897 6.756386221452692 2.923944393197399 20.741505937079708 0 0 0
569 1 1 0.5897 2.3668167282603942 2.644414871129359 20.398609352306174 0 0 0
570 1 1 0.5897 3.101961449466903 2.0761092497572218 19.20348733913844 0 0 0
568 1 2 -1.1794 3.1757137066184407 2.1969682163036177 20.150083092665604 0 0 0
360 1 1 0.5897 8.946065643634833 2.9714838483756596 21.057824101779346 0 0 0
143 1 1 0.5897 5.346542294586606 5.182626764025603 20.4805004856033 0 0 0
19 1 2 -1.1794 0.7440045329486615 3.2744638360052463 21.0029179883919 0 0 0
669 1 1 0.5897 4.51175857204093 2.96820806494815 21.060216452800923 0 0 0
289 1 2 -1.1794 3.070557704840564 1.924943759344322 17.45069898310114 0 0 0
290 1 1 0.5897 2.9146590477303795 1.0013342303396497 17.253228927875654 0 0 0
667 1 2 -1.1794 5.207730081074029 3.5290771958413485 21.40276187087946 0 0 0
756 1 1 0.5897 6.690290451018913 2.730619013039605 16.950847115998407 0 0 0
72 1 1 0.5897 4.4399411768887385 2.9177500098373357 16.838564996528753 0 0 0
42 1 1 0.5897 7.497129768662986 1.6128466793929404 20.585099176390223 0 0 0
754 1 2 -1.1794 7.477372881393479 2.3812034849292307 17.368790757085407 0 0 0
40 1 2 -1.1794 7.486243496535387 2.517990697096968 20.27378657423312 0 0 0
755 1 1 0.5897 7.296221373356535 2.438020405139044 18.30689905411713 0 0 0
646 1 2 -1.1794 0.8602657694348077 5.870418168201529 20.139063559557158 0 0 0
571 1 2 -1.1794 0.6695213803359796 5.838462679946258 17.45627892978063 0 0 0
21 1 1 0.5897 0.6466900645912377 4.211577743916125 20.83354709589841 0 0 0
20 1 1 0.5897 0.7076216080251788 3.1978812843352586 21.956274575420153 0 0 -1
81 1 1 0.5897 2.824727683689536 0.4550183147166932 20.89345128690335 0 1 0
599 1 1 0.5897 8.955509673568502 3.1339098258843245 16.981115308598547 0 0 0
133 1 2 -1.1794 0.611137463959559 3.080718796273942 17.174970776522173 0 0 0
253 1 2 -1.1794 3.197977374481585 7.314215436134918 1.7368576984778523 0 0 0
123 1 1 0.5897 2.8085826301824754 8.813231797355302 2.704920658942862 0 0 0
121 1 2 -1.1794 2.8729524127458386 9.684346939987861 3.0964920095121893 0 0 0
122 1 1 0.5897 2.7582438738757795 9.534640401291531 4.034850193621023 0 0 0
255 1 1 0.5897 2.4947198063633285 6.753116388541446 2.0638148420709816 0 0 0
43 1 2 -1.1794 0.5411934282989619 10.852241058730444 2.2319349652982057 0 0 0
415 1 2 -1.1794 7.414588995962699 7.233471370621369 2.1074384054691153 0 0 0
44 1 1 0.5897 1.3475292916837267 10.41326612487205 2.502881860758516 0 0 0
219 1 1 0.5897 4.279567355867009 10.43144615959579 2.354741779171548 0 0 0
417 1 1 0.5897 8.211537876392757 6.725471864119648 2.259610358074992 0 0 0
218 1 1 0.5897 5.779299302878231 10.247195879013502 2.4492279023077455 0 0 0
217 1 2 -1.1794 5.108482645013975 10.8051604884296 2.055538667616303 0 0 0
66 1 1 0.5897 7.35281009008153 9.67741344410537 4.173908100988312 0 0 0
65 1 1 0.5897 7.481550757389164 8.81479258263662 2.9365558405961436 0 0 0
64 1 2 -1.1794 7.392936734584616 9.725174401896254 3.2188204343701177 0 0 0
396 1 1 0.5897 0.6625397782184996 10.654519930963295 0.4170127168185097 0 0 0
254 1 1 0.5897 3.143113837293815 7.2372558017047695 0.7844133213645578 0 0 0
138 1 1 0.5897 4.6268988176023385 6.397849932994531 2.243840984423591 0 0 0
416 1 1 0.5897 6.720547453922765 6.721131550524658 2.5222727967412015 0 0 0
773 1 1 0.5897 8.815334288942553 10.634932434674917 2.6310415905915967 0 0 0
45 1 1 0.5897 0.6510060452670033 11.75736214255602 2.5235252478102526 0 0 0
162 1 1 0.5897 7.555156512254667 7.200543500448529 0.25303402701323474 0 0 1
363 1 1 0.5897 5.028037030310638 10.702912695168767 0.32736607524468964 0 0 1
596 1 1 0.5897 0.3398822218839349 6.230374945202041 2.2341627924302068 1 0 0
714 1 1 0.5897 7.134229756478461 8.712375110636668 6.165030184781531 0 0 0
577 1 2 -1.1794 4.796935350705214 11.246485277616365 6.683059677820918 0 0 0
551 1 1 0.5897 0.40673044647826245 10.927696197288082 7.462938899986284 0 0 0
15 1 1 0.5897 1.2076282696206846 10.541787230747516 9.742618175465754 0 0 0
11 1 1 0.5897 2.1835472118802963 6.216692603583932 6.393929214564687 0 0 0
146 1 1 0.5897 6.61382467021012 6.402939753856065 6.204182771418935 0 0 0
147 1 1 0.5897 7.321899836242498 6.822907289521652 7.474587484029061 0 0 0
713 1 1 0.5897 7.758518375417081 10.069704518582526 6.410097375189487 0 0 0
257 1 1 0.5897 2.8865951907512284 9.11983608086373 9.90474988201162 0 0 0
145 1 2 -1.1794 7.367444573889902 6.90045223539601 6.521702438820389 0 0 0
526 1 2 -1.1794 7.154065882211567 6.925425181648989 9.171097314614276 0 0 0
650 1 1 0.5897 2.765773758853239 7.2247442923167675 8.660646630538565 0 0 0
649 1 2 -1.1794 2.8204758831089967 7.369532849890154 9.605178617458284 0 0 0
12 1 1 0.5897 2.713455023166737 7.632623063256726 6.474866192967822 0 0 0
581 1 1 0.5897 5.910483218443951 10.746536525391491 9.587582721239546 0 0 0
256 1 2 -1.1794 2.850205043653952 10.037205393327966 10.175753809095355 0 0 0
550 1 2 -1.1794 0.45859887364998175 10.793634936237025 6.516662600747734 0 0 0
528 1 1 0.5897 7.834556462154284 6.515320792090275 9.704934453096058 0 0 0
820 1 2 -1.1794 7.09865692997399 9.511883423313476 10.149795852627934 0 0 0
13 1 2 -1.1794 0.37304801085087197 10.84797804603146 9.38766290183533 0 0 0
822 1 1 0.5897 7.9227562095685675 9.973376080564803 9.994266838197076 0 0 0
258 1 1 0.5897 3.642086689826502 10.428165329550108 9.806499456633041 0 0 0
580 1 2 -1.1794 5.148228126193441 11.27395945796583 9.348574112466572 0 0 0
582 1 1 0.5897 5.082386870720502 11.183521208445487 8.398007451125308 0 0 0
10 1 2 -1.1794 2.8522727511926615 6.751378287198597 6.821948572543977 0 0 0
712 1 2 -1.1794 6.978685853036882 9.649550318625488 6.047322222203365 0 0 0
527 1 1 0.5897 7.073445138086116 7.811532987472514 9.524124220975747 0 0 0
165 1 1 0.5897 8.912623735993478 6.079090052997743 5.773937591705139 0 0 0
795 1 1 0.5897 3.4569410531228177 9.934234744939161 5.983211845621749 0 0 0
578 1 1 0.5897 5.610841136887327 10.80829668613152 6.434387252368743 0 0 0
651 1 1 0.5897 3.372926610284665 6.656500335711524 9.92563375422475 0 0 0
794 1 1 0.5897 1.9762710647808837 9.63354510092519 6.079677665437023 0 0 0
114 1 1 0.5897 1.3678563902175187 6.213118845629584 10.122440671827633 0 0 0
552 1 1 0.5897 0.5894925319706468 11.671011710514216 6.156881485521921 0 0 0
821 1 1 0.5897 6.949413259399914 9.59796381463268 11.09128374927459 0 0 0
793 1 2 -1.1794 2.8038925541109365 9.268755762905588 5.766224649660777 0 0 0
14 1 1 0.5897 0.3648536816404382 11.78763817529093 9.570181349732545 0 0 0
687 1 1 0.5897 4.419772834768432 6.092503782620179 6.304281428712375 0 0 0
476 1 1 0.5897 6.5110476301482185 10.350849547633096 13.35416653719175 0 0 0
332 1 1 0.5897 2.916218170162901 8.560343791419118 13.641434093777733 0 0 0
797 1 1 0.5897 2.9637422525576733 10.153351731990238 11.969221805867733 0 0 0
796 1 2 -1.1794 2.988116992722735 10.183305597733057 12.92556523771243 0 0 0
798 1 1 0.5897 2.123978807774227 10.508958567033451 13.177555005462276 0 0 0
259 1 2 -1.1794 0.7155064207394682 11.304038208942384 13.77195660743027 0 0 0
721 1 2 -1.1794 5.163670644549866 11.29900445610578 13.993292621923656 0 0 0
331 1 2 -1.1794 2.7018284306540257 7.67243810576072 13.927756607285685 0 0 0
477 1 1 0.5897 6.96496635042472 8.909084084127713 13.267948603421925 0 0 0
723 1 1 0.5897 5.080084527306269 11.119926971256925 14.929799695694376 0 0 0
826 1 2 -1.1794 6.971592377958194 7.07443997575732 13.787474222527164 0 0 0
851 1 1 0.5897 8.474468491632583 6.298953406091039 13.35350671128667 0 0 0
722 1 1 0.5897 4.4243036523554045 10.840235177988163 13.59437419700447 0 0 0
828 1 1 0.5897 7.114959797607362 6.910704228318399 14.719557643227168 0 0 0
827 1 1 0.5897 6.139620219369457 6.642737711573129 13.593190084215392 0 0 0
333 1 1 0.5897 3.4097811691661155 7.130405658743343 13.579501694987277 0 0 0
475 1 2 -1.1794 7.082380823874323 9.7655597003226 12.856905526121865 0 0 0
225 1 1 0.5897 2.7784128182394303 7.3671605645315985 15.729970370542528 0 0 0
104 1 1 0.5897 8.785262683486208 10.610119349320227 13.50576847776208 0 0 0
366 1 1 0.5897 1.5584369252632242 6.525923722852874 13.457990168280286 0 0 0
520 1 2 -1.1794 7.757413526796933 7.006654190837933 16.501805188887587 0 0 0
261 1 1 0.5897 0.7602830191258754 11.1477694099054 14.71517486858636 0 0 0
445 1 2 -1.1794 0.6216545947535357 10.756813065692008 16.458735440353117 0 0 0
689 1 1 0.5897 3.678257588633801 10.257261391328859 20.725872894655332 0 0 0
279 1 1 0.5897 4.549205442156293 6.527463799051466 17.157560860227612 0 0 0
626 1 1 0.5897 2.930711344338972 9.58095301528022 18.657488992146142 0 0 0
6 1 1 0.5897 2.965767887166957 8.036113076391015 20.905396494197234 0 0 0
680 1 1 0.5897 4.260877546077168 10.403494555303206 16.851319324676396 0 0 0
681 1 1 0.5897 5.099739341040591 11.631279815252942 17.135938656079823 0 0 0
9 1 1 0.5897 6.616590516498449 9.911461139377055 17.173145321824208 0 0 0
690 1 1 0.5897 2.1685900472748854 10.143772567235631 20.71726729153118 0 0 0
627 1 1 0.5897 2.074173797148652 10.10965398716296 17.526724527617127 0 0 0
688 1 2 -1.1794 2.958451025602872 9.764104427566998 20.332242212622695 0 0 0
7 1 2 -1.1794 7.483781653031733 9.626882503598932 17.4617251402116 0 0 0
8 1 1 0.5897 7.472479830631196 9.748106855630212 18.411070486061924 0 0 0
572 1 1 0.5897 1.361231284849972 6.357901655698548 17.046413609668726 0 0 0
140 1 1 0.5897 6.667534168956478 10.050410760689608 20.623488621293276 0 0 0
5 1 1 0.5897 3.8636621793154844 6.831630857417463 20.717913190694368 0 0 0
4 1 2 -1.1794 3.046314036003102 7.109435237361748 21.13147584905846 0 0 0
144 1 1 0.5897 5.46010480956504 6.032799359851311 19.233091788679594 0 0 0
522 1 1 0.5897 7.742719911645743 7.926631513954137 16.76591126243877 0 0 0
361 1 2 -1.1794 5.192761622642088 10.87410968193911 21.452725989847963 0 0 0
625 1 2 -1.1794 2.8863179971861865 9.634586399966237 17.702896413675973 0 0 0
139 1 2 -1.1794 7.478164011196731 9.747103752556411 20.214657495189115 0 0 0
160 1 2 -1.1794 7.6903737537894985 7.212072163330953 21.35813157187595 0 0 0
141 1 1 0.5897 7.604534934635889 8.862955129573841 20.559102311015984 0 0 0
521 1 1 0.5897 6.911350402474618 6.661514051194094 16.786999585560324 0 0 0
647 1 1 0.5897 1.6974010747593138 6.252618199539749 20.402529151579166 0 0 0
394 1 2 -1.1794 0.6949889869777449 10.60018517484282 21.514529904588485 0 0 0
679 1 2 -1.1794 5.0994778522138215 10.813250556939014 16.638827545347404 0 0 0
161 1 1 0.5897 6.916606468505801 6.776972119409567 21.00001859686519 0 0 0
362 1 1 0.5897 5.3867558696140625 11.810641356982092 21.4123270422351 0 0 0
287 1 1 0.5897 8.78846007243198 10.632547245399538 21.203734987556814 0 0 0
224 1 1 0.5897 3.1159025393259037 8.077688241052485 17.023399346310853 0 0 0
446 1 1 0.5897 0.6453274826990271 11.667644829492668 16.75225574769408 0 0 0
246 1 1 0.5897 8.726836674693763 10.745492477487552 16.97839673846137 0 0 0
277 1 2 -1.1794 5.391282359507795 6.097973962834418 17.30837134804173 0 0 0
711 1 1 0.5897 8.96303777910757 6.304311542746405 17.507840868530486 0 0 0
142 1 2 -1.1794 5.487043913889861 6.083357491708065 20.188495437640192 0 0 0
223 1 2 -1.1794 2.909824192604881 7.214079388804477 16.665597547197734 0 0 0
557 1 1 0.5897 2.576896197013698 14.139615717678819 2.491916854684738 0 0 0
449 1 1 0.5897 7.631639676345997 16.456812101380038 2.5764436846545093 0 0 0
293 1 1 0.5897 3.1207632732047954 16.463589701543505 2.4359933698142866 0 0 0
558 1 1 0.5897 3.1904810406403725 14.816883300628188 1.2850258409597866 0 0 0
556 1 2 -1.1794 3.330656860271922 14.662856431681654 2.219225089725686 0 0 0
373 1 2 -1.1794 0.9342586131325861 13.391667026893673 2.993414129593476 0 0 0
173 1 1 0.5897 4.633659248399681 13.750593210920734 2.890987391846852 0 0 0
374 1 1 0.5897 0.8214858705565701 13.289741663734837 3.938389229514594 0 0 0
200 1 1 0.5897 5.6085697968869885 13.830931092655197 5.111688842568285 0 0 0
480 1 1 0.5897 6.500539205989118 14.556936862730254 2.278511208428148 0 0 0
172 1 2 -1.1794 5.329136003639913 13.312794375956368 3.3818582161582498 0 0 0
478 1 2 -1.1794 7.263096647050491 14.913524728681722 1.8228723502982005 0 0 0
479 1 1 0.5897 7.9917378570142015 14.360826561807698 2.105537587348853 0 0 0
174 1 1 0.5897 5.372932375188529 12.434213851230458 3.0043880035550963 0 0 0
294 1 1 0.5897 3.0548727216769476 17.299136296288708 3.6966414295425594 0 0 0
292 1 2 -1.1794 3.238665599952961 17.35690375249905 2.75910795021917 0 0 0
448 1 2 -1.1794 7.694089138958955 17.34778385740823 2.9208068508506697 0 0 0
308 1 1 0.5897 7.447972782874368 17.26873779979291 4.75931112604006 0 0 0
656 1 1 0.5897 1.1941007539032642 13.941910164342357 6.074963121090462 0 0 0
811 1 2 -1.1794 3.2070000669384666 15.216097778015309 9.781513442634472 0 0 0
812 1 1 0.5897 3.9241725570431467 14.65639017371809 10.079327469684241 0 0 0
813 1 1 0.5897 2.428648844442288 14.662379359550583 9.843881768163694 0 0 0
17 1 1 0.5897 2.8394490850711227 14.941950681158833 7.738036106547725 0 0 0
579 1 1 0.5897 4.887938781418984 12.135126350581732 6.339030694460857 0 0 0
186 1 1 0.5897 7.441743353599283 16.531235510735854 10.505294069097314 0 0 0
518 1 1 0.5897 7.882430537414378 15.539552847837337 6.342870935693387 0 0 0
16 1 2 -1.1794 2.802628776584354 14.726374116767685 6.806230236911188 0 0 0
18 1 1 0.5897 3.685488788158863 14.422603876354817 6.595122831738061 0 0 0
184 1 2 -1.1794 7.467069278553791 17.438728866087466 10.808824961273258 0 0 0
767 1 1 0.5897 0.9693659006500326 13.596186782316563 10.694391739148417 0 0 0
384 1 1 0.5897 3.1708268589717212 16.85186790133811 10.492886584087271 0 0 0
766 1 2 -1.1794 0.8379534495699823 13.619182352684858 9.746612841068876 0 0 0
456 1 1 0.5897 5.241666956299839 13.01721380129814 9.827585834700178 0 0 0
376 1 2 -1.1794 7.817023974098815 15.018410533605742 9.690022078307349 0 0 0
378 1 1 0.5897 8.03219015773133 14.884405198024751 8.767044402738767 0 0 0
377 1 1 0.5897 6.997504194693407 14.540360298131326 9.817210751454105 0 0 0
517 1 2 -1.1794 8.086076486832656 14.816480862121914 6.936142341842281 0 0 0
519 1 1 0.5897 8.794000914941982 14.341168076838523 6.501192276785249 0 0 0
454 1 2 -1.1794 5.356419428059034 13.859953853245573 10.266807515374769 0 0 0
199 1 2 -1.1794 5.447073386559961 14.000440401749595 6.039742021540652 0 0 0
201 1 1 0.5897 6.30216375843356 14.249594092128222 6.3905117799228215 0 0 0
239 1 1 0.5897 3.0776427219160922 16.400063287639348 5.905512483403771 0 0 0
655 1 2 -1.1794 0.5259613051003031 13.396760260190732 5.659420576725709 0 0 0
240 1 1 0.5897 4.081837476188937 17.529489323206022 5.995552452060996 0 0 0
238 1 2 -1.1794 3.22758369560024 17.303671539130832 5.6274236404815 0 0 0
307 1 2 -1.1794 7.450782555511046 17.140111654848205 5.707745847678661 0 0 0
232 1 2 -1.1794 2.8539226259520447 14.560755673846367 14.1700730622947 0 0 0
234 1 1 0.5897 2.9977429592202443 14.64807016162928 15.112316288700905 0 0 0
606 1 1 0.5897 3.2546275195737713 16.24742060518011 13.552144614376322 0 0 0
296 1 1 0.5897 7.419432889560421 14.923121217159174 15.132312661179446 0 0 0
639 1 1 0.5897 1.6601097821342665 14.085750137557044 13.028553464677268 0 0 0
233 1 1 0.5897 3.666711974821394 14.179851828658439 13.837570320200966 0 0 0
427 1 2 -1.1794 5.1554341007901625 13.808483553323905 12.990329142959787 0 0 0
297 1 1 0.5897 8.180508812412922 14.47278142138172 13.903631149943545 0 0 0
429 1 1 0.5897 5.971346063057417 14.135822730877582 13.36901876380078 0 0 0
428 1 1 0.5897 5.112647986845432 12.893093367257036 13.267047490148638 0 0 0
295 1 2 -1.1794 7.39461868500058 14.946692548755696 14.175805211148068 0 0 0
270 1 1 0.5897 7.501259535851297 16.718721496914448 13.845014509063926 0 0 0
637 1 2 -1.1794 1.0026880251985646 13.630525161019742 12.502430517183736 0 0 0
638 1 1 0.5897 0.849427477239014 12.808506121940418 12.968397185389055 0 0 0
269 1 1 0.5897 7.7425337279629245 17.512387920183095 12.57866034892807 0 0 0
455 1 1 0.5897 5.208681599522965 13.66976413040529 11.193144334355358 0 0 0
605 1 1 0.5897 3.157113245881613 17.409188726210004 12.586381532439525 0 0 0
604 1 2 -1.1794 3.2710198195999687 17.203788465181482 13.514249749682465 0 0 0
451 1 2 -1.1794 0.8681837850375141 13.339554190226906 20.648435509405886 0 0 0
683 1 1 0.5897 5.958028441225372 14.189534061733328 20.92438004021774 0 0 0
823 1 2 -1.1794 3.1796609159517693 14.878898557829386 16.83552171334574 0 0 0
117 1 1 0.5897 9.041497404872771 13.783335307707496 20.9532105044997 0 0 0
825 1 1 0.5897 2.360676759739414 14.435434076494664 17.056655895435 0 0 0
51 1 1 0.5897 8.154742164198636 14.533591002022014 17.527704955995304 0 0 0
666 1 1 0.5897 2.9749709680401906 15.734960723499407 21.19781579722347 0 0 0
664 1 2 -1.1794 2.9249181043426127 14.837515122935391 21.527117969466893 0 0 0
665 1 1 0.5897 2.1399723271084956 14.474629601434703 21.116643558555225 0 0 0
126 1 1 0.5897 6.020012513172109 13.882594784860098 17.495927877250644 0 0 0
318 1 1 0.5897 7.613940287572349 16.11866749287441 20.97929493206071 0 0 0
52 1 2 -1.1794 1.0078610702059025 13.297759471214528 17.642250717269704 0 0 0
53 1 1 0.5897 0.9151153326714478 13.12289349661521 18.578695097577913 0 0 0
824 1 1 0.5897 3.856699627224165 14.367684603596517 17.27885338820954 0 0 0
50 1 1 0.5897 7.196741533547529 15.687642609369728 17.321509664593556 0 0 0
684 1 1 0.5897 4.446040034198053 14.11715935156426 20.897707522651423 0 0 0
316 1 2 -1.1794 7.590536609691285 15.17849479266087 21.157795514235637 0 0 0
124 1 2 -1.1794 5.28628618930757 13.352579812196806 17.807396057752626 0 0 0
125 1 1 0.5897 5.341509221894026 13.403552227656307 18.761562934147854 0 0 0
682 1 2 -1.1794 5.231849756058981 13.594843981764186 20.736465933041757 0 0 0
716 1 1 0.5897 3.0593260764378307 17.449219739588905 19.31541968490606 0 0 0
584 1 1 0.5897 2.9262407273694504 16.592815348379865 17.415249691997744 0 0 0
583 1 2 -1.1794 2.7063974293565995 17.514855420817945 17.548891960259006 0 0 0
452 1 1 0.5897 0.8006493098406032 12.5235915503934 21.144346945828346 0 0 0
610 1 2 -1.1794 7.214536732123953 17.43872806441211 17.736747717120664 0 0 0
317 1 1 0.5897 7.4212166150186185 15.116867265181439 22.0978133816321 0 0 -1
49 1 2 -1.1794 7.391878489974409 14.801853842477657 17.015539719846743 0 0 0
715 1 2 -1.1794 3.123176592183592 17.40185519696017 20.26924079118365 0 0 0
54 1 1 0.5897 0.19965512685959652 13.750687817336384 17.401513769717248 0 0 0
696 1 1 0.5897 1.674663971528812 22.011340093659364 2.9432023754934225 0 0 0
413 1 1 0.5897 0.6626279277750201 21.106009652090812 4.876779905641863 0 0 0
694 1 2 -1.1794 0.8844227134176206 21.490778921436423 3.0875496099330957 0 0 0
343 1 2 -1.1794 1.2064647325776618 18.966104291393442 2.0067470828691825 0 0 0
227 1 1 0.5897 4.672853253403507 18.10647590437768 2.347844448760904 0 0 0
266 1 1 0.5897 4.8021438829121985 21.619881166252128 2.640913358682984 0 0 0
226 1 2 -1.1794 5.384764261149245 18.49216277663571 1.8372665104915447 0 0 0
344 1 1 0.5897 2.082474998414124 18.65720577654743 2.2380024095650835 0 0 0
228 1 1 0.5897 5.379070759291272 19.418385701311124 2.0789450177060225 0 0 0
450 1 1 0.5897 6.844989359047572 17.742226003930504 2.721444677707788 0 0 0
819 1 1 0.5897 7.827484397884684 23.39383610341757 2.6763650021139784 0 -1 0
817 1 2 -1.1794 7.874166225529954 22.650697337588596 2.0748341884938704 0 0 0
189 1 1 0.5897 3.2980416893094633 22.608509273449144 1.089435164707134 0 0 0
265 1 2 -1.1794 5.567157577396017 21.086567397918557 2.856854452402082 0 0 0
267 1 1 0.5897 6.303768679849844 21.551942264398313 2.460492708463606 0 0 0
818 1 1 0.5897 8.586733294165139 22.110129246030617 2.415974449725668 0 0 0
249 1 1 0.5897 5.334837520134911 20.806743129239223 4.6858904311980725 0 0 0
187 1 2 -1.1794 3.5394765020458987 22.59154708242059 2.015462291522746 0 0 0
345 1 1 0.5897 1.1781292495759494 18.914133923905574 1.0514557440380576 0 0 0
695 1 1 0.5897 1.0332833623176292 20.685820281164794 2.591398197841302 0 0 0
321 1 1 0.5897 8.891090021248836 18.33343158014585 2.0448037527138974 0 0 0
498 1 1 0.5897 7.853160778078368 23.00236190952822 0.24398684788331954 0 0 0
39 1 1 0.5897 3.5554149000177904 21.972794524340934 9.468805270391536 0 0 0
383 1 1 0.5897 3.7535953367592474 18.249185668539333 10.501643253093913 0 0 0
554 1 1 0.5897 6.18893173404095 21.947383601165832 10.184751723191793 0 0 0
404 1 1 0.5897 1.4177687815679418 18.163764293706876 10.042832718444227 0 0 0
701 1 1 0.5897 2.9405456933309817 22.231885144443986 7.235024517867389 0 0 0
414 1 1 0.5897 0.6759439224152168 20.193651075928976 6.084772933679211 0 0 0
385 1 2 -1.1794 5.271187414871375 18.385068326565204 7.019834401065231 0 0 0
86 1 1 0.5897 7.718408307222851 22.548370957903884 8.86884543849756 0 0 0
87 1 1 0.5897 8.568373771049915 22.083845281974362 10.032264573408195 0 0 0
38 1 1 0.5897 2.056052658688209 21.870275545896888 9.651711796022084 0 0 0
31 1 2 -1.1794 7.506262990958533 22.2378741871172 6.992810994711239 0 0 0
702 1 1 0.5897 2.149646545584 21.791632628762997 6.021612241101767 0 0 0
33 1 1 0.5897 6.7837779498665 21.857116424730478 6.493520787472425 0 0 0
309 1 1 0.5897 8.21582769745478 17.627332014093106 6.013702830944371 0 0 0
700 1 2 -1.1794 2.962967288423153 22.22633603491871 6.278184530780115 0 0 0
387 1 1 0.5897 5.301776648444442 19.19866965215308 6.516450082961969 0 0 0
248 1 1 0.5897 4.51381952334247 21.220384975921625 5.888639792443434 0 0 0
32 1 1 0.5897 8.293912755495274 21.959690993102654 6.52540720696987 0 0 0
85 1 2 -1.1794 7.7643975557599205 22.560162503878907 9.824804461188451 0 0 0
405 1 1 0.5897 0.5139575587854522 19.354109920282774 9.80131232915143 0 0 0
553 1 2 -1.1794 5.3033566330925614 21.58769279595854 10.132985022167082 0 0 0
101 1 1 0.5897 6.071032176867833 18.258874902290508 10.00522071889589 0 0 0
555 1 1 0.5897 5.4330761534458345 20.647230079045165 10.01028275952574 0 0 0
102 1 1 0.5897 5.317648057529269 18.732557000028457 8.780565102133096 0 0 0
37 1 2 -1.1794 2.7245901496727853 22.1974633071639 9.049861907178306 0 0 0
100 1 2 -1.1794 5.348582107980419 18.824671713761646 9.732744393208927 0 0 0
342 1 1 0.5897 0.9706308302912148 18.521129549513113 7.4490566147887325 0 0 0
412 1 2 -1.1794 0.5906624008408154 21.11276166912949 5.83118017274479 0 0 0
340 1 2 -1.1794 0.9544029362893657 18.465437856961607 6.4936857051182155 0 0 0
386 1 1 0.5897 6.0671549793863555 17.91682982753884 6.767888234780896 0 0 0
403 1 2 -1.1794 0.6417188636322229 18.438132952170655 9.554242735156341 0 0 0
94 1 2 -1.1794 0.5869542417801272 21.0463986752726 10.62714888945038 0 0 0
247 1 2 -1.1794 5.356320354220001 20.838578684875642 5.642262165790854 0 0 0
185 1 1 0.5897 8.159462661122738 17.846573447553943 10.288737506318938 0 0 0
341 1 1 0.5897 1.7996457958021037 18.08090858634472 6.261329518232053 0 0 0
382 1 2 -1.1794 2.967384195107594 17.75542340268121 10.734829097298835 0 0 0
788 1 1 0.5897 7.650371309730304 22.298406581303134 14.566945424629692 0 0 0
381 1 1 0.5897 1.607002803049772 21.894359809041937 13.67712531657041 0 0 0
474 1 1 0.5897 5.327714737146268 18.960540518490426 16.044075547442198 0 0 0
350 1 1 0.5897 2.5167046882437396 22.57554818597808 16.004312303949927 0 0 0
738 1 1 0.5897 3.938150225048434 22.50754099990921 13.668742890842557 0 0 0
380 1 1 0.5897 0.75625980455793 20.642124635051175 13.660113120889905 0 0 0
504 1 1 0.5897 0.7983806405067903 18.835597054517407 15.111277832921209 0 0 0
503 1 1 0.5897 1.7287691799261806 18.278657061529707 14.054863259594509 0 0 0
88 1 2 -1.1794 5.072258447104617 21.5593466881423 12.79959375754536 0 0 0
736 1 2 -1.1794 3.2293627186247646 22.892966846583107 14.18382698352598 0 0 0
763 1 2 -1.1794 5.3844913063136195 19.080887521804755 14.157569927757091 0 0 0
89 1 1 0.5897 5.0745489926003025 21.53449803834671 11.842800345703568 0 0 0
787 1 2 -1.1794 7.711353505593772 22.407185932289373 13.61795814673286 0 0 0
379 1 2 -1.1794 0.7880075250317912 21.540277527287827 13.330509131992855 0 0 0