LAMMPS data file via write_data, version 30 Jul 2021, timestep = 10000000

864 atoms
2 atom types
576 bonds
1 bond types
288 angles
1 angle types

0.3771990671301264 17.830373332872156 xlo xhi
1.5358219472259904 22.09335585277643 ylo yhi
0.4601819808617389 21.7530138191324 zlo zhi

Masses

1 1.00794
2 15.9994

Pair Coeffs # lj/cut/tip4p/long/omp

1 0 0
2 0.21084 3.1668

Bond Coeffs # harmonic/omp

1 450 0.9572

Angle Coeffs # harmonic/omp

1 55 104.52

Atoms # full

343 1 2 -1.1794 5.943159679696462 3.376054593955595 5.1514035889119025 -1 -1 1
15 1 1 0.5897 2.9439273949387474 5.3074163841828215 2.4116842044807756 -2 -3 -1
740 1 1 0.5897 6.321378216996729 3.2426026912847554 3.3337299798046582 0 2 3
91 1 2 -1.1794 6.0181045200601275 5.985015511717179 4.645109757766139 1 -6 -2
527 1 1 0.5897 2.852895052843691 3.562582491882154 4.452966216067095 -4 -4 -2
14 1 1 0.5897 2.310927167667022 3.94069788644009 2.258168829799347 -2 -3 -1
798 1 1 0.5897 5.104845150217951 3.553134237609596 1.2708603267423786 0 -3 -4
761 1 1 0.5897 5.169026541578631 5.607808120063151 1.857330176981012 3 -1 1
697 1 2 -1.1794 8.539002133878958 1.8024569256655112 0.8862508052384498 -2 5 -2
797 1 1 0.5897 3.893627344782994 3.9700368206488625 0.4638567133234594 0 -3 -4
13 1 2 -1.1794 3.0267935176519507 4.39817053497201 2.699301835204565 -2 -3 -1
785 1 1 0.5897 8.106647140750521 5.388133178317496 4.385707994205885 4 7 3
528 1 1 0.5897 4.180860036937126 3.1617913877547075 5.059571966329198 -4 -4 -2
471 1 1 0.5897 1.5502954761627947 6.264094630778301 0.8616452535205789 3 1 3
344 1 1 0.5897 5.925405270719222 4.312147188056705 4.952102224625542 -1 -1 1
741 1 1 0.5897 6.118038042757436 2.0628895187090523 2.406883769714062 0 2 3
580 1 2 -1.1794 0.41070865467361434 5.3386116960944925 4.538558990178961 0 -1 3
699 1 1 0.5897 7.849521579786203 1.9309197507553593 1.537773401333648 -2 5 -2
32 1 1 0.5897 6.824340472569892 6.438172043905245 0.6521269168003797 1 6 1
739 1 2 -1.1794 6.542965353169688 2.918971340423396 2.460527319790829 0 2 3
796 1 2 -1.1794 4.847805261420954 4.042366527550891 0.48926586004367234 0 -3 -4
517 1 2 -1.1794 8.719991148178494 1.7401264580373326 4.449460659223595 0 0 -4
31 1 2 -1.1794 7.770001626498546 6.520867042843054 0.5288372979482414 1 6 1
526 1 2 -1.1794 3.2355348152909422 3.071929592914203 5.180395577612096 -4 -4 -2
645 1 1 0.5897 9.037149309674493 5.746634922682392 1.6132659167148033 7 -3 -2
519 1 1 0.5897 8.524463597045544 2.653937430547747 4.2420193260199905 0 0 -4
784 1 2 -1.1794 8.796414302999931 4.732007697335493 4.285549489184609 4 7 3
386 1 1 0.5897 0.4419286077397423 1.9566447589508584 2.5705878578858807 -2 4 -1
660 1 1 0.5897 3.277890630392015 6.474820550854633 5.546406699356721 0 2 1
762 1 1 0.5897 5.499804935989097 6.483991655885944 3.0468681635218373 3 -1 1
760 1 2 -1.1794 5.448280100736811 6.493080125436571 2.091057895154833 3 -1 1
93 1 1 0.5897 5.515828294794768 5.929263217780252 5.458104265009138 1 -6 -2
659 1 1 0.5897 1.9317326685445728 6.35100815169626 4.864754576427019 0 2 1
385 1 2 -1.1794 0.483356342413608 2.9113378561097045 2.626723179175109 -2 4 -1
317 1 1 0.5897 4.062107008755295 5.465361509038223 7.548525728424334 -1 -1 -1
192 1 1 0.5897 1.8511919387171494 5.117113300045337 8.244010403522472 2 4 -3
621 1 1 0.5897 6.0465534496511495 3.268764963857015 9.385425435162832 -1 -2 5
770 1 1 0.5897 3.0391514128426738 2.6895842534050693 8.261108209872774 3 1 2
128 1 1 0.5897 7.4460469979381045 2.7786177074997305 7.716318273535809 -1 0 -7
695 1 1 0.5897 1.2154047870948688 3.1021421131632945 6.20367586509017 3 -4 1
191 1 1 0.5897 2.799494466990065 4.729497283884768 9.358778396298899 2 4 -3
127 1 2 -1.1794 7.2168560642483826 3.7066172293486064 7.767518862538895 -1 0 -7
190 1 2 -1.1794 2.6588791836058743 4.633243824147214 8.416811648950329 2 4 -3
769 1 2 -1.1794 3.578843670553672 1.9662513540045672 8.580257095741255 3 1 2
129 1 1 0.5897 8.027698932474577 4.166445545759338 7.5498092739418325 -1 0 -7
619 1 2 -1.1794 5.408741571693251 3.181821760293471 10.093942011111007 -1 -2 5
694 1 2 -1.1794 0.3868757137218575 2.96492493876208 6.663081875065335 3 -4 1
863 1 1 0.5897 8.889721567616434 6.205720695842102 9.37904532586831 1 1 0
345 1 1 0.5897 6.1907210737913285 3.3319789381277074 6.075030207423534 -1 -1 1
620 1 1 0.5897 4.611169631168772 2.8750490157178934 9.662569191772079 -1 -2 5
316 1 2 -1.1794 4.603796994866693 6.057825587422259 7.027090973622091 -1 -1 0
318 1 1 0.5897 5.22146107050094 6.433254311063959 7.654684544033431 -1 -1 0
42 1 1 0.5897 5.4620405091985855 5.211710311586325 10.881999169510534 -5 0 3
303 1 1 0.5897 8.632305614386981 4.820738059014229 11.024593353386543 -3 4 7
79 1 2 -1.1794 2.6628853348653863 5.298870198912312 14.991077349871446 4 3 -4
795 1 1 0.5897 7.748387305618977 3.0810422054130115 15.975908836926438 -3 3 3
46 1 2 -1.1794 5.972845347837124 2.578846412844139 12.86886835319645 4 -2 2
551 1 1 0.5897 3.190677231723805 3.972607560215538 13.429119084288581 0 5 -3
47 1 1 0.5897 5.914254376931736 2.577599842660782 11.913424555964975 4 -2 2
764 1 1 0.5897 8.765647593698862 4.711553115173183 13.32677188935199 -7 2 -5
28 1 2 -1.1794 7.482483666679974 5.253640925354221 16.27511503003147 -6 2 5
81 1 1 0.5897 2.182083544407701 4.744332398365552 15.605613069506177 4 3 -4
570 1 1 0.5897 6.2656354926815965 5.472207094368799 14.584329007143978 3 3 1
765 1 1 0.5897 7.489378986931885 4.111007580569256 12.776704072387187 -7 2 -5
839 1 1 0.5897 2.8391153806864833 2.1529647995180436 14.071308242197093 -2 -1 -2
550 1 2 -1.1794 3.3034948872029415 3.3106840688932953 12.746880084331876 0 5 -3
568 1 2 -1.1794 5.484341893612453 5.604892290856837 14.047408011077886 3 3 1
552 1 1 0.5897 4.236969366868774 3.099847380838692 12.76905583996456 0 5 -3
763 1 2 -1.1794 8.085438474876046 4.85210498904502 12.66808354180469 -7 2 -5
80 1 1 0.5897 2.94983670227344 6.046153511152523 15.516050900699197 4 3 -4
170 1 1 0.5897 1.1372121280680576 6.1439115322020745 13.896653997806215 -2 3 -5
30 1 1 0.5897 7.903907140001205 6.111871174049529 16.321552447662665 -6 2 5
162 1 1 0.5897 2.438820410414922 4.457956208546026 11.628162360676544 3 4 0
48 1 1 0.5897 6.5786534122286495 1.866387507158223 13.073094445537668 4 -2 2
569 1 1 0.5897 4.7583588953879365 5.332119746015607 14.608527209125944 3 3 1
41 1 1 0.5897 5.2530500577765515 5.8063920851899224 12.258532338998927 -5 0 3
840 1 1 0.5897 1.5926878286970434 1.761928645649422 14.836590621735775 -2 -1 -2
793 1 2 -1.1794 8.387148822511069 2.368079458378178 15.97429483560828 -3 3 3
160 1 2 -1.1794 2.2846895911419436 5.273857967112077 11.15187114351261 3 4 0
40 1 2 -1.1794 5.358538481533047 6.046984694060201 11.338037774507368 -5 0 3
838 1 2 -1.1794 2.536065696215316 1.6048715111355136 14.795245701191375 -2 -1 -2
161 1 1 0.5897 1.340682737396928 5.417036757912809 11.220288933988078 3 4 0
352 1 2 -1.1794 4.357917189497872 2.427796957677276 17.301441906865747 9 4 -2
698 1 1 0.5897 8.202069458234504 2.2217498008677548 21.38725496932068 -2 5 -3
674 1 1 0.5897 8.341796649388947 6.089838240722282 19.050495233477307 0 -2 -3
26 1 1 0.5897 4.414478531871093 1.6533484280979163 20.06551296357123 -2 6 8
27 1 1 0.5897 5.059718839126836 2.911543287242554 20.60656931046777 -2 6 8
615 1 1 0.5897 4.777481663929405 5.390552392739665 18.332337974926283 -6 4 7
2 1 1 0.5897 1.9475777913234478 6.470364208959501 18.607407107407262 3 -9 3
238 1 2 -1.1794 5.401166331190007 6.042835618520524 20.043767422530763 -5 -3 -1
354 1 1 0.5897 4.666605051216293 2.2431676584403886 18.188542989340867 9 4 -2
375 1 1 0.5897 1.2574851314225528 3.699198585050659 21.15240706717543 3 6 -3
614 1 1 0.5897 4.8106875177158495 4.217026656126537 17.376371581859253 -6 4 6
613 1 2 -1.1794 5.015684437142372 5.150098648637627 17.43691541233381 -6 4 7
239 1 1 0.5897 5.117439470694448 5.301855160019042 20.579264683262778 -5 -3 -1
374 1 1 0.5897 1.9706427072166823 4.723651702932163 20.29566265637917 3 6 -3
583 1 2 -1.1794 1.8044704225967942 3.6062969302176495 16.834286196828977 0 -6 3
382 1 2 -1.1794 7.9027798312164625 2.6373810721140227 19.543943030924567 -8 -1 -4
383 1 1 0.5897 8.029305068108165 1.769397324521054 19.160661071922718 -8 -1 -4
25 1 2 -1.1794 5.165727433140345 2.233110679121327 19.939628362764722 -2 6 8
353 1 1 0.5897 4.829813123867617 1.8048859093004377 16.748626885848743 9 4 -2
675 1 1 0.5897 6.8800734350171915 6.353908177470013 19.343319652800055 0 -2 -3
384 1 1 0.5897 6.963658909230535 2.686177774569105 19.722796925798832 -8 -1 -4
585 1 1 0.5897 2.5593349220885244 3.0195305732484776 16.787449616886143 0 -6 3
584 1 1 0.5897 1.9589692028096883 4.134044920302436 17.61782010197114 0 -6 3
373 1 2 -1.1794 1.9351376837111929 4.374454695002241 21.186242096548526 3 6 -3
1 1 2 -1.1794 1.646853330055319 5.561977640354597 18.634754937819928 3 -9 3
3 1 1 0.5897 0.6956378750639447 5.626547933696476 18.720581795265012 3 -9 3
33 1 1 0.5897 7.880417872962366 6.627464485438004 20.876806067069474 1 6 0
423 1 1 0.5897 0.4796384189066131 2.8666851658737693 17.56382636599063 -1 -1 3
29 1 1 0.5897 6.582642344166155 5.412373035740593 16.560416105492592 -6 2 5
293 1 1 0.5897 8.499128750105925 10.682032568094666 3.3203058818678577 -3 -4 3
222 1 1 0.5897 1.7972995922428388 9.486263076398554 3.78128037468696 -1 -6 3
52 1 2 -1.1794 2.978591816200194 9.39496507942394 2.178280371997549 -2 0 0
53 1 1 0.5897 3.789023164387123 9.295324456332896 2.677859288838969 -2 0 0
294 1 1 0.5897 8.121882162074192 9.592260754949843 2.3393929517441947 -3 -4 3
92 1 1 0.5897 6.620954414866344 6.715303987852176 4.785114493614286 1 -6 -2
504 1 1 0.5897 8.391938993160046 8.070152560290296 5.765558128111758 -1 1 3
658 1 2 -1.1794 2.6624594808467688 6.955901581069685 4.9930995667327345 0 2 1
394 1 2 -1.1794 6.069976694246349 9.009565941129903 1.2234518050151395 1 2 3
395 1 1 0.5897 5.926307001516561 8.094828755018607 1.4662470862848094 1 2 3
182 1 1 0.5897 4.260549382944088 8.122880786885904 4.429614194681463 -3 3 -3
54 1 1 0.5897 2.7104416761251042 8.49888528526278 1.9747036893296734 -2 0 0
292 1 2 -1.1794 8.688069747513277 9.772337135774901 3.0899419198942284 -3 -4 3
488 1 1 0.5897 2.169108953824557 10.813242889892374 1.1714602304188828 4 -6 1
469 1 2 -1.1794 1.7066055467713355 7.1754443474300444 1.109273548538973 3 1 3
502 1 2 -1.1794 8.128485480467237 7.597366623134501 4.9759919623979085 -1 1 3
181 1 2 -1.1794 4.864842298620514 8.831154941775091 4.207128312536502 -4 3 -3
701 1 1 0.5897 5.546947610449894 10.687249279208912 3.233767788634417 6 0 1
503 1 1 0.5897 8.148233457724286 8.25754914245158 4.283105247383792 -1 1 3
183 1 1 0.5897 5.211330764337502 9.124609526174345 5.049826062795569 -4 3 -3
487 1 2 -1.1794 1.4172329517731117 11.207503253370826 0.7292399888328804 4 -6 1
221 1 1 0.5897 0.9128725026922218 10.708679020835653 3.906073521981227 -1 -6 3
220 1 2 -1.1794 1.2112490079893017 9.937760411349519 4.3887358247125166 -1 -6 3
700 1 2 -1.1794 5.588746592513871 11.62700354659969 3.0564451852676076 6 0 1
470 1 1 0.5897 0.84505614296573 7.5893902296754705 1.0573984102071652 3 1 3
82 1 2 -1.1794 7.637972920346631 11.767340041357368 0.5225300136979689 -2 -2 -9
84 1 1 0.5897 6.955731716600405 11.475248839839175 1.1271280438928097 -2 -2 -9
475 1 2 -1.1794 8.147529706803056 10.416500863631368 10.40858043290017 6 -3 -3
476 1 1 0.5897 7.240356065746643 10.380092309093158 10.712040130605345 6 -3 -3
822 1 1 0.5897 3.375089744557844 10.773499479159986 9.249537479601718 3 1 5
390 1 1 0.5897 1.7526504761583825 8.337157360827614 7.733130891581754 4 6 6
215 1 1 0.5897 5.981635139915063 10.794605945933341 6.856576827133664 1 -2 5
428 1 1 0.5897 1.7572869826849167 7.994030663653937 10.13527680617042 1 -1 -3
216 1 1 0.5897 5.214291383508863 9.652969991229853 7.489008353191209 1 -2 5
388 1 2 -1.1794 2.331972612915365 8.75631444249117 7.096712182889298 4 6 6
214 1 2 -1.1794 5.848970831134123 9.848294309474753 6.7995620198958635 1 -2 5
389 1 1 0.5897 2.290827797900339 8.190536308301258 6.325664019492285 4 6 5
821 1 1 0.5897 3.2534714647430314 9.354648237597091 8.735551307609189 3 1 5
587 1 1 0.5897 3.772535567596293 8.611128702546242 10.759782184984385 1 3 6
45 1 1 0.5897 5.152619639486533 10.443571337204743 10.676627625513815 -3 8 -1
820 1 2 -1.1794 3.8660998897313688 9.956922828079733 9.15777565575848 3 1 5
477 1 1 0.5897 8.123420413350736 10.999092479069827 9.649409293582075 6 -3 -3
663 1 1 0.5897 6.022285669261927 6.9385359244797264 9.948037981728381 -6 -5 1
661 1 2 -1.1794 6.245138216177041 7.260679119217622 9.074603867579858 -6 -5 1
18 1 1 0.5897 2.681197153399675 10.594962074254266 6.100971322276299 -3 4 4
576 1 1 0.5897 0.5288581736388693 11.308716409525571 10.300576215017696 3 5 -2
427 1 2 -1.1794 1.034238523808032 8.27930907549652 9.57659667632481 1 -1 -3
662 1 1 0.5897 7.179054294049201 7.07285646162867 8.980573920627846 -6 -5 1
300 1 1 0.5897 7.718174578533031 9.314094620997349 7.196954308777155 -5 -2 -1
464 1 1 0.5897 1.4876558189004563 11.480877397907491 8.310141463744657 6 1 1
429 1 1 0.5897 0.8273113531417018 9.161955724186795 9.883903028923205 1 -1 -3
16 1 2 -1.1794 2.799013067828481 11.52589560506814 6.290162926353565 -3 4 4
862 1 2 -1.1794 9.008036985176034 7.0437184088633416 8.931667393379481 1 1 0
107 1 1 0.5897 0.6550259772965505 11.145318007430443 6.311808640263336 -4 -3 6
298 1 2 -1.1794 8.63186262961204 9.034445562718767 7.139714265664026 -5 -2 -1
299 1 1 0.5897 8.695969505763616 8.29792363118205 7.747773678574695 -5 -2 -1
450 1 1 0.5897 2.8933491020622717 8.88917081135615 12.865077598414011 7 -3 -7
837 1 1 0.5897 0.5386881200144913 11.39386451073711 14.129801655402012 1 2 -2
88 1 2 -1.1794 7.679315038754327 7.861732005042835 12.121323709451065 5 -5 3
194 1 1 0.5897 7.948109321255909 7.578616555293366 13.97303320685126 1 -4 -1
90 1 1 0.5897 7.873642388815891 6.927598911742885 12.04422932285062 5 -5 3
89 1 1 0.5897 8.366994741618818 8.292610930685552 11.613612077878686 5 -5 3
449 1 1 0.5897 2.986858847107622 8.610345043045335 14.350246798290748 7 -3 -7
627 1 1 0.5897 6.176696641106726 8.764824705094952 13.340956168089647 -6 -4 2
836 1 1 0.5897 1.8043142832478303 11.068696076009179 13.365225685414442 1 2 -2
455 1 1 0.5897 8.603936794855867 11.183767119497976 15.68440939087855 1 -2 0
625 1 2 -1.1794 5.792863749719687 9.618467497979298 13.541675693517963 -6 -4 2
845 1 1 0.5897 6.698344253425774 8.303910866449502 16.204636252118974 -3 -3 4
626 1 1 0.5897 4.904292461162873 9.418749941621474 13.836410329018996 -6 -4 2
520 1 2 -1.1794 6.860228967692159 11.287179238073225 15.467861237261994 -4 -4 -3
193 1 2 -1.1794 8.38423479734141 7.845914160072819 14.782144188191442 1 -4 -1
44 1 1 0.5897 5.655244832227437 10.602572061260249 12.09587089947429 -3 8 -1
448 1 2 -1.1794 2.988059622825184 9.324215916785576 13.712482605375143 7 -3 -7
521 1 1 0.5897 6.676930988916232 10.720518395869052 14.718454174448755 -4 -4 -3
835 1 2 -1.1794 1.075848051905934 11.689021860262255 13.394500868244412 1 2 -2
522 1 1 0.5897 6.003978172212812 11.629036667510606 15.725353646661329 -4 -4 -3
43 1 2 -1.1794 5.546965567971305 11.079901536984218 11.273212637405074 -3 8 -1
778 1 2 -1.1794 3.391652505291583 7.841524454536747 16.088508781071162 -2 1 -1
86 1 1 0.5897 1.1607320806326804 10.119289584406665 15.901936636314073 1 7 2
779 1 1 0.5897 3.1876514363253325 8.723356906544879 16.400060445548085 -2 1 -1
588 1 1 0.5897 3.6827160705637034 7.156445579285963 11.169558560009122 1 3 6
586 1 2 -1.1794 3.2184292886379375 7.991072421320489 11.233918399502608 1 3 6
12 1 1 0.5897 5.925274507540711 9.381015733279797 18.074885670101942 -3 -1 3
844 1 2 -1.1794 6.18236219768962 8.048883037586343 16.969536019935113 -3 -3 4
309 1 1 0.5897 2.210083351612232 10.342277794742676 17.832511311133636 3 2 -2
496 1 2 -1.1794 4.321573665577171 10.55831843477732 20.9287749756879 3 2 0
673 1 2 -1.1794 7.690247302976953 6.790502190227868 19.080043638155793 0 -2 -3
498 1 1 0.5897 4.682375362779963 9.99347910804304 21.612222481085112 3 2 -1
497 1 1 0.5897 4.851928968167132 10.36758231625688 20.15504083441668 3 2 0
304 1 2 -1.1794 1.0524783217707956 10.839600747488424 19.237110551519827 5 -3 -9
306 1 1 0.5897 1.330222303239346 11.003628211405925 20.138381822191867 5 -3 -9
590 1 1 0.5897 2.6150854238293486 7.549518204980428 20.822501656334786 7 3 3
589 1 2 -1.1794 3.232703904473397 7.7514663887005675 20.11959172360185 7 3 3
49 1 2 -1.1794 7.841642648899256 9.385011794375313 20.473495037557306 5 -1 -3
308 1 1 0.5897 3.3930867830718543 10.803877913943456 17.008158939854304 3 2 -2
11 1 1 0.5897 6.370658411643933 10.8217470583073 18.20914768890632 -3 -1 3
846 1 1 0.5897 6.807704775573972 7.607943204802351 17.54471023008331 -3 -3 4
307 1 2 -1.1794 2.6902199159322655 10.154264648178629 17.02600366828424 3 2 -2
50 1 1 0.5897 7.339963988675924 9.700180246889246 19.7216263484176 5 -1 -3
10 1 2 -1.1794 5.837824804288273 10.151168312462486 18.63661890881098 -3 -1 3
591 1 1 0.5897 3.2860165198891145 8.707208295119964 20.114188999170928 7 3 3
51 1 1 0.5897 8.29524603996501 8.606577551166883 20.150069531150443 5 -1 -3
305 1 1 0.5897 0.4689721780444458 10.083333251957525 19.299659364131024 5 -3 -9
83 1 1 0.5897 7.8585136072772634 10.986728256274738 21.307113177137808 -2 -2 -10
240 1 1 0.5897 4.69876938752222 6.686918896165708 20.133830249477704 -5 -3 -1
396 1 1 0.5897 6.587568407271806 8.965999756303834 21.712227561845392 1 2 1
780 1 1 0.5897 4.2056961921276645 7.6111044961676315 16.536339047710484 -2 1 -1
678 1 1 0.5897 8.196874011022224 12.911584799694982 3.9241755086206327 5 2 -2
263 1 1 0.5897 4.866642746191313 14.767840848910973 2.5077870180508897 3 -1 4
805 1 2 -1.1794 3.1705852566711004 13.006657140761265 4.0334493266280536 2 -1 -5
558 1 1 0.5897 8.249283239548081 15.849369036297709 2.609203312842445 3 1 4
806 1 1 0.5897 3.2182537065452093 13.942904687023125 3.839835888600841 2 -1 -5
667 1 2 -1.1794 8.959183286803155 13.435584233770674 2.383170265727145 -6 -3 -3
126 1 1 0.5897 2.3998725396153233 15.155221886768475 2.125709900144286 3 0 5
147 1 1 0.5897 1.5244668222842803 12.815328185307793 3.4844987645729737 0 5 -5
781 1 2 -1.1794 1.5007581751278918 14.127434030265075 0.950982435531498 -4 2 0
124 1 2 -1.1794 3.064791882810954 15.524503943634894 2.7069366607266305 3 0 5
807 1 1 0.5897 4.075160470341289 12.701036120050807 3.9649655965304484 2 -1 -5
264 1 1 0.5897 5.457348342122467 13.376673554174117 2.4193375854451338 3 -1 4
600 1 1 0.5897 7.345010950959863 15.625649159847987 5.482360776526534 3 -4 -3
556 1 2 -1.1794 7.335025176727371 16.13284914512635 2.6181628445883804 3 1 4
557 1 1 0.5897 6.8314400219481195 15.318829573405392 2.6278256731383065 3 1 4
677 1 1 0.5897 8.160579167193198 12.382205963837007 5.342104871767601 5 2 -2
262 1 2 -1.1794 5.496133085264293 14.242754392290353 2.0134823692910313 3 -1 4
533 1 1 0.5897 4.940535225403592 15.326775805369948 5.335535027327154 -3 -1 -1
125 1 1 0.5897 2.602249222910378 16.201136988468043 3.201452209572501 3 0 5
534 1 1 0.5897 5.716634197010424 14.027579642155077 5.292268222527602 -3 -1 -1
532 1 2 -1.1794 5.714432559503782 14.919943864608205 4.9458220163649065 -3 -1 -1
431 1 1 0.5897 4.696846508160475 13.449941375287068 0.495801450850293 -8 -1 -2
668 1 1 0.5897 8.554802440188144 13.036782698523393 1.612620103522379 -6 -3 -4
234 1 1 0.5897 0.5681937514546783 15.704725457923306 0.7586398411452878 -2 -1 1
656 1 1 0.5897 6.651755033182779 16.465934365937358 1.1041409872260401 -6 2 2
599 1 1 0.5897 8.635378147977121 16.186883824720944 4.923725309002089 3 -4 -3
201 1 1 0.5897 0.8336876454795427 16.448745062842782 5.17846211016825 2 -7 2
145 1 2 -1.1794 0.6945686893414058 12.441203091286292 3.188484295442437 0 5 -5
676 1 2 -1.1794 7.6666053746386 12.38469204249816 4.522145078697114 5 2 -2
199 1 2 -1.1794 1.090397568617202 16.516025394500772 4.25869265524136 2 -7 2
232 1 2 -1.1794 0.4837402519402647 16.65546218837935 0.8313086385471062 -2 -1 1
17 1 1 0.5897 2.873921815346348 11.938101689755158 5.429470934306367 -3 4 4
702 1 1 0.5897 6.32838259595067 11.937170425203211 3.5789804508499334 6 0 1
155 1 1 0.5897 3.1366887493706126 16.61600795111822 1.0213956610412267 2 3 -4
489 1 1 0.5897 1.0703717113260303 11.837423199961949 1.3610641554622243 4 -6 1
598 1 2 -1.1794 8.20026246749094 15.964604955571955 5.746878292285833 3 -4 -3
782 1 1 0.5897 0.7071366637104438 13.694819722586328 0.6358258375641057 -4 2 0
783 1 1 0.5897 2.2169090705926195 13.649467242351736 0.5326629636591775 -4 2 0
379 1 2 -1.1794 2.893131298896648 16.209152628049235 9.817409101051712 5 0 2
265 1 2 -1.1794 3.705530899826645 16.460534107565127 6.167196352339715 -4 -1 0
755 1 1 0.5897 6.066574212308416 14.504593054082685 9.817866289225666 -5 -5 -6
381 1 1 0.5897 2.329185524802541 15.510033716090279 10.148324029087922 5 0 2
731 1 1 0.5897 7.055505745419973 12.73627125559604 7.22549613651676 -1 -1 -5
266 1 1 0.5897 2.7827744797995484 16.293252490740667 6.35914656154696 -4 -1 0
184 1 2 -1.1794 5.334003730666653 12.623117334365535 7.011368687525764 -1 4 0
277 1 2 -1.1794 0.840543133277041 16.570954928095524 7.175875788134332 3 0 2
419 1 1 0.5897 8.74048850387899 15.889387586628075 8.76244442786876 -5 -3 5
754 1 2 -1.1794 5.494972493465402 14.48318949497648 9.050321232912037 -5 -5 -6
186 1 1 0.5897 4.505532753644866 12.277080272868277 6.679384943769557 -1 4 0
756 1 1 0.5897 5.329458160883434 15.40417506567831 8.848587957231883 -5 -5 -6
463 1 2 -1.1794 1.737436881660455 11.908346065239456 9.129411807622082 6 1 1
380 1 1 0.5897 3.6461751876258575 16.210033719244016 10.408370676302697 5 0 2
730 1 2 -1.1794 7.988951754560669 12.585297234677068 7.3745685818984965 -1 -1 -5
732 1 1 0.5897 8.346952166474857 13.454652014688712 7.554473265520083 -1 -1 -5
76 1 2 -1.1794 3.756441215197126 13.324742197231263 11.069313972720948 -3 -4 -4
465 1 1 0.5897 1.4252970692885718 12.808373551592213 9.035389303674807 6 1 1
77 1 1 0.5897 4.154370845500271 13.708305258229299 10.287715513740228 -3 -4 -4
267 1 1 0.5897 4.083766217256953 16.713732967664292 7.009314865816066 -4 -1 0
278 1 1 0.5897 0.5497852347465537 15.762298062198683 7.597604946489147 3 0 2
185 1 1 0.5897 5.080336627248682 13.214127374577926 7.720360130150355 -1 4 0
418 1 2 -1.1794 8.989064206226386 15.065133916906642 8.343963207875055 -5 -3 5
417 1 1 0.5897 3.8373425727739465 16.544245736502944 12.292176827845504 2 -2 -4
603 1 1 0.5897 3.890260649007015 12.576026942109873 16.02433964399173 7 5 -2
708 1 1 0.5897 2.853064688762071 14.370545255262714 14.754258731468056 -2 1 -7
562 1 2 -1.1794 5.58142034213211 14.23413171864057 13.98452262567758 3 -3 2
143 1 1 0.5897 6.630424136225249 12.589721857736576 11.578492773900301 4 8 3
453 1 1 0.5897 2.11298194756411 13.79596287227769 11.310030974074902 0 -2 2
142 1 2 -1.1794 6.725089494240597 13.54032889488115 11.639384102911803 4 8 3
811 1 2 -1.1794 7.9102848207719925 14.500371937425538 15.934949896256569 -2 5 1
507 1 1 0.5897 6.488286040716363 16.932129482842758 12.220821212708778 2 -1 0
813 1 1 0.5897 7.140913869670342 14.302332125951056 15.400940645306532 -2 5 1
451 1 2 -1.1794 1.2366575644406745 14.045429378976879 11.60357799895835 0 -2 2
153 1 1 0.5897 3.866318573957001 16.186859855175257 15.797063695552565 2 0 -5
725 1 1 0.5897 5.713000770654374 16.32233957777262 14.353144831307207 5 -7 3
452 1 1 0.5897 1.0183945022285728 13.403987900723779 12.279775243806565 0 -2 2
707 1 1 0.5897 2.2157279872288735 13.225111632496745 13.996717309900038 -2 1 -7
706 1 2 -1.1794 3.0080304932335804 13.46787196696407 14.475919544641531 -2 1 -7
564 1 1 0.5897 5.94295505624277 13.879272333685565 13.172291100995706 3 -3 2
724 1 2 -1.1794 5.457787824023146 16.951648236700187 15.027818639912246 5 -7 3
416 1 1 0.5897 4.479059264509588 15.216010912832097 11.95143658525192 2 -2 -4
144 1 1 0.5897 7.665346081129721 13.681251575352167 11.750599319767424 4 8 3
572 1 1 0.5897 0.4678769702929202 15.841336976325607 12.138308665976773 1 1 -4
151 1 2 -1.1794 2.9345344638557247 16.016618295711453 15.658848388287868 2 0 -5
563 1 1 0.5897 4.649304853228978 14.01956519993641 13.94622268226573 3 -3 2
415 1 2 -1.1794 4.604798992143593 16.161224625673253 11.867177284959261 2 -2 -4
78 1 1 0.5897 4.274809210771185 12.5386074269697 11.241360301063363 -3 -4 -4
812 1 1 0.5897 7.591044480492029 15.112431680632282 16.598114044385 -2 5 1
282 1 1 0.5897 1.2860826663663254 16.66056760980477 19.10492091531244 -4 -2 0
433 1 2 -1.1794 7.692650448206874 12.245085936400336 18.23978418910025 0 4 -5
753 1 1 0.5897 2.817241685869073 15.106364081747202 18.534814542049844 1 -2 -2
635 1 1 0.5897 5.897845310047656 16.47157714921144 16.719664429653257 -7 0 2
602 1 1 0.5897 4.680115249695031 12.743337736590423 17.305053752601353 7 5 -3
432 1 1 0.5897 3.9160139734858177 12.334355249355191 21.12690327951762 -8 -1 -3
327 1 1 0.5897 7.057624931130302 13.729242404834956 20.857604791651163 -2 -2 -1
411 1 1 0.5897 5.183237709664356 14.784013425813203 18.431760486958765 6 0 -5
409 1 2 -1.1794 4.432595745619363 14.190619799921581 18.40442574089208 6 0 -5
752 1 1 0.5897 1.396362713019442 14.75980654235876 18.143509016499173 1 -2 -2
326 1 1 0.5897 7.668151273889799 14.873487248644512 20.07652611091264 -2 -2 -1
601 1 2 -1.1794 4.554688783482086 12.149030257575278 16.565204737505105 7 5 -2
634 1 2 -1.1794 6.254731639268185 16.10732320556112 17.52976597984984 -7 0 2
430 1 2 -1.1794 4.004965757198828 13.28724113840928 21.147427723934115 -8 -1 -3
751 1 2 -1.1794 1.9838152131964715 15.502990314236627 18.281035475490782 1 -2 -2
410 1 1 0.5897 4.232747348531707 14.01389722703014 19.323752344414906 6 0 -5
434 1 1 0.5897 7.749221619182524 12.65521204438552 17.37669254322614 0 4 -5
655 1 2 -1.1794 6.164053428857549 16.593361324022922 21.583194643188747 -6 2 1
325 1 2 -1.1794 6.852519020272897 14.38588610886698 20.19196924660941 -2 -2 -1
435 1 1 0.5897 7.3037431849227135 12.91700996293935 18.799763368763188 0 4 -5
636 1 1 0.5897 6.834953118034091 16.79088695535223 17.865086941485124 -7 0 2
657 1 1 0.5897 6.264470376185901 15.76662227706871 21.111249260078637 -5 2 1
204 1 1 0.5897 0.7602328681324466 12.69765571789201 18.445204067106623 -1 3 -1
152 1 1 0.5897 2.5960695538489187 15.811958662994282 16.530550710260137 2 0 -6
297 1 1 0.5897 5.750335382881531 18.680077484801323 3.9175828261040837 2 5 1
37 1 2 -1.1794 2.3392617479856965 21.012152919304242 4.745285104681729 -2 -2 -5
809 1 1 0.5897 5.917604692862275 20.419421734943604 1.3024629237007743 4 0 0
295 1 2 -1.1794 6.662499565727765 18.904292762953226 3.733211859473148 2 5 1
110 1 1 0.5897 1.1568270199588992 20.69791925134241 3.3990076912501532 -1 -2 -9
109 1 2 -1.1794 0.6904806493941389 20.511110378273848 2.58415144223915 -1 -2 -9
808 1 2 -1.1794 5.466924763246824 20.690979923109904 2.1021357105750393 4 0 0
38 1 1 0.5897 1.9849926350457026 20.76123060352317 5.598423260111333 -2 -2 -5
628 1 2 -1.1794 3.010825594287899 19.951096715031703 1.1512810786364316 -2 -5 3
595 1 2 -1.1794 4.0240007819796695 18.747962111824496 4.511659360583625 5 -6 3
629 1 1 0.5897 3.2238061557118156 19.02524493033604 1.0338104722627854 -2 -5 3
630 1 1 0.5897 3.715114730137368 20.29117786099588 1.7032345860054467 -2 -5 3
111 1 1 0.5897 1.3444354832623682 20.093261523503184 2.0237150532273613 -1 -2 -9
597 1 1 0.5897 3.8621064612106184 18.002422779083453 5.08984309703409 5 -6 3
596 1 1 0.5897 3.3058631750281844 19.353902715676792 4.69456479744921 6 -6 3
444 1 1 0.5897 8.206897306721075 19.398490071880612 0.513535158923248 2 3 -3
200 1 1 0.5897 0.397025897143337 17.036959333349024 3.853496040754518 2 -7 2
39 1 1 0.5897 2.6516427390015136 21.908447870965407 4.869341157564223 -2 -2 -5
810 1 1 0.5897 5.858316982107532 20.15506932849732 2.792016283617639 4 0 0
633 1 1 0.5897 7.213253398202213 18.94693233486339 5.60242942301485 8 9 4
296 1 1 0.5897 7.009955580348818 18.1388427755118 3.2753189717107665 2 5 1
518 1 1 0.5897 8.134758618490544 22.08614631812984 5.176850354212579 0 -1 -4
442 1 2 -1.1794 9.100013044565825 19.434744166890358 0.856099432395952 2 3 -3
530 1 1 0.5897 8.970093210414356 19.0650872759645 4.030455437806333 -1 -2 -5
156 1 1 0.5897 4.541441529863445 16.971787060470028 0.5829709397352545 2 3 -4
179 1 1 0.5897 8.100225092801082 20.0686673681013 10.846069736864441 -10 2 -1
525 1 1 0.5897 5.209521955828192 17.796215288021266 8.701828643680527 0 0 5
524 1 1 0.5897 6.239777203168193 17.560465831212017 7.617795628798598 0 0 5
95 1 1 0.5897 6.463661790994844 21.181792367189384 6.690084641199366 -6 -2 -2
180 1 1 0.5897 8.290786458653319 19.312771344304867 9.548230472971458 -10 2 -1
96 1 1 0.5897 7.825222151257598 20.923260127182058 7.29952874034684 -7 -2 -2
790 1 2 -1.1794 1.5360340893258864 18.512684040869264 9.290819658788251 5 3 2
446 1 1 0.5897 4.3411258207784895 19.7846608094581 9.805671223503774 2 3 -1
330 1 1 0.5897 1.4118705294889102 19.78208553502041 7.902839864461256 3 5 1
445 1 2 -1.1794 5.014937309335963 19.487127256148685 9.194299747326397 2 3 -1
94 1 2 -1.1794 7.218915844421313 21.628439614845444 7.072736761166788 -7 -2 -2
792 1 1 0.5897 0.6242963076638961 18.385068324809364 9.553040107138605 5 3 2
121 1 2 -1.1794 2.9633041207075523 20.47521747850034 10.643211482160968 6 -3 -2
800 1 1 0.5897 4.509153271539367 19.797108651591 5.8749155790260525 -1 2 5
447 1 1 0.5897 5.837903853396759 19.602503241597162 9.669425274849111 3 3 -1
799 1 2 -1.1794 4.760315389283699 20.441765135607167 6.53647638330256 -1 2 5
123 1 1 0.5897 2.327107486376735 19.875909740168602 10.252783649045984 6 -3 -2
791 1 1 0.5897 1.9832659444646856 17.718439345227686 9.583192812453929 5 3 2
801 1 1 0.5897 4.764562501434275 19.9522901118607 7.359095223849067 -1 2 5
279 1 1 0.5897 0.7251967967422772 17.24556092572306 7.845145423909464 3 0 2
178 1 2 -1.1794 7.6589423331524795 19.46178084211032 10.251706228230118 -10 2 -1
328 1 2 -1.1794 1.1998873654812776 20.242692034393233 7.090922168490563 3 5 1
122 1 1 0.5897 2.99492981255865 21.2178967786717 10.040098038851722 6 -3 -2
631 1 2 -1.1794 7.424600844157344 18.470159540560502 6.405137156558595 8 9 4
759 1 1 0.5897 8.896622444875879 19.10104788238488 7.481454221057735 -3 2 2