LAMMPS data file via write_data, version 30 Jul 2021, timestep = 13250000

864 atoms
2 atom types
576 bonds
1 bond types
288 angles
1 angle types

0.4379509343981649 17.76962146559196 xlo xhi
1.6073796221901198 22.02179817781188 ylo yhi
0.5342991170307734 21.67889668297643 zlo zhi

Masses

1 1.00794
2 15.9994

Pair Coeffs # lj/cut/tip4p/long/omp

1 0 0
2 0.21084 3.1668

Bond Coeffs # harmonic/omp

1 450 0.9572

Angle Coeffs # harmonic/omp

1 55 104.52

Atoms # full

183 1 1 0.5897 2.88474358440717 5.614012526264274 2.2665399717092765 -4 2 0
256 1 2 -1.1794 1.8700201531125114 3.1277615266239267 1.3250214114833576 2 -4 -1
181 1 2 -1.1794 2.272482521703734 5.7494836214084675 1.5433226819247623 -4 2 0
729 1 1 0.5897 1.3944850292581887 2.8632896936124896 4.886363580196329 -2 4 1
182 1 1 0.5897 2.10324677391192 4.870454845383103 1.2042817425658692 -3 2 0
342 1 1 0.5897 3.73594201756982 2.304142912622047 3.504987059494608 1 6 4
806 1 1 0.5897 3.5993422636272085 5.775695404606891 4.177571322301083 1 0 -3
257 1 1 0.5897 2.2796599465246077 2.8496925621554623 2.144251200070377 2 -4 -1
340 1 2 -1.1794 2.8473296847616507 2.2723928219906226 3.8594270231733474 1 6 4
258 1 1 0.5897 2.534966809224032 2.963492282179021 0.6563425094113315 2 -4 -1
805 1 2 -1.1794 4.232638905472308 5.695660966340623 3.464272910710349 1 0 -3
112 1 2 -1.1794 2.37985301494834 5.411529329490688 5.560405515585508 -2 -3 1
114 1 1 0.5897 1.6465089986996444 4.820634346229955 5.731642797053216 -2 -3 1
368 1 1 0.5897 1.019524603632235 6.46808031890086 2.755563239701521 0 8 -2
807 1 1 0.5897 4.58144253956392 6.5800664592367495 3.3526848900885535 1 0 -3
727 1 2 -1.1794 0.6960316921471629 3.280740349673709 5.390563028241407 -2 4 1
341 1 1 0.5897 2.3976097725203163 1.6206001684071545 3.3216676933865954 1 6 4
90 1 1 0.5897 4.75244993348088 5.614697999075562 7.755916496948433 7 -1 5
113 1 1 0.5897 2.158464584236209 6.21264934762686 6.035216787052327 -2 -3 1
748 1 2 -1.1794 1.4625195098267174 5.972038538100425 9.37019165759986 4 5 -1
343 1 2 -1.1794 4.01291688003197 3.3378591049258666 6.40652105339286 -1 3 1
514 1 2 -1.1794 3.554699226393494 2.06947927712527 10.911376780148734 1 -3 0
344 1 1 0.5897 3.5942481895200475 4.1098551412236795 6.025734907526882 -1 3 1
105 1 1 0.5897 0.9951995706212567 4.202652102441747 8.789031962195104 -1 0 6
103 1 2 -1.1794 0.6110560445545162 3.4351030795265984 8.36525484351294 -1 0 6
750 1 1 0.5897 2.2291566110372116 6.134066769963718 8.820398928637808 4 5 -1
675 1 1 0.5897 2.947871559481467 2.207448583110863 7.487349218574075 -5 -1 -5
749 1 1 0.5897 0.8058918680735188 6.593419760409738 9.055514844900742 4 5 -1
674 1 1 0.5897 1.7038358702092362 2.1882190521537686 8.349887587466544 -5 -1 -5
89 1 1 0.5897 4.433505356787643 4.814213719105046 9.000691411921874 7 -1 5
88 1 2 -1.1794 4.162888457854644 5.590023913565473 8.509625784751247 7 -1 5
728 1 1 0.5897 0.8177371347879789 2.9567173045257236 6.28300678699397 -2 4 1
673 1 2 -1.1794 2.4050758366360934 1.6262703979494475 8.020138022739236 -5 -1 -5
397 1 2 -1.1794 3.403947183698603 6.454377134027853 12.26572727690579 4 5 -8
414 1 1 0.5897 1.6623642318588114 3.2778599322221935 11.554016570592104 5 1 1
390 1 1 0.5897 0.8885791936438234 4.331292892874641 13.76332900095872 2 7 3
692 1 1 0.5897 2.5793178559324645 6.105145099071533 15.752004133841856 2 2 4
486 1 1 0.5897 2.834069283476613 2.2200987709764592 13.519010259180448 -2 2 -3
412 1 2 -1.1794 1.2560668437994686 4.0493134217753965 11.94902766619689 5 1 1
496 1 2 -1.1794 3.832104610525418 3.812043450732609 13.720994017839617 0 2 1
498 1 1 0.5897 4.719397301882472 3.7447480863364255 13.368233601849424 0 2 0
497 1 1 0.5897 3.3489803187579383 4.31049441605265 13.061905725062557 0 2 1
282 1 1 0.5897 4.579841931750973 3.1185103673919006 16.080996096991846 1 -1 0
693 1 1 0.5897 1.4690680835220373 5.0767263305226376 15.79265217570941 2 2 4
398 1 1 0.5897 3.9233604124808172 6.694700116637898 13.033045125937369 4 5 -8
281 1 1 0.5897 3.837802418078741 4.427658564936792 16.24698518018274 1 -1 0
413 1 1 0.5897 1.3832130208335554 4.744579866418602 11.303512118182962 5 1 1
691 1 2 -1.1794 1.906196988047624 5.740210257142374 16.32647999929094 2 2 4
388 1 2 -1.1794 0.44218744169588575 4.281321782626967 14.608604517166363 2 7 3
843 1 1 0.5897 3.9039173987007696 3.497207540529492 20.071275366466427 -2 0 2
567 1 1 0.5897 0.9196014957495788 6.360709639103489 19.632950699166223 -1 7 -5
757 1 2 -1.1794 3.781309902698698 5.010449084441181 19.016230162837928 -2 3 3
533 1 1 0.5897 0.49023448435922823 4.12124347682529 18.157407557906357 -8 -1 -2
565 1 2 -1.1794 1.071998550777336 5.415870227532545 19.650489091323028 -1 7 -5
759 1 1 0.5897 4.249705685632737 5.793834460853397 19.30465864063316 -2 3 3
758 1 1 0.5897 4.244144679658275 4.7313619727898395 18.226197218973397 -2 3 3
566 1 1 0.5897 1.9959601362257697 5.317501900800794 19.420548250810533 -1 7 -5
534 1 1 0.5897 0.895748456063791 2.981716490113951 17.24691725250735 -8 -1 -2
842 1 1 0.5897 3.452111474000709 2.058170037203155 20.201614174088856 -2 0 2
841 1 2 -1.1794 3.814728839347217 2.786360992879349 20.70609383741247 -2 0 2
700 1 2 -1.1794 2.2490306320116815 1.6720126985409198 16.744483481734576 3 1 2
280 1 2 -1.1794 4.601051041550489 3.9447011800168053 16.56396373896339 1 -1 0
456 1 1 0.5897 1.2484481122252449 10.326408723984384 1.3599618838589143 0 -2 1
116 1 1 0.5897 3.541703588432472 11.271562785512536 2.1707345868059384 0 -2 4
178 1 2 -1.1794 2.126314584124629 9.12365280788972 4.018422629475517 -8 1 -3
179 1 1 0.5897 2.1146973921652408 10.07009768537662 4.161199308446854 -8 1 -3
367 1 2 -1.1794 0.5897186387146627 7.013820194721583 3.4141142695294002 0 8 -2
369 1 1 0.5897 1.1803947424115175 7.757783372598176 3.531922566607991 0 8 -3
180 1 1 0.5897 2.0892263224659504 8.747797657270416 4.89797463167063 -8 1 -3
454 1 2 -1.1794 2.0052757015865272 10.904482931594655 1.2635557046089088 0 -2 1
200 1 1 0.5897 4.115780546419991 8.719385849408464 3.2768332682071284 2 -5 -2
86 1 1 0.5897 2.79155669071075 7.232928569485369 0.6813217233713245 -3 4 2
115 1 2 -1.1794 4.3488124917057185 11.718224297053096 2.426318040543733 0 -2 4
101 1 1 0.5897 0.6962743768678508 8.945532287222449 8.700615229805765 6 -3 0
541 1 2 -1.1794 1.7403712337755248 11.336245487558589 6.992332208727828 -5 1 3
542 1 1 0.5897 0.8256924080423872 11.201428457666292 6.7444042813090626 -5 1 3
487 1 2 -1.1794 4.046711330115069 7.9762069544564245 10.120844831698134 0 -4 3
373 1 2 -1.1794 2.530745642408675 8.03768789078396 6.505242987552856 5 7 -2
488 1 1 0.5897 4.225184956668226 7.320866891896549 9.446351106834545 0 -4 3
374 1 1 0.5897 2.0847049493476764 8.495773114291328 7.217611211749151 5 7 -2
489 1 1 0.5897 3.1903455386202295 8.33425667460303 9.886954245064832 0 -4 3
100 1 2 -1.1794 1.6118060520412743 9.104728306623539 8.930257785566772 6 -3 0
102 1 1 0.5897 1.8101863543931178 9.9592758877039 8.54729582196583 6 -3 0
375 1 1 0.5897 3.3918955234225674 8.452616052893315 6.455144477240928 5 7 -2
811 1 2 -1.1794 4.169605060546383 7.2954358058901 15.04012654191331 -1 4 -5
725 1 1 0.5897 4.170526332909224 10.551431181438335 15.00530969251322 2 -6 2
639 1 1 0.5897 1.503462327080263 8.355105885496851 13.464840424582444 -7 0 2
399 1 1 0.5897 3.64123530130811 7.10269645317602 11.602681301832224 4 5 -8
812 1 1 0.5897 3.818256165985169 8.160988830447938 14.831250853815462 -1 4 -5
726 1 1 0.5897 4.287821588758773 10.123762171719243 13.557787850707157 2 -6 2
432 1 1 0.5897 2.4316461477932907 11.458745518990296 14.308489701999362 -3 -2 -5
637 1 2 -1.1794 1.2052378561949348 7.9972444946771555 12.62862211133712 -7 0 2
724 1 2 -1.1794 3.686371577732413 10.11806122242132 14.30242326403487 2 -6 2
638 1 1 0.5897 1.8800984450467906 7.363899452628117 12.384281219505079 -7 0 2
151 1 2 -1.1794 0.691160244679752 10.641246798962532 11.295768416333837 2 -1 1
152 1 1 0.5897 0.835700566108327 9.703600337477791 11.42298448365955 2 -1 0
9 1 1 0.5897 4.737553351721012 9.334699977679069 11.237646055043005 4 0 1
835 1 2 -1.1794 0.5844710244581851 8.146806450592063 19.812268894928504 -1 4 -1
392 1 1 0.5897 3.96735325511997 8.893087953565132 18.008373383134167 2 -4 -3
110 1 1 0.5897 3.74217591728423 9.694076155094521 21.14746878715101 -1 -1 -6
784 1 2 -1.1794 2.2839098103824615 8.800806456523244 17.737596139864742 4 4 1
109 1 2 -1.1794 4.3845165590569755 10.268196440274789 20.730277949603106 -1 -1 -6
837 1 1 0.5897 1.1716454089750366 8.316294291498217 19.0755161374753 -1 4 -1
111 1 1 0.5897 4.557027872997223 9.85909431095417 19.882256143101493 -1 -1 -6
786 1 1 0.5897 2.100885348379418 9.740081096348131 17.714717841288806 4 4 1
76 1 2 -1.1794 2.393295490044954 11.62281561551471 17.416129017440284 -4 -4 -3
87 1 1 0.5897 1.8707037342332304 8.041690348688872 20.937124663195434 -3 4 1
85 1 2 -1.1794 2.683041166013783 8.102092871955218 21.439863656069726 -3 4 1
455 1 1 0.5897 2.074140911382032 11.05447026311445 21.46527457635608 0 -2 0
785 1 1 0.5897 2.111207475440706 8.50085720002217 16.845137923546698 4 4 1
78 1 1 0.5897 3.319483264460824 11.697243877960872 17.186150536019543 -4 -4 -3
449 1 1 0.5897 3.1423797659454653 14.948558127564477 1.353652956925655 4 1 -1
810 1 1 0.5897 0.6550057487021649 12.836583958670323 3.5031359454966684 3 -3 -2
448 1 2 -1.1794 2.3539667545588876 15.380362046436428 1.0246680265468473 4 1 -1
808 1 2 -1.1794 1.4461876180174182 12.298365860193064 3.528408789678005 3 -3 -2
259 1 2 -1.1794 2.8134080206151646 13.559049987045396 5.387603515477248 2 -3 5
617 1 1 0.5897 1.1696095987573973 16.31628490985283 2.3575427205113058 0 3 0
260 1 1 0.5897 2.3859137968022237 13.190573585999504 4.614468205850627 2 -3 5
616 1 2 -1.1794 0.6586220786239294 16.769106548710557 3.028452495933965 0 3 0
809 1 1 0.5897 1.4693954097615087 11.865576859164381 2.6749209873949416 3 -3 -2
261 1 1 0.5897 2.4738683583658605 14.452054778314512 5.44688187129488 2 -3 5
143 1 1 0.5897 4.587967725079512 13.789984725503498 2.343153132254505 0 4 2
523 1 2 -1.1794 2.0931494624191163 16.163498618666125 6.06240612547534 1 -1 5
543 1 1 0.5897 2.075827001571886 11.95579226983497 6.344338167042977 -5 1 3
622 1 2 -1.1794 3.1502014036849655 13.30248291026686 8.627212083700696 6 -1 2
654 1 1 0.5897 2.1290328157648526 13.056429788214038 10.160289328032155 1 0 -1
624 1 1 0.5897 3.678816363580563 14.100345908211558 8.611905069636151 6 -1 2
53 1 1 0.5897 1.118110299138216 15.125303775968485 7.26199011022728 -5 -2 2
54 1 1 0.5897 1.2820013783525521 13.903700541976596 8.141080969792435 -5 -2 2
623 1 1 0.5897 3.7858168000336083 12.591803959669765 8.54225097985647 6 -1 2
834 1 1 0.5897 4.51236742671358 13.967935161201465 6.069106858205362 3 -2 -1
52 1 2 -1.1794 0.7030791099784348 14.649054623219286 7.981153262450316 -5 -2 2
652 1 2 -1.1794 1.9235398795229417 12.968597260832475 11.091047254526233 1 0 -1
222 1 1 0.5897 3.767684466437024 16.44365110154196 9.436169979720754 2 -6 3
524 1 1 0.5897 1.395097481231777 16.804231746241847 6.198223744262767 1 -1 5
220 1 2 -1.1794 4.5684831487627875 16.031858088415873 9.111497490128619 2 -6 3
233 1 1 0.5897 0.5918138243703993 15.226580657745151 10.85848801894163 0 2 1
525 1 1 0.5897 2.875135732465654 16.58013661237914 6.424583124758373 1 -1 5
782 1 1 0.5897 2.8801108121227093 16.40720746023878 15.463686345832583 -2 -4 2
307 1 2 -1.1794 1.9467878863296957 15.273471304510736 12.646294446872933 1 4 -1
430 1 2 -1.1794 1.8288730481034894 12.181711561534506 14.482453836659673 -3 -2 -5
788 1 1 0.5897 3.476335625059981 14.509300172792651 16.033527512338942 3 -4 4
787 1 2 -1.1794 3.1728138842939932 14.53488737261093 15.12606445967854 3 -4 4
308 1 1 0.5897 1.828832800725072 14.447627218290537 12.176892345900882 1 4 -1
320 1 1 0.5897 2.44411868821842 16.87701838108614 11.454456169435273 -2 -2 0
276 1 1 0.5897 3.8671821021030026 12.837290612673382 11.307980525790157 -3 2 -3
309 1 1 0.5897 2.6073929274444443 15.079321288565843 13.311259438012257 1 4 -1
789 1 1 0.5897 2.7892094323819805 13.670685574116858 14.976849844253907 3 -4 4
171 1 1 0.5897 0.5836710620692791 15.038832507689143 13.667435394707303 -2 4 -3
431 1 1 0.5897 0.9632338153407406 11.826188730253222 14.281130651415399 -3 -2 -5
653 1 1 0.5897 1.5246346765455663 12.10187469436499 11.167997348817915 1 0 -1
161 1 1 0.5897 1.1661151850923994 13.010724346083366 20.01019852404726 2 6 2
450 1 1 0.5897 2.675847415714152 16.004123499301627 21.518416478144246 4 1 -2
550 1 2 -1.1794 1.0536515958081425 15.666682916830284 18.803898839659613 0 4 -4
361 1 2 -1.1794 4.6048200230024126 12.887959328651483 19.64041134182918 6 -5 -1
394 1 2 -1.1794 3.8313234917887797 14.964417990112484 17.780143184377085 1 1 4
363 1 1 0.5897 4.4079291027231795 12.073379504903231 20.102954263268806 6 -5 -1
593 1 1 0.5897 0.6470217294519665 14.541729410772895 21.562503731411898 -2 -2 0
395 1 1 0.5897 3.9475097942282646 14.15103379022244 18.27131098067998 1 1 4
551 1 1 0.5897 0.6775181008623667 15.69868969622594 17.924263740993265 0 4 -4
396 1 1 0.5897 3.1809536548962356 15.456563401250728 18.28122062499426 1 1 3
162 1 1 0.5897 1.728681830945728 12.006676676372653 19.02661844779343 2 6 2
552 1 1 0.5897 0.7862921435025056 16.49151841051325 19.209394261119375 0 4 -4
160 1 2 -1.1794 1.3733273945503461 12.081345133830142 19.912302171634938 2 6 2
77 1 1 0.5897 1.9382244318062711 12.135893033579917 16.74835031818705 -4 -4 -3
41 1 1 0.5897 0.7260048736393822 20.425330385396645 2.917882805301791 1 -3 6
644 1 1 0.5897 3.0800369518786526 18.306627303040234 1.7711184958189756 3 -6 1
643 1 2 -1.1794 2.9070161427000385 18.950736671100085 1.0844954391683392 3 -6 1
40 1 2 -1.1794 1.525668252436104 20.7666451854488 2.5175134702164743 1 -3 6
42 1 1 0.5897 1.883809049361023 20.02622529445913 2.027854525970565 1 -3 6
790 1 2 -1.1794 3.287687563579174 18.000110185131714 3.9795859150547708 2 4 1
645 1 1 0.5897 3.7611582850356515 19.342487344368653 0.902190148099389 3 -6 1
791 1 1 0.5897 2.4087095770086764 17.659996791185424 3.812329071020939 2 4 1
129 1 1 0.5897 2.409111481455377 20.949779862616527 5.340757970210495 -2 1 -3
285 1 1 0.5897 4.230861739693286 19.368460663619274 3.754358591188211 4 1 -3
792 1 1 0.5897 3.6323064031306966 17.442056961576082 4.676774320021376 2 4 1
324 1 1 0.5897 1.8773501935891823 19.19034424800974 7.200110594253653 6 -2 -3
17 1 1 0.5897 1.7069543793155761 19.676593830778874 10.085398839455577 0 3 1
540 1 1 0.5897 4.28083367829682 20.478775642364837 8.158708463254449 2 -4 2
18 1 1 0.5897 0.7649537623375824 20.835019306844664 10.335709770085934 0 3 1
433 1 2 -1.1794 4.7110262464781805 17.639974827719943 6.640675391466777 -3 3 -3
322 1 2 -1.1794 1.9166902367163479 18.622045574926336 7.969358878989205 6 -2 -3
539 1 1 0.5897 3.483750602892778 19.330309143848844 8.739788160628265 2 -4 2
323 1 1 0.5897 1.0404335262307247 18.673903941102147 8.351113563169033 6 -2 -3
16 1 2 -1.1794 1.4536497913462525 20.316018597923417 10.751154489332828 0 3 1
538 1 2 -1.1794 4.3311077158324895 19.771275395887724 8.801492377292501 2 -4 2
128 1 1 0.5897 1.7535992135529987 21.225652621443466 6.677252922392835 -2 1 -3
319 1 2 -1.1794 2.599285951307265 17.45789230892197 10.709619826547671 -2 -2 0
127 1 2 -1.1794 1.6040188356938843 20.795827315487514 5.835128929087212 -2 1 -3
435 1 1 0.5897 4.342018667923032 18.312140138598895 7.213649327011746 -3 3 -3
515 1 1 0.5897 3.3014147966216068 21.973818409795836 10.142005351568367 1 -4 0
683 1 1 0.5897 4.57258261493347 21.997172505716257 6.067066683661163 5 0 -6
321 1 1 0.5897 2.8454535221079 18.29427218066516 11.104754243867704 -2 -2 0
781 1 2 -1.1794 2.987822377976692 17.357372789669938 15.506543812540432 -2 -4 2
602 1 1 0.5897 4.555440457994086 20.19847284247175 11.846314545176371 5 4 -1
740 1 1 0.5897 0.46431569205013157 17.875555811090507 13.350028614309522 -1 0 2
783 1 1 0.5897 2.258728263687895 17.704959204873447 14.992864899175263 -2 -4 2
739 1 2 -1.1794 0.8536506470240425 18.011742501698826 14.213814577083372 -1 0 2
601 1 2 -1.1794 3.8639481990495876 19.61132551954943 12.151878504114636 5 4 0
527 1 1 0.5897 4.540513369733124 21.377000094146133 14.440165541160251 -3 -4 2
603 1 1 0.5897 3.252804805058635 20.18218865620125 12.617573070811163 5 4 0
741 1 1 0.5897 0.590450985760136 18.898929804814138 14.45851919145809 -1 0 2
526 1 2 -1.1794 4.700819180410558 21.64693911476324 15.344437699025066 -3 -4 2
484 1 2 -1.1794 2.536343398852883 21.734573043077027 13.385920979698048 -2 1 -3
336 1 1 0.5897 4.192999969562836 17.2545460409333 14.144219015277722 8 0 3
485 1 1 0.5897 1.6330063529005105 21.731342258740867 13.702509668983451 -2 1 -3
335 1 1 0.5897 4.280319848548572 17.93948146538463 12.796920932714235 8 0 3
528 1 1 0.5897 3.8701069593839135 21.488795023693473 15.792960846522663 -3 -4 2
516 1 1 0.5897 3.329491121976036 21.924636613058475 11.654869941894779 1 -4 0
334 1 2 -1.1794 4.702336645258208 17.268789230838706 13.333889376025775 8 0 3
590 1 1 0.5897 3.412778276408032 17.8942146406161 18.36354762504183 3 4 2
587 1 1 0.5897 3.051165476254448 17.8850081416844 20.921750622923298 1 1 1
349 1 2 -1.1794 2.9238894012705106 20.949467192172893 19.2779298216789 -8 1 -3
589 1 2 -1.1794 3.5439051726748625 18.573368936973726 17.701872445071327 3 4 2
350 1 1 0.5897 2.9849298246819447 20.243803821735618 18.634059258927014 -8 1 -3
591 1 1 0.5897 3.298244776011126 18.155089131885795 16.87667860871854 3 4 2
702 1 1 0.5897 1.556685044509461 21.46430767779138 16.521154066151468 3 0 2
351 1 1 0.5897 2.183035412748597 20.704888950401063 19.832522364706897 -8 1 -3
130 1 2 -1.1794 0.46133818193608517 20.48519314950683 20.804551874308068 -3 1 1
701 1 1 0.5897 2.4181479413675784 21.93373714290459 17.674182524968224 3 0 2
131 1 1 0.5897 0.5741732439581457 20.90958157708319 21.655095271737647 -3 1 1
588 1 1 0.5897 4.398444025810376 17.434406982866278 20.398518686157225 1 1 1
586 1 2 -1.1794 3.458587201307675 17.281886608606808 20.300046349577713 1 1 1
51 1 1 0.5897 6.572558987576563 3.760737541995066 1.052051963611496 6 2 0
851 1 1 0.5897 8.96739714059298 5.935385991084478 1.331577265321924 -4 -1 -2
96 1 1 0.5897 8.382689292915348 6.1104377248486665 3.9772896764428882 -4 0 1
793 1 2 -1.1794 8.939341825340051 2.0445101594807227 0.8053964009595982 -4 1 6
24 1 1 0.5897 5.749801743181456 3.018867648308392 2.859184879102922 -6 3 1
451 1 2 -1.1794 8.013690271858904 2.3350351243407985 4.492728867817341 -1 -1 5
94 1 2 -1.1794 7.427053666355502 6.163747783855548 3.963357195554282 -4 0 1
453 1 1 0.5897 7.1184975340494185 2.6460082114418224 4.357771318085401 -1 -1 5
49 1 2 -1.1794 6.231186258958346 2.871402534738241 1.1458836763186866 6 2 0
23 1 1 0.5897 5.144572772131711 3.985744976053361 3.854570239345026 -6 3 1
794 1 1 0.5897 8.133687746600135 2.1432707043525325 1.3127724343214218 -4 1 6
95 1 1 0.5897 7.193521743723768 6.0459842783282 3.0425604331659253 -3 0 1
22 1 2 -1.1794 5.517066965882103 3.1068497095979426 3.783495755012346 -6 3 1
860 1 1 0.5897 6.7769334640439975 5.40351308354427 5.720212821609839 -2 -2 3
445 1 2 -1.1794 6.988235392303197 5.423385438260938 0.6833514792292268 0 -1 0
549 1 1 0.5897 8.710523841479382 2.9309706989942157 6.5970963063648425 7 -2 5
5 1 1 0.5897 8.248731446079812 6.710514594470685 8.59374268863651 -2 -1 -3
859 1 2 -1.1794 6.413687768764188 4.997273063216042 6.507156286089036 -2 -2 3
861 1 1 0.5897 7.175309654881675 4.649511603429852 6.971113984795638 -2 -2 3
547 1 2 -1.1794 8.655403337593484 3.5728377253834944 7.305070212552255 7 -2 5
6 1 1 0.5897 7.169641177804052 6.577505309986047 7.540258135704982 -2 -1 -3
647 1 1 0.5897 4.890794845143694 2.998866408574134 10.163266046454035 -9 -1 0
646 1 2 -1.1794 5.559206638344527 3.452594086840274 9.64980985705049 -9 -1 0
492 1 1 0.5897 6.652883765919427 4.78129275566314 10.754811598121238 0 3 3
15 1 1 0.5897 8.491171694065887 6.041735870887565 10.756261883999477 0 -3 -4
648 1 1 0.5897 6.1344002362305465 2.7552595116204923 9.33496043793295 -9 -1 0
345 1 1 0.5897 4.90030231105124 3.626668871285887 6.619642268183329 -1 3 1
248 1 1 0.5897 6.554857735155444 4.535084324527359 15.669260309983224 -7 3 -3
753 1 1 0.5897 6.7275864229298845 2.625735148258432 13.89696629195033 3 1 -1
752 1 1 0.5897 6.395566261531813 2.2540450031596886 12.467427048041852 3 1 -1
247 1 2 -1.1794 7.099593668835621 5.278119863485202 15.40961254069335 -7 3 -3
751 1 2 -1.1794 6.445948776372968 3.00174722261921 13.062970286690271 3 1 -1
330 1 1 0.5897 6.802073632013936 6.377758441724467 12.727179552887078 1 6 0
84 1 1 0.5897 8.623922263830238 4.539615089252264 14.402740149854255 -2 -3 -6
249 1 1 0.5897 6.605050551628962 5.70545041963788 14.71026329096112 -7 3 -3
28 1 2 -1.1794 7.215097503251675 2.1944366572758587 15.650240518532794 -7 1 6
491 1 1 0.5897 7.253089136799906 4.280167590325094 12.051182141530102 0 3 3
490 1 2 -1.1794 7.149902591041103 5.069933358712516 11.520261873096597 0 3 3
30 1 1 0.5897 6.365001096791383 1.755386863383066 15.62122748493509 -7 1 6
476 1 1 0.5897 6.265845140005609 6.557256869774842 19.065871543501224 8 -2 -2
569 1 1 0.5897 6.907481610572776 4.022999555429169 18.49202605415849 2 -1 0
494 1 1 0.5897 8.39088505389089 5.979469747575254 18.069599293046387 -5 -2 -1
495 1 1 0.5897 7.263744016751046 5.794997443047229 17.07587564924124 -5 -2 -1
426 1 1 0.5897 8.677670620179859 3.9756081213287566 19.380541274812977 10 -6 1
446 1 1 0.5897 7.487915766460234 5.138115046492066 21.062968999142534 0 -1 -1
493 1 2 -1.1794 7.464908883106566 5.744276238954538 18.010338274066658 -5 -2 -1
568 1 2 -1.1794 6.398528458043056 3.281010635539639 18.818636756635016 2 -1 0
570 1 1 0.5897 5.698218823337656 3.1688051627619367 18.175802711304975 2 -1 0
424 1 2 -1.1794 8.84011111380682 4.353176109395495 20.245021424414364 10 -5 1
447 1 1 0.5897 6.360062015208078 6.057176978015291 21.481584145776328 1 -1 -1
195 1 1 0.5897 8.321345384575528 2.6891107449335445 17.232423282668005 0 -4 2
795 1 1 0.5897 8.881708614685314 2.7199864436170382 21.274217225557333 -4 1 5
147 1 1 0.5897 7.014231877381096 1.6322374092647784 19.161015395955605 -1 3 -5
50 1 1 0.5897 5.503462169553754 2.826996840086447 21.670235778515124 6 2 -1
443 1 1 0.5897 5.632003668466676 10.93914520628165 5.730885099660495 5 6 -2
580 1 2 -1.1794 6.612738671487941 10.022565150081451 1.3498774904612572 -2 -5 2
442 1 2 -1.1794 6.081078539221032 11.462181617006543 5.066786927259873 5 6 -2
201 1 1 0.5897 5.4584696100729815 8.445882937437323 3.920532897319922 2 -5 -2
117 1 1 0.5897 5.048237681634427 11.184289387764165 2.049496235001325 0 -2 4
581 1 1 0.5897 6.179261158251861 9.416760043617487 1.9510045781240786 -2 -5 2
199 1 2 -1.1794 5.021336058307315 8.488150296943898 3.0700119156362398 2 -5 -2
544 1 2 -1.1794 7.059311749536387 8.626903126178014 5.020612731343506 -3 4 5
228 1 1 0.5897 7.716036423789107 11.325578060908084 0.9387096253595321 5 -3 0
444 1 1 0.5897 5.685404161691862 11.189817523115448 4.2388147269939225 5 6 -2
546 1 1 0.5897 7.249329975358487 7.956059019884641 4.364741483721214 -3 4 5
545 1 1 0.5897 7.9026386869310805 8.798455323685033 5.4396948791215385 -3 4 5
582 1 1 0.5897 6.014044640743935 10.092286571855473 0.6062607300190198 -2 -5 2
821 1 1 0.5897 7.85783628924687 11.683719479579638 4.911631577879088 0 0 5
825 1 1 0.5897 7.9184345555199505 8.781421773252525 0.621611970142002 -2 4 2
213 1 1 0.5897 7.504225479194445 8.746190764948311 8.501089884685154 4 1 3
775 1 2 -1.1794 4.797823644096035 9.666845377129938 6.47464688719093 4 -3 2
212 1 1 0.5897 7.963113043447576 10.182111161031813 8.361108469789592 4 1 3
211 1 2 -1.1794 7.3819363551384205 9.61964824338608 8.873118939910277 4 1 3
73 1 2 -1.1794 5.1656297218976475 11.289089613993866 8.623145266908052 4 0 2
776 1 1 0.5897 5.548785134137542 9.078660933094902 6.394311145752284 4 -3 2
139 1 2 -1.1794 8.977281344418286 11.483759011925025 7.627933471423862 -1 -1 -2
737 1 1 0.5897 7.870580981257961 9.270461959879878 10.663335146910454 1 2 3
75 1 1 0.5897 5.7423813076858155 10.592509718237807 8.936828577409111 4 0 2
4 1 2 -1.1794 7.859255844784556 7.166056260487047 7.847383769204161 -2 -1 -3
141 1 1 0.5897 9.030257591325539 11.513520537213871 6.672635627328484 -1 -1 -2
777 1 1 0.5897 5.017000448693526 10.236485378501378 7.21203630172564 4 -3 2
329 1 1 0.5897 7.237299464919567 7.419434025232882 13.736008819394527 1 6 0
7 1 2 -1.1794 5.201007307260862 9.866523755504069 11.88466736736602 4 0 1
733 1 2 -1.1794 7.674734702289098 10.22742296384259 14.251402394166139 2 -1 -3
328 1 2 -1.1794 6.4587133004540265 7.008704954566938 13.359944126504205 1 6 0
735 1 1 0.5897 7.746837464267693 9.814078092276937 13.391051376454474 2 -1 -3
734 1 1 0.5897 7.228748738461052 11.057337664923189 14.082307256166535 2 -1 -3
359 1 1 0.5897 7.012993642127277 9.119081889223999 15.508596089546586 3 2 -4
736 1 2 -1.1794 7.98434166105248 9.196355844760367 11.610872488800975 1 2 3
738 1 1 0.5897 8.254804574853377 8.288725358165738 11.74986027875628 1 2 3
358 1 2 -1.1794 6.647183439801783 8.540393732334813 16.177593161649774 3 2 -4
8 1 1 0.5897 6.050326965879276 9.436496109029285 11.984828058565276 4 0 1
813 1 1 0.5897 5.115180938095832 7.429498820866204 15.104948915320515 -1 4 -5
275 1 1 0.5897 4.946501939822035 11.776274887689693 11.34361699127013 -3 2 -3
187 1 2 -1.1794 5.0267779200294465 11.519177623401562 16.388810988004792 -1 4 3
613 1 2 -1.1794 6.940648308442546 11.504083465379228 18.335606852373655 -6 0 3
355 1 2 -1.1794 8.14344608194244 9.007698847793215 18.32244289335896 1 0 0
360 1 1 0.5897 7.310307214448907 8.52205403196497 16.8676912570697 3 2 -4
357 1 1 0.5897 7.77582664867842 9.879607274576614 18.46695836659295 1 0 0
823 1 2 -1.1794 8.193575147852005 8.134118141726479 21.116899047061658 -2 4 1
188 1 1 0.5897 5.643730902028518 11.305877144126896 17.08890605673108 -1 4 3
356 1 1 0.5897 8.196757995629685 8.621792308061611 19.196812288711325 1 0 0
477 1 1 0.5897 5.249402158262164 7.6552578326312934 19.296502681967468 8 -2 -2
824 1 1 0.5897 7.3993205471216354 7.636297293314209 20.92286975387435 -2 4 1
391 1 2 -1.1794 4.831928391886291 9.122706621755775 18.349023349348013 2 -4 -3
393 1 1 0.5897 5.385749776714083 9.19161721515846 17.571341090076057 2 -4 -3
475 1 2 -1.1794 5.683173557388478 6.9216033644925945 19.732220984864867 8 -2 -2
468 1 1 0.5897 8.487563920019491 15.271190984980752 2.0886303369160517 2 -4 7
640 1 2 -1.1794 6.08237075141102 16.15237845019665 4.329669820816003 4 0 -4
142 1 2 -1.1794 4.873447195890464 14.676711202316177 2.122991152352996 0 4 2
227 1 1 0.5897 7.92480486739727 12.821482734795952 0.8354044889826715 5 -3 0
226 1 2 -1.1794 8.37296863048325 11.984434735164891 0.7137617090449344 5 -3 0
641 1 1 0.5897 5.980194141877394 15.461028635888654 4.983789443879844 4 0 -4
820 1 2 -1.1794 8.733992391626165 12.063420177003277 4.9782388049705775 0 0 5
237 1 1 0.5897 6.9406339461488145 16.493109713442976 2.827835079055363 0 -3 -5
164 1 1 0.5897 6.190855199558002 15.004041239595376 0.6043439155178236 -5 1 0
144 1 1 0.5897 5.185965154689611 15.040809318953814 2.951256681029659 0 4 2
642 1 1 0.5897 6.5386858326604615 16.855111012966084 4.792501723335311 4 0 -4
833 1 1 0.5897 5.713125236282784 13.208819184151928 5.545768180144417 3 -2 -1
235 1 2 -1.1794 7.389875862452756 16.787334602545652 2.035443598780709 0 -3 -5
831 1 1 0.5897 7.551617614349914 12.675104140157607 8.087717607410811 5 3 6
245 1 1 0.5897 6.4134469201240405 15.991626273804343 8.64870333976705 -1 4 -1
221 1 1 0.5897 5.045139355222223 15.777870332981147 9.901780941464189 2 -6 3
244 1 2 -1.1794 7.250441681729305 16.37185973499358 8.382016989939459 -1 4 -1
120 1 1 0.5897 7.9128258606138875 13.332549915058616 10.193765302089714 1 -3 -1
830 1 1 0.5897 6.755091625460453 13.874839225838322 7.6206377492379325 5 3 6
829 1 2 -1.1794 6.949706894925507 13.351544898816702 8.398175469522457 5 3 6
118 1 2 -1.1794 8.54907327237112 13.255326902465713 10.904735843542806 1 -3 -1
832 1 2 -1.1794 5.466645741423221 14.010339124030796 6.007388779385177 3 -2 -1
74 1 1 0.5897 5.673483021885743 12.092008193837795 8.740068221598118 4 0 2
119 1 1 0.5897 8.907755953746781 12.372821568695379 10.811007021432818 1 -3 -1
254 1 1 0.5897 8.829171297436393 15.790385280386941 7.535622604313773 3 7 -9
291 1 1 0.5897 5.638946149885702 12.812915225972501 13.404196231340189 -7 -5 -9
189 1 1 0.5897 5.536193597114877 12.044662196008261 15.77187046063012 -1 4 3
274 1 2 -1.1794 4.801138579194305 12.712958138855258 11.476860179731762 -3 2 -3
558 1 1 0.5897 8.086464844881124 15.058408814483489 14.02494014977461 2 1 4
557 1 1 0.5897 8.268691828921487 14.222370337343309 12.776019694573774 2 1 4
61 1 2 -1.1794 8.496035660859576 16.494459742931067 11.370568087963973 0 3 3
290 1 1 0.5897 6.876951022681501 13.37571085677341 14.069440367350714 -7 -5 -9
289 1 2 -1.1794 6.083857233197903 12.870982679650693 14.249735451345469 -7 -5 -9
730 1 2 -1.1794 5.882203197221957 15.407086366527967 11.616859431212466 1 3 -4
63 1 1 0.5897 7.621242810722872 16.106530259891315 11.39322533171353 0 3 3
731 1 1 0.5897 5.280943415149509 15.800273375164673 12.249430072119136 1 3 -4
556 1 2 -1.1794 8.340939647312126 14.184135439621016 13.729742598881385 2 1 4
732 1 1 0.5897 5.583833198441529 14.501436642641934 11.533031609040007 1 3 -4
483 1 1 0.5897 7.332616832003826 16.134522027838905 15.75921440952415 1 6 0
481 1 2 -1.1794 7.478319016746187 16.471873598056987 14.87534506330896 1 6 0
482 1 1 0.5897 6.617554838248944 16.779068380099766 14.590794749812542 1 6 0
614 1 1 0.5897 7.527475794231802 12.229933294868758 18.123380975175525 -6 0 2
660 1 1 0.5897 5.719893917367899 15.175795909277488 17.55501289428473 0 -1 0
659 1 1 0.5897 7.166783949738444 14.73128659150043 17.524996950373907 0 -1 0
778 1 2 -1.1794 8.73307156683522 13.692247308185827 17.91173021110317 -3 -1 -2
362 1 1 0.5897 5.0766028471437155 13.419860073060502 20.28131265764 6 -5 -1
163 1 2 -1.1794 6.5491304780707225 14.691460615977615 20.918159207559697 -5 1 -1
658 1 2 -1.1794 6.574637982679529 15.404539804156226 17.18981280918308 0 -1 0
615 1 1 0.5897 6.184383482360439 11.920028955652496 18.74951439540343 -6 0 3
165 1 1 0.5897 7.472677512859654 14.94160170979767 20.94580255989895 -5 1 -1