LAMMPS (30 Jul 2021)
Processor partition = 1
  using 2 OpenMP thread(s) per MPI task
using multi-threaded neighbor list subroutines
variable        pid world 0 1
variable        phase world IceV IceIII

shell cd ${phase}
shell cd IceIII
include Restart.lmp
echo both
log log.lammps
#include		in.partitions
include		in.temp
variable        temperature equal 86.47
variable	tempDamp equal 100.0
include		in.pressure
variable        pressure equal 6871.3
variable        pressureDamp equal 1000.0 # This is 1 ps
include		in.seed
variable        seed equal 745823

units		real
atom_style	full

read_restart	restart.lmp.${pid}
read_restart	restart.lmp.1
Reading restart file ...
  restart file = 30 Jul 2021, LAMMPS = 30 Jul 2021
  restoring atom style full from restart
  orthogonal box = (0.11688776 0.11768108 0.17696886) to (19.883113 19.882320 20.523029)
  4 by 2 by 4 MPI processor grid
  restoring pair style lj/cut/tip4p/long/omp from restart
  restoring bond style harmonic/omp from restart
  restoring angle style harmonic/omp from restart
  972 atoms
  648 bonds
  324 angles
Finding 1-2 1-3 1-4 neighbors ...
  special bond factors lj:    0        0        0       
  special bond factors coul:  0        0        0       
     2 = max # of 1-2 neighbors
     1 = max # of 1-3 neighbors
     1 = max # of 1-4 neighbors
     2 = max # of special neighbors
  special bonds CPU = 0.002 seconds
  read_restart CPU = 0.007 seconds
include 	in.setup
variable	out_freq equal 1000
variable	out_freq2 equal 10000
variable	out_freq3 equal 1000

timestep	2.0

neigh_modify    delay 7 every 1

include		in.tip4p
# This is TIP4P/Ice

# create groups ###
group ox type 2
324 atoms in group ox
group hy type 1
648 atoms in group hy

# set charges - beside manually ###
set group ox charge -1.1794
Setting atom values ...
  324 settings made for charge
set group hy charge 0.5897
Setting atom values ...
  648 settings made for charge

# ### TIP3P Potential Parameters ###
pair_style lj/cut/tip4p/long/omp 2 1 1 1 0.1577 8.5
pair_coeff 1 1*2 0.000 0.000
pair_coeff 2 2 0.21084 3.1668
bond_style  harmonic
bond_coeff  1 450 0.9572
angle_style harmonic
angle_coeff 1 55 104.52
kspace_style pppm/tip4p/omp 1.0e-5
pair_modify tail yes

thermo          ${out_freq}
thermo          1000
thermo_style    custom step temp pe etotal epair emol press lx ly lz vol pxx pyy pzz pxy pxz pyz enthalpy

restart 	${out_freq3} restart.lmp.${pid} restart2.lmp.${pid}
restart 	1000 restart.lmp.${pid} restart2.lmp.${pid}
restart 	1000 restart.lmp.1 restart2.lmp.${pid}
restart 	1000 restart.lmp.1 restart2.lmp.1


include         in.dump
dump            myDump all atom ${out_freq2} dump.water.${pid}
dump            myDump all atom 10000 dump.water.${pid}
dump            myDump all atom 10000 dump.water.1
dump            myDump2 all dcd ${out_freq2} dump.dcd
dump            myDump2 all dcd 10000 dump.dcd
dump_modify     myDump append yes
dump_modify     myDump2 append yes


variable natoms 	equal  "count(all)"                        # NUMBER ATOMS
variable H      	equal  "enthalpy/v_natoms"                 # ENTHALPY-per-atom
variable Vol      	equal  "vol/v_natoms"                 # volume-per-atom
fix AVG all 		ave/time ${out_freq} 1 ${out_freq} v_Vol v_H file vol_enthalpy.dat
fix AVG all 		ave/time 1000 1 ${out_freq} v_Vol v_H file vol_enthalpy.dat
fix AVG all 		ave/time 1000 1 1000 v_Vol v_H file vol_enthalpy.dat


timer           timeout 02:55:00 every 1000
New timer settings: style=normal  mode=nosync  timeout=02:55:00

fix 		1 all shake 1e-6 200 0 b 1 a 1
Finding SHAKE clusters ...
       0 = # of size 2 clusters
       0 = # of size 3 clusters
       0 = # of size 4 clusters
     324 = # of frozen angles
  find clusters CPU = 0.000 seconds
fix             2 all nph aniso ${pressure} ${pressure} ${pressureDamp}
fix             2 all nph aniso 6871.3 ${pressure} ${pressureDamp}
fix             2 all nph aniso 6871.3 6871.3 ${pressureDamp}
fix             2 all nph aniso 6871.3 6871.3 1000
fix             3 all temp/csvr ${temperature} ${temperature} ${tempDamp} ${seed}
fix             3 all temp/csvr 86.47 ${temperature} ${tempDamp} ${seed}
fix             3 all temp/csvr 86.47 86.47 ${tempDamp} ${seed}
fix             3 all temp/csvr 86.47 86.47 100 ${seed}
fix             3 all temp/csvr 86.47 86.47 100 745823


run             250000
PPPM initialization ...
  extracting TIP4P info from pair style
  using 12-bit tables for long-range coulomb (../kspace.cpp:340)
  G vector (1/distance) = 0.37248933
  grid = 24 24 24
  stencil order = 5
  estimated absolute RMS force accuracy = 0.003470407
  estimated relative force accuracy = 1.0451028e-05
  using double precision FFTW3
  3d grid and FFT values/proc = 3211 432
Last active /omp style is kspace_style pppm/tip4p/omp
Neighbor list info ...
  update every 1 steps, delay 7 steps, check yes
  max neighbors/atom: 2000, page size: 100000
  master list distance cutoff = 10.8154
  ghost atom cutoff = 10.8154
  binsize = 5.4077, bins = 4 4 4
  1 neighbor lists, perpetual/occasional/extra = 1 0 0
  (1) pair lj/cut/tip4p/long/omp, perpetual
      attributes: half, newton on, omp
      pair build: half/bin/newton/omp
      stencil: half/bin/3d
      bin: standard
Setting up Verlet run ...
  Unit style    : real
  Current step  : 35250000
  Time step     : 2
  Walltime left : 2:54:59.94
Per MPI rank memory allocation (min/avg/max) = 10.19 | 10.19 | 10.19 Mbytes
Step Temp PotEng TotEng E_pair E_mol Press Lx Ly Lz Volume Pxx Pyy Pzz Pxy Pxz Pyz Enthalpy 
35250000    89.743059    -5061.614    -4888.537    -5061.614            0    8263.8104    19.766225    19.764639     20.34606    7948.6423    8595.3159     7802.492    8393.6234   -457.91297   -75.589107   -861.97762    -3930.573 
35251000    85.361366   -5068.6501   -4904.0236   -5068.6501            0    7217.7256    19.709648    19.737878    20.490829    7971.4783    7361.9912    6782.2826     7508.903   -159.60023   -223.74397    405.40089   -4064.9209 
35252000    86.561724   -5070.2197   -4903.2781   -5070.2197            0    6680.1315    19.821973    19.715658    20.398865    7971.9427     7943.987    6443.4484    5652.9592    39.424701    429.87889    233.50063   -4126.6286 
35253000    87.783798   -5071.9551   -4902.6566   -5071.9551            0    7531.2342    19.628693    19.845835    20.372653    7936.1223    8238.1985    7023.6984    7331.8056   -100.80724    393.96432    925.97959   -4030.9901 
35254000    82.667967   -5072.1412   -4912.7091   -5072.1412            0    7339.0933    19.635585    19.679614    20.598592    7959.7233    6557.1788    8539.7136    6920.3875    -185.8797    402.91343    143.74117   -4060.7549 
35255000    88.291762   -5072.3943   -4902.1162   -5072.3943            0    6534.3503    19.613418    19.787005    20.524897    7965.5236    6891.6134    5980.8616    6730.5758   -451.71731   -143.45958   -256.20746   -4143.0273 
35256000    87.998175   -5069.2067   -4899.4949   -5069.2067            0    6486.9311    19.842916    19.754088     20.39312    7993.6686    7286.4884     5249.116    6925.1889   -490.68798   -274.36609   -232.05391    -4143.252 
35257000    84.725563    -5066.522   -4903.1217    -5066.522            0    6401.5227    19.670604    19.823756    20.476707    7984.7949    6815.8652    6346.6402    6042.0626   -601.20985   -258.26483    684.82894   -4157.6641 
35258000    86.428272   -5067.1932    -4900.509   -5067.1932            0    7085.1947    19.562501    19.812231    20.558335    7967.9334    9007.9426    5459.9956    6787.6458   -77.326101   -181.14352    654.56148     -4077.18 
35259000    89.189065   -5068.6796    -4896.671   -5068.6796            0    6833.6713    19.828409    19.829124    20.350851    8001.5471    6432.9143    7463.1581    6604.9416   -33.561987    1040.0906   -519.72333   -4099.2201 
35260000     90.09895   -5073.4289   -4899.6655   -5073.4289            0    7374.5086    19.797157    19.844438    20.311838    7979.7789    7679.7541    6764.4615    7679.3101    -623.9141     127.5554   -234.97209   -4041.4431 
35261000    86.868045   -5074.4643    -4906.932   -5074.4643            0    5791.6907    19.662232    19.818533    20.537964    8003.1639    5782.8929    6009.3663    5582.8128   -320.20563    569.24729    246.79336   -4230.9378 
35262000     85.98926   -5049.9874   -4884.1499   -5049.9874            0    8371.0657    19.737012    19.725776    20.354411    7924.5397    7895.8437    9221.9886    7995.3649   -312.61237   -216.96973   -21.452143   -3916.6951 
35263000    87.403906   -5060.0742   -4891.5084   -5060.0742            0    7165.3526    19.832373    19.719325    20.419657    7985.7403    6833.8972    8424.6354     6237.525   -62.831817    494.48417    711.29282    -4057.004 
35264000     86.41621   -5074.9632   -4908.3023   -5074.9632            0    6865.0545    19.679163    19.855617    20.430896    7983.2078    7793.6328    5604.8236    7196.7072    139.67575   -290.13289    115.51397   -4109.0253 
35265000    86.116741   -5069.7526   -4903.6692   -5069.7526            0    7675.2581    19.724385    19.823473    20.337296     7952.001    7144.8146    7692.4798    8188.4799    40.613271    789.56107   -283.41961   -4013.5559 
35266000    90.139761   -5075.6926   -4901.8505   -5075.6926            0    6964.1408    19.762158    19.703579    20.409626    7947.2071    5469.1052    8695.0981     6728.219   -565.49792    637.51351    97.460234   -4094.6936 
35267000    88.557889   -5073.7396   -4902.9483   -5073.7396            0    6545.0727    19.775993    19.774683    20.408165    7980.8983     5527.295    7153.1529    6954.7701   -478.48476    134.75292   -181.21084   -4141.1462 
35268000    84.688461   -5071.3608    -4908.032   -5071.3608            0    7195.3445    19.784994    19.835921    20.240815    7943.5802    6326.4209    7658.6962    7600.9164   -615.26949    269.13021     307.1038   -4074.4587 
35269000    89.971848   -5072.1816   -4898.6634   -5072.1816            0    7891.6574    19.729936    19.712811    20.372506    7923.5298    5994.4963    8794.6049     8885.871    -155.7061   -49.821357   -116.55935   -3986.7306 
35270000    87.298768   -5078.2919   -4909.9289   -5078.2919            0    6385.2288    19.817111    19.749904    20.513425    8028.6685    5719.2118    7228.3232    6208.1514   -97.223387   -29.655983    276.99828   -4162.2831 
35271000    87.069175   -5083.4666   -4915.5464   -5083.4666            0    6907.7485    19.779906    19.812472    20.352702    7975.9969    8336.7657    6021.7726     6364.707    572.13492   -810.40649      184.275   -4112.0251 
35272000     85.57472     -5061.03    -4895.992     -5061.03            0    7272.2674    19.650119    19.729593    20.419202     7916.297    7121.1112    8051.6011    6644.0899   -17.469161    482.63703    29.712069   -4056.4009 
35273000    86.784724   -5077.4377   -4910.0661   -5077.4377            0    6580.6749    19.843263    19.783824    20.320863    7977.4754    6313.6275     6738.678    6689.7193   -213.95519    484.65047    -354.5013   -4144.4486 
35274000    90.112801   -5065.8527   -4892.0626   -5065.8527            0    6310.9892     19.80243    19.767363    20.510913    8028.8291     6364.003    6609.2239    5959.7407   -99.212892   -549.11592    297.43641   -4153.0948 
35275000    88.506929   -5067.7913   -4897.0983   -5067.7913            0    6396.8652    19.712909    19.742024    20.554782    7999.3605    7408.9852    5734.9078    6046.7026    4.7960696   -82.469198    414.47886   -4150.8242 
35276000    86.003981   -5059.0158   -4893.1499   -5059.0158            0    6451.9128     19.84072    19.697228    20.434517    7985.9561     5320.136    8269.0463    5766.5561    347.72064     923.7001     79.87065   -4141.7151 
35277000    92.303516   -5069.7334   -4891.7183   -5069.7334            0     7269.792     19.61036    19.891665     20.40363    7959.1037    7972.9097    6914.7985    6921.6677    151.91808    354.56932    117.79613   -4047.8746 
35278000    87.075845   -5073.0001    -4905.067   -5073.0001            0     7037.996    19.750045    19.881302    20.254693    7953.1389    7482.8094    6518.2874    7112.8913   -294.09659   -199.92992    55.221153   -4088.7413 
35279000    88.900909   -5070.2384   -4898.7855   -5070.2384            0    7255.4061     19.83106    19.753433    20.302404    7953.0915    6763.7927    7291.0985    7711.3271   -168.34224    441.62559     756.6531   -4057.2478 
35280000    89.512564   -5068.5132   -4895.8806   -5068.5132            0    6838.3327    19.628101    19.852938    20.437897    7964.1472    6516.4601    6739.9404    7258.5976    201.53832    715.31026    42.343656   -4101.6157 
35281000    86.452577   -5053.2496   -4886.5185   -5053.2496            0    7809.2808    19.713584     19.73799    20.388897    7933.4526    8763.4098    7001.1916     7663.241   -485.03695    63.199535     55.76392   -3982.9748 
35282000    89.511248    -5069.445    -4896.815    -5069.445            0    7111.5312    19.718689    19.729633    20.409968    7940.3449    7300.8179    7308.3388     6725.437    255.53801    43.727545    466.58612    -4073.287 
35283000     83.66194   -5062.9084   -4901.5593   -5062.9084            0    6457.0168     19.71598    19.842018    20.432022    7993.1055    6621.1653    6662.3244    6087.5608    275.66869     488.7247    105.01192   -4148.8569 
35284000    85.499979   -5074.0313   -4909.1374   -5074.0313            0    6726.9036    19.772596    19.879852    20.259901    7963.6867    6498.3316    6434.5434     7247.836   -187.36824    127.66971   -22.238377     -4127.86 
35285000    82.719036   -5074.9081   -4915.3774   -5074.9081            0    7461.8197    19.549206    19.961448     20.35943    7944.8694    8553.0242    5996.8861    7835.5487   -314.43413    -31.78149   -750.81712    -4050.793 
35286000    83.716506   -5073.2445   -4911.7902   -5073.2445            0     6537.249    19.762958    19.780218    20.386624    7969.4498      7959.91    5640.9498    6010.8871    100.88435     863.1283   -94.670968   -4151.9902 
35287000    83.979662   -5065.5286   -4903.5667   -5065.5286            0    6838.3754    19.639115    19.956506    20.351094    7976.1659    7881.7673    5775.5812    6857.7776    7.4649056   -760.31539     82.28281   -4108.0982 
35288000    89.757172   -5067.8872    -4894.783   -5067.8872            0    6916.3281     19.77384    19.743927    20.411966    7969.1019     7056.881    6756.8252    6935.2782    81.268875    44.768129   -380.88114   -4090.9592 
35289000    84.793696   -5074.0146   -4910.4828   -5074.0146            0    6911.7709     19.74327    19.741337    20.415366    7957.0632    6807.7007    6545.6551    7381.9569   -65.645213    383.51744    406.67958   -4108.4022 
35290000    85.855181   -5067.5602   -4901.9812   -5067.5602            0     7762.152    19.657319    19.823056    20.345069    7927.8251     7606.884    7636.6996    8042.8724   -375.35051   -164.43899    1883.4247   -4004.5275 
35291000    90.188451   -5074.5821   -4900.6461   -5074.5821            0    7504.6227    19.766684    19.713564    20.410565    7953.4213    8404.9141    6660.7528    7448.2011   -87.602193   -545.43232    828.28433   -4030.1662 
35292000    85.356462   -5069.4699   -4904.8528   -5069.4699            0    6723.8092    19.707203    19.741377    20.456584    7958.5792    6887.2361    7102.4667    6181.7248    93.765743    556.28364   -664.73832   -4124.4356 
35293000    87.318223   -5069.8984   -4901.4979   -5069.8984            0     5918.224    19.792972    19.832285    20.377318    7998.9097    4867.5224     6530.945    6356.2045   -183.01496    559.85247   -327.29168   -4211.1022 
35294000    86.437816   -5077.5447   -4910.8421   -5077.5447            0    7576.6945     19.69843    19.764875    20.379814    7934.6159    8840.2541    6564.1188    7325.7106   -229.35432    1408.1159    291.67792   -4034.0804 
35295000    81.568264   -5066.2271   -4908.9158   -5066.2271            0    7826.8333    19.507364    19.839049    20.435382    7908.6468    8523.8388    7831.4059    7125.2554     109.3381    694.44868   -1896.5531   -4006.1728 
35296000    85.487707   -5073.8874   -4909.0172   -5073.8874            0    6232.8075    19.915624    19.652141    20.375579    7974.6887    5341.5294     7038.393    6318.5003   -115.61923    813.78651    319.36421   -4184.1251 
35297000    86.534351   -5075.6213   -4908.7326   -5075.6213            0    6237.6135    19.764031    19.785958    20.495994    8014.9644    7492.7172    4859.5355    6360.5879    99.003799   -166.96587    98.219906   -4179.6177 
35298000    84.113416   -5076.2141   -4913.9943   -5076.2141            0    7420.3788    19.665871    19.854521    20.419128    7972.7804    7349.0261    7676.2282    7235.8822   -485.84091    347.17717   -210.92451    -4051.191 
35299000    87.639378   -5066.5803   -4897.5604   -5066.5803            0     7619.697    19.620599     19.85611    20.380076    7939.8486    6916.9092    8432.5893    7509.5924   -39.008202      179.512   -498.29151   -4015.2411 
35300000    86.198238   -5077.7122   -4911.4717   -5077.7122            0    7444.1635    19.785442    19.706996    20.419327     7961.733    8244.2256    6176.7956    7911.4691    -451.2451    -846.5447    353.52811   -4047.1022 
35301000    88.233024   -5052.6102   -4882.4454   -5052.6102            0    6372.0447    19.726109     19.77994    20.452389    7980.1388    5591.6119    7044.8792    6479.6428    30.157313    855.95779    14.640984   -4140.8533 
35302000    84.143319   -5071.3041   -4909.0266   -5071.3041            0     6676.299    19.811156    19.767632    20.354449    7971.2022    6562.2742     6922.436    6544.1869    279.00023    964.80798   -239.38333   -4132.8948 
35303000     83.38864   -5073.9955   -4913.1735   -5073.9955            0    6826.3448    19.780884    19.818798    20.342236     7974.835    6961.8104    6526.2308    6990.9932    203.23904    587.37873    316.80792   -4119.2369 
35304000    86.638884   -5060.6688   -4893.5784   -5060.6688            0    7060.9308    19.704642    19.747317    20.497839    7975.9926    7790.9739    7061.2155    6330.6029   -158.12025   -387.01934    1056.5276   -4072.2391 
35305000    83.312663   -5063.9052   -4903.2297   -5063.9052            0     5769.781    19.791627    19.797166    20.445217    8010.8067    4990.5178    6903.7408    5415.0844    48.696238    33.027556    323.52721   -4229.1497 
35306000    90.226077   -5060.6103   -4886.6018   -5060.6103            0    7916.4805    19.637288    19.868933     20.40251    7960.4877    7787.1104    7903.1568    8059.1744   -45.022778   -832.71639   -879.94443   -3967.5336 
35307000    80.402206   -5067.4607   -4912.3983   -5067.4607            0    6843.7715    19.733906    19.832149    20.317782     7951.684    6606.4714    6700.1238    7224.7194    65.029863    448.19495    1047.8738   -4118.7456 
35308000    88.907525   -5075.3508   -4903.8852   -5075.3508            0    6677.0477    19.808099    19.817917    20.324177    7978.3626    6647.7591    5811.1156    7572.2685    181.98481   -483.85419    60.896142    -4126.969 
35309000    85.204203   -5072.6526   -4908.3291   -5072.6526            0    7183.3566    19.633803    19.847852    20.502475    7989.5852    8184.3657    6133.9064    7231.7977   -609.14539   -88.792969   -32.299763   -4071.3251 
35310000    85.974364   -5071.8522   -4906.0434   -5071.8522            0     6279.408    19.816519    19.913509    20.257909    7994.1033    6214.7578    5592.0989    7031.3674    130.45277    243.63997   -416.83152   -4173.9536 
35311000    85.930721   -5064.9252   -4899.2006   -5064.9252            0    6052.5703    19.778956    19.889114    20.275572    7976.1244    6095.1675    4698.0319    7364.5114   -98.310045    491.56874    165.20489   -4195.1438 
35312000    92.160688   -5065.8408   -4888.1011   -5065.8408            0    6587.6479    19.652806    19.803411    20.473856     7968.273    7077.9515    6274.5447    6410.4476   -244.93198    1130.2549    593.66442   -4122.5566 
35313000     88.12104   -5068.7324   -4898.7835   -5068.7324            0     6014.421    19.726646    19.770845    20.523906    8004.5792    6568.5476    6029.9276    5444.7877    248.52081   -278.52748   -141.90038   -4196.6686 
35314000    83.920667   -5064.4022   -4902.5542   -5064.4022            0    7313.3444     19.72207    19.882357    20.329206    7971.5134    7852.0217    6746.5904    7341.4212   -153.82821    434.77265    161.54155   -4052.3315 
35315000    86.231489   -5066.2786   -4899.9739   -5066.2786            0    7318.6416    19.956166    19.625299    20.252964    7931.9866    6631.7403    7112.6547    8211.5299    146.88163    109.08888    667.00609   -4053.3543 
35316000    90.519308   -5067.9484   -4893.3743   -5067.9484            0    6437.2542    19.737399    19.826025    20.453266    8003.6528    6047.6242    6728.8013    6535.3372   -128.52366    280.63954    184.46565   -4141.9854 
35317000    82.379761   -5064.0792   -4905.2029   -5064.0792            0    6800.2175    19.591282    19.889185    20.377946    7940.3613    7021.9128    6373.6833    7005.0564    271.71054   -33.311292   -214.61315    -4117.724 
35318000    89.741751   -5080.0119   -4906.9374   -5080.0119            0    5701.8174    19.814279    19.806579    20.377249    7997.1142     5323.843    5523.5705    6258.0386    58.104159    742.94529    753.21166   -4241.9361 
35319000    82.945994   -5075.7284   -4915.7601   -5075.7284            0    7027.0543    19.724719    19.799888      20.4104     7971.225    6727.8566    7651.2001    6702.1062     43.85469   -30.999811   -423.49238     -4098.85 
35320000    83.410714   -5063.0551   -4902.1906   -5063.0551            0    6677.1192    19.748724    19.823211    20.424159    7995.7137    7415.9602    6107.5439    6507.8535   -298.24417    701.18497   -523.00461   -4123.5765 
35321000    84.600314   -5060.8742   -4897.7154   -5060.8742            0    7537.9826    19.727186    19.730126    20.448452    7958.9438    7643.8111    7948.6809    7021.4558    193.89333    1368.2723    77.835403   -4022.7589 
35322000    90.916927   -5061.3571   -4886.0161   -5061.3571            0    6383.8396    19.673064    19.786522    20.475937    7970.4944     7271.519    5235.7574    6644.2425    -667.3766    151.94883    431.21419   -4143.9491 
35323000    83.948061   -5074.8898   -4912.9889   -5074.8898            0    7699.6881    19.781762    19.653001    20.411418    7935.3671    8295.9127    7415.5132    7387.6385    197.42416   -77.558435   -582.91958   -4021.9102 
35324000    81.365762   -5067.3489   -4910.4282   -5067.3489            0    7027.1049    19.749214    19.692306    20.464089     7958.639    7511.0666    6780.9195    6789.3285   -1.9374917    525.79458    96.655775    -4094.802 
35325000    85.069674   -5062.9217   -4898.8577   -5062.9217            0    8297.2535    19.650429    19.737285    20.338225    7888.1018    8784.4399    7777.8632    8329.4575    229.38204    521.41268    468.15703   -3944.3427 
35326000    86.106343   -5068.8067   -4902.7434   -5068.8067            0    6801.2741    19.711667    19.760855    20.438197    7961.0742    8541.0009    5457.0678    6405.7535   -212.79585    585.67941    1287.8706   -4113.0875 
35327000    81.834747   -5080.4053   -4922.5801   -5080.4053            0     6743.464    19.736424     19.85416     20.40633    7996.2229    6724.7275    6912.4486     6593.216   -455.50306    293.95772      37.3402   -4136.1795 
35328000    89.222717   -5060.3108   -4888.2373   -5060.3108            0     6788.065    19.694186    19.847471    20.319172    7942.3532    6732.8823    6049.8795    7581.4331   -789.25012   -154.91601    802.37619   -4101.9684 
35329000    85.206417   -5074.4803   -4910.1526   -5074.4803            0    7515.4105    19.711627    19.720673    20.459841    7953.2835    7648.7097    7829.3771    7068.1446   -139.89423    737.45369    491.77511   -4038.4365 
35330000    91.495469   -5074.8434   -4898.3867   -5074.8434            0    6134.6535    19.774845     19.80423     20.39493    7987.1765    6667.2752    5323.2892    6413.3961   -158.47082    93.617967   -866.69231    -4183.793 
35331000    85.342568   -5064.4666   -4899.8763   -5064.4666            0    7164.8033    19.692183    19.746683    20.445222    7950.2328    6913.1301    7371.0432    7210.2364   -506.49446    894.96992    206.91514    -4069.146 
35332000    85.674593   -5072.9956   -4907.7649   -5072.9956            0    6655.3381    19.601689    19.680615    20.545276    7925.8189    8257.9583    6118.7672    5589.2889    19.699589    83.992656   -206.19918   -4138.4748 
35333000    88.494432   -5068.6648   -4897.9959   -5068.6648            0    7503.8958    19.754643    19.765441    20.388968    7961.0611    8364.7358    7028.7849    7118.1666   -356.13026    667.72502    505.37596   -4026.7642 
35334000    87.924642   -5062.5988   -4893.0287   -5062.5988            0    6181.6436    19.859187     19.70972    20.437259    7999.5316    4808.9667    7146.9337    6589.0304   -409.20322    551.42634    626.02968   -4171.8475 
35335000    86.118017   -5076.7812   -4910.6953   -5076.7812            0    6397.3304    19.675479    19.912522    20.295219    7951.4318    6847.4252    5654.7124    6689.8536   -268.81617   -139.68603   -7.8745967   -4168.8387 
35336000    85.806664   -5070.6576   -4905.1723   -5070.6576            0     6819.895    19.783321    19.735356    20.364987    7951.1198    6915.8421    6483.2901    7060.5529   -79.410555    273.39831    759.90489   -4114.3446 
35337000    87.571769   -5076.3937   -4907.5042   -5076.3937            0    7369.9079    19.769104     19.79955    20.353349    7966.6946    7810.0584    6794.7971    7504.8683   -430.94748   -435.63766    471.75369   -4051.2236 
35338000    82.266909    -5070.833   -4912.1743    -5070.833            0    6227.1248    19.848177    19.749225    20.516481    8042.1757    6686.8648    5869.3103    6125.1993   -272.54118   -463.21571   -301.26811   -4181.8143 
35339000    82.241763   -5079.1318   -4920.5216   -5079.1318            0    6685.3665    19.679074     19.94687    20.333415    7981.5958    6352.7512    6635.1253    7068.2229   -264.19707   -613.58526   -292.76708   -4142.3223 
35340000      87.7025   -5072.3563   -4903.2147   -5072.3563            0    7925.7314    19.682253    19.733262    20.386383    7917.9702    7624.6578    7721.6366    8430.8998    -91.10863    621.98243   -480.74997   -3987.9871 
35341000    85.472119   -5072.5621   -4907.7219   -5072.5621            0    7472.5595    19.635408    19.698709    20.546983    7947.4123    6914.5878    8188.9901    7314.1007   -182.25004    16.662458    379.05575    -4041.616 
35342000    85.952236   -5070.8535   -4905.0874   -5070.8535            0    7341.7811    19.638937    19.841244    20.412285    7953.8702    6726.6137    7379.8502    7918.8795   -86.328767   -267.73744    93.940277   -4053.4479 
35343000    90.409111   -5064.1904   -4889.8289   -5064.1904            0     7434.395    19.687971    19.716575    20.370392    7907.3657    7289.7227    7456.8378    7556.6246   -242.04346   -455.12232    288.68061   -4032.4884 
35344000    85.386056   -5069.8109   -4905.1367   -5069.8109            0    7219.2126    19.729712    19.839016     20.34813    7964.6255    6337.6273    8607.2764    6712.7341   -64.778321    186.72744   -85.778204   -4066.5826 
35345000    80.706259   -5075.1635   -4919.5147   -5075.1635            0     5769.625    19.719961    19.935688    20.337005    7995.1069    5958.6918    5162.0105    6188.1728   -194.03265    801.85263    144.22713   -4246.7739 
35346000      87.9537   -5068.7577   -4899.1316   -5068.7577            0    7225.4691    19.676146    19.795331    20.451165    7965.6436    6651.7573    7879.4191    7145.2308   -264.78162    321.23211    -570.9332   -4059.7435 
35347000    88.263359   -5075.4593    -4905.236   -5075.4593            0    5679.3252    19.716536    19.735901    20.510799    7981.2364    5138.3726    6737.8825    5161.7205   -233.20918    12.797241    380.56481   -4244.1731 
35348000    85.202203   -5068.3418   -4904.0222   -5068.3418            0    7002.0886    19.763505    19.667534    20.482164    7961.4047    6527.0012    7954.1486    6525.1161    314.05852   -64.733159   -158.20831   -4091.0173 
35349000    81.774414   -5063.0066   -4905.2977   -5063.0066            0    6178.2364    19.755689     19.87252    20.374417     7998.901    6772.1252    5625.9451    6136.6389    218.35563    575.74421    461.89788   -4184.5708 
35350000    86.559658   -5063.4904   -4896.5528   -5063.4904            0    7842.6717    19.666326    19.821835    20.310004    7917.3003    8167.7418    6916.0184    8444.2548   -152.95592    962.36329     1085.163   -3990.9932 
35351000    82.062224   -5070.5067   -4912.2428   -5070.5067            0    7802.3076    19.638473    19.767004    20.403348    7920.4526    7025.2998    8024.4042    8357.2188   -122.70814    742.10187    87.735537   -4010.9852 
35352000    86.870908    -5072.819   -4905.2811    -5072.819            0    6396.9985    19.719065    19.795609    20.501542    8002.7955    5707.2505    7592.5139    5891.2312    182.41551     468.9137    135.33604    -4158.671 
35353000     86.16168    -5069.088   -4902.9179    -5069.088            0    5616.6093    19.816804    19.839851    20.430273    8032.4161    5079.0649      6024.19     5746.573   -25.491855   -25.525842    476.61329   -4244.9627 
35354000    86.892152   -5064.5532   -4896.9744   -5064.5532            0    6710.7752    19.689717    19.762243    20.476155    7967.5373    6350.0459    7144.0026    6638.2771   -301.85961    919.53706    503.97086   -4117.1934 
35355000    92.140183   -5066.2189   -4888.5188   -5066.2189            0    7713.9631    19.667903    19.790843    20.458245     7963.257    7803.7132    8405.4918    6932.6843   -168.21166   -126.45113     -280.227   -3992.6505 
35356000    80.417903    -5067.564   -4912.4713    -5067.564            0    6952.7061    19.787974    19.807339    20.346919    7974.9156    7204.6941     5831.438    7821.9862   -69.328445   -244.49795    142.29626   -4103.8302 
35357000    87.221949   -5068.5117   -4900.2969   -5068.5117            0    7138.6311    19.763025    19.712895    20.447092    7965.9096    6366.7848     8064.595    6984.5134    205.23439    1453.5707    241.44545   -4070.9691 
35358000    86.348796   -5066.2054   -4899.6745   -5066.2054            0    6360.3756    19.740849    19.771809    20.475864    7991.9818    6523.4299    6604.3639    5953.3329   -479.53522   -96.142875   -21.510428   -4158.3419 
35359000    86.769098   -5071.1567   -4903.8152   -5071.1567            0    6839.7035    19.804037      19.7291    20.421546    7979.0214    6619.3693    7073.1948    6826.5465   -358.07498    882.94471    461.91472   -4107.9073 
35360000    89.350211   -5062.5229   -4890.2035   -5062.5229            0       6950.9    19.621033      19.7612    20.490844    7945.0206    8160.1648    6537.6787    6154.8566    352.52754    -269.4946    -839.1265   -4084.8029 
35361000      90.2535   -5066.6283   -4892.5668   -5066.6283            0    7243.3351    19.699831    19.868595    20.333168     7958.564    6750.0798    7575.9161    7404.0094   -375.09376    1041.0049   -293.26263   -4051.8511 
35362000    84.229659   -5061.7501   -4899.3061   -5061.7501            0    6572.5777    19.772981    19.872207    20.320402    7984.5519    6375.1787    5663.8812    7678.6731    434.32618    117.08425   -200.15102   -4133.9525 
35363000    87.478615   -5085.0022   -4916.2924   -5085.0022            0    5363.3184    19.758208    19.866816      20.4442    8025.0166    5135.2768    5519.7179    5434.9604   -94.490073   -659.80595    283.35518   -4288.5876 
35364000    84.150181   -5065.2646   -4902.9739   -5065.2646            0    5552.7222    19.733335    19.733274    20.584949    8015.8474    5063.7679    6370.4173    5223.9813    34.168027    354.17951    434.83854   -4253.8445 
35365000    87.164199   -5072.0014   -4903.8979   -5072.0014            0    6709.4629    19.778371    19.652128    20.519838    7975.7961    5727.8672     6885.903    7514.6185   -56.689639    451.27063    22.353627   -4123.4612 
35366000    85.159098   -5077.4811   -4913.2446   -5077.4811            0    6069.3568    19.742183    19.808102    20.387099    7972.4807    6340.5809    5529.2156    6338.2738   -27.504819   -282.45378   -102.09444   -4207.5577 
35367000    86.755975   -5083.7194   -4916.4032   -5083.7194            0     6847.556    19.816569    19.760465    20.399911    7988.2917     7451.074    6622.1463    6469.4476   -39.269911    657.63506   -979.25242   -4118.6558 
35368000    82.629562   -5071.7446   -4912.3865   -5071.7446            0    6243.8686    19.655646    19.845959    20.491795    7993.5448    6804.7732    6062.7029    5864.1298    72.408256   -391.21465    368.26709    -4184.491 
35369000    86.279459   -5076.7872     -4910.39   -5076.7872            0    6553.2962    19.788041    19.825709    20.280768    7956.3875    6398.5448    6342.8631    6918.4808    262.52121   -9.7890745    734.63824   -4149.9733 
35370000     88.72089   -5075.9795   -4904.8738   -5075.9795            0    6278.4518    19.754215    19.850351    20.395431    7997.6216     6636.159    5807.9836    6391.2127    202.03318    110.89382    827.47975   -4172.5733 
35371000    85.851416   -5079.2306   -4913.6589   -5079.2306            0     6612.449    19.707159    19.716847    20.488324    7961.0054    6693.2645    7172.1521    5971.9304   -184.94332    19.530011   -611.95474   -4145.9331 
35372000    84.448502   -5056.4326   -4893.5666   -5056.4326            0    6753.9801    19.689002    19.855762    20.356126    7958.0268    7037.8452     6592.436    6631.6592   -177.63755    893.06369   -119.27167    -4109.702 
35373000    88.857606   -5075.6017   -4904.2324   -5075.6017            0    6348.7244    19.707604    19.738276    20.531941    7986.8043     7045.942    6114.9534    5885.2779    -186.9804    70.779449   -39.653665   -4164.7371 
35374000    86.841021   -5068.3576   -4900.8774   -5068.3576            0    6479.4513    19.771652    19.769044    20.340313    7950.3499    6225.7061    6495.6264    6717.0215    96.725816    502.45679    33.255088   -4149.5999 
35375000     88.07908    -5065.513   -4895.6451    -5065.513            0    6510.0169    19.688616    19.840522    20.399589    7968.7409     7947.508    5262.6993    6319.8434   -460.05354   -1073.1722   -747.31832   -4139.0775 
35376000      83.3946   -5079.4713   -4918.6378   -5079.4713            0    6170.6824    19.703766    19.895461    20.395559    7995.3752     5762.207    6370.4393     6379.401    109.57736     436.7027    795.41283   -4199.1094 
35377000     85.56877   -5075.0013   -4909.9748   -5075.0013            0    6425.1745    19.724793    19.829879    20.470656    8006.8974    5621.0608    6703.1093    6951.3534    116.37687    908.36872   -738.50847   -4159.6918 
35378000    85.076972   -5069.3649   -4905.2868   -5069.3649            0    7607.6409    19.770575    19.662057    20.435849     7944.031    7531.2498    7772.5893    7519.0835   -160.74257    516.68037    119.64471   -4023.8994 
35379000    88.072165   -5056.5406    -4886.686   -5056.5406            0    7168.2093    19.716815    19.800801    20.360916    7949.0791    7110.6808    6583.5257    7810.4212     108.1253    1220.4767    1135.1927   -4055.6815 
35380000    80.226189   -5071.3016   -4916.5786   -5071.3016            0    6934.7455    19.733728    19.742308    20.404291    7949.2946    6890.7608    7698.0369    6215.4387    2.4940535    622.01929    1005.5376   -4112.6176 
35381000    81.759723   -5076.1663   -4918.4858   -5076.1663            0    6185.8979    19.689885    19.752163     20.53539    7986.5789    6338.4066    6451.9671    5767.3198    26.974713    325.39963    275.73403   -4197.9768 
35382000    86.430193   -5062.3937   -4895.7058   -5062.3937            0    6146.7631    19.865983    19.687524    20.504742    8019.6513    5262.6155    7018.8881    6158.7855    219.69725     1257.927   -190.82044   -4176.7903 
35383000    87.265123   -5058.6047   -4890.3066   -5058.6047            0    7640.0923    19.628448     19.80477    20.453275     7950.943    8289.2633    7280.5229    7350.4908    160.02416   -508.41696    108.30814   -4004.3894 
35384000    82.280119   -5063.1896   -4904.5055   -5063.1896            0    8406.8071    19.625014    19.732021    20.422333    7908.3687    9794.3922    7125.1264    8300.9026   -217.60007     386.3928    744.73391   -3934.9026 
35385000    85.578642   -5071.6666    -4906.621   -5071.6666            0    6512.8599     19.70858    19.825782    20.393675     7968.584    7202.8388     5961.492    6374.2487    52.178389    504.68092    351.94942    -4149.738 
35386000    87.236776    -5067.628   -4899.3845    -5067.628            0    7539.2011    19.783091    19.696814    20.468212    7975.7224    8132.2264    7735.8633    6749.5136   -805.93965    829.90471    516.81388   -4022.4418 
35387000    87.822868   -5076.6924   -4907.3186   -5076.6924            0     6515.177    19.787433    19.700605    20.372322    7941.6287    5886.7602    6847.1086    6811.6624   -53.851808   -619.36784    391.26818   -4152.7275 
35388000    85.541793   -5073.4899   -4908.5153   -5073.4899            0     7107.116    19.871322    19.764441     20.29154    7969.4122    7199.6909     6353.205     7768.452   -206.19406   -704.10042     339.5026   -4082.4858 
35389000    79.454757   -5073.7252     -4920.49   -5073.7252            0    6132.4357    19.762001     19.74056     20.46816    7984.8945    6937.1572    6128.8211    5331.3288    56.271885   -255.54695      859.844   -4206.3587 
35390000    85.902497   -5065.8592    -4900.189   -5065.8592            0    5784.2907     19.64111    19.888384    20.404851    7970.7461    6982.2996    4034.1201    6336.4523   -563.32306   -952.07314   -27.625703   -4227.7932 
35391000     83.38693   -5071.7584   -4910.9397   -5071.7584            0    6080.7634     19.87451    19.885671    20.296121    8021.3916    6551.7678     5245.418    6445.1043     33.71875    1230.7221     352.3963   -4199.5891 
35392000    87.908375   -5077.8253   -4908.2866   -5077.8253            0    6432.6622    19.747548     19.87297    20.337375    7981.2487    6857.7346    4976.2368    7464.0151   -118.22889    547.79848    66.052682   -4159.5355 
35393000    84.495948   -5069.8735    -4906.916   -5069.8735            0    5708.8533    19.693564    19.833559    20.399382    7967.8653    6265.1787    5479.3372    5382.0441   -120.73157    447.17566   -790.21028   -4243.5293 
35394000    86.014856   -5065.3705   -4899.4836   -5065.3705            0    7686.9283    19.681894    19.723386    20.449253    7938.2693    8097.7503    7533.3966     7429.638    178.02112   -542.10481   -128.73803   -4009.5563 
35395000    86.823113   -5074.5852   -4907.1395   -5074.5852            0    6303.5516    19.781731    19.748164    20.458822    7992.2976    7093.1734    5220.2075     6597.274   -151.98252   -169.21734   -773.45492   -4172.4009 
35396000    81.995937   -5069.7305   -4911.5944   -5069.7305            0    6686.7128    19.667684    19.788528    20.459619    7962.7714    7656.5351    6363.2351    6040.3682   -164.84897    1317.3538    528.14499   -4135.0741 
35397000    83.697111   -5079.7106   -4918.2937   -5079.7106            0    5975.6152    19.792348    19.786522    20.474266    8018.1674     6022.084    5484.3651    6420.3964   -227.37457    942.58011   -268.75258   -4219.5247 
35398000      85.3765   -5077.8366   -4913.1809   -5077.8366            0    5492.8997    19.645828    19.839536    20.560479     8013.737    6899.6518    4181.9114     5397.136   -123.27338    271.92937    555.19291    -4271.214 
35399000    90.754417   -5074.3109   -4899.2834   -5074.3109            0    6916.3863    19.762983    19.815874    20.401537    7989.6661    6446.1232    6596.5572    7706.4784   -320.60039    624.71003   -176.35641   -4093.3786 
35400000    85.995202   -5076.8765   -4911.0275   -5076.8765            0    6828.8306    19.873008    19.798885    20.304384    7989.0316    6473.7578    6947.5507    7065.1832    29.369396     821.9703    61.314101   -4115.3879 
35401000    93.610221   -5072.8386   -4892.3034   -5072.8386            0    5469.3593      19.8807    19.729633    20.361342    7986.5105    4239.7145    5896.9621    6271.4012   -15.574991    118.41894   -232.91647   -4255.2594 
35402000    89.242415   -5070.2724   -4898.1609   -5070.2724            0    6273.4402    19.736918    19.815988    20.410518    7982.6869     6175.943    6087.8455    6556.5322    97.636641    808.38095    1085.4727   -4167.8114 
35403000    85.425729   -5066.5656   -4901.8149   -5066.5656            0    7190.8163    19.720561    19.723688    20.414729    7940.5581    7036.2759    7143.2166    7392.9564   -266.58524   -267.76392   -131.63041   -4069.0832 
35404000    85.759128   -5071.5779   -4906.1842   -5071.5779            0    6375.6854    19.955221     19.81036    20.189538    7981.3305    6016.5716    5752.6872    7357.7973   -168.51366     940.5719   -422.19956   -4164.0575 
35405000    85.044577   -5074.3624   -4910.3468   -5074.3624            0    6240.7782    19.788301    19.803797    20.389731     7990.399     6113.319    5784.8209    6824.1948    143.25299    1017.6483   -185.12337   -4183.0978 
35406000     83.01798   -5075.8846   -4915.7774   -5075.8846            0    6153.9727    19.767037    19.750964    20.473828    7993.3518    5531.9807    6740.1996    6189.7378    75.916211   -356.69354    38.434341   -4198.3791 
35407000    88.743862   -5076.2015   -4905.0515   -5076.2015            0    6819.6517    19.796318    19.867057    20.350354    8003.6839    6751.4199    6353.1356    7354.3996   -490.87654   -127.43814    1000.3233   -4109.0242 
35408000    83.853771    -5080.051    -4918.332    -5080.051            0    6295.3203    19.686032    19.751818    20.593419    8007.4402     7476.771     6213.068    5196.1221   -97.478211    907.61082   -173.06583   -4183.1626 
35409000    84.474781   -5075.5394   -4912.6227   -5075.5394            0    6380.7236    19.776346    19.849028    20.348218    7987.5149    6328.7473    5673.5216     7139.902   -182.42247    7.5287326   -187.37495    -4169.334 
35410000    83.177943   -5064.1262   -4903.7106   -5064.1262            0    6777.9208    19.837693    19.637141    20.516936    7992.4868    7524.8992    6342.1853    6466.6781    83.778985    289.06656    558.02675   -4113.6611 
35411000     83.89478   -5069.1332   -4907.3351   -5069.1332            0    7245.4267     19.65286    19.738214    20.498392    7951.5794    8551.9139     5962.553    7221.8132   -248.35966    649.94205    906.27183   -4067.1146 
35412000    85.594684   -5062.9357   -4897.8591   -5062.9357            0    7077.1661    19.640773    19.805477    20.387328    7930.5661    6696.2902    6957.9047    7577.3034   -183.53034   -863.97486   -854.95348     -4079.32 
35413000    88.689169    -5073.819   -4902.7745    -5073.819            0    7172.0366    19.856695    19.838989    20.242081    7974.0999     7643.271    6468.8552    7403.9836   -186.29408   -185.34677   -1105.1685   -4068.7091 
35414000    82.620137   -5068.9865   -4909.6466   -5068.9865            0     6467.687    19.709886    19.831341    20.371831    7962.8079    7335.3751    4969.8713    7097.8144   -103.60141     21.21046   -987.77286   -4158.5581 
35415000    86.183486   -5073.5166   -4907.3045   -5073.5166            0    5969.9026    19.700649    19.951091    20.331573    7991.3132    6957.9581     4338.042    6613.7077    68.884947    68.739758    -153.0111   -4211.5416 
35416000    91.255409   -5076.6008   -4900.6071   -5076.6008            0    7188.1766    19.773132    19.758201    20.407779    7972.9421    6685.1202    7765.4112    7113.9985    35.436721    31.214507   -13.350475   -4064.7862 
35417000    83.524313   -5061.6419   -4900.5582   -5061.6419            0    7619.1981    19.736441    19.729078    20.387864    7938.6627    6616.2335    8300.6507    7940.7101    18.977321    926.32611   -698.37773   -4018.4284 
35418000    92.359761   -5069.8429   -4891.7194   -5069.8429            0    6677.7208    19.780931    19.795349    20.314659    7954.6198    5785.0793     6382.478    7865.6052    81.679859    946.40691    1140.0708   -4117.0372 
35419000    88.572428   -5068.7339   -4897.9146   -5068.7339            0     5917.697    19.657949    19.867926     20.52121    8014.8189    6334.9658    5846.8683    5571.2568   -184.48295    114.14473    764.20883   -4206.2073 
35420000     87.15343   -5068.4286   -4900.3459   -5068.4286            0    6824.7999    19.730627    19.797814    20.422139    7977.3628    6254.3579    7589.9198    6630.1219    280.38855    -112.2621   -118.32784   -4106.3373 
35421000    87.656887   -5068.3143   -4899.2606   -5068.3143            0    7033.0647    19.764365    19.765654    20.444717    7986.8434    6593.3556    7574.9927    6930.8457    428.76703    235.83724    204.72758   -4080.0498 
35422000    85.297098   -5071.8326     -4907.33   -5071.8326            0    7347.2612    19.681292    19.800864    20.428921    7961.2849    7821.9696    7157.9106    7061.9033   -593.08791   -127.25827   -323.31398   -4054.2603 
35423000    82.333179   -5072.1275   -4913.3411   -5072.1275            0    7303.6313    19.775249    19.816247    20.361211    7978.9723    8643.0003    6929.0849    6338.8086   -416.41178    187.96293     0.276856   -4063.4531 
35424000    87.599679   -5071.1311   -4902.1877   -5071.1311            0    6655.0392    19.670047    19.774702    20.467752    7961.3277    7438.2365    6682.7668    5844.1143   -351.65214    838.71743    198.10497   -4129.4858 
35425000    85.440046   -5069.4255   -4904.6472   -5069.4255            0    7377.5136    19.694498    19.815736    20.350629    7942.0564    7700.2348    7192.2009    7240.1053    65.256583   -955.85831    -69.93312   -4050.1338 
35426000      88.1558   -5077.0263   -4907.0105   -5077.0263            0     7520.992    19.696347    19.875487    20.251723     7928.033    8288.6328    6195.0468    8079.2964   -380.26347    -670.0999    316.95306   -4037.4166 
35427000    87.386061   -5073.2624    -4904.731   -5073.2624            0    6591.4747    19.757891    19.782513    20.442924    7990.3364    6920.7728    6823.7082    6029.9433    50.151705   -494.96732   -192.56533   -4136.6208 
35428000    87.820436   -5070.7587   -4901.3896   -5070.7587            0    6939.7738    19.739824    19.716637    20.432649    7952.4472    6849.5042     6644.975    7324.8421    23.996357   -646.30856   -62.582788   -4096.5265 
35429000     85.96872   -5053.7461   -4887.9482   -5053.7461            0    7438.9085    19.682822     19.70203    20.396277    7909.5039    6389.2222    8380.3477    7547.1557   -263.32034    905.15478    249.55889   -4029.8552 
35430000     88.79499   -5068.5906    -4897.342   -5068.5906            0    6816.8078    19.602122    19.884409    20.473827    7980.2189    7315.8844    7109.7555    6024.7835    -167.1699    523.88643    576.61439   -4103.9794 
35431000    86.167016   -5070.5031   -4904.3228   -5070.5031            0    7306.4145    19.881746    19.774336    20.224958    7951.4083    7836.7981    6305.2495    7777.1958   -218.15259    166.75188   -154.97513   -4057.0481 
35432000    81.772869   -5062.5746   -4904.8687   -5062.5746            0    6248.4725    19.750287      19.8669    20.318822    7972.6382    5039.1956    7349.5731    6356.6487    296.86792    721.01094   -431.96791   -4178.3417 
35433000    83.880123   -5074.4211   -4912.6512   -5074.4211            0    8196.1805    19.741492    19.706598    20.371726    7925.3682    8777.8096    8087.0216    7723.7104    74.882865    215.84074   -1006.1067   -3965.3091 
35434000    82.683036   -5080.2488   -4920.7876   -5080.2488            0    5260.2787    19.830809    19.968646    20.301998    8039.4775    6325.4515    3763.6275    5691.7569    126.18086    419.63588    587.09944   -4304.0329 
35435000    87.380106   -5063.3991   -4894.8793   -5063.3991            0    6741.2743    19.723546    19.733896    20.450263    7959.7009    7797.7716    6674.9721    5751.0792   -798.56101    1115.4494   -692.47823   -4112.3247 
35436000    89.143465   -5066.9901   -4895.0694   -5066.9901            0    7776.8473    19.739536    19.698218    20.418579    7939.4311    7334.2622     7870.128    8126.1518   -11.482396   -572.09051    963.05176   -3994.6003 
35437000     86.59882   -5073.0139   -4906.0008   -5073.0139            0    7182.5393    19.740942    19.687638    20.461911    7952.5734    6584.9668    8042.2952     6920.356   -754.34523   -145.82951   -26.067367    -4072.969 
35438000    90.637932   -5075.3651   -4900.5622   -5075.3651            0    6633.4222    19.768705    19.749899    20.459561    7988.0244    6411.1742    7041.2026    6447.8899     137.7305    258.99637   -816.70742   -4127.7875 
35439000    83.568261    -5073.289   -4912.1205    -5073.289            0    7695.0239    19.784158    19.747618    20.337044    7945.4795     7380.641    7881.0765    7823.3543   -269.81734    780.12944    65.595844   -4020.4468 
35440000    92.770693   -5068.2332   -4889.3171   -5068.2332            0    6742.6238    19.517139    19.895157     20.49143    7956.7514    9230.0573    4657.9069    6339.9072   -80.019288   -907.79369   -339.43065   -4106.8959 
35441000    84.498823   -5066.6955   -4903.7324   -5066.6955            0    6344.2478    19.816824    19.749798    20.398666    7983.5946    6737.3701    5629.9194    6665.4539   -357.67781   -1432.1405    660.67768   -4165.0556 
35442000    88.160142   -5071.9224   -4901.8982   -5071.9224            0     7113.923    19.729933    19.801606    20.375317    7960.3176    7609.3086    6128.7609    7603.6994   -245.58817      -85.709   -548.61386    -4076.021 
35443000     88.14534   -5069.0767    -4899.081   -5069.0767            0    6878.3808    19.534799    19.785737    20.535596    7937.2214     8265.641    5729.3783     6640.123   -412.01465    296.33227    367.65577   -4102.8655 
35444000    87.428098   -5068.4755   -4899.8631   -5068.4755            0    6287.5485    19.924813    19.798303    20.300609    8008.1332    6273.2306    5766.6104    6822.8044   -776.28288    1005.8393   -114.20785   -4165.5377 
35445000    85.942552   -5069.0467   -4903.2993   -5069.0467            0    7089.9007    19.705698    19.777886    20.399072    7950.2744     6628.228     7310.695    7330.7791   -115.58236    819.57408    -346.0293   -4081.2494 
35446000    86.716639   -5073.0486   -4905.8083   -5073.0486            0     6443.548    19.708457    19.771245    20.433196    7962.0141    6994.5796    6132.2835    6203.7809   -431.77494   -332.00215   -21.391202   -4157.5976 
35447000    86.601671    -5075.174   -4908.1553    -5075.174            0    6381.5954    19.703135    19.884488    20.402073    7993.2616    7167.3864    5925.4473    6051.9524   -111.25817   -148.86727    533.37887   -4164.2303 
35448000    89.247999   -5072.4485   -4900.3262   -5072.4485            0     6361.914    19.693049    19.724994     20.50993    7966.9853    6153.7611    7373.4952    5558.4857    111.50163    78.324761    626.30834   -4161.1335 
35449000    86.376197   -5061.9922   -4895.4085   -5061.9922            0    6383.0921    19.828931    19.815449    20.289037    7971.9513    6127.0506    5948.1126    7074.1132    254.93659    554.06728   -53.609671   -4153.2927 
35450000    81.754237   -5067.2792   -4909.6093   -5067.2792            0    6181.0655    19.881187    19.676878    20.451001    8000.4254    5784.6246    6394.8538    6363.7182   -533.38637    457.56402   -619.96616    -4188.415 
35451000    84.851545   -5071.9137   -4908.2703   -5071.9137            0    7225.2245    19.641883    19.797567    20.521778    7980.1294    7082.9872    7601.4263    6991.2599   -768.23017     649.6896    495.66052   -4067.3842 
35452000    87.029003   -5065.5962   -4897.7534   -5065.5962            0    8785.4545    19.759605     19.76024    20.279358    7918.1672    7456.7152    9947.4857    8952.1627    107.34559    -30.97205   -243.76823   -3883.2237 
35453000    85.619037   -5080.1169   -4914.9934   -5080.1169            0    6237.6837    19.763462     19.93614    20.299817    7998.2727    5127.8192     6038.682      7546.55   -175.42339   -668.23479   -810.16813   -4187.3888 
35454000    83.203716   -5076.1299   -4915.6645   -5076.1299            0    6523.7638     19.72572    19.791127    20.458169    7986.7515    6806.3251    6214.5032    6550.4631    282.90701    1497.7288    544.81958   -4155.7858 
35455000    81.117724   -5075.5635   -4919.1212   -5075.5635            0    6877.9232    19.840852    19.757829    20.390262    7993.2309    6363.9755    7871.5897    6398.2044   -180.97421    89.209318    351.77929   -4117.3405 
35456000    84.533175   -5075.9392   -4912.9099   -5075.9392            0    6109.1409    19.634009    19.753755    20.556969     7972.926    7117.1324    5535.5888    5674.7016    94.519197    629.76448   -195.37306   -4202.5576 
35457000    86.677507   -5067.8184   -4900.6536   -5067.8184            0    7003.9469    19.559528    19.793084    20.451943    7917.8345    8614.7057     6337.979     6059.156    265.06966    272.44245   -343.52284   -4091.8833 
35458000    88.895447   -5073.2074   -4901.7651   -5073.2074            0     6335.376    19.868248    19.732971     20.32971    7970.4574     6471.028    5631.6662    6903.4338   -95.002369    131.83767    3.6719592    -4165.335 
35459000    87.852299   -5075.1365    -4905.706   -5075.1365            0    6061.3753    19.624438    19.826943    20.534957    7990.0001    7547.9839    5139.0101    5497.1319   -264.36393    225.33449    324.83253   -4199.3984 
35460000     90.09149   -5066.6865   -4892.9375   -5066.6865            0    7750.4842    19.748163    19.689931    20.449512    7951.5875    7943.1975    7994.8376    7313.4175    -243.2393    94.499871    193.60961   -3994.1468 
35461000    89.644587    -5069.322   -4896.4349    -5069.322            0    7643.7115    19.612146    19.846949    20.331272    7913.7696    7808.9998    7754.0047    7368.1299   -625.71927    163.91845    417.65812   -4014.2419 
35462000    86.294308   -5066.9814   -4900.5555   -5066.9814            0    8379.7937     19.71231    19.768925    20.334657    7924.2361    7826.8834    9173.9509    8138.5469    564.05235   -946.08258   -278.96888   -3932.1291 
35463000    90.109653    -5068.933    -4895.149    -5068.933            0    6609.5482    19.642806    19.842917    20.459902    7974.6677    7436.7866    5993.6265    6398.2315    20.377876    513.82738   -667.75083    -4126.443 
35464000    88.251178   -5074.2403   -4904.0405   -5074.2403            0    6281.6993    19.815738    19.728414    20.466825    8001.1588    7234.0649    6013.6411    5597.3919   -294.66317    1447.6041   -79.937269   -4171.0372 
35465000    86.776831   -5087.0194    -4919.663   -5087.0194            0    5597.5679    19.685575    19.751144    20.552756     7991.171    6262.1571    5819.2858    4711.2607    169.87525   -100.08591   -293.22373   -4267.3055 
35466000    83.882669   -5071.5048     -4909.73   -5071.5048            0    7315.1044    19.832832    19.802371    20.291177    7969.0982    7115.2337    7074.2671    7755.8123    41.276238    195.54383    -495.3187   -4059.5604 
35467000    80.618437   -5074.1252   -4918.6458   -5074.1252            0    6646.3677    19.767975    19.784453    20.363502    7964.1363    6710.4755    6043.8386    7184.7888   -72.345278    274.26432    234.70707   -4146.6784 
35468000    90.562594   -5066.4357   -4891.7781   -5066.4357            0    8278.2872    19.650716     19.74325    20.398195    7913.8669    7933.3014    8589.6169    8311.9433   -164.62347   -123.55845    489.83571   -3936.3344 
35469000    88.109172   -5071.6909   -4901.7649   -5071.6909            0    6854.1904    19.697244    19.755686    20.500728    7977.5009    7964.9379    6543.6859    6053.9473   -289.16734    510.52208   -498.00643   -4104.3233 
35470000    82.007588   -5069.2569   -4911.0983   -5069.2569            0    7372.9012    19.752765    19.669959    20.430649    7938.0441    7084.9455    7909.0003    7124.7579   -175.88882    801.77012   -1251.6597   -4057.5506 
35471000    83.792764   -5067.0125   -4905.4111   -5067.0125            0    6952.8796    19.881857    19.695349    20.334766    7962.6898    5939.4725    6723.2049    8195.9615   -293.05765    1397.4172    114.93158   -4097.9894 
35472000    83.559964   -5074.9049   -4913.7525   -5074.9049            0    6249.2755     19.72624    19.810326    20.430852    7984.0346     5886.581    6524.0797    6337.1657   -269.29722   -142.02907   -190.80525   -4186.0934 
35473000    86.282686   -5074.3519   -4907.9485   -5074.3519            0     7534.618    19.697464     19.76914    20.424024    7953.1542    7645.3065    8032.3873      6926.16   -534.81647    160.70967   -310.29644   -4034.0188 
35474000    87.042676   -5071.1603   -4903.2912   -5071.1603            0    7369.2822    19.791823    19.703149    20.387585     7950.368    7374.0366    6934.9137    7798.8962     -346.695   -329.69745   -209.76993    -4048.838 
35475000     81.34989    -5070.335   -4913.4449    -5070.335            0    6419.3724    19.779993    19.733614    20.486718    7996.5962    7603.4746    5999.6596    5654.9829   -131.89245    633.98619    940.59958   -4164.8039 
35476000    83.408152    -5063.548   -4902.6884    -5063.548            0     6928.771    19.758121    19.744703     20.34019    7935.0787    5678.7802    7433.2587    7674.2741    261.55071   -365.00885   -215.41397   -4100.8564 
35477000    89.241899   -5053.8175    -4881.707   -5053.8175            0    6944.7454    19.660075    19.786065     20.46759    7961.8007    7331.9216    6302.2726    7200.0421   -452.09924   -318.77055    1682.5266     -4075.32 
35478000    89.201776    -5065.643   -4893.6099    -5065.643            0    7176.0078    19.730656     19.78367    20.382602    7956.2427    7082.0509     7401.041    7044.9316    454.48042    99.325102    254.38797   -4060.9516 
35479000    87.842663   -5068.1244   -4898.7125   -5068.1244            0    7102.2268    19.836655     19.75749    20.337415    7970.6905    7088.6922    7289.0281    6928.9601    426.80279   -106.17519    -793.0553   -4073.1188 
35480000    89.752783   -5067.0371   -4893.9413   -5067.0371            0     6220.262    19.797845    19.786308    20.401524    7991.8125    5734.2158    7406.7204    5519.8499   -1051.4258   -211.60798    458.77154   -4168.9549 
35481000    90.136937   -5069.0785   -4895.2418   -5069.0785            0    7012.0701    19.782353    19.709765    20.414118    7959.5776    7265.3767    7462.1068    6308.7266    137.18119    285.54437   -28.586966   -4081.2648 
35482000    85.381171   -5068.6929   -4904.0281   -5068.6929            0    6005.3662    19.886032    19.835795    20.253922    7989.2661    6105.7421    5647.9726    6262.3839    151.18272    738.99994     614.9153   -4204.3113 
35483000    84.196115   -5076.8423    -4914.463   -5076.8423            0     5413.954    19.688469    19.815609    20.523426    8006.9891    5390.0888    6466.0896    4385.6837    -218.1938    204.30147   -298.09272   -4282.2554 
35484000    87.585285   -5069.1015   -4900.1859   -5069.1015            0    6759.7657    19.795147    19.730416     20.44133    7983.6985    6315.1003    7711.7205    6252.4762    371.50755    16.499848   -650.05784    -4113.119 
35485000    84.802172   -5078.9276   -4915.3795   -5078.9276            0    6431.8363    19.730186    19.707671    20.531556    7983.4087     6660.044    6601.5408     6033.924   -229.75111    112.65883    128.06052   -4166.5219 
35486000    88.990106     -5083.82   -4912.1951     -5083.82            0    6470.3564    19.825102    19.674031     20.44769    7975.4103    5931.9624    7344.8645    6134.2425    36.445983   -144.22685    498.68065   -4159.6074 
35487000    85.442436   -5070.3489    -4905.566   -5070.3489            0    7067.5343    19.723927    19.832754    20.357773    7963.5498     7492.486    6120.7692    7589.3476    187.79225    486.58829    597.33073   -4084.7411 
35488000    84.072854   -5063.4389   -4901.2973   -5063.4389            0    6749.6554    19.835024    19.712422    20.383095    7969.7158    4966.9416    7257.5764    8024.4483    87.515423    357.13588   -65.828392    -4116.784 
35489000    84.007715   -5069.2831   -4907.2672   -5069.2831            0    7170.0026    19.751767    19.783094    20.466335    7997.2423    7669.7003     6775.154    7065.1536   -360.26074    127.75608    221.55682   -4071.0185 
35490000    86.740134   -5067.4499   -4900.1643   -5067.4499            0    6756.2712    19.705163    19.806476    20.403334    7963.2139    7236.1936    6430.7721    6601.8479   -78.324261   -424.25702   -288.87784   -4115.5226 
35491000    83.293294    -5067.507   -4906.8689    -5067.507            0    7284.8545    19.683487    19.807515    20.328269    7925.6048    8055.3332    7367.8716    6431.3587   -462.91454    449.11703    502.77639   -4064.8358 
35492000    83.748692   -5065.3151   -4903.7987   -5065.3151            0    7469.2889    19.744933    19.755231    20.344281    7935.6064    7295.9607    7264.1096    7847.7964   -399.78465    1138.7826    59.816756   -4039.3578 
35493000    86.990688   -5067.9943   -4900.2254   -5067.9943            0    6006.8311     19.83288    19.781402    20.373128    7992.8298    6512.5446    5470.2902    6037.6586    156.01898    493.88562    344.23861   -4200.0258 
35494000    85.792372   -5061.1997   -4895.7419   -5061.1997            0    7518.9381    19.737413    19.746111    20.384073    7944.4302    7212.0511    7367.1547    7977.6087   -275.07551    177.08092    388.84106   -4024.5875 
35495000    92.451468   -5065.9349   -4887.6345   -5065.9349            0    7313.9121    19.700373    19.824069    20.350971    7947.8994    7771.2701    6482.2004    7688.2659   -567.63107    880.58149    258.12218   -4039.8646 
35496000    87.778262   -5066.2175   -4896.9297   -5066.2175            0    6261.0087    19.765742    19.749648    20.345684    7942.2723    6230.3924    6109.5261    6443.1075   -509.50004   -580.73098   -454.81076   -4171.7178 
35497000    88.073739   -5072.2212   -4902.3635   -5072.2212            0    7139.2065     19.90333    19.700627    20.255844    7942.4804    5166.2739    8616.3684    7634.9771     257.9695   -528.70814   -778.29457   -4075.4083 
35498000    90.635569    -5073.142   -4898.3437    -5073.142            0    6566.5642    19.740827    19.773187    20.409617    7966.6708    6460.1231    6860.2476     6379.322    248.39874     554.4792    226.17452   -4135.4027 
35499000    87.233514    -5077.822   -4909.5848    -5077.822            0    6392.3284    19.740308    19.780298    20.378654     7957.236    6373.0199     6379.596    6424.3693    90.990593    487.97934    121.73198   -4167.7671 
35500000    89.363836   -5061.8512   -4889.5055   -5061.8512            0    7204.7163    19.589486    19.835852    20.533505    7978.7891    8309.1022    6475.5754    6829.4714   -5.7087471    930.21426    618.60315    -4051.147 
Loop time of 382.277 on 64 procs for 250000 steps with 972 atoms

Performance: 113.007 ns/day, 0.212 hours/ns, 653.976 timesteps/s
195.1% CPU use with 32 MPI tasks x 2 OpenMP threads

MPI task timing breakdown:
Section |  min time  |  avg time  |  max time  |%varavg| %total
---------------------------------------------------------------
Pair    | 25.85      | 35.885     | 51.223     |  91.7 |  9.39
Bond    | 1.0384     | 1.2044     | 2.2309     |  19.2 |  0.32
Kspace  | 160.57     | 179.39     | 191.35     |  49.9 | 46.93
Neigh   | 0.27548    | 0.30636    | 0.32923    |   3.5 |  0.08
Comm    | 64.376     | 70.111     | 75.063     |  35.5 | 18.34
Output  | 0.43988    | 0.44015    | 0.44154    |   0.0 |  0.12
Modify  | 74.79      | 77.717     | 80.932     |  18.2 | 20.33
Other   |            | 17.22      |            |       |  4.50

Nlocal:        30.3750 ave          37 max          22 min
Histogram: 1 0 5 0 5 4 8 3 5 1
Nghost:        2752.31 ave        2786 max        2728 min
Histogram: 2 4 5 4 4 7 2 1 1 2
Neighs:        9839.12 ave       12737 max        7199 min
Histogram: 4 1 3 3 3 9 3 3 2 1

Total # of neighbors = 314852
Ave neighs/atom = 323.92181
Ave special neighs/atom = 2.0000000
Neighbor list builds = 784
Dangerous builds = 0

unfix		3
unfix		2
unfix		1

write_data	data.final.${pid}
write_data	data.final.1
System init for write_data ...
PPPM initialization ...
  extracting TIP4P info from pair style
  using 12-bit tables for long-range coulomb (../kspace.cpp:340)
  G vector (1/distance) = 0.37232429
  grid = 24 24 24
  stencil order = 5
  estimated absolute RMS force accuracy = 0.0034948015
  estimated relative force accuracy = 1.0524491e-05
  using double precision FFTW3
  3d grid and FFT values/proc = 3211 432
Last active /omp style is kspace_style pppm/tip4p/omp
WARNING: Not all mixed pair coeffs generated from mixing. Use write_data with 'pair ij' option to store all pair coeffs. (../write_data.cpp:312)

write_restart   restart.lmp.${pid}
write_restart   restart.lmp.1
System init for write_restart ...
PPPM initialization ...
  extracting TIP4P info from pair style
  using 12-bit tables for long-range coulomb (../kspace.cpp:340)
  G vector (1/distance) = 0.37232429
  grid = 24 24 24
  stencil order = 5
  estimated absolute RMS force accuracy = 0.0034948015
  estimated relative force accuracy = 1.0524491e-05
  using double precision FFTW3
  3d grid and FFT values/proc = 3211 432
Last active /omp style is kspace_style pppm/tip4p/omp
Total wall time: 0:06:22
