LAMMPS (30 Jul 2021)
Processor partition = 0
  using 2 OpenMP thread(s) per MPI task
using multi-threaded neighbor list subroutines
variable        pid world 0 1
variable        phase world IceVI Liquid

shell cd ${phase}
shell cd IceVI
include Restart.lmp
echo both
log log.lammps
#include		in.partitions
include		in.temp
variable        temperature equal 272.69
variable	tempDamp equal 100.0
include		in.pressure
variable        pressure equal 9625.0
variable        pressureDamp equal 1000.0 # This is 1 ps
include		in.seed
variable        seed equal 745823

units		real
atom_style	full
read_restart	restart.lmp.${pid}
read_restart	restart.lmp.0
Reading restart file ...
  restart file = 30 Jul 2021, LAMMPS = 30 Jul 2021
  restoring atom style full from restart
  orthogonal box = (-0.098341100 -0.11255958 -0.12360491) to (24.828342 24.842561 22.933605)
  4 by 4 by 2 MPI processor grid
  restoring pair style lj/cut/tip4p/long/omp from restart
  restoring bond style harmonic/omp from restart
  restoring angle style harmonic/omp from restart
  1920 atoms
  1280 bonds
  640 angles
Finding 1-2 1-3 1-4 neighbors ...
  special bond factors lj:    0        0        0       
  special bond factors coul:  0        0        0       
     2 = max # of 1-2 neighbors
     1 = max # of 1-3 neighbors
     1 = max # of 1-4 neighbors
     2 = max # of special neighbors
  special bonds CPU = 0.003 seconds
  read_restart CPU = 0.009 seconds
include 	in.setup
variable	out_freq equal 1000
variable	out_freq2 equal 10000
variable	out_freq3 equal 1000

timestep	2.0

neigh_modify    delay 7 every 1

include		in.tip4p
# This is TIP4P/Ice

# create groups ###
group ox type 2
640 atoms in group ox
group hy type 1
1280 atoms in group hy

# set charges - beside manually ###
set group ox charge -1.1794
Setting atom values ...
  640 settings made for charge
set group hy charge 0.5897
Setting atom values ...
  1280 settings made for charge

# ### TIP3P Potential Parameters ###
pair_style lj/cut/tip4p/long/omp 2 1 1 1 0.1577 8.5
pair_coeff 1 1*2 0.000 0.000
pair_coeff 2 2 0.21084 3.1668
bond_style  harmonic
bond_coeff  1 450 0.9572
angle_style harmonic
angle_coeff 1 55 104.52
kspace_style pppm/tip4p/omp 1.0e-5
pair_modify tail yes

thermo          ${out_freq}
thermo          1000
thermo_style    custom step temp pe etotal epair emol press lx ly lz vol pxx pyy pzz pxy pxz pyz enthalpy

restart 	${out_freq3} restart.lmp.${pid} restart2.lmp.${pid}
restart 	1000 restart.lmp.${pid} restart2.lmp.${pid}
restart 	1000 restart.lmp.0 restart2.lmp.${pid}
restart 	1000 restart.lmp.0 restart2.lmp.0


include         in.dump
dump            myDump all atom ${out_freq2} dump.water.${pid}
dump            myDump all atom 10000 dump.water.${pid}
dump            myDump all atom 10000 dump.water.0
dump            myDump2 all dcd ${out_freq2} dump.dcd
dump            myDump2 all dcd 10000 dump.dcd
dump_modify     myDump append yes
dump_modify     myDump2 append yes


variable natoms 	equal  "count(all)"                        # NUMBER ATOMS
variable H      	equal  "enthalpy/v_natoms"                 # ENTHALPY-per-atom
variable Vol      	equal  "vol/v_natoms"                 # volume-per-atom
fix AVG all 		ave/time ${out_freq} 1 ${out_freq} v_Vol v_H file vol_enthalpy.dat
fix AVG all 		ave/time 1000 1 ${out_freq} v_Vol v_H file vol_enthalpy.dat
fix AVG all 		ave/time 1000 1 1000 v_Vol v_H file vol_enthalpy.dat




fix 		1 all shake 1e-6 200 0 b 1 a 1
Finding SHAKE clusters ...
       0 = # of size 2 clusters
       0 = # of size 3 clusters
       0 = # of size 4 clusters
     640 = # of frozen angles
  find clusters CPU = 0.001 seconds
fix             2 all nph aniso ${pressure} ${pressure} ${pressureDamp}
fix             2 all nph aniso 9625 ${pressure} ${pressureDamp}
fix             2 all nph aniso 9625 9625 ${pressureDamp}
fix             2 all nph aniso 9625 9625 1000
fix             3 all temp/csvr ${temperature} ${temperature} ${tempDamp} ${seed}
fix             3 all temp/csvr 272.69 ${temperature} ${tempDamp} ${seed}
fix             3 all temp/csvr 272.69 272.69 ${tempDamp} ${seed}
fix             3 all temp/csvr 272.69 272.69 100 ${seed}
fix             3 all temp/csvr 272.69 272.69 100 745823


run             250000
PPPM initialization ...
  extracting TIP4P info from pair style
  using 12-bit tables for long-range coulomb (../kspace.cpp:340)
  G vector (1/distance) = 0.37437534
  grid = 30 30 30
  stencil order = 5
  estimated absolute RMS force accuracy = 0.0032790945
  estimated relative force accuracy = 9.8748957e-06
  using double precision FFTW3
  3d grid and FFT values/proc = 5400 960
Last active /omp style is kspace_style pppm/tip4p/omp
Neighbor list info ...
  update every 1 steps, delay 7 steps, check yes
  max neighbors/atom: 2000, page size: 100000
  master list distance cutoff = 10.8154
  ghost atom cutoff = 10.8154
  binsize = 5.4077, bins = 5 5 5
  1 neighbor lists, perpetual/occasional/extra = 1 0 0
  (1) pair lj/cut/tip4p/long/omp, perpetual
      attributes: half, newton on, omp
      pair build: half/bin/newton/omp
      stencil: half/bin/3d
      bin: standard
Setting up Verlet run ...
  Unit style    : real
  Current step  : 1750000
  Time step     : 2
Per MPI rank memory allocation (min/avg/max) = 10.54 | 10.55 | 10.55 Mbytes
Step Temp PotEng TotEng E_pair E_mol Press Lx Ly Lz Volume Pxx Pyy Pzz Pxy Pxz Pyz Enthalpy 
 1750000    273.63994   -9014.5003     -7971.26   -9014.5003            0    9674.2302    24.926683     24.95512     23.05721      14342.7    9834.0486    8805.5959    10383.046    112.73208   -244.58824   -1047.3411   -5947.6668 
 1751000    272.76084   -9071.6465   -8031.7577   -9071.6465            0    8821.9397    24.977859    25.031688    22.947218    14347.472    8403.7783    8331.0503    9730.9905   -135.70383     835.2014    169.70078   -6185.8272 
 1752000    273.69028   -9052.5544   -8009.1223   -9052.5544            0     9339.122    24.899436    25.096414    22.953351     14343.24    10390.059    7835.7794    9791.5275    731.21904    647.91921   -477.71539   -6055.5512 
 1753000    276.96264   -9069.1442   -8013.2363   -9069.1442            0    9609.9722    24.876806    24.953297    23.056679    14312.626    9113.3677    9725.7797    9990.7692   -124.32905    106.70379    671.53255   -6007.2991 
 1754000    271.38027   -9085.6151   -8050.9897   -9085.6151            0     9303.974    24.932604    25.000411    22.932508    14294.413    8526.5924    9877.4151    9507.9144    802.12201   -483.05661    791.51319   -6111.3962 
 1755000    268.57148   -9018.7556   -7994.8387   -9018.7556            0    8968.8871    24.996017    25.033918     22.98776     14384.55    9876.9391    8822.9311     8206.791    128.40795    14.986269   -92.690785   -6113.3105 
 1756000    281.79136   -9041.6205   -7967.3033   -9041.6205            0    8177.2298    24.981293    24.948671    23.048949    14365.259    7293.0045    9077.8012    8160.8838    91.402176    23.698559    769.08089   -6254.1527 
 1757000    265.51564        -9047   -8034.7333        -9047            0    9426.7996    25.111179    25.064248    22.756399    14322.714    8965.1864    8762.8667    10552.346   -555.45423   -16.169065   -571.52791   -6065.6436 
 1758000    261.40929    -9030.158   -8033.5466    -9030.158            0    9595.0456     24.97069    24.922756    23.022822    14327.987    8976.5135    9168.7369    10639.886    1324.5767     104.0474    941.19471   -6028.5756 
 1759000    282.64182   -9042.8078   -7965.2483   -9042.8078            0    8475.1744    24.899081    24.961368    23.153436    14390.211    8368.1668    9010.0846    8047.2717   -506.43341   -1569.7012   -822.13255   -6186.5934 
 1760000    275.99868   -9047.2357   -7995.0028   -9047.2357            0    9127.4354    25.029272    25.001238    22.903136     14331.93    10071.238    8442.6737    8868.3942   -880.15063    739.66204    194.48135   -6087.2182 
 1761000    278.86134   -9075.2124   -8012.0657   -9075.2124            0    9380.7431    24.891394    24.971791    23.033868    14317.454    9311.6637    9790.1116    9040.4539    414.04493    923.52113    1000.4641   -6053.3162 
 1762000    272.62151   -9010.6571   -7971.2996   -9010.6571            0    8429.8594    24.918292    25.099181    23.043031    14411.773    9026.7332    9300.3779    6962.4672     86.47159     365.3711   -723.59165   -6199.5039 
 1763000    266.75591   -9009.8302   -7992.8351   -9009.8302            0    7571.4184    24.899377     25.10081    23.073476    14420.796    7410.4208    7292.9505    8010.8838   -193.43142    1299.3591   -1232.4155    -6400.471 
 1764000    258.28552   -9042.6792   -8057.9771   -9042.6792            0    8801.2673    24.979934    24.987245    22.972461    14338.944    9206.8909    9202.5425    7994.3686   -759.93626   -805.37889    185.62239   -6217.4667 
 1765000    274.00391   -9056.9414   -8012.3136   -9056.9414            0    9255.7931    24.820711    25.081241    23.076615    14365.983    10186.545    7761.1997     9819.634    489.74028    1618.0991    500.00117   -6073.1035 
 1766000    275.34137   -9046.7442   -7997.0173   -9046.7442            0    8734.1605    24.991121    24.990512    22.983501    14354.136    7979.5907    9953.4431    8269.4478   -174.68328   -6.8954071     1088.996   -6168.6051 
 1767000    269.16761   -9022.1134   -7995.9237   -9022.1134            0    9626.6379    24.915483    24.934512    23.043364    14315.815    9683.3803    9929.2565     9267.277    208.21102   -1416.8333   -120.56965   -5986.0601 
 1768000    281.35749   -9113.1036   -8040.4405   -9113.1036            0    9439.2976    24.897033    24.976412    22.961132    14278.117    9076.1586    9781.2904    9460.4437    376.84065    617.92168    1021.8461   -6074.8796 
 1769000    277.45464   -9073.6039   -8015.8203   -9073.6039            0    11440.349     24.86671    24.965598    22.867654     14196.52     11631.98    10677.033    12012.035   -1095.2595   -881.02306    -204.0775   -5647.1911 
 1770000    265.55938   -9060.8268   -8048.3933   -9060.8268            0    9600.1409    24.813743    24.968774    23.072175    14294.799    11228.663    8939.0388    8632.7206    37.209667     429.2798   -457.25365   -6047.0041 
 1771000    272.97781   -9073.1478   -8032.4319   -9073.1478            0    9069.4095    24.930798    25.121762    22.836369    14302.545    8839.3748    7875.5925    10493.261   -290.76674    71.748044   -178.17414   -6140.6624 
 1772000    274.57013   -9027.9031   -7981.1166   -9027.9031            0    9949.9235    24.888069    24.940287    23.018364    14287.857    10333.168    9975.5868    9541.0156   -250.88854   -843.20977    639.65894   -5907.8138 
 1773000    264.69812   -9059.5561   -8050.4062   -9059.5561            0    11539.966    24.874586    24.877003    22.963717    14210.066    11551.568    11691.197    11377.131   -1150.0063    73.681075    642.07422   -5658.8724 
 1774000     286.4498   -9027.5526   -7935.4753   -9027.5526            0    9918.2948    24.991346    25.042969    22.834907    14291.398    10660.345    8228.3445    10866.195   -370.03327     1178.439    195.29995    -5868.251 
 1775000    270.03601   -9036.8239   -8007.3235   -9036.8239            0    8807.4826    25.029842    24.906991    23.059449    14375.677    7969.9848    9259.5947    9192.8683   -1022.5087   -1251.1241    737.96086   -6160.7951 
 1776000     282.2715   -9048.6156    -7972.468   -9048.6156            0    9435.4319    25.033367    24.872152    22.996449    14318.365    7762.0675    10806.803    9737.4255   -431.57636   -1005.6181    530.78348   -6002.1737 
 1777000    269.21865   -9029.5553    -8003.171   -9029.5553            0      8637.93    24.971613     24.87613    23.128077    14367.095    10022.672    8449.4067    7441.7116    20.748298   -630.43699    889.56183   -6193.2713 
 1778000    271.91513   -9060.9422   -8024.2777   -9060.9422            0    9334.6763    25.097887     24.97356    22.834536    14312.312     8123.336    9455.4285    10425.265   -184.00691   -653.12355   -780.05222   -6075.8471 
 1779000    264.08808   -9047.6011   -8040.7769   -9047.6011            0    9486.4422    24.924821    24.928906    23.071551    14335.474    10624.045    9040.0915    8795.1901    155.60306    -383.0971    596.75106   -6057.4637 
 1780000    279.83746   -9042.2999   -7975.4318   -9042.2999            0    8573.6026     24.91784    25.052062    22.982019    14346.371    8744.7264     8316.131    8659.9505   -417.79453   -332.14435    -522.9171   -6181.6018 
 1781000     284.1723   -9049.9335   -7966.5391   -9049.9335            0    8646.5277    24.959655    25.083084    22.937148    14360.148     7384.129    8482.6042     10072.85   -209.42067   -300.71776    560.93101   -6155.7138 
 1782000    276.65581   -9045.8714   -7991.1333   -9045.8714            0    9889.7292    24.915621    24.996189    23.041642    14350.233    10520.724    9209.1159    9939.3481    811.75613    217.25096   -41.852945   -5921.3769 
 1783000    274.19342   -9065.8597   -8020.5093   -9065.8597            0    8220.7194    25.004345    24.951649    23.051042    14381.537    8737.9339    7806.0846    8118.1399    524.35111   -1264.4912    7.7976695   -6296.2959 
 1784000    265.06405   -9088.1486   -8077.6035   -9088.1486            0    7571.9197    24.965708    25.066534    23.002825    14395.255    8640.4633    7360.4325    6714.8631   -541.85843    751.96866    1504.9349   -6487.9545 
 1785000    267.59048    -9106.675    -8086.498    -9106.675            0    8363.3766    24.921401    25.003605    23.013393    14340.217    9384.8538    8348.4211     7356.855   -95.467154   -1546.6677    392.80759   -6337.4035 
 1786000    259.46336   -9025.2506    -8036.058   -9025.2506            0    7677.6813    25.089357    25.054926    22.976498    14443.302    7351.4211     7904.091    7777.5317   -584.18588   -9.5088865   -624.38121   -6418.8255 
 1787000       273.49   -9065.5651   -8022.8965   -9065.5651            0    8981.6204    24.942676    24.956834    23.060325    14354.827    10351.138    9119.3804    7474.3425   -68.419473    1383.6963    1351.2949   -6142.5904 
 1788000    280.55993   -9063.7248   -7994.1024   -9063.7248            0    9225.8238    24.842602    25.089744    22.981916    14324.503    9712.7867    8493.3344    9471.3503    731.33392     765.6316   -390.98383   -6066.7524 
 1789000    272.44357   -9078.7733   -8040.0942   -9078.7733            0    8083.1351    24.904346    25.090581    22.961098    14347.575     8960.139    7701.1376    7588.1287    9.5590089   -520.95188   -998.07285   -6348.7413 
 1790000      270.652   -9052.1952   -8020.3463   -9052.1952            0    11457.406    24.710667    24.937748    23.055755     14207.61    12391.501    11485.191    10495.526    603.67202    448.20879    1368.4512   -5646.3326 
 1791000     266.7821   -9084.4618   -8067.3668   -9084.4618            0    10892.449    24.852501     24.93702    22.929237    14210.333    11837.141    10148.445     10691.76   -446.63137   -365.93644    248.74692   -5809.9816 
 1792000    280.60085   -9086.8691   -8017.0907   -9086.8691            0    9589.7061    24.715409    25.042454    23.116119    14307.364    12416.329    7901.8103    8450.9791    46.074418   -1003.0932    1141.2378   -6016.1197 
 1793000    269.54396   -9013.5437   -7985.9192   -9013.5437            0    10732.829    24.832791    25.116696    22.934139    14304.427    11532.851    9793.2983    10872.337   -905.95879    452.31868   -44.613333   -5746.8858 
 1794000    270.15937    -9042.629   -8012.6583    -9042.629            0    10250.285    24.797532    25.082612    22.982502    14294.814    11192.346    9131.8119    10426.697   -172.34957   -154.68848    231.60074   -5875.7281 
 1795000    267.16382    -9099.454   -8080.9037    -9099.454            0      9171.25    24.783148    25.035638     23.06292    14309.664    9800.0426    8516.9815    9196.7259    49.566996    233.69642    568.87795   -6166.9394 
 1796000    279.03851   -9008.2505   -7944.4284   -9008.2505            0    10989.661    24.869477    25.046862    22.891928    14259.437    12152.054    9738.6163    11078.312   -1115.8455   -822.19147    621.79848   -5659.0267 
 1797000    269.23596   -9051.1547   -8024.7044   -9051.1547            0    11330.541    24.844338    24.918622     22.99738    14237.371    11030.858    12039.003    10921.762    63.424418    701.70134   -346.80443   -5672.0597 
 1798000    272.22489   -9064.2716   -8026.4262   -9064.2716            0    10127.764    24.842202    24.997694    23.023436    14297.502     10273.95    9568.2401    10541.101   -293.30317    449.13739   -522.36739   -5914.6415 
 1799000    280.50016   -9059.7782   -7990.3836   -9059.7782            0    9430.5984    24.919854    25.034688    22.993245    14344.583    8733.1909    10069.158    9489.4468    448.23327    984.40709    465.94847   -6017.4927 
 1800000    279.64879   -9048.7875   -7982.6388   -9048.7875            0     9471.214    24.944359    25.038365    22.949063    14333.204    8858.0177    9078.5269    10477.097   -573.08322   -665.19755    105.95176   -6002.8228 
 1801000    269.64667    -9046.417   -8018.4009    -9046.417            0    7427.0454     24.87933    25.052884    23.193398    14456.421    7927.3184    8289.6945    6064.1232    301.38002   -624.36628    1119.9103   -6452.5415 
 1802000    269.46006   -9051.1698   -8023.8651   -9051.1698            0     9071.089    24.971642    25.103671    22.888379    14348.264     8328.986    9410.0912    9474.1898   -1019.4327   -458.70214   -61.216904    -6125.697 
 1803000    262.38581   -9026.7579   -8026.4236   -9026.7579            0    9658.1295    24.774939    25.119112    23.037726    14336.941    10052.814    8981.0829     9940.492    684.05064   -1113.6177    435.73035   -6007.0094 
 1804000    270.16104   -9025.4025   -7995.4253   -9025.4025            0     8878.925    24.966596    24.994052    23.029183    14370.588    9040.7336    8672.3932    8923.6483   -781.29608   -230.99052   -53.431595   -6134.5777 
 1805000    275.02496   -9037.3729   -7988.8523   -9037.3729            0    9846.5508    25.084904    24.895721    22.990043    14357.437    9561.0362    10272.626    9705.9907    419.23471     428.0481   -304.53353   -5927.0979 
 1806000    272.84799    -9015.009    -7974.788    -9015.009            0    9500.2561    24.931445    24.985805      23.0079    14332.363    9493.3982    9492.5586    9514.8115    279.18444   -781.09896    1960.8847   -5989.0178 
 1807000    276.41141   -9070.7662   -8016.9599   -9070.7662            0    9313.3232    24.921942    24.919931     23.05024    14315.422     9397.578    9408.4932    9133.8983   -779.37177   -1160.7544    -132.9759   -6072.5638 
 1808000    265.37281   -9040.7162   -8028.9941   -9040.7162            0    8926.5735    24.999233    25.018595    22.915702    14332.527    9260.2738    8483.2026     9036.244   -50.801671   -604.65284    167.30364   -6163.1152 
 1809000    273.89954   -9051.8085   -8007.5785   -9051.8085            0    9580.2544    24.895923    24.847837    23.083215    14279.504    9290.8345    10687.185    8762.7435   -255.32509   -339.90523    590.19654   -6012.4722 
 1810000    273.05685     -9103.23   -8062.2127     -9103.23            0    9366.7273    25.025822    24.979099    22.875427    14299.944    8443.6521    9562.7751    10093.755   -428.21042   -1207.4167   -282.15475   -6108.7817 
 1811000    261.63514   -9036.0944   -8038.6219   -9036.0944            0    9331.6581    25.041968    24.876676     23.02528     14343.85    9978.5576    9834.0948     8182.322    11.722832   -605.33863    513.08467   -6086.5292 
 1812000    267.61974    -9044.867   -8024.5785    -9044.867            0    8160.0171    25.144607    24.816831    23.052201    14384.792    7523.7405    9445.2844    7511.0264     549.8464    898.14997   -29.378509   -6312.7095 
 1813000    272.12983   -8997.9138   -7960.4308   -8997.9138            0    10293.803    25.116979    24.784531    23.009285    14323.569    9399.1032    10798.817    10683.487    39.969869   -1627.2349    268.57867   -5810.1115 
 1814000    277.10323   -9058.5419    -8002.098   -9058.5419            0    9670.7378    25.003213    24.880943    23.051161    14340.208    8914.6038    10518.225    9579.3849   -717.27187    1238.2878    2279.9061   -5979.5868 
 1815000    261.32865   -9061.4446   -8065.1406   -9061.4446            0    9178.6822    25.181307    24.819043    22.966822    14353.711    7156.1195    10535.063    9844.8642   -496.72614   -81.141683   -807.16563   -6143.7289 
 1816000    283.30328   -9023.0151   -7942.9338   -9023.0151            0    8875.2374    25.072938     24.92968     23.00021    14376.519    8420.3063    9145.9931    9059.4129   -29.127754    177.68906   -1123.2849   -6082.0914 
 1817000    271.48338   -9093.1211   -8058.1027   -9093.1211            0    10093.336    25.021706    24.702215     23.09892    14277.248    9194.6129    11595.911    9489.4838    574.67785   -1036.6665     1186.745   -5956.4782 
 1818000    275.05719   -9092.6641   -8044.0206   -9092.6641            0    9446.6059    25.014236    24.948411    22.863177    14268.119    8493.7818    9799.8251    10046.211   -448.92806    229.57593    801.39465   -6078.3154 
 1819000    271.65694   -9068.6652   -8032.9851   -9068.6652            0    11473.174    24.995004    24.889991    22.841056    14210.001    10649.882    11621.135    12148.507     328.1401   -1096.5834    529.15783   -5655.3041 
 1820000    268.92098   -9052.9527   -8027.7032   -9052.9527            0    10454.149    24.909504    24.874546    23.019266    14263.027    9497.5083     10970.41    10894.528   -612.13438    570.96136    46.314189   -5853.1188 
 1821000    269.54509   -9031.6098    -8003.981   -9031.6098            0    8665.4318    24.976279    24.990375    23.022635    14369.959    8599.7357    8746.7012    8649.8584   -571.44506   -240.23162    1144.6977   -6187.9568 
 1822000    278.24972    -9033.083   -7972.2681    -9033.083            0    9797.4658    24.960743     24.93116    23.024066    14327.883    9730.3622     9013.847    10648.188   -635.91119    -79.44202    331.58947   -5925.0145 
 1823000    264.32109   -9091.4524   -8083.7399   -9091.4524            0    9544.8897    24.876344    25.085871    22.865932    14269.365    11091.221    7165.3072    10378.141    465.78577   -566.66556   -1441.3111   -6097.4097 
 1824000    278.16467   -9046.9681   -7986.4776   -9046.9681            0     10155.53    24.703136    25.013628    23.078823    14260.752    11886.182    9438.3833    9142.0235   -23.800273   -337.02715   -288.56873   -5874.3464 
 1825000    279.38175   -9030.9341   -7965.8034   -9030.9341            0    9360.3825    24.853273    25.005446    23.045019    14321.723    9426.5752    10115.753    8538.8192    753.25131   -374.08813    79.366865   -6010.7225 
 1826000    282.98307   -9085.2604   -8006.3999   -9085.2604            0    10184.099      24.9748    24.958774    22.878991    14261.399    9800.0997    10128.401    10623.796    16.857059    -356.1565    828.78984   -5888.2308 
 1827000     270.9492    -9092.833   -8059.8511    -9092.833            0    8845.7831    24.873001      24.9286    23.114207    14331.943     9042.854    9787.7543     7706.741   -230.04322    716.99687   -52.209377   -6210.9348 
 1828000    279.08759    -9045.134   -7981.1248    -9045.134            0     8695.199    25.036317    24.977301    22.991162    14377.285     7785.746    8842.4902    9457.3609     604.6073   -240.33717   -168.43353   -6157.9333 
 1829000    264.84596   -9049.1086    -8039.395   -9049.1086            0    8469.9728    25.013813    25.023278    22.968864    14376.846    7952.6332     8491.677    8965.6081    190.03894    885.92591   -739.43516   -6263.4828 
 1830000    269.51124   -9046.3062   -8018.8065   -9046.3062            0    7968.3884    25.026486     25.00249     23.02595      14407.9    6797.0677    9126.2973    7981.8003   -346.01645    20.446976    682.79796   -6344.4532 
 1831000    276.75208   -9036.4232    -7981.318   -9036.4232            0    8954.4041     24.97008    24.972768    23.010505    14348.707    9199.5941      9389.67    8273.9483     -823.697    226.93467   -989.26768   -6107.5089 
 1832000    270.53975   -9059.6981   -8028.2772   -9059.6981            0     8455.074     24.97657    24.980732    23.015602    14360.193     9000.118    8929.7851    7435.3188    866.81791    743.46256   -521.74429   -6257.5421 
 1833000    257.49955   -9062.9893   -8081.2836   -9062.9893            0    9265.3392    24.960793    24.946692    23.008687    14327.262    8999.1909    9971.3533    8825.4735   -238.75187    130.50521    460.39286   -6145.3056 
 1834000    280.41427   -9032.0885   -7963.0214   -9032.0885            0    8791.5949      25.0433     25.00955    22.903319    14344.845    8198.2614    8799.7534      9376.77    -32.45353   -153.19554    680.58833   -6123.7771 
 1835000    267.00523    -9051.968   -8034.0222    -9051.968            0    8990.7348     24.95464    24.856538    23.145467    14356.808    10001.921    9522.8511     7447.432    63.798482   -321.34793    197.15217   -6151.5483 
 1836000     268.2913   -9032.6809   -8009.8321   -9032.6809            0    9974.2502    25.042693    24.956503    22.964155    14352.093    9261.9173    9397.5803    11263.253   -461.95435    125.05195   -83.262208   -5922.1163 
 1837000    271.08753   -9055.6465   -8022.1372   -9055.6465            0    10627.331    25.043804    24.876241    22.927488    14283.726    9574.5612    10692.842    11614.589   -787.06466   -616.65655    217.60231   -5808.3208 
 1838000    274.23374   -9008.7156   -7963.2115   -9008.7156            0    10235.971     24.96205    24.802643    23.158356    14337.913    11150.633     10097.42    9459.8614   -72.250943    559.46123   -290.44245   -5822.8315 
 1839000    269.29334    -9098.818    -8072.149    -9098.818            0     10246.88    24.901913    24.908028    22.946988    14233.043    10526.263    10231.851    9982.5248    659.36163   -926.40069   -265.06155   -5945.1598 
 1840000    276.30934   -9041.4442    -7988.027   -9041.4442            0    10356.852    24.934292    24.990437    22.886385    14260.938    10681.471    10139.753    10249.332    545.26996   -281.33149    1464.1129   -5833.9969 
 1841000    275.11919   -9101.7736   -8052.8938   -9101.7736            0    10076.625    24.760454    24.967296    23.054255    14252.177    10256.846    9396.7343    10576.296   -670.85557    259.25309    310.62335   -5958.4331 
 1842000    282.90451   -9082.8441   -8004.2831   -9082.8441            0    10369.634    24.928821    24.988177    22.950391    14296.391    11086.801    8588.3356    11433.765   -123.77619   -649.04584    151.67835   -5842.2332 
 1843000    279.89344   -9052.9102   -7985.8287   -9052.9102            0    10606.755    24.963506    24.919734    22.914299    14254.617    10120.214    10482.802     11217.25    759.94723   -517.41625    1261.0635   -5780.8013 
 1844000    270.18223   -9044.3517   -8014.2938   -9044.3517            0    10402.564     24.90932    24.883645    23.062314    14294.822    11275.502    10444.658    9487.5329    950.44688    47.987299    886.14225   -5845.6159 
 1845000    259.61291   -9069.7981   -8080.0353   -9069.7981            0    10565.196    24.815932    25.049702    22.918109    14246.623    11341.236    10554.309    9800.0436    715.82674   -244.00598     506.6222   -5884.8793 
 1846000    275.46975    -9073.424   -8023.2077    -9073.424            0    8300.8276    25.000735    25.069158    22.949711    14383.671    7418.1414    8587.4234     8896.918   -343.53912   -562.09426    -382.2878   -6281.9341 
 1847000    270.66215   -9025.8031   -7993.9156   -9025.8031            0    8921.1428    24.942968    24.965334    23.054604    14356.321    9542.6519    8101.2165    9119.5599    219.45562   -460.17471    201.42567   -6126.0761 
 1848000    261.10112   -9084.3851   -8088.9486   -9084.3851            0    8432.4042     25.00578     24.98731    22.962909     14347.85    8093.6863      8901.89    8301.6364   -563.35635    -405.8444    1179.6228   -6324.4792 
 1849000     276.6535    -9047.488   -7992.7587    -9047.488            0    8881.6585    24.885214    25.004328    23.096209     14371.34    10095.707    7538.1269     9011.142    -570.8826   -278.90806   -544.59368   -6131.2407 
 1850000    266.78647   -9080.5738   -8063.4621   -9080.5738            0    7784.3437    25.199845    25.006521    22.805047    14370.838    6227.0789     8398.117    8727.8352   -78.937252   -785.78903    -337.0297   -6431.9888 
 1851000    268.66195    -9050.044   -8025.7821    -9050.044            0    9966.2556    24.926362    24.869095    23.046886    14286.674    10764.852    10188.402     8945.513   -1131.1412   -347.18474    1082.6897   -5949.2482 
 1852000    278.49398    -9038.331   -7976.5849    -9038.331            0     9010.012    25.011708     24.96581    22.995681    14359.367     9672.373    8798.1664    8559.4967    18.051639    402.41787    766.80688   -6089.7385 
 1853000    266.06102   -9025.8214   -8011.4754   -9025.8214            0    8896.3966    25.036072    24.988045     22.95528     14360.88    9710.2101    8159.7625    8819.2173    189.64592     631.5146   -636.78983   -6148.2256 
 1854000    273.95055    -9070.237   -8025.8126    -9070.237            0    8636.4954    24.883373    24.997787    23.048114    14336.601    8892.1024    8106.1803    8911.2037   -733.75532    14.499288    972.85246   -6220.0542 
 1855000    274.67241   -9038.2843   -7991.1079   -9038.2843            0    9462.1752    24.808617    25.199567    22.877964    14302.534    10747.769     7764.322    9874.4342   -745.07935   -144.21451    767.15797   -6017.4136 
 1856000     273.9891   -9085.7121   -8041.1407   -9085.7121            0    9960.0639    24.840573    25.013538    23.003063    14292.967    9823.5429    9825.5635    10231.085    164.98936   -1810.6903   -1439.0172   -5964.9826 
 1857000    275.01422   -9054.9847    -8006.505   -9054.9847            0    10395.516    24.857309    24.970721     23.02872     14294.04    11241.713    9313.1876    10631.648    -1170.945    106.20984   -735.29675   -5839.4152 
 1858000    270.08301   -9028.0037   -7998.3241   -9028.0037            0    12010.294    24.916117    24.916902      22.9267    14233.639    12206.114     12138.47    11686.299    465.00914   -566.18963     271.7861   -5505.1909 
 1859000    265.62829   -9032.9221   -8020.2259   -9032.9221            0    10693.831    24.999196    24.826968    23.021354    14288.301    10519.936    11349.497    10212.059   -85.004956    594.74016    371.82547    -5791.843 
 1860000    272.38079   -9068.9723   -8030.5325   -9068.9723            0    9663.4384    24.992549    24.871805    22.988424     14289.83    9993.7951    10070.017    8926.5033   -393.38351   -355.60955    737.99442   -6016.6477 
 1861000    276.20541   -9046.9845   -7993.9635   -9046.9845            0      9765.35    25.132433    24.955177    22.802888    14301.614    9263.8728    9404.3283    10627.849   -762.58386   -500.96229   -793.78114   -5957.1618 
 1862000    277.14758   -9053.1382   -7996.5252   -9053.1382            0    9422.2963     24.97391    24.937232     22.99061    14318.097    9191.1143    9557.1481    9518.6267   -894.54325   -272.71463    725.12975   -6029.0107 
 1863000     272.1268   -9058.8507   -8021.3792   -9058.8507            0    8253.1408     24.91576    25.061732    23.045181    14390.151    8202.7816    8820.3416    7736.2993   -1098.5078   -489.52015   -739.84599   -6289.3289 
 1864000    287.83266   -9044.3218   -7946.9724   -9044.3218            0    9650.4313    24.840132    25.101453      22.9254    14294.523    11008.754    8506.1434    9436.3966    -739.6626   -224.32253   -300.63862   -5935.1377 
 1865000    276.91674    -9018.071   -7962.3381    -9018.071            0    10165.031    24.897714    25.033181    22.950824    14304.537    11245.875    9027.5304    10221.689    50.675774   -582.64597   -746.06288   -5841.7398 
 1866000    268.23811   -9058.1244   -8035.4785   -9058.1244            0     12280.55      24.8352    24.879328    22.952378    14181.886    12130.834    12596.232    12114.583    530.04401   -309.57174    595.37984   -5495.5138 
 1867000    262.41721   -9070.7446   -8070.2906   -9070.7446            0    11329.461    24.877772    24.869849     22.93946    14192.791     11270.88    12012.052    10705.452   -1115.3599     -496.105   -628.23136   -5725.2359 
 1868000    268.26364   -9104.1866   -8081.4433   -9104.1866            0    9615.4358    25.006147    24.822119    22.982482    14265.355    9256.1923    9896.2767    9693.8383      357.113   -1601.9286   -267.58732   -6080.9945 
 1869000    270.05477   -9051.6251   -8022.0532   -9051.6251            0    9240.3889    25.008019    24.844722     23.05348    14323.526    8959.2336    10315.562    8446.3714    492.53229    281.80983    164.43577    -6091.792 
 1870000    268.50503     -9055.31   -8031.6464     -9055.31            0    9302.4812    25.053267    24.967038    22.899083    14323.511    9099.2746    8862.0306    9946.1385     82.57877    -354.0614   -54.847574   -6088.4165 
 1871000    276.93725   -9097.9452   -8042.1341   -9097.9452            0    8665.2593    24.925857    24.915192    23.036517    14306.426    7609.3148    9768.5883    8617.8749   -822.23297    -278.2743    233.01551    -6234.175 
 1872000    279.65065   -9058.5138    -7992.358   -9058.5138            0    9121.3619    25.049109    24.914569    22.980255    14341.696    8619.3759    9128.0461    9616.6638   -848.25806   -1089.7032    1567.6871   -6084.5437 
 1873000    269.67222   -9084.3091   -8056.1956   -9084.3091            0    7874.0751    25.015202    24.942182    23.036952    14373.531    7526.7902    8280.6307    7814.8044    934.15307   -110.02899   -1097.3935   -6405.6067 
 1874000    289.07383   -9071.9563    -7969.875   -9071.9563            0    9849.2581    24.983557      24.9315    22.981316    14314.546    9673.3276     9957.015    9917.4317   -224.02326   -33.464495    906.49952   -5913.7147 
 1875000    271.49196   -9003.3663   -7968.3151   -9003.3663            0    11089.554    24.986255     24.83516    23.013371    14280.663    11132.873    11702.032    10433.757   -629.51564    -91.55369   -1562.0438   -5658.7068 
 1876000    283.41425   -9095.3512   -8014.8468   -9095.3512            0    10462.673    24.986511    24.924835    22.870514    14243.405    10626.067    10882.275    9879.6772   -348.16756    366.59675    552.53768   -5841.4833 
 1877000    279.77248   -9059.8441   -7993.2238   -9059.8441            0    10611.627     24.81877    24.907691    23.055203    14252.225    11913.494    10844.496    9076.8901    803.60458   -817.38706   -755.62873   -5787.5538 
 1878000    269.85922   -9056.1811   -8027.3547   -9056.1811            0    11457.187     24.90964    24.974949    22.876644    14231.949    11567.279    11200.347    11603.935   -43.596102    755.73931    -297.1089   -5649.3194 
 1879000    274.28877   -9036.1994   -7990.4855   -9036.1994            0    10343.004    24.899336    25.038062    22.920155    14289.138     9838.497    9558.4359    11632.079     265.8076     382.6728    -382.2313   -5835.0819 
 1880000    261.93016   -9053.5264   -8054.9292   -9053.5264            0    10826.059    24.767257    24.978059     23.06233    14267.234    11338.975    10629.336    10509.867   -230.45782   -46.775099    251.44191   -5802.3188 
 1881000    267.48399   -9073.6684   -8053.8975   -9073.6684            0    10976.789    24.918079    25.053062    22.840991    14259.041    11499.648    10159.601    11271.118    170.33573    133.33867    684.79654   -5771.2359 
 1882000    267.41076   -9035.5723   -8016.0805   -9035.5723            0    9185.8876    24.876435    25.111044    22.990923    14361.815    9694.7427    8324.8277    9538.0925   -122.88291   -431.59449   -280.87029   -6092.0748 
 1883000    269.48044   -9068.1855   -8040.8031   -9068.1855            0    7937.0192    24.978735     25.01056     23.07976    14418.668     7553.396    8070.2071    8187.4544   -462.81778    329.94778    680.36271    -6371.795 
 1884000    266.30547   -9085.0979   -8069.8199   -9085.0979            0     8988.554    24.965848    24.991496    22.988685     14343.42    8627.6523     8512.974    9825.0358   -216.89333   -846.47079    317.08724   -6189.5577 
 1885000    264.96484   -9093.4881   -8083.3213   -9093.4881            0    9502.3637    24.956817    24.939653    22.952829    14286.171     9476.117    10358.181    8672.7927    377.66018   -469.32275   -174.40487   -6103.5119 
 1886000    269.06364   -9042.9749   -8017.1816   -9042.9749            0    9746.8708    24.957539    25.033422    22.928086     14324.84    9271.4876    10071.018    9898.1068   -1328.6707   -305.75184     -587.125   -5980.9326 
 1887000    265.34202   -9055.7126   -8044.1078   -9055.7126            0    9837.4009    24.843264    25.008375    23.018884    14301.394    10174.278    9101.4216    10236.503   -327.75352    1296.6861    102.29002   -5992.3097 
 1888000    272.34479   -9052.9793   -8014.6767   -9052.9793            0    9757.6255    24.901375    25.064528     22.92281     14307.07    10654.102    9045.4748    9573.2999   -185.74006   -33.797545   -221.46834   -5978.7097 
 1889000    267.18758   -9086.6385   -8067.9976   -9086.6385            0    10338.195    24.860771    24.960945    22.988278    14265.338    10625.554    10255.909    10133.121   -351.41673    973.52067    742.75949   -5917.1846 
 1890000    273.03239   -9055.6156   -8014.6916   -9055.6156            0    9594.2144    24.799377      25.0334    23.082105    14329.665    11341.375    7934.8082      9506.46   -1290.2461   -1382.1139    784.34938   -6009.6594 
 1891000    272.97576   -9095.9365   -8055.2284   -9095.9365            0    8727.6419    24.854036    25.161771    22.859686    14295.798    8777.7137    8450.0554    8955.1567   -572.17723    104.47429    510.15031   -6235.6063 
 1892000    268.00945   -9090.6343   -8068.8601   -9090.6343            0    8838.9736    24.904767    25.079837    22.955579    14338.227    9071.4349    7281.5085    10163.978   -470.54687   -281.46063    685.53453    -6220.557 
 1893000    275.22028   -9072.8174   -8023.5522   -9072.8174            0    8135.9838    24.985006    25.158634    22.880923    14382.688    8855.6022    5619.2488    9933.1004   -864.66957   -695.53735   -312.48244   -6316.9746 
 1894000    272.42647   -9067.2763   -8028.6624   -9067.2763            0    9261.8934    24.900892    25.034684    23.007005    14342.243    10494.231    8790.6681    8500.7811     98.71206   -820.45743   -375.15446   -6091.3807 
 1895000    282.68329   -9028.5861   -7950.8685   -9028.5861            0    9729.0348     24.77746    24.949284    23.152999    14312.718    12267.766    8812.5226    8106.8156    124.49307    900.42891   -384.18783   -5920.0657 
 1896000    270.29995   -9069.0226    -8038.516   -9069.0226            0    9355.4958    24.932343    25.037479    22.935274    14317.185    8763.1923    9908.5985    9394.6966   -1200.6388   -702.47712    342.31879   -6085.0748 
 1897000    272.93502   -9066.1145   -8025.5617   -9066.1145            0    9761.3789    24.980503    25.024682    22.862213    14291.835    10283.189    8743.4776     10257.47    -442.5624    97.849192   -79.294804   -5990.9803 
 1898000     262.4474   -9063.5738   -8063.0046   -9063.5738            0    9712.7387    24.898781    24.916273    23.034974    14290.548    10103.645    9805.1994    9229.3719    354.95157    281.51856    657.08481   -6038.7437 
 1899000    277.93238   -9060.6792   -8001.0743   -9060.6792            0    9082.7251    25.026787    24.985916    22.959115    14356.729    8170.6179    10099.072    8978.4857   -281.28391   -1507.8482   -878.42765   -6099.3499 
 1900000    264.32546   -9048.2958   -8040.5666   -9048.2958            0    9182.3372    24.959237    24.930578    23.026531    14328.217    9429.0442    9493.1987    8624.7686    751.72787    406.07122    1329.7142   -6121.8038 
 1901000    273.75942   -9039.4162   -7995.7204   -9039.4162            0    9952.6774    24.919632    24.870308    23.081819    14305.163    9839.2105    9600.9153    10417.906    -362.0922    233.25642    793.41293   -5919.3319 
 1902000    268.48748   -9066.8624   -8043.2657   -9066.8624            0    9267.5335    25.035769    24.974784    22.913633    14327.045    7624.9776    9080.9085    11096.714   -667.57494    215.29642    371.23793   -6106.8585 
 1903000    275.95597   -9049.0815   -7997.0115   -9049.0815            0    8984.4074    25.079379    24.997792    22.872194    14339.244    7014.5523    9814.5325    10124.138   -77.760362   -905.30289   -361.12948   -6118.1638 
 1904000    270.90073   -9092.6909   -8059.8937   -9092.6909            0    8747.4529    24.899515    24.871038    23.144386     14332.78    8788.1666    9934.8512    7519.3407    134.76733   -681.72454    84.831411   -6231.4233 
 1905000    266.08855   -9041.5421   -8027.0912   -9041.5421            0    9322.0881    24.910206    25.012533    23.001522    14331.497    9571.9509     9363.181    9031.1323    -114.7309   -450.77637    -350.3593   -6078.6798 
 1906000    261.84389   -9113.3547   -8115.0864   -9113.3547            0    9049.8253    24.848145    25.080957     22.94502    14299.686    10514.281    7772.3378    8862.8568   -865.89717    177.13513    408.35308   -6227.7792 
 1907000    270.84763   -9067.3923   -8034.7976   -9067.3923            0    9661.4225    24.839465    24.973876    23.087154    14321.833    10633.326    9795.4977    8555.4435    903.31359    1159.0918    -24.93519   -6016.8236 
 1908000     275.3414   -9067.0783   -8017.3512   -9067.0783            0    8724.7704    24.856281    25.130528     22.93758    14327.993    9566.2398    8290.9571    8317.1142   -274.32986   -51.394391    693.29141   -6194.2313 
 1909000    280.03243   -9061.2564    -7993.645   -9061.2564            0    9569.3243    24.830228    25.066927    22.983378    14305.257    10057.516    9601.3427    9049.1144   -195.50729   -285.61903    396.22885   -5997.2208 
 1910000    260.48258   -9020.4644    -8027.386   -9020.4644            0    10563.577    24.805893    25.073526    22.956657    14278.379    12859.649    7889.4593    10941.622    278.24613    631.72526   -111.41155   -5827.6741 
 1911000    263.17516   -9072.5574   -8069.2137   -9072.5574            0    11715.251    24.775364    24.918411    23.003522    14201.517    12669.424    11772.838    10703.491   -60.885182    22.296947   -369.53513   -5642.8147 
 1912000    266.11002   -9053.0455   -8038.5127   -9053.0455            0    9518.8755    24.990531     24.93876    22.984858    14324.919    8613.5202    10040.718    9902.3886   -770.79864    1112.8538   -353.39244    -6049.884 
 1913000    274.25409   -9047.3295   -8001.7478   -9047.3295            0    10083.179    25.093737    24.903482    22.874387    14294.695    9589.1237     10391.43    10268.983    391.27648   -326.02181    427.84286   -5899.6726 
 1914000    270.61276   -9075.1237   -8043.4244   -9075.1237            0    9940.8138     24.99964     24.90071    22.913283     14263.72    9864.6023    10237.756     9720.083    461.56785   -456.94578    68.331742   -5975.5192 
 1915000    270.12061   -9034.2203   -8004.3973   -9034.2203            0    11129.971    24.998226    24.812954    22.973481    14249.987    10547.983      11733.3    11108.629   -573.73496   -4.2844067   -316.85981   -5691.3507 
 1916000    273.02686   -9030.4783   -7989.5754   -9030.4783            0    9895.3155    24.975579    24.900383    23.023544    14318.377    9799.2311      10561.1    9325.6155    175.55291    352.06543    254.86283   -5923.2471 
 1917000    254.45928    -9066.969   -8096.8542    -9066.969            0    7838.3496    25.109925    24.945297    22.998637    14405.761    6005.4532    9016.0467    8493.5489   -316.07626   -531.26677   -496.04407   -6450.0699 
 1918000    278.49751   -9030.3049   -7968.5454   -9030.3049            0    9242.4554    25.044288    24.975567    22.931219     14343.37    9412.3385    8623.2451    9691.7828    -442.4736   -788.11899    936.10189   -6035.1777 
 1919000    269.24246   -9048.9393   -8022.4642   -9048.9393            0    9209.8158    25.027608    24.878772    23.021402    14334.417    9053.5949    9410.3898    9165.4628   -1025.8169   -1099.0124    331.56719   -6097.1267 
 1920000    267.07639   -9043.1807   -8024.9637   -9043.1807            0    10147.804     24.92131    24.895151    23.010439    14276.131    10423.444    10716.465    9303.5029    60.517298   -9.5382968   -60.170628   -5912.1633 
 1921000    275.35196   -9090.9189   -8041.1517   -9090.9189            0    10151.823    24.909447    24.987432    22.898101    14252.307    9319.3387    10139.236    10996.894     83.91384   -454.23165   -754.27135   -5931.0416 
 1922000    275.61187   -9085.9431    -8035.185   -9085.9431            0    9991.1532    24.890725    25.008371    22.974376    14301.009    9903.7498    9897.8484    10171.861    432.91432     279.1593    779.57851   -5951.3746 
 1923000     264.5988   -9038.0379   -8029.2666   -9038.0379            0    10822.315     24.81869    24.943353    23.044943    14266.233    11406.919    10571.523    10488.503    37.124716    507.80407   -885.79799   -5777.5933 
 1924000    272.65005   -9082.0621   -8042.5958   -9082.0621            0    10744.967    24.708514    25.060937    23.034208    14263.208    11186.205    9550.6781    11498.018   -420.51602    489.53413    1205.1167   -5807.4894 
 1925000    261.16672   -9020.2965   -8024.6098   -9020.2965            0    10527.739     24.90018    24.978902     22.96751    14285.312    10504.029    10868.928     10210.26    245.71798   -354.49069    95.921655   -5831.2962 
 1926000     268.0938   -9068.7357   -8046.6398   -9068.7357            0    10477.377    24.864534    24.996974    22.903013    14235.095    11842.315     9295.065    10294.752   -505.77865    -62.63763   -226.63047   -5871.4917 
 1927000    270.10539   -9042.7403   -8012.9754   -9042.7403            0     8706.788    24.993914    24.995684    22.978127    14355.355    8867.8968    8914.2745    8338.1926   -749.98584    362.69448    233.29766   -6190.1386 
 1928000    265.94485   -9058.2763   -8044.3732   -9058.2763            0    7201.7954    25.022888    25.004826    23.048902    14421.536    6621.4436    8213.8068    6770.1359    777.86659     248.5879    1319.0951   -6529.6677 
 1929000    267.38987   -9060.4003   -8040.9882   -9060.4003            0    7633.4071    25.030423    25.069905    22.958395     14406.63    6840.0817    8628.2342    7431.9053    -69.19612   -291.72907    172.11912   -6437.1642 
 1930000    265.13535   -9062.7004   -8051.8836   -9062.7004            0    8314.0624     24.92487    25.058513    22.978474    14351.899    7854.7002    8531.9837    8555.5033   -806.50401   -1066.4039   -66.258091   -6311.6861 
 1931000    274.96281   -9075.7039   -8027.4203   -9075.7039            0    9284.1191    24.885697    24.996617    23.009475    14313.233    9615.6693    8307.0577    9929.6304   0.97861123   -821.14009   -782.58065   -6089.4177 
 1932000    278.26731   -9043.4544   -7982.5725   -9043.4544            0    9726.1165    24.844836     25.13051    22.922697    14312.093    10620.856    8748.4551    9809.0385    20.186373   -809.73398    559.07488   -5952.4675 
 1933000    258.09188   -9016.9778   -8033.0138   -9016.9778            0    9599.9867     24.87725    25.041792    23.021618    14341.799    10515.067    8700.7562    9584.1367    -334.9795    -231.6104   -115.51552   -6025.0765 
 1934000    278.80292   -9069.4672   -8006.5433   -9069.4672            0    9558.0944    24.842394    24.987104    23.013988    14285.691    10767.481    8737.3671    9169.4349    -92.01913    429.83004    566.59819   -6015.1894 
 1935000    276.65242    -9012.882   -7958.1569    -9012.882            0    10094.329    25.001645    25.035849    22.868315    14314.133    11514.288    8929.8326    9838.8649   -1154.4878    926.74291    946.54115   -5850.8956 
 1936000    279.91727   -9051.3856   -7984.2133   -9051.3856            0    7976.9916    24.968608    25.052613    23.037051    14410.341    8927.0125    7160.7113    7843.2509    220.51175    -245.2646    841.96557   -6307.7685 
 1937000    270.84194   -9123.4463   -8090.8733   -9123.4463            0    7956.1218    24.976963    24.910171    23.074974    14356.797    8450.2661    7325.8283     8092.271    140.27029    315.27582    474.33369   -6425.0272 
 1938000    274.07389   -9026.7538   -7981.8591   -9026.7538            0    9773.9306    25.091747    24.911542    22.935142    14336.163     8172.561    11192.628     9956.603   -13.356784   -299.71152   -477.95741    -5938.343 
 1939000    268.55774    -9110.725   -8086.8605    -9110.725            0    9243.4409    24.920994    24.856925    23.084122    14299.674    9150.5478    9132.7224    9447.0526   -163.96697   -301.97566    885.26597   -6159.1771 
 1940000    272.26936   -9010.7381   -7972.7232   -9010.7381            0    9928.7405    24.931668    24.949576    23.055509    14341.323    9958.4233    10040.817    9786.9816   -1483.5781   -689.82854    -329.3629   -5896.0925 
 1941000    275.36162   -9056.9391    -8007.135   -9056.9391            0    9520.3335    25.039256    25.036737      22.7843    14283.507     8762.997    8853.8195    10944.184    30.531884    556.46339   -347.13602   -6023.9515 
 1942000    271.30725     -9025.02    -7990.673     -9025.02            0    10178.663    24.871779    24.967916    22.991716    14277.775    10538.259    10159.076    9838.6541    100.72536   -579.02779   -37.056456   -5871.2037 
 1943000    276.80616   -9076.4836   -8021.1722   -9076.4836            0     10160.87    24.881047     24.92209    23.069454    14305.084    10615.714     10243.09    9623.8056    519.30791   -535.40963     669.6252   -5901.3609 
 1944000    274.36082   -9079.0804   -8033.0918   -9079.0804            0     9422.185    24.939127    25.011337    22.957912    14320.248    9880.3914    9490.9807    8895.1828   -514.45476    44.268831    117.20333   -6065.3049 
 1945000    272.94672   -9052.9054    -8012.308   -9052.9054            0    9426.2196    25.102727    25.022229    22.830847    14340.653    8228.1053    9807.0181    10243.536    124.85238   -337.90399    599.90184   -6040.8734 
 1946000    273.06262   -9034.4495   -7993.4102   -9034.4495            0    10003.031    24.884638    24.982807    23.036974    14321.813    9798.1591    10493.429    9717.5062   -117.58914    295.15903    71.446049   -5904.0876 
 1947000    271.01557   -9058.2899    -8025.055   -9058.2899            0    8323.1952    24.998198    24.979717     23.01018    14368.659     8420.314    8960.0903    7589.1813    340.94879    106.82178    48.712898   -6280.9115 
 1948000    279.64316   -9065.2916   -7999.1643   -9065.2916            0    8849.3328    25.027478    25.031905    22.872302    14329.165    8823.0953    7778.1302    9946.7727    437.39145   -594.50936    17.669355   -6149.8647 
 1949000    268.41575   -9005.3333     -7982.01   -9005.3333            0    10416.412    24.870476    24.982436    23.044568    14318.167     10811.27    9351.8381    11086.127   -173.97015   -1066.1398    179.13089   -5806.8989 
 1950000    280.25634   -9086.7368   -8018.2718   -9086.7368            0    9785.8056    24.942068    24.983146    22.950255    14301.023    9246.3973    9088.2062    11022.813   -279.34847    278.61827   -194.64622   -5977.2879 
 1951000    290.06354   -9082.7279   -7976.8734   -9082.7279            0    10727.791    24.835448    24.952575    22.965475    14231.898    10963.733    11159.275    10060.364   -566.98277   -465.73516    488.83235   -5750.2386 
 1952000    274.08299   -9063.3312   -8018.4018   -9063.3312            0    12074.701    24.908994    24.935634    22.836254    14184.089     12127.72    10897.522    13198.861    228.83471    611.55052    773.98014   -5520.6244 
 1953000    264.24753   -9087.2839   -8079.8518   -9087.2839            0      9458.48    24.890084    24.930607    23.046915    14301.185    9415.8036    10211.883    8747.7531   -204.16212    469.40132     -638.328   -6107.1144 
 1954000    271.84996   -9040.8243   -8004.4083   -9040.8243            0    8744.2223    24.960704    24.952225    23.053999    14358.609     10007.14    8322.2128    7903.3139   -66.603223    963.48508     30.53166   -6173.3193 
 1955000    267.43069   -9073.5967   -8054.0289   -9073.5967            0    9437.4526    24.975919    24.936357    22.960583    14300.045    9929.0085    8997.8494       9385.5   -61.140645   -472.51543    267.39888   -6085.8341 
 1956000    253.19338   -9074.6091   -8109.3204   -9074.6091            0    8874.8374      25.0456    24.901441     22.98498    14335.078    9131.9901    9199.9801     8292.542   -727.70399    71.112715    970.43448   -6253.9256 
 1957000     268.9977   -9055.2068   -8029.6649   -9055.2068            0    9139.4795    24.949169     24.82424    23.184021    14358.888    9279.6792    9183.6468    8955.1125     -998.898   -73.817901   -323.43526   -6115.7697 
 1958000    271.83754   -9061.7929   -8025.4242   -9061.7929            0    8753.0201    25.099902    24.970954    22.883422    14342.608    8598.0843    7996.8958    9664.0802   -549.58738    -1224.151    857.38543   -6194.5356 
 1959000    270.42395   -9021.3349   -7990.3555   -9021.3349            0    8086.4073    25.012394    25.038665    22.972245    14386.988    8496.3963     7854.491    7908.3347   -343.37561   -901.19364     66.72051   -6293.6698 
 1960000    273.45717   -9042.6242   -8000.0807   -9042.6242            0    8342.7792    24.791684    25.050941    23.175882    14393.498    9182.3589    9126.3703    6719.6084   -989.81087    956.03125    740.42227   -6248.8113 
 1961000    269.82612   -9018.2017   -7989.5015   -9018.2017            0      9548.59    24.969911    25.016888    22.946919     14334.24    9554.5665    9760.2397    9330.9637   -515.36085     364.9512    258.40782    -5993.367 
 1962000    265.25117   -9045.0326   -8033.7742   -9045.0326            0    8873.6242    24.889248    24.942789    23.134701     14362.19    9220.2237    8804.2353    8596.4135   -21.928006     1111.928   -51.923608   -6175.1243 
 1963000    263.72569   -9052.4091   -8046.9665   -9052.4091            0    7788.6049    25.067813    24.924126    23.049944    14401.452     6676.577    8722.5026    7966.7351   -1042.8309   -119.66701   -432.85308   -6411.1227 
 1964000    273.07936   -9042.9483   -8001.8453   -9042.9483            0     10407.89    24.984253     24.92473    22.954729    14294.501    10228.368    10816.767    10178.534    165.29065   -115.39373     1653.779    -5832.106 
 1965000    272.27177   -9072.5106   -8034.4865   -9072.5106            0    10946.348    24.922696    24.823969    23.035391    14251.541    10558.803    11656.068    10624.172    472.16445    322.61436   -1254.0036   -5759.3526 
 1966000    263.01362   -9057.3208   -8054.5929   -9057.3208            0    8858.7639    24.908979    24.910029    23.093908    14329.386    8843.7157     9645.178    8087.3979   -1085.0508   -292.75218   -597.00651   -6203.2938 
 1967000    278.77059   -9053.8994   -7991.0987   -9053.8994            0    10186.932    24.943366    25.029445    22.897836    14295.545    9519.1662    10458.266    10583.363    -531.7019    977.16239    492.00559   -5867.2675 
 1968000    271.31801   -9036.1992   -8001.8112   -9036.1992            0    11398.848    24.790313    24.852929    23.079498    14219.552    10437.946    12388.146    11370.451    1285.7463   -822.31778    1025.3396   -5637.9456 
 1969000    267.77579   -9080.7618   -8059.8783   -9080.7618            0     9744.829    24.876181    24.888082     23.03689    14262.609    8863.0817    11408.408    8962.9974   -1365.0723     17.93177      232.378   -6032.9001 
 1970000    271.66384   -9067.7741   -8032.0676   -9067.7741            0    9920.7265    25.033757    24.999268    22.875946    14316.353      9299.77    9903.1714    10559.238    -323.7485   -133.19864   -148.51162   -5960.7259 
 1971000    273.16747   -9064.1387   -8022.6997   -9064.1387            0    9738.9625    24.808492    24.964632    23.094813    14303.423    10832.559    9737.2458    8647.0825   -514.15165    -160.1507   -732.98627   -5991.1448 
 1972000    269.70912    -9069.356   -8041.1018    -9069.356            0    10859.831    24.880371    24.940593    22.954424    14243.936    10247.433    10820.303    11511.758    603.82848    615.76696    248.99496   -5785.1543 
 1973000    272.37232    -9064.747   -8026.3395    -9064.747            0    9742.7585    25.004802     24.93216    22.944787    14304.324    9717.2224     9905.964     9605.089   -151.75926   -604.00231    699.31815   -5993.8647 
 1974000    284.98018   -9039.0802   -7952.6058   -9039.0802            0    9616.8739     24.96405    24.980005    22.956981    14316.021    10177.804    8552.2891    10120.529   -926.98292    507.29163    -508.3311   -5944.7518 
 1975000    266.53195   -9048.5602   -8032.4189   -9048.5602            0    10032.022    25.041991     24.83435    23.023919    14318.611    10104.799    11025.441    8965.8261   -398.65126   -536.80698    609.93297   -5937.5095 
 1976000    267.68116    -9035.008   -8014.4854    -9035.008            0    10221.417    25.018965     24.88694    22.961255    14296.721    9768.1772    9605.3035    11290.771   -524.84988    437.88754   -858.28549    -5883.289 
 1977000    279.80987   -9067.1132   -8000.3504   -9067.1132            0    8329.8995    25.147614    24.859696    23.028665    14396.647    6040.4907    10093.261    8855.9469   -380.09427   -261.29393     642.1784   -6251.4019 
 1978000    277.11003   -9042.4806   -7986.0108   -9042.4806            0    8856.4707    25.003542    24.924058    23.037709    14356.864    8781.8216    9317.9803    8469.6103    -376.7761    642.09186   -871.19064   -6131.6418 
 1979000    265.98189   -9055.5413   -8041.4971   -9055.5413            0    9126.2186    24.972173    24.886832    23.082563    14345.311    9795.8913    9552.6725    8030.0921    -386.7007   -227.37609    701.97209   -6132.1858 
 1980000    279.62147   -9058.9699   -7992.9253   -9058.9699            0    9429.9447    25.023024    25.025744    22.847481    14307.545    7280.4402    9909.8028    11099.591   -337.10233   -717.02309   -73.827584   -6025.2649 
 1981000    276.57589   -9036.4667   -7982.0333   -9036.4667            0    7942.6638    25.005789    25.044112    22.968371    14383.892    8514.0821    8295.8298    7018.0795     683.5082    457.27519    57.353499   -6315.8665 
 1982000    272.79789   -9050.6299   -8010.5999   -9050.6299            0    9123.1287    24.934585    24.962914    23.040764    14341.491    9291.0674    9088.0753    8990.2432    271.13714   -232.17687    227.35929   -6102.4433 
 1983000    281.23887   -9057.4774   -7985.2665   -9057.4774            0    9746.7268    24.929727    25.002537    22.977311    14321.905    9862.0125    9750.3231    9627.8447    220.70757    109.92881   -757.96777   -5949.4648 
 1984000    279.05742   -9062.6289   -7998.7348   -9062.6289            0    9292.5042     24.97493    24.948514    22.980857    14319.083     8809.446    8849.2085    10218.858   -563.27554   -277.89605   -28.096007   -6058.1892 
 1985000    258.12035   -9035.4706   -8051.3981   -9035.4706            0    10050.776    24.873537    24.949871    23.012163    14281.153    10345.682    10056.028    9750.6171    227.35265    165.42752   -39.694132    -5958.063 
 1986000     280.1181   -9068.7539   -8000.8159   -9068.7539            0    10007.513    24.993921    24.852778    22.959174    14261.513    9361.8831    12534.081    8126.5745    542.13407   -585.60347    1068.4124    -5919.358 
 1987000    270.87464   -9072.9057    -8040.208   -9072.9057            0    9450.3118    25.030786    24.859823    23.032976    14332.521    8634.3179     10528.11    9188.5075    29.976171   -289.94031     386.2911   -6064.8555 
 1988000    285.13294   -9045.7936   -7958.7367   -9045.7936            0    9285.2396    25.001411    25.004042    22.966225    14357.021    9251.1284    8618.5685     9986.022    440.64588    352.55709    618.56019   -6014.5707 
 1989000    278.05329   -9081.3351   -8021.2692   -9081.3351            0    8065.3266    24.941775    24.952772    23.108586    14382.009    8498.8457    8329.5024    7367.6316   -621.10074    697.02042   -426.31105   -6329.5924 
 1990000    273.97903   -9025.9259   -7981.3929   -9025.9259            0    8970.8545    24.978142    25.016578    22.985777    14363.068    9448.0001    8563.7408    8900.8225    529.94992    1098.3814    905.22983   -6102.2625 
 1991000    275.41191   -9046.2383   -7996.2424   -9046.2383            0    10254.967    24.967789     25.14591     22.74699    14281.419    8989.3276    9078.2788    12697.295    512.62278    176.96419   -426.01496   -5860.3394 
 1992000    278.18912   -9034.2548    -7973.671   -9034.2548            0    9801.9554    24.828087    25.025348    23.013605    14299.078    10346.523    9631.0046    9428.3381   -155.10425   0.27915067    347.69707   -5929.5968 
 1993000    278.60183   -9087.8172     -8025.66   -9087.8172            0    10439.304    24.838692    24.977191    23.027695    14286.399    10352.217     10343.92    10621.775   -22.545768   -160.52141    593.87294   -5850.6051 
 1994000    271.32429   -9090.7961   -8056.3842   -9090.7961            0    8808.7101    25.036375    25.051212    22.870953    14344.468    7955.3725    8598.6501    9872.1078    580.29934     584.8542   -175.50677   -6213.6077 
 1995000    269.23011   -9026.3465   -7999.9185   -9026.3465            0     9796.773    24.978113    24.962408    22.958752      14315.1    9296.3033    11037.318    9056.6975   -827.01123   -1050.5363    488.05509   -5954.6359 
 1996000    269.53128   -9075.2027   -8047.6265   -9075.2027            0    9038.7045    24.850167    24.935043     23.15486    14347.677    10826.565     7462.199    8827.3499    86.665882    38.440476    340.92452   -6156.3124 
 1997000    277.15797   -9025.7916    -7969.139   -9025.7916            0    9202.5869    25.006754    25.040441     22.94495    14367.672    8976.2581    10200.629    8430.8736    53.391693   -980.99831    69.861868   -6040.8495 
 1998000     258.1013   -9050.8193   -8066.8195   -9050.8193            0    8725.1544    24.959853    24.940401    23.055164    14352.042    8923.6079    8512.2597    8739.5956   -368.76817   -301.27873    67.003954   -6240.5591 
 1999000     263.9341    -9082.153   -8075.9159    -9082.153            0    10933.873    24.910073    24.863944    22.989592    14238.895    9919.0404    13380.482    9502.0973   -35.526003     220.5785    794.39043   -5805.3914 
 2000000    280.02026   -9042.9235   -7975.3585   -9042.9235            0    10658.414    24.989082     24.96799    22.892154    14283.036     9944.945    11103.446     10926.85    728.09496    499.59128     444.2867   -5755.1744 
Loop time of 558.914 on 64 procs for 250000 steps with 1920 atoms

Performance: 77.293 ns/day, 0.311 hours/ns, 447.296 timesteps/s
195.6% CPU use with 32 MPI tasks x 2 OpenMP threads

MPI task timing breakdown:
Section |  min time  |  avg time  |  max time  |%varavg| %total
---------------------------------------------------------------
Pair    | 69.103     | 73.875     | 80.599     |  31.3 | 13.22
Bond    | 0.82203    | 1.1093     | 1.5738     |  17.3 |  0.20
Kspace  | 257.57     | 269.09     | 280.83     |  32.5 | 48.14
Neigh   | 5.2284     | 6.1518     | 7.4244     |  21.9 |  1.10
Comm    | 83.713     | 98.565     | 109.16     |  61.3 | 17.64
Output  | 0.69164    | 0.69195    | 0.69326    |   0.0 |  0.12
Modify  | 85.806     | 96.064     | 102.34     |  45.9 | 17.19
Other   |            | 13.37      |            |       |  2.39

Nlocal:        60.0000 ave          66 max          56 min
Histogram: 2 3 6 3 4 5 5 2 0 2
Nghost:        3359.25 ave        3392 max        3319 min
Histogram: 2 1 3 3 3 5 3 7 3 2
Neighs:        21273.2 ave       23986 max       19802 min
Histogram: 5 4 3 7 5 6 0 1 0 1

Total # of neighbors = 680742
Ave neighs/atom = 354.55313
Ave special neighs/atom = 2.0000000
Neighbor list builds = 12447
Dangerous builds = 0

unfix		3
unfix		2
unfix		1

write_data	data.final.${pid}
write_data	data.final.0
System init for write_data ...
PPPM initialization ...
  extracting TIP4P info from pair style
  using 12-bit tables for long-range coulomb (../kspace.cpp:340)
  G vector (1/distance) = 0.37441447
  grid = 30 30 30
  stencil order = 5
  estimated absolute RMS force accuracy = 0.0032789879
  estimated relative force accuracy = 9.8745748e-06
  using double precision FFTW3
  3d grid and FFT values/proc = 5400 960
Last active /omp style is kspace_style pppm/tip4p/omp
WARNING: Not all mixed pair coeffs generated from mixing. Use write_data with 'pair ij' option to store all pair coeffs. (../write_data.cpp:312)

write_restart   restart.lmp.${pid}
write_restart   restart.lmp.0
System init for write_restart ...
PPPM initialization ...
  extracting TIP4P info from pair style
  using 12-bit tables for long-range coulomb (../kspace.cpp:340)
  G vector (1/distance) = 0.37441447
  grid = 30 30 30
  stencil order = 5
  estimated absolute RMS force accuracy = 0.0032789879
  estimated relative force accuracy = 9.8745748e-06
  using double precision FFTW3
  3d grid and FFT values/proc = 5400 960
Last active /omp style is kspace_style pppm/tip4p/omp
Total wall time: 0:09:19
