LAMMPS data file via write_data, version 30 Jul 2021, timestep = 9500000

864 atoms
2 atom types
576 bonds
1 bond types
288 angles
1 angle types

0.5927077789467727 17.61486462105124 xlo xhi
1.7896627433304761 21.839515056674706 ylo yhi
0.7231021059098364 21.49009369407731 zlo zhi

Masses

1 1.00794
2 15.9994

Pair Coeffs # lj/cut/tip4p/long/omp

1 0 0
2 0.21084 3.1668

Bond Coeffs # harmonic/omp

1 450 0.9572

Angle Coeffs # harmonic/omp

1 55 104.52

Atoms # full

159 1 1 0.5897 1.735783867001855 4.422404001296989 3.0374326216202183 2 1 1
158 1 1 0.5897 2.119531848320824 2.971818779899361 2.8360666023392715 2 1 1
715 1 2 -1.1794 4.6123157618581265 4.998076648365432 3.7471982579715273 5 -9 -2
166 1 2 -1.1794 1.5025123687989925 6.376739110090912 2.4743234595320533 -2 -4 5
700 1 2 -1.1794 0.8862594262967914 2.056869726067597 1.3631052561663055 4 2 3
716 1 1 0.5897 3.819854199861358 4.611049624099364 3.3750108816093927 5 -9 -2
157 1 2 -1.1794 2.3550502784450904 3.755147036856132 3.33328836546139 2 1 1
167 1 1 0.5897 1.7011750889118344 6.012297067601672 1.611785303338416 -2 -4 5
104 1 1 0.5897 2.5702169277669387 3.6557247908661497 5.194320151695106 3 0 4
15 1 1 0.5897 3.965090575751577 6.326839744585685 4.83866715361681 0 -4 -7
501 1 1 0.5897 4.057087112143945 2.20369601317255 1.4444622512983993 2 -1 0
196 1 2 -1.1794 0.6379255824497392 6.736799758904199 5.449457953192599 -1 -3 2
234 1 1 0.5897 1.4591863544841148 5.224609904724689 8.342358788490568 -4 2 3
8 1 1 0.5897 2.377717791665072 2.6305691981642507 10.592489969462733 -2 -4 0
232 1 2 -1.1794 2.3288610961824165 5.605434127918672 8.220207997873757 -4 2 3
105 1 1 0.5897 3.3876329198977277 3.190404631472501 6.380643623792268 3 0 4
7 1 2 -1.1794 2.6198559244119535 2.7166786620726167 9.670422492224857 -2 -4 0
233 1 1 0.5897 2.6388965983755406 5.235500203348597 7.393594147402387 -4 2 3
9 1 1 0.5897 1.7946479279249516 2.6184236372866514 9.19541241866698 -2 -4 0
103 1 2 -1.1794 2.722024012931891 3.8284866708199394 6.123518427248921 3 0 4
533 1 1 0.5897 3.04865438708449 5.5675283737308945 10.070454384467773 -6 -4 0
532 1 2 -1.1794 3.255527886673782 5.953695922306702 10.921541167661182 -6 -4 0
82 1 2 -1.1794 4.701054092012157 1.8557556753300832 6.473715083868447 -1 -3 -6
504 1 1 0.5897 4.447348020050596 3.5128666347246167 9.889343612082302 -4 1 1
5 1 1 0.5897 4.116169268971872 3.3686885427764173 11.978237002213568 -3 -1 -3
534 1 1 0.5897 2.4044900878388256 6.187000261312251 11.29245504005612 -6 -4 0
4 1 2 -1.1794 3.407074983496626 3.7847494012703597 12.468498145658813 -3 -1 -3
543 1 1 0.5897 2.0755267009451113 4.185306341732202 15.610809050817538 -5 0 3
541 1 2 -1.1794 1.731073935200477 4.029330497622877 14.731435724974048 -5 0 3
542 1 1 0.5897 2.508030015670627 3.882983839283432 14.191825515136482 -5 0 3
6 1 1 0.5897 3.155934961717779 4.53829974094482 11.934324298379114 -3 -1 -3
285 1 1 0.5897 4.146384617769092 2.097254548097239 15.71713807910321 1 -1 -2
283 1 2 -1.1794 4.60327794863412 2.9371724309803016 15.671786566902238 1 -1 -2
750 1 1 0.5897 4.721263355114149 4.953523889655234 13.282664165599302 2 3 -2
530 1 1 0.5897 0.7946770656847918 2.6934937863242343 11.963931852308553 0 0 -2
341 1 1 0.5897 4.372806153691866 6.397618287411321 15.842184949722057 2 3 0
375 1 1 0.5897 0.6556576330642798 6.627295936270195 12.396055497391627 5 6 0
326 1 1 0.5897 1.7350131966752638 5.268659713126551 20.622153555858894 4 -1 -2
411 1 1 0.5897 2.3730491744657 4.406702421636833 18.0419021516231 5 4 -6
711 1 1 0.5897 1.3995080461410965 2.3715541562487408 17.30377667533137 -6 -3 -1
645 1 1 0.5897 4.455983440597791 5.354283620156407 17.517238202523615 1 -1 -3
409 1 2 -1.1794 1.4816712949700763 4.1020080365696465 17.87195315949758 5 4 -6
410 1 1 0.5897 0.9962000582821917 4.895046585582822 17.644619374433894 5 4 -6
643 1 2 -1.1794 4.128299958513941 4.589440616911864 17.990420001977583 1 -1 -3
325 1 2 -1.1794 2.5655324056653175 4.925622839020701 20.952030116089 4 -1 -2
327 1 1 0.5897 3.2341540504953192 5.442437736437174 20.50247353915296 4 -1 -2
702 1 1 0.5897 0.804531905434999 2.1199290619860265 21.178457332112984 4 2 2
284 1 1 0.5897 4.647463266785176 3.2356846614837598 16.580186466075816 1 -1 -2
609 1 1 0.5897 3.592493491622413 1.9024595952381096 19.69531236145022 5 7 2
500 1 1 0.5897 3.290799638691959 3.2509628902447227 21.431706404010363 2 -1 -1
499 1 2 -1.1794 3.9323458621612852 2.548281496288327 21.327172209418045 2 -1 -1
695 1 1 0.5897 0.6982543423803378 3.2128366999199827 19.028701674973078 -1 -1 -2
639 1 1 0.5897 4.8087425795418 6.744275606317994 20.890389285952175 -8 0 -1
608 1 1 0.5897 3.1210467587419344 1.8837277415556173 18.2567872127334 5 7 2
684 1 1 0.5897 3.481052899217653 8.393339524133973 3.8580365926943725 6 -1 -3
204 1 1 0.5897 4.031182318761822 10.599960621337477 4.787199107158331 -1 4 4
202 1 2 -1.1794 3.2550198403344446 11.12308074088994 4.987646517031822 -1 4 4
683 1 1 0.5897 2.314046029540982 9.282541326094844 3.4846929236294155 6 -1 -3
203 1 1 0.5897 3.078581594682678 11.609081803464813 4.18207868435002 -1 4 4
682 1 2 -1.1794 2.9508224476167157 8.672897884313922 3.111728953915314 6 -1 -3
168 1 1 0.5897 2.114573906100485 7.105987983238264 2.573511219112212 -2 -4 5
774 1 1 0.5897 0.8002965738593844 10.010459274875902 2.413211689922581 4 -6 5
773 1 1 0.5897 1.1521740236199425 9.707895024738686 0.9721551986706628 4 -6 5
548 1 1 0.5897 3.9524682607024895 9.136777873965473 1.7130620117115134 5 1 2
13 1 2 -1.1794 3.455682400929755 7.01707964306502 5.2633194825538805 0 -4 -7
772 1 2 -1.1794 0.935881649278045 10.429158042867813 1.563168323713732 4 -6 5
197 1 1 0.5897 1.5838420380162102 6.883326464425287 5.454602823451443 -1 -3 2
547 1 2 -1.1794 4.647770035924672 9.420553550468318 1.119511835942312 5 1 2
464 1 1 0.5897 2.133734968659656 11.631853175380925 2.211360843268703 8 2 1
41 1 1 0.5897 2.8861622410009007 9.126391388265983 10.578122890233445 -2 -2 4
451 1 2 -1.1794 0.8088189040898055 11.316382751868984 10.790082608815664 -2 0 3
601 1 2 -1.1794 3.0276966502086298 8.419516118636096 8.811704073288379 2 4 0
429 1 1 0.5897 2.67059287703689 10.815691465934753 6.742912630906073 3 0 1
602 1 1 0.5897 2.8376322332429327 7.489452045366144 8.688791395730078 2 4 -1
603 1 1 0.5897 2.629168284316275 8.84805810963466 8.054216466955719 2 4 0
428 1 1 0.5897 2.208792906644233 11.396265640515772 8.062635376784854 3 0 1
427 1 2 -1.1794 2.1710984295879054 10.60126613939377 7.530823733634087 3 0 1
467 1 1 0.5897 4.124982500735385 10.66571072042587 10.305073060196225 4 -4 8
466 1 2 -1.1794 4.6831614180141345 11.2699054747911 9.815541482933105 4 -4 8
536 1 1 0.5897 4.745349678188212 7.940282713898665 7.923786751836365 6 5 2
42 1 1 0.5897 2.159148225583709 10.36015101241266 11.06928853980142 -2 -2 4
14 1 1 0.5897 3.9933380253456185 7.28904948714184 6.007137069028349 0 -4 -7
448 1 2 -1.1794 0.6771466856873838 11.410308699517158 16.129378003976143 7 1 -7
419 1 1 0.5897 3.277159546140474 11.007288816829076 13.022622125517602 -4 -6 5
418 1 2 -1.1794 3.6862085349464704 11.76049375544531 13.448846567911557 -4 -6 5
420 1 1 0.5897 3.590835605991382 11.587313788885757 14.385422238771302 -4 -6 5
50 1 1 0.5897 3.3553554406208743 8.534914055088958 14.238902151560852 6 2 0
49 1 2 -1.1794 2.4112873401068535 8.662584790854325 14.145577239236179 6 2 0
51 1 1 0.5897 2.034557581323371 8.24090697153323 14.91793506656206 6 2 0
147 1 1 0.5897 1.2263192605852824 9.940474348659187 13.687616652906128 0 -2 -5
450 1 1 0.5897 1.6310616812255045 11.468173576638366 16.075005083287294 7 1 -7
374 1 1 0.5897 1.5888365519443424 7.71914671158718 12.874590164869089 5 6 0
373 1 2 -1.1794 1.2366109808291492 7.319074495951059 12.079494788397437 5 6 0
40 1 2 -1.1794 2.9001784625717444 9.788270462796582 11.269484426162954 -2 -2 4
760 1 2 -1.1794 1.109774783441922 7.1795408460616725 16.031859163210473 0 -1 -5
647 1 1 0.5897 2.8255453668748562 7.753159274884186 20.237966725841268 -7 1 -2
549 1 1 0.5897 4.1857984128917956 9.745640714578535 21.113709038486306 5 1 1
646 1 2 -1.1794 1.9819471303620355 8.152315657276024 20.45083055554305 -7 1 -2
761 1 1 0.5897 1.0543189020492978 7.874419558636909 16.68784728276013 0 -1 -5
648 1 1 0.5897 1.3548042236050386 7.431170874365344 20.39693293384029 -7 1 -2
340 1 2 -1.1794 4.050178219738594 6.919317504789254 16.577030795301326 2 3 0
637 1 2 -1.1794 4.302208066253125 6.8578102527748905 20.086158489111654 -8 0 -1
860 1 1 0.5897 4.241548002919357 11.130842270095787 16.634743394764634 0 -3 2
693 1 1 0.5897 3.832040180918706 10.275452333617332 18.775748959683753 2 -3 0
692 1 1 0.5897 3.9326327355411546 11.579908532232798 19.537503835187195 2 -3 0
691 1 2 -1.1794 3.69843918358374 10.657801084883777 19.64306264867423 2 -3 0
240 1 1 0.5897 1.639532420209836 9.002066996042059 18.687431501817336 -5 -6 -1
238 1 2 -1.1794 1.0761973725110505 9.131897507440538 17.924475539045147 -5 -6 -1
342 1 1 0.5897 3.1438456297532578 7.123731792113365 16.346593274850683 2 3 0
632 1 1 0.5897 0.6258959610371064 11.610134719816521 19.723089390155955 2 4 4
633 1 1 0.5897 2.1299491487271265 11.462649403934284 19.81327050090762 2 4 4
572 1 1 0.5897 4.700960999673456 8.507981449399427 17.349591991957098 -2 -5 -7
859 1 2 -1.1794 3.449656680439633 11.582396908906409 16.342749473450347 0 -3 2
463 1 2 -1.1794 2.594442251633434 12.378209774261906 2.594758194232945 8 2 1
591 1 1 0.5897 2.7100084219249556 13.828421001274645 5.297560734798899 7 6 4
641 1 1 0.5897 2.431245168879447 16.16406110958796 4.1167560011434645 4 3 -4
630 1 1 0.5897 1.2904113031291056 13.921340544029428 3.0441608051808666 -1 -4 1
589 1 2 -1.1794 3.5039158202604352 14.345246371645015 5.160207341217385 7 6 4
465 1 1 0.5897 3.0452440079088414 12.787201203095286 1.8559984866372117 8 2 1
512 1 1 0.5897 4.398300900300838 14.419757465183544 3.600841377000559 0 3 -2
456 1 1 0.5897 3.8206904881503836 14.98058532571682 0.9986298170378718 4 -6 1
590 1 1 0.5897 4.199270982864009 13.830362537955281 5.569670518938807 7 6 4
511 1 2 -1.1794 4.773450375429984 14.62678755141144 2.7448809217046177 0 3 -2
12 1 1 0.5897 3.6090554375433532 15.312733938271968 8.185864332801723 -4 -2 1
29 1 1 0.5897 1.8864151876991702 15.789804167480337 10.567483533424976 -9 -2 6
10 1 2 -1.1794 2.90316991178657 15.701496691342074 7.669295425414886 -4 -2 1
219 1 1 0.5897 3.2639806277513363 12.330521373853868 9.333354529020756 5 -1 1
217 1 2 -1.1794 2.457272076931135 12.795198179309688 9.110748298338114 5 -1 1
30 1 1 0.5897 2.9104962189267667 14.75384470830502 10.155162586171127 -9 -2 6
278 1 1 0.5897 1.8116970131612842 13.401718637138886 7.52071984593864 -1 -5 -1
11 1 1 0.5897 3.0330976473848263 15.355184818720742 6.78642730604334 -4 -2 1
681 1 1 0.5897 1.2089730048090637 16.510392892842468 7.404691064483693 -6 -7 -1
277 1 2 -1.1794 1.4200568292932731 13.477994857780486 6.650615475560417 -1 -5 -1
28 1 2 -1.1794 2.5754243558071486 15.225227721668093 10.91793834150024 -9 -2 6
218 1 1 0.5897 1.8869411352447563 12.662182053129287 9.86791474258337 5 -1 1
279 1 1 0.5897 0.6781848006629971 14.07054020870549 6.7724428444030975 -1 -5 -1
687 1 1 0.5897 2.622341450009564 15.481562851961588 14.927934146684112 8 -4 -4
747 1 1 0.5897 2.7379059213165613 14.638768205967443 12.598978479967183 4 2 -10
320 1 1 0.5897 0.994508406562442 14.233075744994599 14.086140537997021 4 -2 0
746 1 1 0.5897 3.2887859823483514 13.481591296937125 13.404911243001207 4 2 -10
745 1 2 -1.1794 2.9669821634435283 14.378980698834658 13.49133322713954 4 2 -10
685 1 2 -1.1794 2.117779150193513 16.17324340158421 15.356009525760632 8 -4 -4
686 1 1 0.5897 1.796624201935976 16.71651957115872 14.636291956819834 8 -4 -4
527 1 1 0.5897 3.9330376992078584 13.820671805463917 17.73523129550842 0 -2 0
721 1 2 -1.1794 0.8594038430575459 13.863137413534922 17.561935020732435 1 -1 1
652 1 2 -1.1794 1.6775672704639506 16.225065375732093 19.761585745019524 1 0 3
631 1 2 -1.1794 1.4315867553018093 12.11720986155076 19.823369563967105 2 4 4
677 1 1 0.5897 4.322719303697067 13.616496405431175 20.056939881573797 0 1 -1
528 1 1 0.5897 2.799593652870906 14.288742849882553 16.847447632813683 0 -2 0
455 1 1 0.5897 2.6669376744550193 14.909421384913495 20.787999284076264 4 -6 0
526 1 2 -1.1794 3.745959782650029 14.145226474698998 16.85436645736197 0 -2 0
653 1 1 0.5897 0.9274137305507557 15.676737939804086 19.991495240584705 1 0 3
454 1 2 -1.1794 3.302505414465882 14.362678178128744 21.249930611335692 4 -6 0
723 1 1 0.5897 0.73732220763159 13.515105729949612 18.44524238287638 1 -1 1
828 1 1 0.5897 1.085978740697704 16.36543926880232 16.828564139202754 3 2 1
676 1 2 -1.1794 4.697531460842563 13.144282236003994 19.31344315739387 0 1 -1
722 1 1 0.5897 0.8118894269822386 13.095067252530537 16.99266774928258 1 -1 1
627 1 1 0.5897 0.6723820854160998 13.428964484781533 20.994751084766428 -10 -3 0
861 1 1 0.5897 3.6358906026196633 12.510331779792724 16.485955542452444 0 -3 2
384 1 1 0.5897 4.231690358586041 16.69956309430404 17.670904310806662 -8 -1 -6
654 1 1 0.5897 1.7735752595026748 16.82336246961551 20.502581845894447 1 0 3
128 1 1 0.5897 3.1702146308555332 20.386631033944717 2.8540996469547744 -2 1 -7
127 1 2 -1.1794 3.196313998736186 20.26087312824434 1.9055361047936186 -2 1 -7
735 1 1 0.5897 2.48184247212785 18.576639744031013 1.560308962728556 -3 -2 -3
129 1 1 0.5897 2.527518171160186 20.85564890293562 1.5660995965190716 -2 1 -7
121 1 2 -1.1794 2.853938650937234 20.801929016842543 4.46926446184786 4 -1 0
794 1 1 0.5897 3.7051591875487078 17.23296624310234 1.066395686119633 -8 2 8
122 1 1 0.5897 2.5460194902054396 20.147862946678067 5.0966694290168375 4 -1 0
733 1 2 -1.1794 2.082623746568035 17.707804810134018 1.5149857185831337 -3 -2 -3
123 1 1 0.5897 3.625459996738452 21.187848131690842 4.88408507596211 4 -1 0
137 1 1 0.5897 2.346081827590793 18.1507512177931 5.755448063727026 4 -8 -1
642 1 1 0.5897 3.4354834846312907 17.254389947986617 4.42446146057685 4 3 -4
35 1 1 0.5897 1.4108338866797594 21.798970701314154 5.295467073379609 -3 -1 1
734 1 1 0.5897 2.1353820966278203 17.372473975443484 2.409985420008017 -3 -2 -3
640 1 2 -1.1794 2.5059035561416128 17.109281297391256 4.248163316130382 4 3 -4
221 1 1 0.5897 2.192074904749646 18.642886799663252 9.602025027392878 5 -1 6
138 1 1 0.5897 1.5175605494901676 19.082604177389925 6.614028052042824 4 -8 -1
222 1 1 0.5897 2.778247157916789 17.660375735378274 8.610542476127575 5 -1 6
136 1 2 -1.1794 2.4145883048423062 18.918471378698698 6.323068668171011 4 -8 -1
220 1 2 -1.1794 3.022425023162944 18.2670758150135 9.30951496223172 5 -1 6
39 1 1 0.5897 3.6068953698371473 20.134774496185713 9.229677670897944 -2 4 -1
110 1 1 0.5897 1.151628256265095 20.31083592702447 10.835895452285223 3 1 -9
37 1 2 -1.1794 4.354360258792133 20.73116940084067 9.18632763127695 -2 4 -1
84 1 1 0.5897 4.643266045054903 21.45271264584259 7.315025776988341 -1 -4 -6
38 1 1 0.5897 4.005287128694064 21.57474812050915 9.474036685380637 -2 4 -1
261 1 1 0.5897 4.832325297313776 18.91206595435377 7.644358144040598 3 -2 3
65 1 1 0.5897 4.646204695756455 17.95126052264483 10.197947365956482 2 0 -1
109 1 2 -1.1794 0.8305141715842084 19.807111970435642 10.087957003630574 3 1 -9
561 1 1 0.5897 2.8623800809042423 21.22908471501421 12.480646835464775 6 2 0
3 1 1 0.5897 0.8765925153612351 18.242943662736558 13.775275416032825 1 -8 4
559 1 2 -1.1794 1.9069802633191217 21.276316473099833 12.445150365721794 6 2 0
1 1 2 -1.1794 1.1219999498239797 17.508963153675488 13.211893436655917 1 -8 4
43 1 2 -1.1794 3.8748049185696307 18.316799954911026 12.947445725475063 2 5 -1
313 1 2 -1.1794 4.5477620630222555 21.128819924113387 12.93301370154656 0 -5 3
858 1 1 0.5897 2.0396808703726026 19.984000223315853 15.075253878302727 3 -2 -6
856 1 2 -1.1794 1.193312119354557 19.793838270108964 14.670592370670116 3 -2 -6
45 1 1 0.5897 3.011161907399467 17.906999683042557 12.996830517787176 2 5 -1
44 1 1 0.5897 4.254510375636402 17.97937899894577 12.136135056559331 2 5 -1
315 1 1 0.5897 4.485416748509373 20.194173494302376 13.130027253671448 0 -5 3
560 1 1 0.5897 1.6157107758553766 20.856777475880207 13.25471988360333 6 2 0
724 1 2 -1.1794 3.7760936805608196 19.99582524053934 16.03099900985948 4 1 2
305 1 1 0.5897 0.9779915708805895 19.132580402516197 19.926180409566868 5 -2 -8
725 1 1 0.5897 3.3026944405062344 20.47491542143961 16.711161233736664 4 1 2
726 1 1 0.5897 3.7602580102467336 19.08468516001436 16.32400998218052 4 1 2
498 1 1 0.5897 2.891410512407889 18.414385223469715 18.502764576463086 -5 0 0
496 1 2 -1.1794 2.555670623234235 19.106605578632987 19.072297111574784 -5 0 1
709 1 2 -1.1794 1.6532475756696994 21.50036269191491 17.24411487207729 -6 -4 -1
497 1 1 0.5897 3.216628190961723 19.79743449297481 19.02564548202045 -5 0 1
382 1 2 -1.1794 3.6531182625286136 17.353612757415554 17.27876984938898 -8 -1 -6
607 1 2 -1.1794 3.8187250459302615 21.613970291150608 18.82893897267884 5 6 2
793 1 2 -1.1794 4.536316896913499 16.97648957811454 21.433784260754138 -8 2 7
710 1 1 0.5897 0.8786634898246357 21.018743115366284 17.53448630095133 -6 -4 -1
383 1 1 0.5897 3.3059778947703293 16.9277852076198 16.494917636818897 -8 -1 -6
827 1 1 0.5897 0.8711286645622611 16.872830975870848 18.238650244230406 3 2 1
59 1 1 0.5897 6.376035973920777 2.329439985218218 2.6327909051755745 3 -4 -1
417 1 1 0.5897 8.42968232321649 5.0267496843163535 4.612790128081812 3 1 0
717 1 1 0.5897 5.079358759322425 5.359646069158089 2.99393119552269 5 -9 -2
788 1 1 0.5897 8.162484605805798 4.316320521783476 1.8720925317465167 2 2 5
820 1 2 -1.1794 8.906477561393842 3.2577350798384925 4.7026797412774055 4 8 6
415 1 2 -1.1794 8.571237313093246 5.973434922472768 4.6116643658289185 3 1 0
275 1 1 0.5897 6.406850589955029 5.780982183562491 1.3166184874383036 1 5 -1
619 1 2 -1.1794 8.217496240819706 2.2529870994015777 2.199803337663351 5 1 2
821 1 1 0.5897 8.388897295990718 2.765060673306949 5.339585619556452 4 8 6
58 1 2 -1.1794 5.554960057925822 2.3110253390631907 3.124476337508587 3 -4 -1
60 1 1 0.5897 5.332950542219506 3.2328820154300555 3.255494803241171 3 -4 -1
75 1 1 0.5897 5.850056965058927 4.9800940113226915 5.595490433677393 2 0 2
620 1 1 0.5897 8.314368516464475 2.2598875526781677 1.247501443496212 5 1 2
787 1 2 -1.1794 7.910728769840553 4.920847837046513 1.1739378548216788 2 2 5
789 1 1 0.5897 8.439476004821568 5.70305077856687 1.3315358377303408 2 2 5
274 1 2 -1.1794 5.64068406017826 6.238960074071051 1.6623294742943555 1 5 -1
822 1 1 0.5897 8.809990028795285 2.768840933777209 3.8854097895589117 4 8 6
502 1 2 -1.1794 5.28815813250894 3.599616613675875 10.338641118051868 -4 1 1
74 1 1 0.5897 5.689384059967411 5.995352249643746 6.7069712171913825 2 0 2
503 1 1 0.5897 5.933839101764948 3.642459299887439 9.63328448556505 -4 1 1
732 1 1 0.5897 6.821127978372192 4.2347920964772605 7.8232139103682234 -3 -1 -4
582 1 1 0.5897 8.686738174259911 3.0083615031843567 8.182965581925849 2 -4 -3
163 1 2 -1.1794 8.837837786429683 6.323580112875451 9.577375890341445 -3 3 -1
730 1 2 -1.1794 6.903312386542128 3.41155653901765 8.304695479874578 -3 -1 -4
731 1 1 0.5897 6.7495473184782835 2.7328097904902258 7.6474663845772115 -3 -1 -4
73 1 2 -1.1794 6.208344098923884 5.234591375948103 6.445851716913672 2 0 2
372 1 1 0.5897 5.098412041074881 6.353397426732604 10.751130340994068 2 5 -1
164 1 1 0.5897 7.9251112005892 6.392743068420963 9.85737424510368 -3 3 -1
370 1 2 -1.1794 5.989250305502126 6.499719017592661 10.43289615907609 2 5 -1
144 1 1 0.5897 8.090181095953028 1.8797748968982986 11.052899765324966 -4 4 3
83 1 1 0.5897 5.625790683463622 1.798284029998733 6.233247575223716 -1 -3 -6
433 1 2 -1.1794 7.500968321052776 4.602358846182572 11.975960271936138 1 1 -1
550 1 2 -1.1794 6.643984687015648 2.8561086746227593 13.934316013880137 -6 7 -5
434 1 1 0.5897 7.097976099660575 4.1405265464531915 12.711198357609451 1 1 -1
855 1 1 0.5897 6.563051160692252 5.026940354834602 15.002691342823594 -5 1 -1
142 1 2 -1.1794 8.818393004530435 2.4908036293152738 11.16522663611952 -4 4 3
854 1 1 0.5897 7.879900963195215 4.707953298772132 15.67804460740086 -5 1 -1
853 1 2 -1.1794 7.055312289580602 5.175833937744679 15.810014069214388 -5 1 -1
552 1 1 0.5897 5.991986590336975 3.0467620874151358 14.608731783856646 -6 7 -5
209 1 1 0.5897 7.917720970882258 6.2674945636933455 12.520842741419507 1 -4 4
435 1 1 0.5897 6.796427039057251 4.693128735938704 11.334360215950102 1 1 -1
143 1 1 0.5897 8.418386956265962 3.274024496745871 11.543144017746295 -4 4 3
749 1 1 0.5897 4.973049053781447 6.435270009038441 13.464299328209385 2 3 -2
748 1 2 -1.1794 4.871662631360592 5.619079991581084 13.954000295209454 2 3 -2
551 1 1 0.5897 7.353845372195857 2.418001333924978 14.403813356074519 -6 7 -5
322 1 2 -1.1794 6.809052987309641 3.0438610247750395 17.669270800667526 6 2 -2
644 1 1 0.5897 4.855092499087094 4.327306294667094 18.555495541558734 1 -1 -3
673 1 2 -1.1794 8.564228779313666 5.179169009912234 18.833116357233024 -4 0 -2
770 1 1 0.5897 5.47638026307222 3.3755134822017934 20.695639606192174 6 -4 -1
771 1 1 0.5897 6.771959304762838 4.154760050986147 20.77500474271765 6 -4 -1
324 1 1 0.5897 6.9298752231910195 3.882353946003379 17.223638846115847 6 2 -2
769 1 2 -1.1794 6.124837999907067 3.8233676005976287 20.152327240271497 6 -4 -1
323 1 1 0.5897 6.670765027876931 3.2776508517993044 18.58714342145101 6 2 -2
47 1 1 0.5897 9.056624503587443 2.210807683214642 19.774868810089536 3 1 0
405 1 1 0.5897 7.032326590135416 6.445817193856334 18.77187407146021 7 -3 -1
675 1 1 0.5897 8.781380919907148 4.277419678769098 18.596571255640242 -4 0 -2
237 1 1 0.5897 7.467330938490335 7.181202929394243 3.837913440795395 0 -2 -2
276 1 1 0.5897 6.001077011086952 6.884461059173547 2.2703879227008534 1 5 -1
779 1 1 0.5897 5.997893082783541 9.007317240519413 4.100830064331386 -1 0 -2
780 1 1 0.5897 5.942542033140784 9.896795208011978 5.324655806903494 -1 0 -2
778 1 2 -1.1794 5.483902130245541 9.70551525896273 4.506521111081284 -1 0 -2
235 1 2 -1.1794 6.824523566105731 7.749529124606111 3.4135835031370743 0 -2 -2
387 1 1 0.5897 5.289027360425162 11.091641379678542 1.8289894878150186 -6 3 3
236 1 1 0.5897 7.34030441311732 8.476358300227218 3.06434650594408 0 -2 -2
599 1 1 0.5897 7.6126742504739 11.29006159048416 4.093976907593509 1 -5 -5
649 1 2 -1.1794 8.771586357138053 9.393297404603244 2.4290829329866823 -1 1 2
520 1 2 -1.1794 8.223940426495886 9.94065757363804 5.572297807576348 -3 2 -5
537 1 1 0.5897 5.8487582345108935 8.432342805284481 7.011461869553409 6 5 2
752 1 1 0.5897 9.06955187305354 10.214111121807226 9.277453612394572 4 -1 0
664 1 2 -1.1794 5.922800486901652 10.434007041142058 7.5237587335092195 -1 3 -1
665 1 1 0.5897 6.822021734996269 10.699020134228995 7.71723444860346 -1 3 -1
753 1 1 0.5897 7.884657087153285 10.162549462819438 10.218381485015687 4 -1 0
535 1 2 -1.1794 5.234378103097469 7.708648392030046 7.134190406828858 6 5 2
666 1 1 0.5897 5.434042934139942 10.644813462609436 8.319337301002882 -1 3 -1
751 1 2 -1.1794 8.167135930376464 10.517862284825334 9.375608663478465 4 -1 0
468 1 1 0.5897 5.254131735421657 11.65925246632868 10.477853792230317 4 -4 8
371 1 1 0.5897 6.128365510879936 7.44141368205947 10.533448699906383 2 5 -1
178 1 2 -1.1794 8.776406464382934 7.552561103271293 7.057335395843028 -5 0 -4
522 1 1 0.5897 8.8766386991156 10.485525697599774 6.01203789432293 -3 2 -5
521 1 1 0.5897 8.248979949777727 9.108219295405323 6.0442395635632415 -3 2 -5
180 1 1 0.5897 8.265889512702906 6.914024381476736 6.559442384004528 -5 0 -4
179 1 1 0.5897 8.848788941944296 7.17194664558201 7.932643143069002 -5 0 -4
362 1 1 0.5897 7.352434475406223 6.9341211858256795 15.687352385906152 3 -1 -1
17 1 1 0.5897 6.792463706767857 9.719848054755888 12.50720350331921 -3 3 5
32 1 1 0.5897 6.206567189194097 10.938986791954088 14.996903683891214 3 6 -1
113 1 1 0.5897 5.833000523730145 8.324569262445957 14.777421811550502 -3 -2 1
114 1 1 0.5897 5.641926555910712 8.807880372027515 13.35549544274098 -3 -2 1
112 1 2 -1.1794 5.156664186892749 8.521629684167976 14.129343955907107 -3 -2 1
16 1 2 -1.1794 6.513277093104992 9.022758933954997 11.913583763613678 -3 3 5
33 1 1 0.5897 5.650824437614025 11.430313880640869 13.677152480141233 3 6 -1
31 1 2 -1.1794 6.462066947009543 11.145328592832628 14.09779053459104 3 6 -1
18 1 1 0.5897 6.948164335627572 8.236990115815413 12.244809724159632 -3 3 5
206 1 1 0.5897 8.462533708381589 11.19060758320874 13.825093084385763 -5 3 -2
363 1 1 0.5897 8.309985083457168 8.081987308063093 15.927053678006555 3 -1 -1
208 1 2 -1.1794 8.225599019341944 7.091860089536622 12.897539711449987 1 -4 4
361 1 2 -1.1794 7.3950614135792465 7.889781784669064 15.72146894908022 3 -1 -1
210 1 1 0.5897 8.761297417645562 6.828525639199606 13.645833310721203 1 -4 4
403 1 2 -1.1794 6.631475203614316 7.239098178924407 18.416429730975267 7 -3 -1
404 1 1 0.5897 7.050376598026916 7.358440535265604 17.56404541111744 7 -3 -1
556 1 2 -1.1794 6.949839071905949 11.298841515069622 17.06057720877869 5 3 -2
557 1 1 0.5897 7.827543818137857 10.953863550174162 17.224576579535295 5 3 -2
852 1 1 0.5897 6.485117364875557 9.368142211411673 20.872381553353378 -6 0 0
573 1 1 0.5897 5.785388441602045 9.564355767512286 17.34014110858969 -2 -5 -7
851 1 1 0.5897 7.155055494533679 8.91881845786876 19.591269205109278 -6 0 0
850 1 2 -1.1794 7.205810178060213 9.581870321245589 20.279773267846572 -6 0 0
638 1 1 0.5897 4.959807259630877 7.014358050107415 19.40843566981549 -8 0 -1
425 1 1 0.5897 7.092293986779365 11.436645139263968 20.177877281916942 10 -7 4
571 1 2 -1.1794 4.849260988468925 9.441904707226161 17.498107092257975 -2 -5 -7
385 1 2 -1.1794 5.547565790648354 11.98861934562701 2.0407575179240176 -6 3 3
296 1 1 0.5897 8.177668825852322 14.843231706218178 2.4301070921102474 -6 4 3
495 1 1 0.5897 8.387679374582595 14.578277259743327 5.263850215119196 -2 -1 -1
600 1 1 0.5897 6.8544203648773605 12.525243619136809 4.5313951110399735 1 -5 -5
519 1 1 0.5897 6.263486293537967 15.59970425951618 2.774097157851131 -1 -1 -4
295 1 2 -1.1794 8.715917610752003 14.05169987576618 2.4347393438561165 -6 4 3
517 1 2 -1.1794 6.93803424715474 16.2779357522152 2.809329396100483 -1 -1 -4
720 1 1 0.5897 6.339018434795631 16.235297215009055 5.83401577041627 6 2 -1
297 1 1 0.5897 8.271259704894092 13.462668964634641 3.044314285732272 -6 4 3
518 1 1 0.5897 7.154610226629867 16.44885256317483 1.8927314250830265 -1 -1 -4
598 1 2 -1.1794 7.486680723092951 12.215200985534267 3.8830309078089558 1 -5 -5
513 1 1 0.5897 4.859017540899032 13.77892227949225 2.308925342823156 0 3 -2
386 1 1 0.5897 6.1331818707950045 11.898435408641937 2.7925401502763707 -6 3 3
369 1 1 0.5897 8.322589149395387 12.843033190257913 7.4026468695177075 2 1 -5
491 1 1 0.5897 5.406128036698851 14.988858799545831 9.73834111077097 1 2 3
833 1 1 0.5897 7.267348876998198 16.04665264357753 8.604090431360593 2 -2 -1
367 1 2 -1.1794 7.761916750380446 13.052486618304037 8.14965977802553 2 1 -4
490 1 2 -1.1794 5.14014779570615 14.547799240512518 8.931500797493735 1 2 3
492 1 1 0.5897 5.531334063740637 13.676422495680926 8.994167764956696 1 2 3
813 1 1 0.5897 6.260775217404174 13.755499537174432 6.793729196450307 -4 5 -3
540 1 1 0.5897 8.970185523212525 16.0337617457418 10.179004778509071 -8 -6 0
368 1 1 0.5897 7.91829390097508 12.343410198299917 8.773367091872302 2 1 -4
812 1 1 0.5897 5.65920125691968 12.391131538212223 6.531862656612823 -4 5 -3
832 1 2 -1.1794 7.593180610141464 16.565778881425572 9.339350429929306 2 -2 -1
718 1 2 -1.1794 6.973230919533066 15.973973854504383 6.501654605608359 6 2 -1
719 1 1 0.5897 7.6518083543847775 16.6480980515517 6.46499393778308 6 2 -1
811 1 2 -1.1794 5.805513302517346 13.244785450452028 6.1242708833213415 -4 5 -3
834 1 1 0.5897 6.812974086621183 16.764736241780177 9.857030249383055 2 -2 -1
615 1 1 0.5897 6.379063690058433 14.796057186456201 15.210373280058363 -3 4 2
515 1 1 0.5897 7.008531819757128 12.758099544074796 14.00473626482242 -2 -3 0
514 1 2 -1.1794 7.334560675426148 13.530775366026946 14.466181114522545 -2 -3 0
516 1 1 0.5897 8.287515782193534 13.450422645632752 14.425263830943798 -2 -3 0
364 1 2 -1.1794 6.050707658980545 15.253163851893772 12.246432198417759 4 5 4
162 1 1 0.5897 8.388915732957859 16.262306319475904 15.204681145106544 3 6 2
840 1 1 0.5897 9.008108313146266 16.03143313979443 12.537200890124662 -3 -1 -6
245 1 1 0.5897 7.2907496616423115 12.59819474230493 11.125308338137634 -7 5 -2
839 1 1 0.5897 7.579997344972137 16.037586122350845 13.039694266128867 -3 -1 -6
613 1 2 -1.1794 5.73449155789064 15.494331206853932 15.325244809197606 -3 4 2
246 1 1 0.5897 6.250356413625218 13.44562472938314 11.826300960802184 -7 5 -2
244 1 2 -1.1794 6.415355611173707 12.5572511223741 11.510354245927864 -7 5 -2
366 1 1 0.5897 5.672607334562983 16.0907688259923 11.978619570762818 4 5 4
838 1 2 -1.1794 8.47562822898233 16.250726784184742 13.301817994371342 -3 -1 -6
365 1 1 0.5897 5.551043008542103 15.001711887335633 13.02319669003117 4 5 4
160 1 2 -1.1794 8.413774851405583 16.355751822274154 16.156995036921973 3 6 2
661 1 2 -1.1794 9.079119155745108 12.919105032043785 11.307287987202534 -4 -6 2
614 1 1 0.5897 5.082339049192177 15.12351610742686 15.91975860100176 -3 4 1
706 1 2 -1.1794 7.504784820714754 14.107986315061158 17.601581772934324 1 -7 -6
678 1 1 0.5897 5.562468731702743 12.86767981917949 19.61617064578857 0 1 -1
558 1 1 0.5897 7.04077430726992 12.245934557993206 17.16549055067103 5 3 -2
424 1 2 -1.1794 7.082324666524883 12.372764469501423 20.37748931092171 10 -7 4
707 1 1 0.5897 6.732302338591631 14.38969923279088 18.091654131256675 1 -7 -6
708 1 1 0.5897 8.207993781318121 14.091341414589953 18.250819739848147 1 -7 -6
575 1 1 0.5897 7.007072320796071 16.242046032838324 20.472341937700307 2 -1 -2
94 1 2 -1.1794 5.692410495023934 16.297272430052296 19.091431813408292 -3 -2 -2
574 1 2 -1.1794 7.853001149258985 16.278443358625978 20.918812756142003 2 -1 -2
161 1 1 0.5897 8.141192050618528 15.500444718774338 16.489261035861 3 6 2
96 1 1 0.5897 5.154352346353287 16.53206530551641 19.847496358546742 -3 -2 -2