LAMMPS data file via write_data, version 30 Jul 2021, timestep = 500000

864 atoms
2 atom types
576 bonds
1 bond types
288 angles
1 angle types

0.3307151810196398 17.87685721898156 xlo xhi
1.481070069416731 22.148107730585927 ylo yhi
0.40347174838288424 21.809724051616577 zlo zhi

Masses

1 1.00794
2 15.9994

Pair Coeffs # lj/cut/tip4p/long/omp

1 0 0
2 0.21084 3.1668

Bond Coeffs # harmonic/omp

1 450 0.9572

Angle Coeffs # harmonic/omp

1 55 104.52

Atoms # full

80 1 1 0.5897 3.953289421291568 6.383621695744677 5.819133393218063 1 1 -4
595 1 2 -1.1794 3.67471769566538 2.111659571036377 3.801575463919377 1 -3 0
675 1 1 0.5897 3.6552799667230724 3.805033256753065 2.764894392138342 -3 -1 -1
231 1 1 0.5897 1.9645760793437386 6.080198864271104 4.210964701024263 2 4 2
79 1 2 -1.1794 3.2949726724667476 6.748749109199845 5.227861717305217 1 1 -4
674 1 1 0.5897 3.637668288758524 4.608864451952409 1.482080135049422 -3 -1 -1
673 1 2 -1.1794 3.5733867804266133 4.699103069204293 2.4328831314181123 -3 -1 -1
529 1 2 -1.1794 2.271951919035047 3.8662742485275525 6.034273038138587 -2 0 -5
81 1 1 0.5897 3.0096056113261285 7.5561370120897715 5.655631003802828 1 1 -4
531 1 1 0.5897 1.6757664387206275 4.3752065951740775 6.5836724891683085 -2 0 -5
848 1 1 0.5897 2.4077208331432645 2.4905559184444996 7.310765624531253 3 0 5
702 1 1 0.5897 4.31795469624395 5.138269494386435 8.367506437602337 4 0 1
483 1 1 0.5897 2.219954851152776 5.43009163460575 8.23796232051316 -1 2 -1
481 1 2 -1.1794 1.3380440715487503 5.555163962820267 7.887423219833234 -1 2 -1
700 1 2 -1.1794 3.7222747853760203 5.06848274275302 9.113557511359211 4 0 1
701 1 1 0.5897 3.559666096094481 5.974441617597031 9.376408018007874 4 0 1
532 1 2 -1.1794 3.9150774675658786 7.903337035055017 2.5029887612588966 -6 -2 -2
653 1 1 0.5897 5.0029591324543015 2.670339098328935 5.031106598178541 -1 0 0
372 1 1 0.5897 5.347692587739234 4.637142146614988 6.329457771606653 4 6 -1
846 1 1 0.5897 5.222408830675928 5.154346649031881 2.9990910380819926 -1 0 3
533 1 1 0.5897 3.9345313313624724 7.504663793183703 3.3730357214680957 -6 -2 -2
370 1 2 -1.1794 5.187463550416015 5.491533594127421 6.730257078404946 4 6 -1
530 1 1 0.5897 2.8251152107080015 4.521734684805432 5.6092140750236865 -2 0 -5
293 1 1 0.5897 5.72999768770744 2.3162196957487895 8.53557074178153 -1 -1 2
229 1 2 -1.1794 1.4020489226608706 5.8056838659119006 3.4867393807801244 2 4 2
230 1 1 0.5897 2.010248691654179 5.511218264155271 2.808740047316812 2 4 2
294 1 1 0.5897 4.3583114247047705 1.8774446221075949 8.06864314306071 -1 -1 2
482 1 1 0.5897 1.1276285965500512 6.4674182197283105 8.086933086235689 -1 2 -1
154 1 2 -1.1794 0.9071257752154155 2.029427072177505 10.154387129919066 4 4 -4
654 1 1 0.5897 5.507566642347961 2.487627101980021 6.4467457510478665 -1 0 0
652 1 2 -1.1794 5.5769928291845705 3.0658945119930596 5.68708611097035 -1 0 0
371 1 1 0.5897 5.9156535648959325 6.0367484805544995 6.4323196274929595 4 6 -1
163 1 2 -1.1794 3.181335813249492 7.665105689641521 9.739378700806721 -4 2 -1
847 1 2 -1.1794 2.6124274315891816 1.9258127441835053 8.056057471230552 3 0 5
624 1 1 0.5897 0.6795712565663263 3.8069974393635073 4.075970076043966 5 -1 2
292 1 2 -1.1794 5.2857201272895225 1.6463056231074333 8.01582904467429 -1 -1 2
123 1 1 0.5897 3.455953298042829 7.576071405458912 0.5505280608501483 1 -2 0
564 1 1 0.5897 0.7907964473665973 8.287852641135611 2.0526746869407493 2 1 4
165 1 1 0.5897 3.29087599598398 8.072613503574392 8.880177525065072 -4 2 -1
164 1 1 0.5897 3.752115530607692 8.169754596957507 10.318868394809227 -4 2 -1
155 1 1 0.5897 1.469564390808315 1.9998000146288715 9.380380911038856 4 4 -4
422 1 1 0.5897 1.010083439491819 2.0574186185684553 1.1467755273114726 -3 1 5
844 1 2 -1.1794 6.156321746168008 5.136927605210365 3.2083659384969483 -1 0 3
623 1 1 0.5897 0.6266426175115868 2.3038094268352607 4.248283624678987 5 -1 2
644 1 1 0.5897 3.5465400101764444 3.708191481028456 10.549541040639893 4 -2 -1
597 1 1 0.5897 2.822549437179364 1.866240365211505 4.16196434969117 1 -3 0
596 1 1 0.5897 3.820785939303253 1.4914933459385402 3.087185475720908 2 -3 0
156 1 1 0.5897 1.453565386879449 2.425691912288675 10.833110148514173 4 4 -4
447 1 1 0.5897 1.8093889336802498 7.516925964444312 11.028331852446685 4 -1 -1
485 1 1 0.5897 11.93288437689491 6.258195606407076 9.813696938190724 -1 1 0
245 1 1 0.5897 6.212141884896558 2.3425253544063898 0.7033475146675666 -3 3 0
101 1 1 0.5897 6.473370558214508 6.421839728744179 4.238180401531361 4 -5 -1
102 1 1 0.5897 6.712827052285577 7.912392894582359 4.352038043009289 4 -5 -1
291 1 1 0.5897 6.785619388550572 3.5676729623271446 2.9388944629624008 -7 -5 -6
289 1 2 -1.1794 6.938606509458299 2.744006735625205 2.4757858409225264 -7 -5 -6
111 1 1 0.5897 7.322932816467237 7.567625803164865 9.20840583585075 0 0 -7
100 1 2 -1.1794 6.6262956486844296 7.117256350873406 4.877935480939238 4 -5 -1
845 1 1 0.5897 6.58731867794292 5.435816796430544 2.407615951489384 -1 0 3
272 1 1 0.5897 7.481318965642758 2.950539903995157 5.18227830984391 -2 3 4
271 1 2 -1.1794 8.425732498636497 2.826410511113965 5.087534281644096 -2 3 4
273 1 1 0.5897 8.678677271858191 2.3139889711360553 5.855474921808044 -2 3 4
357 1 1 0.5897 8.778509018838829 6.304179675009091 1.788714313106019 0 -2 4
207 1 1 0.5897 8.719767559947654 4.861714525762203 5.57031777447318 -4 3 -3
205 1 2 -1.1794 8.855606946605802 5.808858565687838 5.542677674094154 -4 3 -3
290 1 1 0.5897 7.878336887686115 2.5873208659379907 2.568832536917567 -7 -5 -6
733 1 2 -1.1794 9.738111674886479 6.936430075366165 3.0868414797580086 -1 1 -2
734 1 1 0.5897 10.594777393692988 6.526673027509709 2.966328379235811 -1 1 -2
206 1 1 0.5897 7.973161408569349 6.1765486141702635 5.493768149725875 -4 3 -3
735 1 1 0.5897 9.37060411878286 6.502310682544914 3.8567590176955506 -1 1 -2
265 1 2 -1.1794 6.623920073182936 3.229325525064455 9.580800912934333 -3 0 -2
588 1 1 0.5897 8.128808535295374 5.903042060103781 8.572648236630684 0 2 4
110 1 1 0.5897 8.04220823770039 8.19666187518255 8.034087242481114 0 0 -7
587 1 1 0.5897 7.789981471409067 4.444505360099084 8.796087853431363 0 2 4
586 1 2 -1.1794 8.52139797891142 5.061934830626889 8.806547565619159 0 2 4
212 1 1 0.5897 9.965188208337052 4.352503754661651 7.978574498646862 2 1 3
109 1 2 -1.1794 7.454600530508341 7.477024513361249 8.264606831642112 0 0 -7
211 1 2 -1.1794 10.811572483116034 4.008142727785125 7.693356317829293 2 1 3
213 1 1 0.5897 11.374245253210152 4.085808827140287 8.463852916660624 2 1 3
471 1 1 0.5897 9.600090251710377 2.876121778622295 3.612166334868521 1 -3 3
469 1 2 -1.1794 9.845734868947417 2.7118120014371883 2.7016966996217078 1 -3 3
470 1 1 0.5897 10.674803216616635 2.236751703583237 2.758790181020142 1 -3 3
758 1 1 0.5897 10.16723874851634 6.728771919617234 6.700872335510165 0 1 2
233 1 1 0.5897 11.94520588201372 5.1038062877376635 3.969318124183212 -2 1 0
266 1 1 0.5897 7.298091539115973 2.5748970748458424 9.763876974308326 -3 0 -2
87 1 1 0.5897 10.036342181775408 2.003344548578429 7.527603816760461 0 6 3
695 1 1 0.5897 11.486690360390803 3.8855315437017297 6.128737377588462 1 -1 0
757 1 2 -1.1794 10.821357763147828 7.318964835284734 7.075168171823485 0 1 2
484 1 2 -1.1794 11.7507794066307 7.1966272264795315 9.863500102572571 -1 1 0
486 1 1 0.5897 11.154807969573842 7.364529871640545 9.13348311356905 -1 1 0
355 1 2 -1.1794 8.125890782597056 6.028226742474343 1.1451117250491463 0 -2 4
759 1 1 0.5897 10.438662464559401 8.19141816785909 6.9820544476204525 0 1 2
694 1 2 -1.1794 12.015052240330345 3.8565870973391227 5.331054961452049 1 -1 0
716 1 1 0.5897 9.485420444265987 1.51142523394333 10.290924192022242 4 -6 -4
53 1 1 0.5897 9.9391832574203 3.433661855454054 0.8522973634734474 -5 -1 4
790 1 2 -1.1794 11.18176343164132 1.9196732027527665 10.283557609916262 2 5 -1
267 1 1 0.5897 6.340000360167333 3.5294495133096673 10.444279219806932 -3 0 -2
356 1 1 0.5897 8.492243943531513 5.233349690209719 0.7575045693204563 0 -2 4
85 1 2 -1.1794 9.239311579979987 1.537180087944333 7.275186351858752 0 6 3
810 1 1 0.5897 9.306818602190015 4.972830339813109 10.735064476513761 3 0 -1
278 1 1 0.5897 9.206972105763288 8.068500713918986 11.002385083740382 0 0 0
792 1 1 0.5897 11.646790079055405 1.692104270295686 11.088702868424775 2 5 -1
218 1 1 0.5897 17.706370493611686 5.181150911593583 9.201899000847627 4 0 -2
411 1 1 0.5897 16.1246220489547 7.147733417051376 0.7240146612774337 3 3 -4
186 1 1 0.5897 12.810008853059736 8.353322801816136 0.9882500690294118 0 5 4
232 1 2 -1.1794 12.158201590823092 5.638207780402077 3.2042389627703725 -2 1 0
617 1 1 0.5897 15.628726004120884 7.8586742036127175 10.923116112189861 -1 3 0
219 1 1 0.5897 17.735284226979665 3.914824891494669 10.031133599553584 4 0 -2
622 1 2 -1.1794 17.61421148905047 3.078515300146123 4.184036684997155 4 -1 2
747 1 1 0.5897 12.277837085583041 1.8270737878629535 5.501322400261899 1 3 -7
60 1 1 0.5897 12.050205424245513 3.5724532660443855 10.035133728238144 3 -1 -2
58 1 2 -1.1794 12.404440130150896 4.429935939554816 9.799479537468535 3 -1 -2
234 1 1 0.5897 12.722150017124482 6.3322166440237275 3.545722646223768 -2 1 0
663 1 1 0.5897 12.475577342203218 7.61284764718406 6.3762022244289 -3 -4 1
217 1 2 -1.1794 17.214822411758426 4.701623305314513 9.868782315200098 4 0 -2
59 1 1 0.5897 13.30154135211461 4.249948297643272 9.518208657329065 3 -1 -2
185 1 1 0.5897 13.149943265194688 6.93151519827574 1.3819013683332495 0 5 4
684 1 1 0.5897 13.139283453759274 4.285707977975213 2.0633794573282467 4 0 -3
682 1 2 -1.1794 13.759565498937992 3.9237981918440226 1.4304754590757027 4 0 -3
139 1 2 -1.1794 14.108370355350027 7.499457826161999 3.4191049429859843 -2 -2 0
683 1 1 0.5897 13.742939282520798 2.9802233886447302 1.5907529069488906 4 0 -3
141 1 1 0.5897 13.878045825469336 7.844196841524729 4.281893107039776 -2 -2 0
782 1 1 0.5897 17.03101498538033 6.204387542851442 4.111229826055175 -3 1 2
696 1 1 0.5897 12.871475590348703 4.190456707087703 5.598209799982923 1 -1 0
140 1 1 0.5897 14.928252880066825 7.026161210665232 3.5608187596548997 -2 -2 0
783 1 1 0.5897 16.48348701110522 7.166113746109778 5.144353514565168 -3 1 2
781 1 2 -1.1794 16.263563721427793 6.37122241713466 4.65847083631583 -3 1 2
159 1 1 0.5897 15.524147775778438 3.4712082552275145 5.970562447287748 2 2 -2
158 1 1 0.5897 15.498068776376842 4.890414840438334 5.44403653906965 2 2 -2
157 1 2 -1.1794 14.974551695195895 4.090346713087536 5.490030987660827 2 2 -2
198 1 1 0.5897 15.157918666038256 5.520160511495901 7.881211677815118 -3 -2 0
662 1 1 0.5897 13.986033308914772 7.600653448221353 6.478363911781769 -3 -4 1
196 1 2 -1.1794 15.12550384175781 6.441203457346912 7.62252158564082 -3 -2 0
582 1 1 0.5897 15.127787928494087 3.137848159727309 8.129461972246993 -2 -2 0
580 1 2 -1.1794 14.90884456242722 3.7947469354686394 8.790404941417274 -2 -2 0
581 1 1 0.5897 15.681778286645704 3.835397197941777 9.353627608669134 -2 -2 0
197 1 1 0.5897 15.983355551545625 6.7892102235758065 7.86597651138858 -3 -2 0
727 1 2 -1.1794 17.587453722675093 7.87866313945271 8.46758310900057 -2 2 0
479 1 1 0.5897 16.593938048757956 3.8330399974667664 2.912431411109228 -3 3 -4
478 1 2 -1.1794 16.34155765134068 4.3911979721940355 2.1768650110609253 -3 3 -4
480 1 1 0.5897 15.430372193554051 4.157382686540387 1.9997646899483466 -3 3 -4
661 1 2 -1.1794 13.261829440298648 8.025404258130658 6.018567912597705 -3 -4 1
410 1 1 0.5897 16.934539137928752 6.310107009134833 1.6906852104620964 3 3 -4
409 1 2 -1.1794 16.752269075701207 7.216711159963507 1.4434577026750928 3 3 -4
812 1 1 0.5897 14.633857703575513 7.719734465132992 8.889482612847617 -6 6 -3
729 1 1 0.5897 17.539846130554118 8.30525800053459 7.611983762172457 -2 2 0
450 1 1 0.5897 16.99777080174774 2.72056329875762 5.99904763665186 5 -2 -2
448 1 2 -1.1794 16.68477984491779 2.4244191191729327 6.853810032097904 5 -2 -2
449 1 1 0.5897 16.25485581345085 1.5879912343447709 6.675347374265257 5 -2 -2
811 1 2 -1.1794 14.28170346018393 8.154784209163502 9.666025168411924 -6 6 -3
151 1 2 -1.1794 14.602199704236469 1.7086920955877247 3.259558616684959 2 0 0
153 1 1 0.5897 14.674364790223535 2.252226395897443 4.044199591197792 2 0 0
284 1 1 0.5897 17.53116490953206 3.8598927806381145 0.9777886886904725 4 0 -2
813 1 1 0.5897 13.447527233026115 7.714843679894208 9.830045366079785 -6 6 -3
47 1 1 0.5897 15.172497786584874 1.5341460373062112 10.083941902056528 2 -1 -2
184 1 2 -1.1794 12.892547601011339 7.468511569688624 0.6324499619588541 0 5 4
563 1 1 0.5897 2.2523495238954876 8.530166914678674 2.364461490675403 2 1 4
438 1 1 0.5897 5.312150964901478 9.285607225147452 10.931068641759195 -1 5 0
670 1 2 -1.1794 2.8142653969020532 14.260712882632872 1.1732003262928241 5 1 1
671 1 1 0.5897 2.6489393791293323 15.195804618681674 1.2938754787857967 5 1 1
534 1 1 0.5897 4.740031812613532 8.384927434232287 2.441170968070988 -6 -2 -2
562 1 2 -1.1794 1.389728243378068 8.942375306595125 2.4120900825173988 2 1 4
394 1 2 -1.1794 2.4540014928548333 10.9713295900087 1.0464935752677331 2 1 5
672 1 1 0.5897 2.5173299472153206 13.85726205007009 1.988887601397487 5 1 1
117 1 1 0.5897 4.069235177615281 11.182271469679591 9.709916750857305 -2 -3 4
64 1 2 -1.1794 3.0130814735384215 8.736856796243227 7.194334786973604 3 1 -2
65 1 1 0.5897 3.8420071687414046 9.214966757076986 7.169969773094601 3 1 -2
501 1 1 0.5897 3.403281533174082 13.716715217602099 3.9224937039463676 0 -1 -2
499 1 2 -1.1794 2.4597238061518323 13.590343335482503 3.822356961229017 0 -1 -2
500 1 1 0.5897 2.1714751094828877 13.252671559332336 4.6704063078966485 0 -1 -2
239 1 1 0.5897 4.077476493218024 11.43818378061273 4.36467842674686 -4 -4 -1
238 1 2 -1.1794 3.8981745182161904 11.385348495180853 5.303485665111448 -4 -4 -1
240 1 1 0.5897 3.007330804299298 11.039427347978446 5.358584902606074 -4 -4 -1
646 1 2 -1.1794 1.20837134246421 10.638445258757393 4.707938754462492 -4 0 0
466 1 2 -1.1794 5.0571312413234475 12.999468907055485 7.073122237928121 5 -2 6
468 1 1 0.5897 4.695609176701206 12.374853762976134 6.444269371733754 5 -2 6
467 1 1 0.5897 4.593672539030297 13.817326973284786 6.892533172718048 5 -2 6
554 1 1 0.5897 1.1832376265943612 12.303204597677146 6.6789772387976925 -4 -5 3
553 1 2 -1.1794 1.1901168382689544 13.193981348868657 6.328592238735515 -4 -5 3
66 1 1 0.5897 2.3511325493431268 9.411690433835119 7.345075923106253 3 1 -2
287 1 1 0.5897 2.0888110741142283 11.161048299118672 8.597225096534405 3 1 1
286 1 2 -1.1794 1.4697000640034077 10.83471912481269 7.944149217591177 3 1 1
288 1 1 0.5897 0.6275649713516853 10.818252577873562 8.398934171710774 3 1 1
115 1 2 -1.1794 3.514337365674172 11.891303994249588 9.38486189255877 -2 -3 4
116 1 1 0.5897 3.970080859514894 12.215919691170344 8.608187781667203 -2 -3 4
691 1 2 -1.1794 4.60514203493314 11.651441939491905 2.6483151929198594 2 0 3
692 1 1 0.5897 3.8464490764565835 11.38794798700056 2.1274974546675116 2 0 3
648 1 1 0.5897 1.309588411941228 10.060130259134887 3.9518938901418075 -4 0 0
93 1 1 0.5897 5.836380163867738 13.751853340852529 3.5744407292718883 1 -5 2
91 1 2 -1.1794 5.192441707753431 14.449598189256582 3.6960768444323078 1 -5 2
25 1 2 -1.1794 3.1886595105005022 15.060595469366929 7.245270040248339 -1 7 6
303 1 1 0.5897 5.544435403498931 10.141311284326726 2.9267003941677188 -2 1 7
693 1 1 0.5897 5.011782847636406 12.354311071766967 2.141448818696471 2 0 3
396 1 1 0.5897 2.128259899815176 10.101878391943833 1.2794045080707046 2 1 4
647 1 1 0.5897 0.4148401552223332 11.14034344343428 4.5216477083231945 -4 0 0
27 1 1 0.5897 2.432052232531591 14.516706160346796 7.026113590333284 -1 7 6
28 1 2 -1.1794 5.619777816268482 9.563656076428984 7.389097829837235 -6 -1 5
555 1 1 0.5897 0.35289525362930235 13.566962458878649 6.604719771335054 -4 -5 3
137 1 1 0.5897 3.929133186614996 14.800582551152258 9.174620439240876 7 -6 1
136 1 2 -1.1794 4.336390519828999 15.191967675115418 9.947439634713906 7 -6 1
92 1 1 0.5897 5.2920495424481455 15.005509070168896 2.9231984084780143 1 -5 2
536 1 1 0.5897 2.433698397864924 12.353900464178716 10.805401770660957 5 6 2
395 1 1 0.5897 1.7277701867801059 11.561561137884121 1.2477783878585464 2 1 5
134 1 1 0.5897 1.0761051214206627 14.825106504528717 3.5349784692321182 0 -5 -1
138 1 1 0.5897 4.824141195335106 14.474089027834383 10.351235346157596 7 -6 1
29 1 1 0.5897 6.0527198584127655 9.92250664808305 6.614456168020839 -6 -1 5
30 1 1 0.5897 6.077643847183454 8.740645687643317 7.560295761765929 -6 -1 5
436 1 2 -1.1794 4.551362353435222 9.844525046051553 11.089457558233791 -1 5 0
719 1 1 0.5897 4.574937808528356 13.751696285570024 0.6775049663272908 4 5 0
583 1 2 -1.1794 5.962335741360212 13.185014838436679 11.070581677874602 1 -4 1
718 1 2 -1.1794 5.399493543471827 13.289517545198809 0.5265091876103951 4 5 0
585 1 1 0.5897 6.488937802223666 12.533652468953786 10.607214690572642 1 -4 1
277 1 2 -1.1794 9.135090621161108 8.962919234011256 10.669000842221458 0 0 0
561 1 1 0.5897 9.81848903003514 8.757698286742755 2.8713772007065486 4 0 2
301 1 2 -1.1794 6.2677415131165235 9.516534331357722 2.9793225191145645 -2 1 7
302 1 1 0.5897 6.601398135093797 9.459693638368357 2.083922344112275 -2 1 7
664 1 2 -1.1794 10.166324280734232 13.692364808365078 10.98786732775833 0 1 3
56 1 1 0.5897 6.737894906656535 13.005256930353092 6.536998984347476 -2 0 1
528 1 1 0.5897 7.335682584832738 10.042103044500232 4.377292409368813 -3 -5 1
526 1 2 -1.1794 7.427826118611093 10.21191459522 5.314827497293922 -3 -5 1
527 1 1 0.5897 7.322871603216963 11.159686900227623 5.398521796447979 -3 -5 1
242 1 1 0.5897 6.479799289554485 10.92353603143584 8.690424595314768 -1 -2 2
241 1 2 -1.1794 7.118925277703663 11.391586365272289 9.227769169694145 -1 -2 2
461 1 1 0.5897 7.471965464484889 10.932869473953053 0.670887125714212 2 3 -2
630 1 1 0.5897 11.100179326602943 11.204768260524807 9.2159020815047 -1 -3 3
243 1 1 0.5897 7.784244645745175 10.735459402522665 9.435483041700026 -1 -2 2
296 1 1 0.5897 10.081400425088123 10.949688515145287 4.156866180285444 -1 3 2
559 1 2 -1.1794 9.789328054907573 9.714317255089687 2.8894864481553793 4 0 2
560 1 1 0.5897 9.124630354268165 9.946492297639226 2.240989304948621 4 0 2
460 1 2 -1.1794 8.195813802303133 11.423862649474076 1.0598189500439963 2 3 -2
462 1 1 0.5897 7.806563020929939 11.869643674419674 1.8121816669780304 2 3 -2
55 1 2 -1.1794 7.441901484473526 13.038892131283996 5.889277819187734 -2 0 1
57 1 1 0.5897 8.20290443166451 13.35243901121456 6.37801394461482 -2 0 1
309 1 1 0.5897 8.488153813939695 9.686426342617937 6.675496871909709 1 4 -2
538 1 2 -1.1794 7.561046475141682 13.067858027967182 3.1152966207710877 -3 -3 1
539 1 1 0.5897 7.878698513344789 13.020788029171406 4.017056568115213 -3 -3 1
308 1 1 0.5897 9.440442826679117 10.246220262771056 7.7107962024154695 1 4 -2
540 1 1 0.5897 8.102794827246399 13.741921677931781 2.704885110405831 -3 -3 1
307 1 2 -1.1794 9.130116889374811 9.422489486563851 7.334676873731924 1 4 -2
250 1 2 -1.1794 8.262715120986844 13.872958188778608 8.834395418683533 4 -4 2
628 1 2 -1.1794 10.285778518343436 11.671552478112446 9.028380549157273 -1 -3 3
210 1 1 0.5897 10.201185597538053 12.7840121764447 5.989807216811857 0 -2 2
251 1 1 0.5897 7.9368977519483925 12.973685107015156 8.872501470366641 4 -4 2
252 1 1 0.5897 8.846208252362452 13.949010418839798 9.589413631862072 4 -4 2
629 1 1 0.5897 10.224165425457798 12.333063994519817 9.717515245192711 -1 -3 3
209 1 1 0.5897 10.154722870612318 12.747068400511878 7.502600122350891 0 -2 2
208 1 2 -1.1794 10.17204515688628 13.351243422677504 6.760327219572778 0 -2 2
295 1 2 -1.1794 10.46929621930508 11.641479466364395 4.692830880479358 -1 3 2
819 1 1 0.5897 11.500781547961658 9.919521388879055 1.7503304595565619 3 -2 0
297 1 1 0.5897 11.065387470751386 11.181430277123944 5.283868847111137 -1 3 2
458 1 1 0.5897 11.993087264936335 13.087488634841472 1.6608262995957053 -1 0 -2
686 1 1 0.5897 11.848648562896521 11.988715199802728 3.4903720444704773 8 -6 -3
457 1 2 -1.1794 11.560800300251445 13.465039200867347 0.8947475130220779 -1 0 -2
770 1 1 0.5897 15.75164280487746 15.202259367308018 0.6713142171219605 3 -1 1
817 1 2 -1.1794 12.230669991277596 10.131374994292305 1.1683669487332862 3 -1 0
728 1 1 0.5897 17.44765906099449 8.586414573219095 9.096743792449853 -2 2 0
473 1 1 0.5897 17.42416768891099 12.749878810289884 10.62937824696673 0 0 -3
221 1 1 0.5897 17.639070731202523 9.500293568982059 5.524431327154872 2 -3 3
836 1 1 0.5897 16.619511133608533 10.59167835085313 10.421279500141797 -2 1 -2
474 1 1 0.5897 17.254722807806196 14.242638148270423 10.816521025500807 0 0 -3
773 1 1 0.5897 12.21712920671865 13.62838824859569 7.55440687412959 2 -5 3
71 1 1 0.5897 16.22415415690689 9.240845925806687 2.188079504209532 4 3 -4
72 1 1 0.5897 14.762738003453796 8.941809713511002 2.446748581408881 4 3 -4
842 1 1 0.5897 13.138763156267439 9.655519203751489 9.572119287090079 -3 2 1
428 1 1 0.5897 12.815237940093011 9.672797494343296 6.332338687779286 1 0 -3
843 1 1 0.5897 13.360815565404996 11.1529839786693 9.590960405630542 -3 2 1
429 1 1 0.5897 12.629199148429223 10.691440609214029 7.4367956239859145 1 0 -3
427 1 2 -1.1794 12.660235890497072 10.605150663191923 6.4839625565195425 1 0 -3
220 1 2 -1.1794 16.81661333846396 9.089156341576171 5.790567022627926 2 -3 3
685 1 2 -1.1794 12.572920766865876 12.144972062913698 2.884307201343317 8 -6 -3
145 1 2 -1.1794 17.716421145409782 12.577664220473423 1.511690381514542 -1 1 -3
687 1 1 0.5897 12.56449774265391 11.386995578489168 2.2997655777162427 8 -6 -3
70 1 2 -1.1794 15.36222805693685 9.65531416158705 2.228063672045156 4 3 -4
761 1 1 0.5897 15.544008488949478 12.039222899547008 4.4562379609667975 0 -4 -1
762 1 1 0.5897 15.822510419694542 11.023739364458834 3.368445618067564 0 -4 -1
147 1 1 0.5897 17.54192981575183 12.71842124664545 2.442298639062297 -1 1 -3
760 1 2 -1.1794 16.25790806211612 11.633141971286054 3.964565457994657 0 -4 -1
805 1 2 -1.1794 14.193199052238754 13.200910595685578 5.05012962446406 1 -2 -3
806 1 1 0.5897 13.734812890767046 12.856794933621904 4.283470689748007 1 -2 -3
222 1 1 0.5897 16.27547794495002 9.81464474721982 6.102234504420801 2 -3 3
772 1 2 -1.1794 13.141805800572437 13.397371822357933 7.643316185383532 2 -5 3
774 1 1 0.5897 13.45304806547737 13.302262774861136 6.743103495933307 2 -5 3
472 1 2 -1.1794 16.863276639311714 13.484982284248636 10.381752550870411 0 0 -3
4 1 2 -1.1794 16.375046180710548 14.018396509303958 7.582527891925972 2 0 0
837 1 1 0.5897 16.024691567777836 10.992634991638408 9.088055170618722 -2 1 -2
5 1 1 0.5897 16.603375952440764 13.877964316137984 8.501458598314077 2 0 0
835 1 2 -1.1794 16.794142776913965 10.579744736854165 9.480183733078768 -2 1 -2
99 1 1 0.5897 14.26682527779689 12.782368508774622 9.217889230675901 2 -7 6
21 1 1 0.5897 14.447683103212729 11.066438416970879 6.89306441232431 -4 -4 1
19 1 2 -1.1794 15.370760006238134 11.224362979482395 7.091270201997115 -4 -4 1
20 1 1 0.5897 15.48169568971257 12.16875979626998 6.981231960036528 -4 -4 0
841 1 2 -1.1794 12.7582048087089 10.481039103273027 9.272133247324568 -3 2 1
97 1 2 -1.1794 14.31356353732468 12.720334750238923 10.171969069004529 2 -7 6
98 1 1 0.5897 15.218920537085875 12.948360200346098 10.38323387504737 2 -7 6
807 1 1 0.5897 14.619677045625041 13.998547032161287 4.736771393048266 1 -2 -3
6 1 1 0.5897 15.681481570322923 14.677741339379686 7.605619594602165 2 0 0
362 1 1 0.5897 13.555758059727923 15.232145348548253 7.738308275166581 3 -3 -1
237 1 1 0.5897 13.190537710407646 13.94069496763955 10.913225445477744 0 -2 -4
797 1 1 0.5897 15.83926882395693 10.316569574143527 0.5108675863907153 0 -4 -3
689 1 1 0.5897 13.789183863766661 14.87322748530253 0.500935576996986 2 -1 4
146 1 1 0.5897 17.01190751123459 11.99884555354731 1.2202789489104173 -1 1 -3
771 1 1 0.5897 16.97995586862475 14.327099043485552 0.8032572750465012 3 -1 1
823 1 2 -1.1794 0.898410870237983 19.906602701679855 11.008338774436982 -1 3 2
421 1 2 -1.1794 1.0068569705242687 21.774494400288933 1.2644898246774896 -3 0 5
710 1 1 0.5897 1.8984452474976126 17.129238016503244 0.6452528569522895 -5 -2 -1
572 1 1 0.5897 4.863948703196444 20.36432050826771 10.487286547954476 2 -3 -3
26 1 1 0.5897 2.83855823447799 15.950145308080494 7.294574143910478 -1 7 6
711 1 1 0.5897 2.806646718639886 17.24615750198374 1.8508936505529905 -5 -2 -1
150 1 1 0.5897 5.527146302574981 15.790106069928108 4.73466322262693 -4 -1 1
849 1 1 0.5897 2.3841218111998974 21.711837349842572 7.75942452484252 3 -1 5
10 1 2 -1.1794 5.69306164244162 16.430318905353875 1.816759061504784 -3 0 6
119 1 1 0.5897 3.765995215730011 20.281418893336554 1.5927093896457385 3 -3 -1
612 1 1 0.5897 4.649296715595696 17.74172852332718 5.389963412361185 4 2 -1
611 1 1 0.5897 4.692693991426912 19.22301514245332 5.699746902555212 4 2 -1
610 1 2 -1.1794 4.128182439473919 18.542636686383425 5.332715069139002 4 2 -1
709 1 2 -1.1794 1.9696025084487139 16.879055921790187 1.5664732384922178 -5 -2 -1
311 1 1 0.5897 3.916840920122882 18.760102589829135 3.393417925668052 -1 2 2
310 1 2 -1.1794 4.274734575992952 18.81053138688132 2.5070380183487306 -1 2 2
855 1 1 0.5897 3.0251996486295005 17.83456834935108 6.525909264482904 -3 0 1
649 1 2 -1.1794 1.9301506907935837 20.294139177097094 6.971825673595582 1 -1 0
788 1 1 0.5897 2.944348460854549 17.99908541410703 10.380860676332988 3 -1 6
650 1 1 0.5897 2.132071637623569 19.36317802150069 6.87787437737935 1 -1 0
789 1 1 0.5897 3.623752197778434 19.013673535727957 9.485827312445496 3 -1 6
853 1 2 -1.1794 2.295087159140498 17.56075147727457 7.08112160504891 -3 0 1
854 1 1 0.5897 2.504171555627703 17.916013373577602 7.945050584332919 -3 0 1
787 1 2 -1.1794 2.834225055965266 18.477411407469564 9.55904756198402 3 -1 6
573 1 1 0.5897 5.327829902823146 20.813280613589917 9.117866764085152 2 -3 -3
571 1 2 -1.1794 5.286675790573063 20.04651112919861 9.689414580298113 2 -3 -3
312 1 1 0.5897 5.098013560511854 19.288468113423658 2.6074637552646354 -1 2 2
11 1 1 0.5897 5.406646001356035 17.241864073069845 2.23586447935281 -3 0 6
431 1 1 0.5897 1.4954653319676545 20.95366424692647 5.308600847936749 -5 -3 -2
135 1 1 0.5897 0.44734495049227957 15.81381936578641 2.576241309491068 0 -5 -1
824 1 1 0.5897 1.4921849833468919 19.531429399608545 10.357972352845643 -1 3 2
552 1 1 0.5897 5.674505909807659 15.680786066482964 8.660129233640053 -2 5 -3
120 1 1 0.5897 2.7859707361054737 21.434993284599614 1.563036281690273 3 -3 -1
118 1 2 -1.1794 3.679625846552963 21.194452915367822 1.3184634506720458 3 -3 -1
317 1 1 0.5897 0.562649647445961 17.271253724216855 6.17155756110678 -5 -5 0
651 1 1 0.5897 1.036943629654139 20.312494876370437 7.315533208885501 1 -1 0
430 1 2 -1.1794 1.2313639922451594 21.361209902986715 4.483702593736652 -5 -3 -2
263 1 1 0.5897 5.795274536020276 20.968601513071913 6.903655248891117 3 -3 4
432 1 1 0.5897 0.5167406285357214 20.81135586081258 4.162341658614484 -5 -3 -2
12 1 1 0.5897 5.649674885783197 16.616327697445573 0.8787719149811319 -3 0 6
148 1 2 -1.1794 5.8235218774411095 16.51088841526902 5.290481518301331 -4 -1 1
262 1 2 -1.1794 6.028845737132736 20.2755792839848 6.286025995833302 3 -3 4
149 1 1 0.5897 5.912737817385241 16.12196742418714 6.160585821224123 -4 -1 1
825 1 1 0.5897 0.7433441083473923 20.800867722439857 10.704130333257222 -1 3 2
791 1 1 0.5897 11.65300411466636 22.119154496922825 9.593903751705188 2 4 -1
715 1 2 -1.1794 8.617843370763438 22.130796117767545 9.88925506551322 4 -7 -4
516 1 1 0.5897 10.054571108783312 15.414357221927016 1.7735734200987303 -4 -4 0
514 1 2 -1.1794 9.15487051910418 15.281220069157825 2.072082778928549 -4 -4 0
24 1 1 0.5897 10.439677977656428 15.275485158199904 5.882419966548715 -3 3 2
551 1 1 0.5897 7.103548637279929 15.308842994994263 8.32612478109349 -2 5 -3
550 1 2 -1.1794 6.423624123180163 15.953556412533208 8.130301551971495 -2 5 -3
717 1 1 0.5897 8.790632786676747 21.94635779354991 8.965985089193625 4 -7 -4
756 1 1 0.5897 6.891633561832918 19.47371632569294 10.303694502571908 -3 -3 -3
515 1 1 0.5897 9.09339084366217 15.787462609432506 2.882162538562202 -4 -4 0
737 1 1 0.5897 6.2690297194361975 20.609518208157578 4.1736190379120295 1 -2 -1
755 1 1 0.5897 8.075887222276396 20.4083644078004 10.430339955317574 -3 -3 -3
754 1 2 -1.1794 7.832178477717202 19.484084675764414 10.48134761073404 -3 -3 -3
833 1 1 0.5897 11.381448043288446 16.745368333456526 1.4454867402112295 2 -3 1
23 1 1 0.5897 10.005370831689502 16.460239144640255 5.04587647191812 -3 3 2
768 1 1 0.5897 10.067421984936555 19.37118661022052 6.36165690258757 -3 -2 2
22 1 2 -1.1794 10.737005632498809 16.1288027998558 5.566603008215368 -3 3 2
742 1 2 -1.1794 8.552452891733122 16.86886489706496 4.183715046630454 -2 -1 0
743 1 1 0.5897 7.658083814836782 16.89318962435234 4.524013796532505 -2 -1 0
744 1 1 0.5897 8.662021723477167 17.7081385775432 3.7365976272064647 -2 -1 0
738 1 1 0.5897 6.4653174237754705 21.608876619756767 3.05343648040215 1 -2 -1
736 1 2 -1.1794 6.321167019923262 20.677371605812045 3.220218729148946 1 -2 -1
576 1 1 0.5897 7.912239087457714 19.971792038333906 2.946747768123879 2 0 0
574 1 2 -1.1794 8.675266920208182 19.393901500398044 2.957776406622398 2 0 0
575 1 1 0.5897 9.175284495967103 19.671236752775187 3.72547558865491 2 0 0
86 1 1 0.5897 9.55050087316739 21.45226744970455 6.771170476224194 0 5 3
491 1 1 0.5897 7.081508620236752 17.591748099039183 7.928574491618055 1 3 4
492 1 1 0.5897 7.521575019105923 18.870305671041347 8.609530211782172 1 3 4
490 1 2 -1.1794 7.607617684324485 18.379701987252275 7.792095646749533 1 3 4
264 1 1 0.5897 6.57272020428927 19.674086994891788 6.794660537667305 3 -3 4
383 1 1 0.5897 9.542854548677195 18.018030892772508 7.5713862710461175 -8 -2 -2
382 1 2 -1.1794 10.482278312539192 18.072815757616546 7.395949277201621 -8 -2 -2
384 1 1 0.5897 10.644846414629027 17.390966305727314 6.744066381419608 -8 -2 -2
557 1 1 0.5897 11.486977778458103 18.402837993012874 8.91292011506472 1 2 2
767 1 1 0.5897 10.829735178537753 20.360347150710158 5.505805141514063 -3 -2 2