LAMMPS (30 Jul 2021)
Processor partition = 1
  using 4 OpenMP thread(s) per MPI task
using multi-threaded neighbor list subroutines
variable        pid world 0 1
variable        phase world IceVI IceV

shell cd ${phase}
shell cd IceV
include Restart.lmp
echo both
log log.lammps
#include		in.partitions
include		in.temp
variable        temperature equal 88.27
variable	tempDamp equal 100.0
include		in.pressure
variable        pressure equal 8234.6
variable        pressureDamp equal 1000.0 # This is 1 ps
include		in.seed
variable        seed equal 745823

units		real
atom_style	full
read_restart    restart.lmp.${pid}
read_restart    restart.lmp.1
Reading restart file ...
  restart file = 30 Jul 2021, LAMMPS = 30 Jul 2021
  restoring atom style full from restart
  triclinic box = (-3.1469330 0.050317529 0.045706306) to (14.756932 22.529681 19.184292) with tilt (-0.27053383 -6.7294542 0.28529138)
  2 by 4 by 2 MPI processor grid
  restoring pair style lj/cut/tip4p/long/omp from restart
  restoring bond style harmonic/omp from restart
  restoring angle style harmonic/omp from restart
  1008 atoms
  672 bonds
  336 angles
Finding 1-2 1-3 1-4 neighbors ...
  special bond factors lj:    0        0        0       
  special bond factors coul:  0        0        0       
     2 = max # of 1-2 neighbors
     1 = max # of 1-3 neighbors
     1 = max # of 1-4 neighbors
     2 = max # of special neighbors
  special bonds CPU = 0.001 seconds
  read_restart CPU = 0.006 seconds

include 	in.setup
variable	out_freq equal 1000
variable	out_freq2 equal 10000
variable	out_freq3 equal 1000

timestep	2.0

neigh_modify    delay 7 every 1

include		in.tip4p
# This is TIP4P/Ice

# create groups ###
group ox type 2
336 atoms in group ox
group hy type 1
672 atoms in group hy

# set charges - beside manually ###
set group ox charge -1.1794
Setting atom values ...
  336 settings made for charge
set group hy charge 0.5897
Setting atom values ...
  672 settings made for charge

# ### TIP3P Potential Parameters ###
pair_style lj/cut/tip4p/long/omp 2 1 1 1 0.1577 8.5
pair_coeff 1 1*2 0.000 0.000
pair_coeff 2 2 0.21084 3.1668
bond_style  harmonic
bond_coeff  1 450 0.9572
angle_style harmonic
angle_coeff 1 55 104.52
kspace_style pppm/tip4p/omp 1.0e-5
pair_modify tail yes

thermo          ${out_freq}
thermo          1000
thermo_style    custom step temp pe etotal epair emol press lx ly lz vol pxx pyy pzz pxy pxz pyz enthalpy

restart 	${out_freq3} restart.lmp.${pid} restart2.lmp.${pid}
restart 	1000 restart.lmp.${pid} restart2.lmp.${pid}
restart 	1000 restart.lmp.1 restart2.lmp.${pid}
restart 	1000 restart.lmp.1 restart2.lmp.1


include         in.dump
dump            myDump all atom ${out_freq2} dump.water.${pid}
dump            myDump all atom 10000 dump.water.${pid}
dump            myDump all atom 10000 dump.water.1
dump            myDump2 all dcd ${out_freq2} dump.dcd
dump            myDump2 all dcd 10000 dump.dcd
dump_modify     myDump append yes
dump_modify     myDump2 append yes


variable natoms 	equal  "count(all)"                        # NUMBER ATOMS
variable H      	equal  "enthalpy/v_natoms"                 # ENTHALPY-per-atom
variable Vol      	equal  "vol/v_natoms"                 # volume-per-atom
fix AVG all 		ave/time ${out_freq} 1 ${out_freq} v_Vol v_H file vol_enthalpy.dat
fix AVG all 		ave/time 1000 1 ${out_freq} v_Vol v_H file vol_enthalpy.dat
fix AVG all 		ave/time 1000 1 1000 v_Vol v_H file vol_enthalpy.dat



fix 		1 all shake 1e-6 200 0 b 1 a 1
Finding SHAKE clusters ...
       0 = # of size 2 clusters
       0 = # of size 3 clusters
       0 = # of size 4 clusters
     336 = # of frozen angles
  find clusters CPU = 0.000 seconds
fix             2 all nph tri ${pressure} ${pressure} ${pressureDamp}
fix             2 all nph tri 8234.6 ${pressure} ${pressureDamp}
fix             2 all nph tri 8234.6 8234.6 ${pressureDamp}
fix             2 all nph tri 8234.6 8234.6 1000
fix             3 all temp/csvr ${temperature} ${temperature} ${tempDamp} ${seed}
fix             3 all temp/csvr 88.27 ${temperature} ${tempDamp} ${seed}
fix             3 all temp/csvr 88.27 88.27 ${tempDamp} ${seed}
fix             3 all temp/csvr 88.27 88.27 100 ${seed}
fix             3 all temp/csvr 88.27 88.27 100 745823


run             250000
PPPM initialization ...
  extracting TIP4P info from pair style
  using 12-bit tables for long-range coulomb (../kspace.cpp:340)
  G vector (1/distance) = 0.38047756
  grid = 24 27 32
  stencil order = 5
  estimated absolute RMS force accuracy = 0.0023254535
  estimated relative force accuracy = 7.0030341e-06
  using double precision FFTW3
  3d grid and FFT values/proc = 7875 1344
Last active /omp style is kspace_style pppm/tip4p/omp
Neighbor list info ...
  update every 1 steps, delay 7 steps, check yes
  max neighbors/atom: 2000, page size: 100000
  master list distance cutoff = 10.8154
  ghost atom cutoff = 10.8154
  binsize = 5.4077, bins = 5 5 4
  1 neighbor lists, perpetual/occasional/extra = 1 0 0
  (1) pair lj/cut/tip4p/long/omp, perpetual
      attributes: half, newton on, omp
      pair build: half/bin/newton/tri/omp
      stencil: half/bin/3d/tri
      bin: standard
Setting up Verlet run ...
  Unit style    : real
  Current step  : 35250000
  Time step     : 2
Per MPI rank memory allocation (min/avg/max) = 12.46 | 12.47 | 12.48 Mbytes
Step Temp PotEng TotEng E_pair E_mol Press Lx Ly Lz Volume Pxx Pyy Pzz Pxy Pxz Pyz Enthalpy 
35250000    89.723565    -5198.064   -5018.6057    -5198.064            0    8983.1803    17.903865    22.479364    19.138585    7702.6585    7567.5169    9307.5835     10074.44    775.38017    -291.8621   -513.39797   -4009.4768 
35251000    88.027002    -5205.442   -5029.3772    -5205.442            0    9076.9532    17.724402    22.751301    19.060507    7686.2105     10013.65     8276.639    8940.5712   -498.89243   -44.280694    -650.5579   -4011.8916 
35252000    86.558362   -5193.9352   -5020.8077   -5193.9352            0    9974.1987    17.761698    22.775711    18.947372    7664.8811    9516.3959    9363.5589    11042.641    876.75399    576.29229    677.10945   -3905.8476 
35253000    84.154451   -5205.3766   -5037.0573   -5205.3766            0    6989.2197    17.891805    22.536882    19.192962    7739.0915    6934.0824    7174.2351    6859.3416    707.11921   -235.09029    457.23421    -4248.207 
35254000    84.651731    -5212.894     -5043.58    -5212.894            0    7744.2906    17.850421    22.582821    19.149927     7719.582    7507.4262    7985.7037     7739.742   -363.54183   -147.17564    153.77738   -4171.7109 
35255000    89.051148   -5205.5473    -5027.434   -5205.5473            0    8071.4786    17.716963    22.826555    19.077484    7715.2634    8383.7034    7462.7439    8367.9886    303.70674    544.78765   -625.65778   -4119.2376 
35256000    91.991391   -5210.1365   -5026.1424   -5210.1365            0    7648.7517     17.82963     22.71671    19.084459    7729.7885    7088.7216    7834.4316    8023.1019   -599.68906    223.65533   -644.57193   -4163.8907 
35257000    86.174665   -5205.1419   -5032.7819   -5205.1419            0    6963.4933    17.909702    22.553846    19.173003    7744.6021    6606.5259    7239.8365    7044.1174    138.91327   -350.48756    534.21681   -4246.2757 
35258000    85.156591   -5197.0108   -5026.6871   -5197.0108            0    8542.1266     17.89707     22.60243    19.060282    7710.2132    6163.5099    9351.6184    10111.251   -157.28513     9.293412   -784.04685   -4066.1629 
35259000    92.061361    -5199.114     -5014.98    -5199.114            0    8569.4431    17.763049     22.73842    19.055438    7696.5615    8831.6777    8440.1706    8436.4812   -447.94734    79.702979    679.29406   -4053.0903 
35260000     88.50103   -5198.8188   -5021.8058   -5198.8188            0    8677.2379    17.880872    22.638089    19.017748    7698.1709    8753.2092    8817.8435     8460.661    373.19617   -141.60959    52.404834   -4047.6129 
35261000    86.414875   -5203.0361   -5030.1957   -5203.0361            0    8929.3265    17.845294    22.656379    19.032683    7695.0995    9949.7679    7912.1091    8926.1024    482.67691   -302.54069   -156.11492   -4028.1008 
35262000    91.183901   -5198.6635   -5016.2845   -5198.6635            0    7255.2366    17.751099    22.634821    19.238119    7729.7405    7987.5536    7581.7341     6196.422   -232.45278   -275.61953    -506.8245   -4198.3992 
35263000    96.495252   -5212.6603   -5019.6578   -5212.6603            0    7611.0221     17.83754     22.78047    19.062325     7745.929    8087.1168    6995.2414    7750.7082    139.67327    153.81877    191.95848   -4159.8678 
35264000    89.811075   -5207.7797   -5028.1465   -5207.7797            0    8089.1067    17.797177    22.639653    19.110031    7699.8502    7139.7238    8131.1579    8996.4384   -335.12483    102.61953   -49.281035    -4119.785 
35265000    88.753922   -5207.3243   -5029.8055   -5207.3243            0    8072.3342    17.790294    22.626886    19.171565    7717.3015    8344.1637    8318.2275    7554.6115     771.5766    692.97219    306.15316    -4121.273 
35266000    87.722289   -5196.0624   -5020.6069   -5196.0624            0    9727.7386    17.740556    22.623696     19.08998    7661.8964    8351.4152    10513.516    10318.285    415.89493    754.62645     1933.285   -3933.6207 
35267000    86.724535   -5201.9445   -5028.4847   -5201.9445            0    8054.1288    17.760547    22.669883    19.157274    7713.2843    7994.5121    8113.1802    8054.6942     43.96517   -47.605631   -453.63531    -4122.473 
35268000    89.928342   -5215.2894   -5035.4216   -5215.2894            0     7572.632      17.7773     22.67202    19.107626    7701.2775    7541.6261    7581.0938    7595.1763   -432.22485   -703.80493   -355.21221   -4184.8996 
35269000    88.233421   -5206.0757   -5029.5979   -5206.0757            0    7748.3469     17.77957    22.568831    19.237453    7719.2995    8114.1852    8547.9486    6582.9069    226.31065    120.95602   -943.57645    -4157.304 
35270000    87.639724   -5206.9755   -5031.6852   -5206.9755            0    7788.6062    17.794923    22.740518    19.093907    7726.6506    7246.5807     7898.724    8220.5138   -377.51333    803.73009    500.92194    -4154.024 
35271000    85.698111   -5207.7282   -5036.3214   -5207.7282            0     8355.414    17.770002    22.768975    19.032705    7700.7226    7943.4064    8451.1708    8671.6649   -454.29857   -51.456273   -502.47987   -4097.9487 
35272000    90.909871   -5211.3025   -5029.4715   -5211.3025            0    7831.6074    17.839317    22.606949    19.150353     7723.194    6794.0553     8604.922    8095.8448   -359.91526    161.17433   -876.89721   -4147.3595 
35273000     86.21131   -5212.5391   -5040.1059   -5212.5391            0    7030.6127     17.80822    22.666401    19.165498    7736.1199    7090.0931    7450.2407    6551.5044    1167.7603    501.92308    1078.5296   -4246.8884 
35274000    92.114796   -5198.0015   -5013.7606   -5198.0015            0    7459.9191    17.815218    22.682042    19.112711    7723.1696    8622.4506    7387.5774    6369.7293   -116.12086   -155.02111   -1036.1601   -4173.5163 
35275000     87.60362   -5193.9651    -5018.747   -5193.9651            0    9066.2103    17.817608    22.540604    19.169266    7698.7541    9347.5775    9659.4545    8191.5988   -778.12979    509.15604   -482.17556   -4000.8071 
35276000    91.084086   -5200.4214   -5018.2419   -5200.4214            0    8695.7645    17.811387    22.721976    19.003266    7690.8101    9810.0035     8120.942     8156.348   -439.52474   -170.31897    338.22537   -4042.9026 
35277000    92.717629   -5202.2985   -5016.8518   -5202.2985            0     9455.154    17.785085    22.629774    19.096932    7685.9889    11149.967    8335.3648    8880.1304    437.20491   -529.10271   -234.26074   -3957.0021 
35278000    87.544917   -5210.8293   -5035.7286   -5210.8293            0    7517.1112    17.777286    22.711676    19.139171    7727.4778     8480.676    6473.8564    7596.8013   -601.62991   -619.65342    292.52968   -4188.5702 
35279000    90.270348   -5204.9067   -5024.3549   -5204.9067            0    8509.0046    17.770813    22.621536    19.108329    7681.6069      9172.66    8798.5146    7555.8394   -977.92275    181.54369     294.3722   -4071.1051 
35280000    88.098013   -5198.6912   -5022.4843   -5198.6912            0    7991.7795    17.905697    22.569985    19.111667    7723.6233    7829.5413     8109.265    8036.5323   -473.32131    -82.38219    739.50728   -4122.2812 
35281000     90.46765   -5199.6406   -5018.6941   -5199.6406            0    7774.3307    17.690955    22.786909    19.133111    7712.9819    7435.7727    8100.1841    7787.0352    112.90404   -446.53199   -363.95393   -4144.1913 
35282000    88.287676   -5198.0671   -5021.4808   -5198.0671            0    8370.7499    17.778026    22.681829    19.101915    7702.6207    8759.8912    7925.9308    8426.4278    504.84559    251.84799    629.59549   -4081.1541 
35283000    87.086182   -5209.2381   -5035.0549   -5209.2381            0    6155.3844    17.972524    22.511441    19.192659    7765.1084    5875.5865    6614.0944    5976.4725   -615.89223   -24.519417    252.65841   -4337.9814 
35284000    85.855972   -5206.5066   -5034.7841   -5206.5066            0    8453.9585    17.682586    22.670554    19.189025    7692.3814    8813.2521    8302.6531    8245.9703    457.38497    337.44974   -187.59589   -4086.3725 
35285000    87.525168   -5214.3624   -5039.3012   -5214.3624            0    8310.8427    17.712216    22.821956    19.044682     7698.383    8920.1865    7231.0346    8781.3071   -112.87965    146.28593   -262.77263   -4106.2178 
35286000    87.174537   -5209.9739    -5035.614   -5209.9739            0    8361.6648    17.797276    22.684893    19.079287    7702.8676    8296.9492    8695.7537    8092.2914    432.05723      120.764   -302.87288   -4096.2778 
35287000    92.431014   -5211.1341   -5026.2607   -5211.1341            0    7832.6092    17.879405    22.511791    19.161654    7712.5163    8533.4563    7713.9729    7250.3984    715.18805   -598.27359    306.99864   -4145.2555 
35288000    90.410732   -5209.4302   -5028.5976   -5209.4302            0    8377.4559    17.745246    22.721638    19.092597    7698.1554    9354.2807    7701.9554    8076.1316    784.58057    326.77232     43.73861   -4088.0631 
35289000    88.503341   -5207.7559   -5030.7383   -5207.7559            0    7791.4609    17.751031    22.788659    19.056573    7708.8068    7577.7924    7531.0299    8265.5603    130.46887    -418.6612    521.03086    -4154.783 
35290000    90.611364   -5207.9669    -5026.733   -5207.9669            0    8096.3578    17.795097    22.695765    19.098537      7713.39    8331.3598    8149.4893    7808.2243    -773.1005    290.35419   -1255.0929   -4115.9584 
35291000    88.536064   -5202.7437   -5025.6607   -5202.7437            0    8941.0299     17.81414    22.557928    19.152559    7696.4572    8499.0703    9520.4173     8803.602    270.27605    -69.62898     719.9908   -4022.0754 
35292000    88.587022   -5204.4261   -5027.2411   -5204.4261            0    8650.3111    17.836483    22.669121    19.022153    7691.3677    7755.0477    8592.5979    9603.2877   -1202.4022    -820.0964   -949.88573   -4056.9295 
35293000    90.556507   -5201.2445   -5020.1203   -5201.2445            0    8624.5809    17.727802    22.697392    19.143309    7702.7865    8837.0061    9425.9329    7610.8038    583.95058    553.65424   -52.580624   -4051.2587 
35294000    86.554882   -5211.1407   -5038.0202   -5211.1407            0    7485.5205    17.741734    22.664747    19.179507    7712.3083    7852.2383    7817.1426    6787.1805   -776.61162    389.20813   -1490.2406   -4196.0781 
35295000     83.59788   -5205.3789   -5038.1728   -5205.3789            0    7761.6314    17.814142    22.544594    19.236071    7725.4486    9001.0565     7650.849    6632.9887   -430.15566   -365.99514   -516.44716   -4163.6874 
35296000    85.536362   -5207.5247   -5036.4414   -5207.5247            0    7976.0857    17.925561    22.570158    19.078936    7719.0085     7470.303    8005.3489    8452.6053   -459.96311   -301.51005   -1527.5877   -4138.5429 
35297000    89.468014   -5208.7285   -5029.7814   -5208.7285            0    7982.7916    17.755329    22.839316    19.027608    7716.0676    9302.8134    7035.9927    7609.5689   -462.96619    142.51768    62.660113   -4131.4704 
35298000    86.091618   -5202.5075   -5030.3136   -5202.5075            0    9415.9962    17.729098    22.770093    18.996144    7668.6141    10027.378    8992.3549    9228.2554   -261.84328    451.58833   -155.12087   -3977.2392 
35299000     92.10444   -5206.0896   -5021.8693   -5206.0896            0    7933.3302    17.806342    22.645222    19.114013    7707.3162    8513.3529    8318.9916     6967.646   -155.64457   -439.72569    1136.9943   -4130.1368 
35300000    88.848125   -5211.2864   -5033.5792   -5211.2864            0    9530.2505    17.733244    22.492736    19.252436    7679.2033    9656.6787    9985.5547    8948.5182    677.71918    101.98936    1384.9841   -3966.2549 
35301000    93.527303   -5191.7221    -5004.656   -5191.7221            0    8460.0615    17.704123    22.909503    18.989556    7702.0242     8456.707    8273.3614    8650.1162    734.03199   -150.74927   -579.38971   -4054.3701 
35302000     84.86975   -5206.1306   -5036.3806   -5206.1306            0    7724.8218    17.742043    22.615545    19.219794    7711.8651      9428.02    7632.8472    6113.5982   -47.613478    22.407132    790.94098   -4167.5727 
35303000      87.5277   -5212.6551   -5037.5889   -5212.6551            0    9265.9687    17.796466     22.50554    19.159631    7673.7977     8918.651    9412.2352      9467.02    159.20521    -15.81613    635.87593   -4000.5929 
35304000    89.573285   -5197.7656    -5018.608   -5197.7656            0    7864.2247    17.733387    22.639852    19.236758    7723.1979    9494.3176    7715.8249    6382.5316    477.61306   -126.99396    442.89257   -4132.8217 
35305000    89.043312   -5204.3311   -5026.2335   -5204.3311            0    7155.0707    17.798089    22.856894    19.029434    7741.3459    7215.1267    6660.9265    7589.1589     16.71375   -135.23935     395.4529   -4218.4289 
35306000    88.704314   -5189.5184   -5012.0988   -5189.5184            0    8888.8028    17.784101    22.740936    19.041243     7700.795    8107.8852    9424.7765    9133.7466   -289.10042    595.41284    1368.6951   -4013.8134 
35307000    85.648387   -5210.1313    -5038.824   -5210.1313            0    8510.2101    17.812362    22.584118    19.154669     7705.473    8395.3227    8379.5633    8755.7443   -478.90479    277.79756   -279.56145    -4082.477 
35308000    89.837721   -5209.4998   -5029.8132   -5209.4998            0    8016.2003     17.75204    22.664498    19.164314    7710.5908     8629.369    7911.5044    7507.7275    866.80596   -12.342784    375.70688    -4128.383 
35309000    85.252811   -5202.8931   -5032.3769   -5202.8931            0     7563.822    17.801972    22.651738    19.193007     7739.496    8165.0171    7296.2631    7230.1858    -1500.937    224.66049   -431.11961   -4178.6286 
35310000    88.251322   -5203.6639   -5027.1504   -5203.6639            0    9032.7007    17.840706    22.514555     19.13146      7684.64    8621.5584    9736.2652    8740.2787   -302.56104    463.03337   -477.76687   -4014.8322 
35311000    90.729819   -5202.4672   -5020.9964   -5202.4672            0    8332.6172    17.749934    22.588778     19.21653    7704.8543    7919.6468    8851.6325    8226.5724     171.5855   -365.64731   -1578.4966   -4084.6819 
35312000    95.910158   -5202.6537   -5010.8215   -5202.6537            0    8369.2815    17.687988    22.800358    19.093926    7700.4362    9695.9759    7403.4979    8008.3705    549.41015   -449.47382   -1140.6597   -4070.9264 
35313000    92.157986   -5201.6188   -5017.2914   -5201.6188            0    8152.4867    17.724212    22.726537    19.113729    7699.2005    8749.3435    7231.0977    8477.0188   -305.05807   -901.69954   -166.42703   -4101.8899 
35314000    86.593321   -5203.8057   -5030.6083   -5203.8057            0    8712.7343    17.870312    22.573012    19.080776    7696.9324    7711.1147    8574.5317    9852.5564   -356.11166   -135.69452    761.68725   -4052.5877 
35315000    88.232505   -5217.9175   -5041.4416   -5217.9175            0    7576.0051    17.850246    22.660291    19.114186    7731.5306    6003.3647    8399.6254    8325.0252    363.19238   -290.88156     673.2715   -4187.1982 
35316000    90.023758   -5193.6645   -5013.6059   -5193.6645            0    8520.0607    17.644899    22.877249    19.059391    7693.6427    8684.6722    7848.3718     9027.138   -541.13315    -2.764259   -150.76893    -4057.622 
35317000    89.142424   -5210.1827   -5031.8869   -5210.1827            0    7945.7708    17.758798    22.686689    19.118426    7702.5905    8011.8492    7843.4242    7982.0392    629.43593    12.498256   -591.35394   -4139.3036 
35318000    88.647351   -5206.0143   -5028.7086   -5206.0143            0     8348.579    17.854048    22.495763    19.202287    7712.4147    7993.9969    8909.8566    8141.8834   -282.71124    430.66612   -35.322329     -4089.68 
35319000    85.988851   -5217.1814   -5045.1931   -5217.1814            0     6951.646    17.845372    22.661393    19.129943    7736.1683     8102.434    6445.1268    6307.3772   -1128.2927   -1035.1485   -472.52262   -4260.8801 
35320000    89.628627   -5206.5602   -5027.2918   -5206.5602            0    7635.1483    17.764543    22.844675    19.038541    7726.3199    8234.1011    6938.2947    7733.0492   -309.52182    402.32706    1159.5477   -4166.9599 
35321000    89.998131   -5206.1177   -5026.1103   -5206.1177            0    8057.3139    17.736745    22.665598    19.190194    7714.7256    8927.5548    7623.5148    7620.8721   -280.72834   -463.01472   -20.309305    -4119.571 
35322000    94.278481   -5195.5837   -5007.0151   -5195.5837            0     9594.748    17.859424    22.442686    19.185552    7689.8274    9551.4534    10433.915    8798.8757    1099.0905    106.77442    348.04448    -3930.981 
35323000    87.831346   -5219.1905   -5043.5169   -5219.1905            0    8522.9342    17.789782    22.720388    19.052439    7700.8194    8446.6057    8244.0504    8878.1465     269.6161   -828.60688   -375.32417   -4086.3185 
35324000    87.403099   -5214.7995   -5039.9825   -5214.7995            0    7789.8296    17.687582    22.748437      19.1598    7709.2298    7648.9296    7583.3377    8137.2216   -71.411121    29.185946    709.62177   -4164.1626 
35325000     90.37804   -5215.3949   -5034.6276   -5215.3949            0    7052.9476    17.945509     22.53242    19.144941    7741.3667    7223.9923    7490.1884     6444.662    1041.8204   -148.59995    325.40972   -4238.3506 
35326000     89.95181   -5202.3584   -5022.4437   -5202.3584            0    9340.5986    17.765083     22.65154    19.058014    7669.0682    8668.0224    9326.1498    10027.623    -8.316084   -917.25125    445.62209   -3977.7398 
35327000    83.917068   -5212.4539   -5044.6094   -5212.4539            0    7699.8208    17.786196    22.685609    19.127361    7717.7116    8374.2586    7534.6099    7190.5938    412.41047    44.961966    58.231419   -4177.9568 
35328000    92.713587   -5198.0288   -5012.5901   -5198.0288            0    9060.9525    17.881999    22.529048    19.098965    7694.2933    8204.9004    9662.7415    9315.2155    68.765264   -372.11557    382.30313   -3995.8301 
35329000    86.133771   -5210.2763   -5037.9981   -5210.2763            0    6798.8709    17.751192    22.871899    19.061704    7739.1177    7311.6356    6122.8847    6962.0925   -1254.8535   -37.888598    288.85218   -4270.6293 
35330000    90.152353   -5196.8267   -5016.5109   -5196.8267            0    8692.0873    17.719638    22.646378    19.194963    7702.6628    9335.4338    8947.0406    7793.7873    367.25943   -137.76773   -27.675026   -4040.0815 
35331000    87.171827   -5200.9777   -5026.6233   -5200.9777            0    7753.2866    17.835865     22.72296    19.007447    7703.4074    8186.4706    7214.6185    7858.7707     206.4228   -1107.9987    61.393925   -4155.5703 
35332000     90.19964   -5219.2189   -5038.8085   -5219.2189            0    7635.2031    17.835898    22.738095      19.0308    7718.0235    6963.6886    7256.9424    8684.9783   -89.220252    981.58777   -464.42121   -4179.3942 
35333000    89.030824   -5200.5671   -5022.4944   -5200.5671            0     8640.163    17.796623    22.552966    19.172757     7695.305     8081.813    9355.2576    8483.4183   -21.301526    684.53832   -1111.8401   -4052.8251 
35334000    90.981163    -5196.851   -5014.8775    -5196.851            0    8464.2317    17.837104    22.655855    19.072554     7707.502    9180.4271    7212.7727    8999.4953    496.48187   -645.20331    419.86668    -4063.447 
35335000    86.338602   -5204.9734   -5032.2856   -5204.9734            0    8770.7971    17.759639    22.746358    19.054761    7697.4966    8451.1128    9061.1028    8800.1757   -507.56387    704.77137    258.84672   -4047.6751 
35336000    88.451934   -5200.0585   -5023.1437   -5200.0585            0    10272.708    17.606944    22.700853    19.126027    7644.5326    11361.023     9508.306    9948.7942    582.02451   -519.50607     -1022.29   -3877.8635 
35337000    86.273263   -5202.9979   -5030.4407   -5202.9979            0    9369.6026    17.845777    22.627143    19.037513    7687.3275    9465.0785     9875.458    8768.2711    234.42482   -223.84095    374.55574   -3979.9978 
35338000    90.866566   -5206.9709   -5025.2265   -5206.9709            0    9157.9723    17.741886    22.743143    19.035693    7681.0209    9630.5073    8224.7278    9618.6819   -662.02011   -803.13258   -42.106362   -3999.3522 
35339000    83.516012   -5210.0881   -5043.0458   -5210.0881            0     8727.486    17.754799    22.780795    19.020298    7693.1103    8862.9992    8477.8458    8841.6128    194.46688    463.64121    822.84772   -4063.8557 
35340000    84.018349   -5199.3146   -5031.2675   -5199.3146            0    8784.8734    17.758694    22.629065     19.12396    7685.2049     8116.802    9808.8727    8428.9455    -557.9772   -95.657167   -830.27334   -4046.6516 
35341000    82.101052   -5198.2971   -5034.0848   -5198.2971            0    8638.6574    17.741466    22.735775    19.103553    7705.7233    9031.8502    8542.1645    8341.9573   -1464.0379    130.92281   -1092.6316   -4063.2719 
35342000    87.852878    -5206.636   -5030.9194    -5206.636            0    9022.4098    17.958763    22.517618    19.032312    7696.4491     8385.039    9028.4404      9653.75    21.656679   -917.81674   -153.89454   -4018.2007 
35343000     88.86624   -5195.3838   -5017.6404   -5195.3838            0    8636.9625    17.837637    22.661833    19.009122    7684.1249    7580.5935    8886.1901    9444.1039    368.84286   -252.50028    797.88419   -4049.7385 
35344000    89.209254    -5204.971   -5026.5415    -5204.971            0    9446.6483    17.805143     22.66857    19.042783    7685.9934    9483.9944    9609.2909    9246.6597   -476.38186    4.2659115    -57.91102   -3967.6446 
35345000    82.577253   -5208.4457    -5043.281   -5208.4457            0    8313.2718    17.616517    22.767457    19.194721    7698.6818    9511.2813    8078.2287    7350.3054   -118.11684   -938.13257    629.55496   -4109.8886 
35346000    87.715731    -5203.054   -5027.6117    -5203.054            0    7358.0297    17.843346    22.812955    18.983404     7727.374    8802.4727    6000.7044    7270.9119    335.81863   -885.90944   -612.67733   -4198.3925 
35347000    85.076842   -5199.1262    -5028.962   -5199.1262            0    8538.3173    17.764026     22.64624    19.162094    7708.6881    7314.4353    9250.2885    9050.2279    -240.5694    17.405382    123.89778   -4069.0561 
35348000    87.672065   -5201.7247   -5026.3697   -5201.7247            0    8776.4141     17.78057    22.496958    19.217163    7687.0328    8409.0771      9436.01    8484.1552    862.48846    419.52686    1450.6772    -4042.468 
35349000    88.480605   -5202.3104   -5025.3383   -5202.3104            0    9555.3657    17.800054    22.726345    18.988923    7681.5921    9626.0867    9784.1212    9255.8893    364.94237     147.3843    401.12169   -3954.8684 
35350000    88.361161   -5200.5181   -5023.7848   -5200.5181            0      9442.14    17.765148    22.783081    18.927347    7660.7455     8969.558    8809.9615    10546.901   -163.36292    -851.6877    1004.7267   -3968.8701 
35351000    85.020913   -5214.6646   -5044.6122   -5214.6646            0    7779.0342    17.758483     22.73449    19.121826    7720.0557    7926.0579     7621.783    7789.2619    623.34403    13.365145    1320.0773   -4168.7778 
35352000    86.627265   -5200.8985   -5027.6333   -5200.8985            0    8358.4005    17.845664    22.589126    19.122825     7708.754    7867.6583    8267.7933    8939.7499   -387.62263    382.12028    401.13711   -4087.9462 
35353000    91.229744   -5205.5051   -5023.0343   -5205.5051            0    8022.1246    17.805132    22.652381    19.120361    7711.7891    7230.1569    8380.7629     8455.454    351.41245   -278.84467    1315.9966   -4120.7977 
35354000    87.565352   -5193.8889   -5018.7474   -5193.8889            0    9278.2676    17.725611    22.780648      18.9984    7671.5711    7949.3169    9961.1479     9924.338    411.03831    727.06279    670.12145   -3980.6763 
35355000    90.183626   -5188.2367   -5007.8584   -5188.2367            0    8870.2089     17.81634    22.659575    19.026045    7681.0176    8598.7722    8473.6507    9538.2037    798.60408    -322.8036    472.45915   -4014.2197 
35356000    83.427591   -5204.1288   -5037.2633   -5204.1288            0    8728.2971    17.822553    22.533344    19.171509    7699.3109    8623.6376    8926.5798    8634.6739    335.34784    318.78244    71.765848    -4057.193 
35357000    88.168277   -5205.3467   -5028.9993   -5205.3467            0    6913.3296    17.856407    22.606646    19.170261    7738.5262    5565.0352    7350.9634    7823.9903    983.10741   -147.84494    173.78554   -4248.7715 
35358000     91.14275   -5203.4841   -5021.1873   -5203.4841            0    8053.2171    17.742191    22.865114    18.995885     7706.198    8657.2244     7554.664     7947.763    62.816041   -867.12469    312.16131   -4116.1105 
35359000    86.134317   -5200.9795   -5028.7002   -5200.9795            0    9577.1199    17.799701    22.621811    19.063359    7676.0803    9149.7687    10196.375    9385.2157    245.48984    342.25645    22.375222   -3956.5631 
35360000    89.527883   -5201.0838    -5022.017   -5201.0838            0     8187.513    17.769764    22.556703    19.237736      7711.01     9182.068     7664.868    7715.6029   -264.65882   -46.271463    239.74335   -4101.2724 
35361000     91.26307   -5200.2201   -5017.6827   -5200.2201            0    7761.6209    17.834095    22.661884      19.1246    7729.2876    7576.4961    7494.8282    8213.5383   -136.04631   -324.78661   -360.32855   -4142.7639 
35362000    89.045577   -5206.5803   -5028.4781   -5206.5803            0    7715.8075    17.847189    22.689642    19.080936    7726.7553     7032.964    8395.8103    7718.6482     12.63002    114.12831   -90.429461   -4159.0084 
35363000    91.246503   -5214.9048   -5032.4006   -5214.9048            0    8103.0487    17.815036    22.732907    19.034562    7708.7605    7743.8335     7714.461    8850.8516   -19.936876   -354.76189   -596.69398   -4121.4205 
35364000    92.288174   -5211.1437    -5026.556   -5211.1437            0    7135.7459    17.836427    22.558839    19.223905    7735.1053    7065.2844    7733.4016    6608.5518    -680.0764    112.46416    169.63303   -4221.5826 
35365000    87.763291   -5205.1192   -5029.5818   -5205.1192            0    8342.4308    17.820044    22.768645    19.007927    7712.2437    8486.6069    8277.3998    8263.2855    -1780.415   -597.20966   -326.48609   -4091.2656 
35366000    85.016485   -5209.6816   -5039.6382   -5209.6816            0    7736.6088    17.850094    22.616624    19.134992    7724.9658    7398.7941    7581.1242     8229.908   -213.54326    321.92951   -1776.0062   -4168.0264 
35367000    85.947343   -5214.1668   -5042.2615   -5214.1668            0    8497.1989    17.778833     22.68331    19.137264    7717.7288    8360.1421    8058.0894    9073.3653    137.63799   -15.411903    400.62142    -4085.858 
35368000    86.549721   -5208.4646   -5035.3545   -5208.4646            0    8374.8833    17.717747    22.836501    19.016984    7694.4873    8043.8426    8489.0012    8591.8061   -784.51836    654.32238   -666.89361   -4095.5568 
35369000    86.795199   -5209.8209   -5036.2197   -5209.8209            0    8823.8543    17.834894    22.541994    19.168651    7706.4508    9321.1198    8190.9036    8959.5394   -85.688167   -414.23648    55.437662   -4044.5008 
35370000    82.712042   -5196.6195   -5031.1852   -5196.6195            0    8587.6657     17.82663    22.658927    19.085521    7709.2584    8953.1483     8914.724    7895.1249    520.69996     378.9259    190.44544     -4065.66 
35371000    87.834434   -5217.0649   -5041.3852   -5217.0649            0    7528.2356    17.770971    22.776949    19.079043    7722.5954    8101.5644    7039.8321    7443.3103   -139.11933   -12.057191    265.55605   -4193.5091 
35372000    90.703337   -5199.1815   -5017.7636   -5199.1815            0    8704.7119    17.817338    22.630125    19.085829    7695.5702     8851.902    8259.9457     9002.288    440.79173   -339.61956     277.6921   -4040.8164 
35373000    87.894776   -5206.4216   -5030.6212   -5206.4216            0    7781.7115    17.746503    22.748175    19.093688    7708.1325    7357.7703    7987.3209    8000.0434    984.45808   -748.21078    750.63174   -4155.8385 
35374000    91.663615   -5206.0882   -5022.7497   -5206.0882            0    8472.7552    17.826048    22.587215    19.119122     7698.138     8585.407    7852.1909    8980.6677   -728.86749   -832.36778    241.98556   -4071.5182 
35375000     88.30342   -5196.1823   -5019.5645   -5196.1823            0    8171.1263    17.765764    22.622143    19.157648    7699.4519    7790.0331    8687.7809    8035.5649   -243.83467     888.4773    594.32442   -4102.0401 
35376000    89.700433   -5214.1437   -5034.7318   -5214.1437            0    7738.1396    17.799205    22.785047    19.032854    7718.8827    7227.6751    7599.9159    8386.8279   -143.21439   -35.995512    -487.0081    -4163.634 
35377000    82.157045    -5202.735   -5038.4108    -5202.735            0    7817.4789    17.862591    22.690722    19.075658     7731.652    7469.9517    7805.0083    8177.4768   -245.00377    390.19422    -1024.649   -4156.9258 
35378000    88.887848   -5211.8484   -5034.0617   -5211.8484            0    8630.2073    17.776258    22.645561    19.098898    7688.3247    9868.4155    8203.6479    7818.5585   -303.36431   -88.871829    73.654779   -4066.3882 
35379000    91.651588   -5200.5181   -5017.2036   -5200.5181            0    7447.9783    17.867325     22.71967    19.065953    7739.6281    8121.2642    6911.2481    7311.4226   -1148.6095   -887.30505    384.89608   -4176.5165 
35380000    85.711333   -5210.7669   -5039.3336   -5210.7669            0     8518.349    17.834285    22.629484    19.061487    7692.8477    8737.7148     7997.351    8819.9812    254.91776    -126.1459    543.69593   -4083.6405 
35381000    84.439615   -5209.3825   -5040.4929   -5209.3825            0    9254.9153    17.758927    22.665429    19.084423    7681.7413    9922.2783    8507.0005    9335.4672    -795.8154   -22.856266   -166.52544   -4003.6618 
35382000    91.087397   -5201.0831   -5018.8971   -5201.0831            0     8022.611    17.831913    22.656556    19.068947    7704.0402    7360.8541    8581.3588    8125.6201   -538.26711   -274.33612   -30.544183   -4117.5124 
35383000    90.787147   -5203.8299   -5022.2444   -5203.8299            0    8275.1546    17.828979    22.672244    19.090955    7717.0026    6875.7571    9390.7742    8558.9326   -289.55148    337.04702     472.5933   -4090.9207 
35384000    87.543649   -5212.5877   -5037.4896   -5212.5877            0    8305.5478    17.748223    22.661206    19.170644    7710.3592    9872.5096    8079.8768     6964.257    1283.2279   -54.686039    447.91946     -4103.55 
35385000    86.507265   -5206.1074   -5033.0822   -5206.1074            0    8606.0239    17.780915    22.720961    19.053939    7697.7815    8477.7431    9019.6442    8320.6845   -442.63354    274.85758   -380.88722   -4066.9334 
35386000    91.362071   -5205.6131   -5022.8776   -5205.6131            0    8554.0589    17.832866    22.625589    19.103959    7708.0482    7871.7215    8649.1841    9141.2712    367.46425    -136.1536    237.23562   -4061.2819 
35387000    90.398676   -5216.2193   -5035.4108   -5216.2193            0     7631.027    17.837595    22.496449    19.241154    7721.1394    8916.4661    7122.2177    6854.3972   -68.975562    25.361582    1190.9545   -4176.1198 
35388000    91.434512   -5212.0596   -5029.1793   -5212.0596            0    8237.9419     17.65679     22.95116    18.977885    7690.6706    8812.1322    7995.1434    7906.5499   -1059.8957    829.69754   -416.07187   -4105.2073 
35389000    86.231511   -5211.0251   -5038.5514   -5211.0251            0    8415.7354    17.773486    22.726969    19.030094    7686.9681    8438.7238     8323.602    8484.8805   -472.92445    91.483757   -789.65888   -4095.0924 
35390000    87.371773   -5202.2383    -5027.484   -5202.2383            0    8045.9899    17.877851     22.52289    19.172152    7719.8754    7632.4435    8358.6016    8146.9247    591.41223    203.56079     1070.272   -4121.6144 
35391000    86.780981   -5207.5299   -5033.9573   -5207.5299            0    8220.3528    17.882749    22.606859    19.098556    7721.0264    8916.5007    8364.9218    7379.6357    674.57186    211.57023    1561.0911   -4108.3188 
35392000    87.319239   -5196.8644   -5022.2151   -5196.8644            0    10412.811    17.723574    22.883373    18.871792    7653.9295    10193.691    9757.3634    11287.379   -18.116932   -274.27166     107.1922   -3859.8881 
35393000    87.906795   -5214.3305   -5038.5061   -5214.3305            0     6743.207    17.792215    22.680646    19.186488    7742.4948    7295.3106    6672.1665    6262.1438    680.39328   -863.50245    646.60316   -4277.0878 
35394000    89.455445   -5204.1875   -5025.2656   -5204.1875            0    8603.8633    17.943307    22.472764    19.068416    7689.0664    9174.4239    8690.0846    7947.0814   -959.44429     84.08164   -138.80627   -4060.4529 
35395000    90.920854   -5211.9321   -5030.0791   -5211.9321            0    8420.5801    17.795517    22.726911    19.034121    7698.1054    7171.8328    9030.0324     9059.875    150.65886     461.0062   -67.102286   -4084.7093 
35396000    88.985099   -5209.3783   -5031.3971   -5209.3783            0    8450.8201    17.754708    22.764102      19.0283    7690.6677     8903.123    8225.7984     8223.539    347.67214    53.372075    209.23161   -4083.5489 
35397000    88.175751   -5221.1806   -5044.8182   -5221.1806            0    7220.1945    17.916463    22.541931    19.148421    7733.5049    6585.3016    7863.2626    7212.0192    20.839532   -27.401815    109.37736   -4230.4868 
35398000    86.758879   -5206.1226   -5032.5941   -5206.1226            0    8092.7147    17.718219    22.651704     19.17651    7696.4511    9719.6266    7580.9442    6977.5734    135.77523   -79.549354   -139.07999   -4124.2286 
35399000    93.788706    -5209.669     -5022.08    -5209.669            0    7515.7894    17.809769     22.65096    19.149561     7725.093    8058.3396      7770.63    6718.3985    466.45664    532.38727   -281.40315   -4175.3319 
35400000    90.340063   -5215.4257   -5034.7344   -5215.4257            0    7884.4853    17.697893    22.801514    19.100929    7707.9652     9629.541    6579.8806    7444.0342   -198.73942   -693.47246    17.735896   -4148.4176 
35401000    91.762139    -5194.962   -5011.4264    -5194.962            0    9194.3561     17.87307    22.533233    19.076242    7682.7285    8659.6113    9539.8375    9383.6196   -608.35076   -103.16425    816.73181   -3981.2474 
35402000    86.730481   -5200.0542   -5026.5826   -5200.0542            0    8015.4421    17.788043    22.688051    19.121978    7717.1717    8469.2107    8045.4654    7531.6502    914.54636   -89.510925    271.12426   -4124.4683 
35403000     88.89527   -5199.0668   -5021.2653   -5199.0668            0    9468.2655    17.681901    22.734543    19.100536    7678.2231     9021.086    10253.682    9130.0287    1021.1069    1441.1698    719.93457   -3961.0183 
35404000    83.632049   -5200.3104    -5033.036   -5200.3104            0    8549.7798    17.846114    22.579446    19.151854    7717.3422    8205.2143    9007.6646    8436.4607    107.03884   -239.81167   -255.81108   -4070.7624 
35405000    86.908413   -5208.3482   -5034.5207   -5208.3482            0    7521.6557    17.781267    22.762944    19.068639    7718.1077    7711.8076    7934.5762    6918.5834   -1111.6433    243.09574   -1359.7722   -4187.8779 
35406000    88.938423   -5223.8955   -5046.0077   -5223.8955            0    7088.4388    17.805903    22.607577    19.213724    7734.4523    8557.6575    6535.7186    6171.9402   -125.81503   -768.55305   -632.28057   -4246.4385 
35407000    88.321306   -5206.3325    -5029.679   -5206.3325            0    8800.8783    17.787138    22.691931    19.050007    7689.0498    9398.2676    7831.7466    9172.6208    537.40479    64.364282      5.05183   -4042.7757 
35408000    84.172526   -5207.6852   -5039.3297   -5207.6852            0    8477.7038    17.689635    22.745695    19.124851    7695.1332    9381.2506    8643.8379    7408.0229    -117.1685    306.39341   -95.083309   -4087.9141 
35409000      86.2846   -5207.5534   -5034.9735   -5207.5534            0     8480.611     17.76192    22.649061    19.113701    7689.2666    8988.1701    8730.2467    7723.4163    454.00447    -1193.116   -720.67024   -4083.9572 
35410000    92.237794   -5206.8836   -5022.3967   -5206.8836            0     8913.154    17.811248    22.578682    19.081916    7673.8784    9606.5991    8567.4345    8565.4284    1693.2636    600.28621    999.49725   -4024.8753 
35411000    85.935902   -5208.1876   -5036.3052   -5208.1876            0    8878.1649    17.772939    22.786011    18.967135     7681.204    8590.8986    8705.2216    9338.3744   -295.80858   -528.20301    253.18449   -4041.7511 
35412000    88.501867   -5209.7345   -5032.7198   -5209.7345            0    7009.4979      17.7877    22.737559    19.101378    7725.5308    6448.9481    7035.8815    7543.6641    831.52886    82.127304    722.59442   -4242.9671 
35413000    86.143855   -5199.0818   -5026.7835   -5199.0818            0    8527.6991    17.795693    22.740612    18.979924    7680.8895    8420.4968    8073.7677    9088.8326   -346.06724   -253.44381    1228.2241   -4071.5286 
35414000    84.598482   -5208.0714   -5038.8639   -5208.0714            0    7544.2501    17.934167    22.540682    19.128083    7732.4962    7022.0228    7539.8027    8070.9249    364.75143   -39.121421    223.41743   -4188.0949 
35415000    89.279339   -5211.6604   -5033.0907   -5211.6604            0     8148.955    17.785282    22.732739     19.06212    7706.9705    9213.7664     7625.204    7607.8947    129.43635    326.61695   -1392.1548   -4117.1623 
35416000    93.208689   -5200.6487   -5014.2198   -5200.6487            0    7907.3422    17.742515    22.719861    19.131805    7712.1735      6993.92    8232.4091    8495.6976     1027.056   -406.98785    1452.2116   -4124.8483 
35417000     90.46714    -5211.321   -5030.3755    -5211.321            0    9272.4545    17.788831    22.614594     19.09658    7682.3097     9132.177    9318.0952    9367.0915    279.02896   -109.74983    930.90205   -3991.5026 
35418000    87.242213   -5199.4705   -5024.9753   -5199.4705            0    7571.8049    17.883636    22.531962    19.180565    7728.8739    7870.5315    7768.2938    7076.5894    75.751285     125.6497     -808.493   -4171.4989 
35419000    92.183074   -5197.0176     -5012.64   -5197.0176            0    9281.0397    17.737019    22.706125    19.082106    7685.1075    8948.6646    9306.6952    9587.7594   -255.07061    25.306232   -928.64904   -3972.4266 
35420000    85.937268   -5202.6124   -5030.7273   -5202.6124            0    8353.1459    17.742362    22.651263    19.171998     7704.975    9484.9447    7852.8347    7721.6585   -36.063076    78.100413    -1248.648   -4092.0913 
35421000     90.94814   -5202.0966    -5020.189   -5202.0966            0    9073.0062    17.885964    22.489729    19.105171     7685.064    8885.5266    9534.9031    8798.5888   -489.03764   -538.70158    379.68651   -4003.2976 
35422000    87.209493   -5205.5534   -5031.1236   -5205.5534            0    9786.4456    17.730882      22.7097    19.050381     7670.884    10305.517    9950.3225     9103.497   -699.27677     958.1076   -93.159692   -3936.2946 
35423000    87.274765   -5211.6927   -5037.1324   -5211.6927            0    8477.7326    17.770918    22.725675    19.053384    7694.8254    9116.0699    8583.6758    7733.4519    723.99908   -119.33486    661.07678   -4085.7516 
35424000    85.182196   -5207.4296   -5037.0546   -5207.4296            0    7573.6036     17.86258    22.602895    19.155561    7733.9813    7245.1702    8025.7762    7449.8643   -1189.9325   -192.56509   -149.22119   -4182.8114 
35425000    86.755452   -5206.1085   -5032.5869   -5206.1085            0    8235.7654    17.695088    22.654524    19.231933    7709.5781    8182.7773    8367.2125    8157.3064   -958.46816   -474.19193   -302.89508    -4106.588 
35426000    87.315585    -5202.058   -5027.4161    -5202.058            0    8930.1764    17.785842    22.698265    19.040737    7686.8933    8457.5392    9264.9319    9068.0581    570.53163    351.91034    1363.3368   -4026.2946 
35427000    92.737756   -5205.7479    -5020.261   -5205.7479            0    8731.5866    17.710747    22.702383    19.147364    7698.6989    9111.0005    9231.6358    7852.1236   -1158.0538    595.94545   -1190.8714   -4039.8991 
35428000    90.413201   -5206.0419   -5025.2043   -5206.0419            0    8213.5332    17.829479    22.531388    19.189076    7708.6915    8595.9064    8509.0176    7535.6756   -40.937622   -65.817516   -834.01868   -4101.8113 
35429000    92.899493   -5206.9546   -5021.1441   -5206.9546            0    8750.5311    17.827431    22.652098    19.040396    7689.0586    8371.1609    8885.1117    8995.3207   -368.95917     663.6861   -902.66359   -4039.8855 
35430000    86.444987   -5199.2673   -5026.3666   -5199.2673            0    7655.3865    17.705199    22.846719    19.064348    7711.6373    7910.2929    7047.0197    8008.8468    316.18462   -794.98338   -480.19349   -4165.3935 
35431000    89.966257   -5215.2826    -5035.339   -5215.2826            0    7880.7032    17.883796    22.574035    19.115043    7716.9236    7555.1718    8104.9707    7981.9671    645.17393    460.91517   -870.72776   -4148.4178 
35432000    88.704709   -5206.6373   -5029.2169   -5206.6373            0    7563.3946    17.780633    22.686151    19.131879    7717.3048    7575.7539    7757.5165    7356.9134   -629.05817    171.48099   -568.30975   -4177.9646 
35433000    86.142042   -5210.4883   -5038.1936   -5210.4883            0    7989.0951    17.801252    22.746869    19.022704    7702.7257    9670.6393    6813.7671     7482.879   -782.12276   -78.544407   -511.00388   -4140.7278 
35434000    85.430159   -5215.1744   -5044.3036   -5215.1744            0    8100.7813    17.735258    22.757088    19.120851    7717.2294    9159.8171    7886.5744    7255.9524    442.44554    -176.5132   -667.60441   -4132.5779 
35435000    92.806411   -5205.3921   -5019.7678   -5205.3921            0    7797.1902     17.77525    22.716993    19.116983    7719.4422    8057.6352    7294.5094     8039.426    448.48889   -373.78909    806.68085    -4141.959 
35436000    89.732995    -5207.575   -5028.0979    -5207.575            0    7789.9033    17.967509    22.555543    19.079668    7732.3582    8075.7931    7421.6894    7872.2273   -887.06879    343.25831    561.68492   -4149.6421 
35437000    88.941242   -5214.0543   -5036.1608   -5214.0543            0    7764.7042    17.805653    22.708038     19.08178    7715.3639    7839.7296    7698.4529    7755.9301    619.63434   -337.67621    630.07156   -4162.4711 
35438000    94.359936   -5208.9617   -5020.2302   -5208.9617            0    8678.6852    17.790375    22.761573    18.994167    7691.4395    9171.1362    7748.5002    9116.4193    -208.9799   -107.12952   -1117.6784   -4046.7268 
35439000    82.273798   -5203.0677   -5038.5099   -5203.0677            0    8566.1484    17.706228    22.615128    19.207724    7691.3223    8500.5841    9091.1622    8106.6988   -785.31762   -239.78075   -361.76383   -4077.6447 
35440000     92.65093   -5202.0297   -5016.7164   -5202.0297            0    7752.5227    17.807234    22.595918    19.209501    7729.3424    8108.1306    8303.5212    6845.9163   -301.83293    161.25931   -994.12847   -4142.8169 
35441000     88.16238   -5205.6753   -5029.3396   -5205.6753            0    6921.0371    17.856116    22.673696    19.113339    7738.3058    7406.9311    6674.1523    6682.0278   -604.30396    84.343617    -861.5865   -4248.2642 
35442000    90.578361   -5208.8984   -5027.7305   -5208.8984            0    7957.6372    17.779063    22.819774    19.046208    7727.3167    7346.5375    7400.1002    9126.2738   -79.674595    263.43356   -1439.7499   -4130.9446 
35443000    87.737925   -5206.1862   -5030.6995   -5206.1862            0    9250.2523    17.873325    22.470719    19.131437    7683.6912    8605.7913    9888.6742    9256.2915   -235.17822   -224.15259    166.80303   -3994.1278 
35444000    89.618008   -5206.6329   -5027.3858   -5206.6329            0    8221.2181    17.865746    22.591988    19.101974    7709.9908     6975.455    9022.5384    8665.6608   -292.37549    672.06197    626.46011   -4102.9731 
35445000    87.278247   -5198.9473   -5024.3801   -5198.9473            0    8492.3919    17.690912    22.737009     19.12143    7691.3737    9389.1558     7749.929    8338.0908     738.6033   -392.49943     1041.307   -4071.7817 
35446000     92.92265   -5221.2126   -5035.3558   -5221.2126            0    8471.4752    17.826862    22.706167    19.016693    7697.5714    8103.0866    8638.6304    8672.7086    82.899012    384.84404   -1286.0356    -4084.338 
35447000     88.72715   -5206.9799   -5029.5146   -5206.9799            0    7898.4286    17.875442    22.656059    19.060361    7719.1997    7632.4536    7587.9171    8474.9151    424.35366   -589.46571    227.17544   -4140.3363 
35448000    88.958086   -5210.0786   -5032.1515   -5210.0786            0    7731.7491    17.804541    22.719538    19.083812    7719.6111    7237.5217     7677.362    8280.3634    808.59474    1.6220184    1078.0563    -4161.691 
35449000    87.715306   -5201.3802   -5025.9388   -5201.3802            0    7558.0937    17.813547    22.761907    19.073869    7733.8876    6672.1108     7793.229    8208.9414   -527.52533    504.70215   -397.03213   -4173.4552 
35450000    88.549371   -5210.1389   -5033.0292   -5210.1389            0    8075.7919    17.805872    22.663591    19.115222    7713.8522    8036.1838    7567.5063    8623.6857    636.96022   -717.77328   -1500.2754   -4124.5137 
35451000    86.480119   -5203.2073   -5030.2363   -5203.2073            0    7698.5227    17.810782    22.664814    19.126774    7721.0591    7990.3475    7877.2641    7227.9565    580.06163    433.64162   -229.35367    -4163.354 
35452000    86.458259   -5206.4405   -5033.5133   -5206.4405            0    8143.0755    17.794228    22.819468    18.978623     7706.361    7499.2682    7911.0048    9018.9536   -50.878543   -54.109566    412.04494   -4118.3182 
35453000    86.614111   -5211.2634   -5038.0244   -5211.2634            0    8536.1988     17.75061     22.63987    19.157771    7698.9621    9794.2918    8158.8316    7655.4728    390.13967   -961.75666   -194.44615   -4079.5675 
35454000    84.381169   -5208.3652   -5039.5925   -5208.3652            0     8238.668     17.79442    22.590969     19.13088    7690.4835    9682.5486    8284.2771    6749.1783   -40.292528     -59.2469   -427.73039   -4115.5615 
35455000    89.978239    -5215.612   -5035.6444    -5215.612            0    8558.6507    17.725043     22.69693    19.101786    7684.7261    9250.5568    8265.2613    8160.1341   -535.62776    -863.6978   -480.42743   -4076.4434 
35456000    87.693102   -5212.9522   -5037.5551   -5212.9522            0    8316.9414    17.830181    22.656032    19.088657    7711.0758    7721.8495    8498.3074    8730.6673   -527.55838    703.44422    117.26438   -4102.2474 
35457000    87.342296   -5202.8711   -5028.1757   -5202.8711            0    8188.1436    17.727094    22.729691    19.103864    7697.5462    7943.0689    7666.4441    8954.9177    312.99352   -1046.5755    1641.3308    -4108.968 
35458000    84.348383   -5188.0164   -5019.3092   -5188.0164            0    9701.2164    17.690385    22.753933    19.074438    7677.9541    10340.615    9017.3442    9745.6896    277.02706    418.93774    -487.2495   -3933.0146 
35459000    89.622287   -5210.0499   -5030.7942   -5210.0499            0    8234.0006      17.7896    22.845273     18.97745    7712.5926    9190.1857     6983.917    8527.8991   -1059.2432   -500.63605   -1535.7083   -4104.6318 
35460000    91.082696   -5207.9574   -5025.7808   -5207.9574            0    8227.7848    17.815207    22.556051     19.19955    7715.1612    7771.6282     8395.668    8516.0583   -281.75386    7.4247901    1012.6743   -4100.0092 
35461000    88.693433   -5205.8808    -5028.483   -5205.8808            0    8374.4811    17.795854    22.694829    19.085012    7707.9374    8815.2911     7812.335    8495.8172    -514.7589   -644.37528   -346.57495   -4087.0878 
35462000     84.79207   -5200.8716   -5031.2769   -5200.8716            0    7909.6713    17.838115    22.660405    19.115464    7726.8321    8109.1102    7830.6095    7789.2941   -168.17622   -479.59215   -232.16162   -4139.9525 
35463000    89.935293   -5215.6771   -5035.7954   -5215.6771            0    6993.5095     17.73369    22.747186    19.170967    7733.4063    7723.8522    6740.9496    6515.7267   -744.09793    -107.5804    468.01082   -4247.0408 
35464000    83.720789   -5200.9484   -5033.4964   -5200.9484            0    8231.7863    17.914013    22.496359    19.150856    7717.7959    8587.2564    8211.4055    7896.6968    119.43808    237.01373    757.09535   -4106.9584 
35465000    83.922318   -5213.0864   -5045.2314   -5213.0864            0    8063.9292    17.789526    22.723139    19.059529    7704.5072    7741.8874    8386.9243    8062.9759   -875.56346   -705.30978   -615.15268   -4139.1495 
35466000    89.575606   -5210.8043   -5031.6421   -5210.8043            0    7510.2893    17.757387     22.76946    19.086659    7717.2344     9279.347    6406.9785    6844.5424   -61.158416   -495.13362   -276.60487   -4186.3744 
35467000    85.802197   -5212.7866   -5041.1716   -5212.7866            0    8634.0356    17.770965    22.615039    19.141771    7692.9069    8447.3622    9260.2273    8194.5173    274.51381    204.56928    302.66631   -4072.4919 
35468000    89.848102   -5208.4085   -5028.7012   -5208.4085            0    6963.7395    17.875254    22.684758    19.102751    7746.0857    6485.1762    7173.2786    7232.7638     33.79071    71.105557   -122.19594   -4242.0165 
35469000     83.83725   -5200.4579   -5032.7731   -5200.4579            0    8001.1188    17.768958    22.770915    19.090803    7724.4331    8670.6293    7663.0422    7669.6849     576.4488   -544.62676    555.12788   -4131.4236 
35470000    84.579996   -5213.2183   -5044.0479   -5213.2183            0    7731.4747    17.772428    22.708503    19.142919    7725.7993    7872.3862    7644.8309     7677.207    307.67101     790.8489   -618.08307   -4172.9205 
35471000    87.035852   -5205.4583   -5031.3759   -5205.4583            0    8613.2654    17.695939     22.79704    19.078549    7696.5734     9422.336    7739.3433    8678.1169    -1594.199   -525.88811   -34.901277   -4064.5659 
35472000    83.401787   -5212.4886   -5045.6747   -5212.4886            0    7131.5475    17.849227    22.639837    19.115232    7724.5338     7142.401    7347.6369    6904.6046    165.39809   -379.68569   -469.11994   -4242.2745 
35473000    81.859061   -5207.8293   -5044.1011   -5207.8293            0    7672.2839    17.808053    22.611592    19.198575    7730.6599    7911.6504    8066.1195    7039.0819    -483.8255    242.62998   -120.89045   -4179.0991 
35474000    85.563986   -5204.0655    -5032.927   -5204.0655            0    7075.9892    17.734223    22.806103    19.102679      7726.05    7464.9279    6527.4256    7235.6142    252.04355    156.33705    1423.1371   -4235.6292 
35475000    88.463574   -5215.0168   -5038.0787   -5215.0168            0    7919.7916    17.855529    22.537856    19.167908     7713.652    7547.5394     8658.667    7553.1683   -220.05415   -187.24993    800.06803   -4147.1362 
35476000    86.683726   -5207.1144   -5033.7363   -5207.1144            0    8199.4884    17.728238    22.750251    19.091774    7700.1296    9073.8073    7679.3694    7845.2884    1000.6894    45.294978     83.75041   -4112.9461 
35477000    95.549136   -5200.9311    -5009.821   -5200.9311            0    7573.2062    17.759185    22.801946    19.079888    7726.2855    7189.8236    8035.2503    7494.5447   -817.05099   -218.08304   -1454.7127   -4156.4726 
35478000    92.773275   -5206.8568   -5021.2987   -5206.8568            0    8251.1816    17.933897    22.428165    19.180391     7714.821    7231.0524    8673.1602    8849.3321     324.7456     123.0463     138.1998   -4092.9356 
35479000    88.466661    -5197.762   -5020.8177    -5197.762            0    9128.5122    17.809895    22.646861    19.050978    7683.9875    7535.7896    9378.4774     10471.27     656.5176   -289.64255     422.3208   -3997.8486 
35480000    94.286189   -5207.2673   -5018.6833   -5207.2673            0    7553.2186    17.929235     22.52184    19.160678    7737.0695    7098.0036    7970.4945    7591.1577   -318.05333    599.32505   -381.96321   -4166.3991 
35481000     90.40592   -5202.5286   -5021.7056   -5202.5286            0    8185.3787    17.729838    22.732891    19.155328    7720.5641    8517.2349    8111.6753    7927.2258   -401.88885    1.2446706   -1129.6372   -4100.0605 
35482000    85.561765   -5197.4762   -5026.3421   -5197.4762            0    8015.6278    17.763537    22.839194    19.000974    7708.7874    8310.4314    7551.1276    8185.3242     412.9978   -362.57641    127.17119   -4125.1871 
35483000    85.412936   -5206.5458   -5035.7094   -5206.5458            0    8576.6649    17.890924    22.460613    19.148452    7694.6357     8464.541    9442.7565    7822.6973     -1543.18   -117.44662   -188.36237   -4073.2501 
35484000    89.319629   -5200.5952   -5021.9449   -5200.5952            0    8456.0685    17.731205    22.763046    19.077645    7700.0472    8101.4893    8391.0091    8875.7072    567.25807   -611.24868    903.68431   -4072.3513 
35485000    86.582238   -5210.0381   -5036.8629   -5210.0381            0    9096.3383    17.891675    22.615539    18.999397    7687.7237    8485.5968    9518.8113    9284.6068    569.01955    -90.15433    664.92064   -4017.0036 
35486000    85.386965   -5204.4468   -5033.6623   -5204.4468            0    8629.5781    17.740411    22.675007    19.112242    7688.1657    8961.9015    8832.5952    8094.2377     459.5706    28.249419    271.56126   -4066.0794 
35487000    84.718913   -5206.4627   -5037.0145   -5206.4627            0    7883.0799    17.754968    22.730549    19.125215    7718.5573     8014.908     7369.682    8264.6498   -268.70301   -160.60657   -629.16787   -4149.6379 
35488000    87.074486   -5197.8387    -5023.679   -5197.8387            0    8685.5295    17.837052     22.48584    19.209664    7704.6328    8706.0642    9024.6014    8325.9229    160.33738   -687.16656    609.76455   -4047.7367 
35489000    85.000734   -5203.2069    -5033.195   -5203.2069            0    7707.8872    17.779094     22.82023    19.070446    7737.3189    8432.1713    7304.1632     7387.327    14.638761     221.1227    885.30163   -4163.4303 
35490000    92.211483   -5212.4378   -5028.0035   -5212.4378            0    7332.9656    17.835988    22.804297    19.025792    7738.4968    7096.1816     6983.203    7919.5121    518.32657   -82.295821    639.48177   -4200.4194 
35491000    86.786903   -5211.2516   -5037.6671   -5211.2516            0    7471.6853    17.876242    22.651208    19.075034    7723.8338    6956.9734    7233.3384    8224.7441    247.67852    -1107.306    422.38663   -4196.0251 
35492000      87.8825    -5210.223   -5034.4471    -5210.223            0    8350.6884    17.827753    22.533392    19.169615     7700.813     8386.539    8967.0076    7698.5187   -199.78107   -23.811679   -34.026598   -4096.5942 
35493000    93.394738   -5206.1591    -5019.358   -5206.1591            0    7552.5135     17.77111    22.743092    19.063282    7704.8064    6638.4795    8068.2041    7950.8568   -177.69937    224.10884   -898.06034    -4170.707 
35494000    90.056243   -5202.5921   -5022.4685   -5202.5921            0    8599.0122    17.821882    22.696649    19.023056    7694.7687    8732.0354     7947.976    9117.0253   -484.39271    203.31476    674.67927   -4057.4846 
35495000    90.392067   -5199.7284   -5018.9331   -5199.7284            0    7848.6958    17.972755    22.502874    19.095732    7723.0516     7929.338     8230.372    7386.3774   -671.92272    155.76795    -1351.165   -4134.9127 
35496000    85.222559   -5204.1039   -5033.6483   -5204.1039            0    8151.6973    17.807221    22.676174     19.09534    7710.6912    6834.0508     8626.793    8994.2481   -97.020646   -367.36486    846.95716   -4116.9694 
35497000    86.390287   -5205.3952    -5032.604   -5205.3952            0    8066.4643    17.817513    22.829505    18.987442    7723.4268    8021.3287    7798.9551    8379.1092    324.83715    930.44969    887.37408   -4124.0115 
35498000    88.480507   -5198.1292   -5021.1573   -5198.1292            0    8729.8439    17.743884    22.699316    19.141403    7709.6601    8875.6893    8225.9951    9087.8474   -128.19121   -539.79984   -563.29649   -4039.5956 
35499000    89.033632    -5213.528   -5035.4497    -5213.528            0    7986.2852    17.781154     22.72201    19.087196    7711.6768    7778.1516    7921.6956    8259.0084    142.34318   -421.64348   -265.97527    -4137.257 
35500000    93.094978   -5207.7507   -5021.5492   -5207.7507            0    7624.2336    17.952535    22.572875    19.127154    7751.0942    7626.5525     7097.837    8148.3113   -78.161543    621.36986   -426.88153   -4159.6925 
Loop time of 596.09 on 64 procs for 250000 steps with 1008 atoms

Performance: 72.472 ns/day, 0.331 hours/ns, 419.400 timesteps/s
360.5% CPU use with 16 MPI tasks x 4 OpenMP threads

MPI task timing breakdown:
Section |  min time  |  avg time  |  max time  |%varavg| %total
---------------------------------------------------------------
Pair    | 42.783     | 44.506     | 46.526     |  15.4 |  7.47
Bond    | 1.6296     | 1.8312     | 2.8952     |  21.7 |  0.31
Kspace  | 276.62     | 284.55     | 296.24     |  31.9 | 47.74
Neigh   | 1.0046     | 1.1041     | 1.1648     |   4.6 |  0.19
Comm    | 77.765     | 87.865     | 94.588     |  52.2 | 14.74
Output  | 0.44843    | 0.44907    | 0.45053    |   0.1 |  0.08
Modify  | 127.85     | 133.81     | 139.93     |  29.0 | 22.45
Other   |            | 41.98      |            |       |  7.04

Nlocal:        63.0000 ave          66 max          59 min
Histogram: 1 2 1 0 2 0 0 8 0 2
Nghost:        3480.75 ave        3487 max        3475 min
Histogram: 2 0 1 2 5 2 0 1 2 1
Neighs:        21584.8 ave       22713 max       20198 min
Histogram: 1 2 1 0 2 0 6 2 0 2

Total # of neighbors = 345356
Ave neighs/atom = 342.61508
Ave special neighs/atom = 2.0000000
Neighbor list builds = 2131
Dangerous builds = 0

unfix		3
unfix		2
unfix		1

write_data	data.final.${pid}
write_data	data.final.1
System init for write_data ...
PPPM initialization ...
  extracting TIP4P info from pair style
  using 12-bit tables for long-range coulomb (../kspace.cpp:340)
  G vector (1/distance) = 0.38011525
  grid = 24 27 32
  stencil order = 5
  estimated absolute RMS force accuracy = 0.0023647785
  estimated relative force accuracy = 7.1214601e-06
  using double precision FFTW3
  3d grid and FFT values/proc = 7875 1344
Last active /omp style is kspace_style pppm/tip4p/omp
WARNING: Not all mixed pair coeffs generated from mixing. Use write_data with 'pair ij' option to store all pair coeffs. (../write_data.cpp:312)

write_restart   restart.lmp.${pid}
write_restart   restart.lmp.1
System init for write_restart ...
PPPM initialization ...
  extracting TIP4P info from pair style
  using 12-bit tables for long-range coulomb (../kspace.cpp:340)
  G vector (1/distance) = 0.38011525
  grid = 24 27 32
  stencil order = 5
  estimated absolute RMS force accuracy = 0.0023647785
  estimated relative force accuracy = 7.1214601e-06
  using double precision FFTW3
  3d grid and FFT values/proc = 7875 1344
Last active /omp style is kspace_style pppm/tip4p/omp
Total wall time: 0:09:56
