LAMMPS (30 Jul 2021)
Processor partition = 0
  using 2 OpenMP thread(s) per MPI task
using multi-threaded neighbor list subroutines
variable        pid world 0 1
variable        phase world IceII IceVI

shell cd ${phase}
shell cd IceII
include Restart.lmp
echo both
log log.lammps
#include		in.partitions
include		in.temp
variable        temperature equal 100.49
variable	tempDamp equal 100.0
include		in.pressure
variable        pressure equal 7801.4
variable        pressureDamp equal 1000.0 # This is 1 ps
include		in.seed
variable        seed equal 745823

units		real
atom_style	full
box tilt large
read_restart	restart.lmp.${pid}
read_restart	restart.lmp.0
Reading restart file ...
  restart file = 30 Jul 2021, LAMMPS = 30 Jul 2021
  restoring atom style full from restart
  triclinic box = (-10.568053 -9.1230691 0.19592402) to (12.548053 12.113067 21.664075) with tilt (-9.1111083 1.7926741 2.7709399)
  4 by 2 by 4 MPI processor grid
  restoring pair style lj/cut/tip4p/long/omp from restart
  restoring bond style harmonic/omp from restart
  restoring angle style harmonic/omp from restart
  1296 atoms
  864 bonds
  432 angles
Finding 1-2 1-3 1-4 neighbors ...
  special bond factors lj:    0        0        0       
  special bond factors coul:  0        0        0       
     2 = max # of 1-2 neighbors
     1 = max # of 1-3 neighbors
     1 = max # of 1-4 neighbors
     2 = max # of special neighbors
  special bonds CPU = 0.003 seconds
  read_restart CPU = 0.010 seconds
include 	in.setup
variable	out_freq equal 1000
variable	out_freq2 equal 10000
variable	out_freq3 equal 1000

timestep	2.0

neigh_modify    delay 7 every 1

include		in.tip4p
# This is TIP4P/Ice

# create groups ###
group ox type 2
432 atoms in group ox
group hy type 1
864 atoms in group hy

# set charges - beside manually ###
set group ox charge -1.1794
Setting atom values ...
  432 settings made for charge
set group hy charge 0.5897
Setting atom values ...
  864 settings made for charge

# ### TIP3P Potential Parameters ###
pair_style lj/cut/tip4p/long/omp 2 1 1 1 0.1577 8.5
pair_coeff 1 1*2 0.000 0.000
pair_coeff 2 2 0.21084 3.1668
bond_style  harmonic
bond_coeff  1 450 0.9572
angle_style harmonic
angle_coeff 1 55 104.52
kspace_style pppm/tip4p/omp 1.0e-5
pair_modify tail yes

thermo          ${out_freq}
thermo          1000
thermo_style    custom step temp pe etotal epair emol press lx ly lz vol pxx pyy pzz pxy pxz pyz enthalpy

restart 	${out_freq3} restart.lmp.${pid} restart2.lmp.${pid}
restart 	1000 restart.lmp.${pid} restart2.lmp.${pid}
restart 	1000 restart.lmp.0 restart2.lmp.${pid}
restart 	1000 restart.lmp.0 restart2.lmp.0


include         in.dump
dump            myDump all atom ${out_freq2} dump.water.${pid}
dump            myDump all atom 10000 dump.water.${pid}
dump            myDump all atom 10000 dump.water.0
dump            myDump2 all dcd ${out_freq2} dump.dcd
dump            myDump2 all dcd 10000 dump.dcd
dump_modify     myDump append yes
dump_modify     myDump2 append yes


variable natoms 	equal  "count(all)"                        # NUMBER ATOMS
variable H      	equal  "enthalpy/v_natoms"                 # ENTHALPY-per-atom
variable Vol      	equal  "vol/v_natoms"                 # volume-per-atom
fix AVG all 		ave/time ${out_freq} 1 ${out_freq} v_Vol v_H file vol_enthalpy.dat
fix AVG all 		ave/time 1000 1 ${out_freq} v_Vol v_H file vol_enthalpy.dat
fix AVG all 		ave/time 1000 1 1000 v_Vol v_H file vol_enthalpy.dat


timer           timeout 10:00:00 every 1000
New timer settings: style=normal  mode=nosync  timeout=10:00:00

fix 		1 all shake 1e-6 200 0 b 1 a 1
Finding SHAKE clusters ...
       0 = # of size 2 clusters
       0 = # of size 3 clusters
       0 = # of size 4 clusters
     432 = # of frozen angles
  find clusters CPU = 0.001 seconds
fix             2 all nph tri ${pressure} ${pressure} ${pressureDamp}
fix             2 all nph tri 7801.4 ${pressure} ${pressureDamp}
fix             2 all nph tri 7801.4 7801.4 ${pressureDamp}
fix             2 all nph tri 7801.4 7801.4 1000
fix             3 all temp/csvr ${temperature} ${temperature} ${tempDamp} ${seed}
fix             3 all temp/csvr 100.49 ${temperature} ${tempDamp} ${seed}
fix             3 all temp/csvr 100.49 100.49 ${tempDamp} ${seed}
fix             3 all temp/csvr 100.49 100.49 100 ${seed}
fix             3 all temp/csvr 100.49 100.49 100 745823


run             250000
PPPM initialization ...
  extracting TIP4P info from pair style
  using 12-bit tables for long-range coulomb (../kspace.cpp:340)
  G vector (1/distance) = 0.36925962
  grid = 30 40 32
  stencil order = 5
  estimated absolute RMS force accuracy = 0.0041385073
  estimated relative force accuracy = 1.2462992e-05
  using double precision FFTW3
  3d grid and FFT values/proc = 7888 1280
Last active /omp style is kspace_style pppm/tip4p/omp
Neighbor list info ...
  update every 1 steps, delay 7 steps, check yes
  max neighbors/atom: 2000, page size: 100000
  master list distance cutoff = 10.8154
  ghost atom cutoff = 10.8154
  binsize = 5.4077, bins = 7 5 4
  1 neighbor lists, perpetual/occasional/extra = 1 0 0
  (1) pair lj/cut/tip4p/long/omp, perpetual
      attributes: half, newton on, omp
      pair build: half/bin/newton/tri/omp
      stencil: half/bin/3d/tri
      bin: standard
Setting up Verlet run ...
  Unit style    : real
  Current step  : 4250000
  Time step     : 2
  Walltime left : 9:59:59.93
Per MPI rank memory allocation (min/avg/max) = 10.66 | 10.67 | 10.68 Mbytes
Step Temp PotEng TotEng E_pair E_mol Press Lx Ly Lz Volume Pxx Pyy Pzz Pxy Pxz Pyz Enthalpy 
 4250000     101.3457   -6743.6152   -6482.9095   -6743.6152            0      6915.02    23.116105    21.236136    21.468151    10538.646    6975.7551    7382.0837    6387.2213   -620.19291    100.66822   -164.48888   -5420.1032 
 4251000    106.17722   -6766.5777   -6493.4433   -6766.5777            0    8409.8256    23.056678    21.214726    21.439502    10486.942    8852.5316    8515.9598    7860.9854   -65.182351   -162.65038   -103.93663   -5207.2337 
 4252000    98.261451   -6751.0687   -6498.2971   -6751.0687            0    7560.8055    23.099892    21.160914    21.503008    10510.989    7575.3301    7780.3961    7326.6904    -626.2358    203.21715    906.05155   -5339.2861 
 4253000    96.260382   -6744.4022   -6496.7782   -6744.4022            0    8282.6713    23.133675    21.154946    21.459426    10502.064    8589.9488    7123.4386    9134.6267    1087.5888   -1399.4958    785.79845   -5228.1891 
 4254000    97.826909    -6762.648   -6510.9943    -6762.648            0    7542.6838    23.141134    21.214395    21.374946    10493.499    6435.8318     8322.832    7869.3877   -827.66622    310.27169    247.84545   -5356.6852 
 4255000    102.28208   -6758.9404    -6495.826   -6758.9404            0    8524.3312    23.035807    21.195286     21.45747    10476.621    8512.7975    9108.6365    7951.5597    765.74404   -464.44468    706.61533   -5193.3868 
 4256000     108.1351   -6766.9486   -6488.7776   -6766.9486            0    7388.2236     23.13366    21.153944    21.455221    10499.502    7485.0545    6846.5962    7833.0199    50.555912    666.74289    410.01571   -5357.4599 
 4257000    98.953281   -6763.4043    -6508.853   -6763.4043            0    6729.5568    23.146369    21.231957     21.46105    10546.877    6146.0251    6585.3081    7457.3373    1339.6947   -122.73615    148.66117   -5473.7437 
 4258000     102.2607   -6753.8372   -6490.7778   -6753.8372            0    8314.4324    23.042111     21.27044    21.393698     10485.39    7934.4413     8799.072    8209.7839   -242.70231    224.50478   -514.92623   -5219.3459 
 4259000    104.47325   -6748.6957   -6479.9446   -6748.6957            0    8111.4941    23.036835    21.260528    21.427056    10494.442    9016.9916     7895.646    7421.8447   -585.58251   -69.608509   -1041.4538   -5238.4749 
 4260000     100.7284   -6751.6626    -6492.545   -6751.6626            0    7987.1541    23.238213    21.150711    21.364419    10500.713    8081.4231     8275.952    7604.0872    435.12157     -187.511   -574.66669   -5269.3752 
 4261000    101.81234   -6760.6751   -6498.7691   -6760.6751            0    7877.1953    23.122308    21.217828    21.400527    10499.209    7457.2692    8115.2393    8059.0773    5.8393954    482.38649    464.95338   -5292.6115 
 4262000    105.48471   -6750.4938   -6479.1408   -6750.4938            0    7452.9396    23.058454     21.30322    21.385098    10504.773     6801.204    7816.7732    7740.8418    37.915102   -933.39389   -608.22238   -5337.3405 
 4263000     101.7325   -6747.4195   -6485.7189   -6747.4195            0    7689.1027    23.106233    21.246077    21.415028    10512.997    7397.2374    8046.5257    7623.5449   -301.37792   -204.92383   -177.72182   -5306.8158 
 4264000    97.455225   -6757.9037    -6507.206   -6757.9037            0    7840.5827    23.214399    21.160433    21.331946    10478.822    7758.4987    7424.6698    8338.5797    523.39545   -866.80433    231.45856   -5308.9857 
 4265000     100.2922    -6750.146   -6492.1505    -6750.146            0    7727.0131    23.180115    21.186477    21.393838     10506.62     6339.725    8360.1217    8481.1928   -1151.1778     378.1076      647.851   -5308.1536 
 4266000    101.53108   -6758.5287   -6497.3462   -6758.5287            0    7823.5224    23.060814    21.215645    21.457289     10497.98    7931.0607    8188.2839    7351.2227    320.93768    31.818132    138.96679   -5299.5472 
 4267000    100.45532   -6752.0841   -6493.6689   -6752.0841            0    8067.9366    23.054129     21.21396    21.442943    10487.087     8290.078    7719.5369    8194.1948     337.1746   -229.47586   -875.02408   -5259.7312 
 4268000    97.077022   -6759.2292   -6509.5045   -6759.2292            0    7693.7171    23.166483    21.248108    21.323545    10496.386     6983.385    7654.6262    8443.1401   -77.872722    233.47754    13.359461   -5331.7578 
 4269000    102.00098   -6759.1856   -6496.7943   -6759.1856            0    8280.2204    23.111621    21.220447    21.348046    10469.912     8153.979    8030.9891    8655.6933    -969.0037     71.38565    295.03488   -5232.4631 
 4270000     99.45197   -6758.2806   -6502.4465   -6758.2806            0    7429.8804     23.11588    21.226947    21.438046    10519.211    7606.0165    8001.0195    6682.6053   -705.43449    687.99421    -736.6762   -5362.6144 
 4271000    96.054917   -6757.2492   -6510.1538   -6757.2492            0    8010.9687     23.00407    21.233247    21.484964    10494.354    8368.2276    8131.4006     7533.278    263.39181    247.87747   -246.88625   -5284.0799 
 4272000    99.802369    -6750.726   -6493.9905    -6750.726            0    7573.8263    23.030486    21.342692    21.376177    10507.088    7382.4891    7447.0674    7891.9225   -55.084846    -127.0561   -34.364069   -5333.4145 
 4273000    101.21466   -6758.0178   -6497.6493   -6758.0178            0    8620.5462    23.153882    21.194977    21.318013    10461.729    7867.1376    8464.1139     9530.387    102.56168    349.12054   -272.71002   -5182.3816 
 4274000    108.90951   -6747.0625   -6466.8994   -6747.0625            0    7986.8248    23.173886    21.132653    21.415014    10487.482    7571.6296    8675.5497    7713.2951    819.81731    606.44236   -374.97914   -5245.3211 
 4275000    103.62971   -6745.6632   -6479.0821   -6745.6632            0     8607.006    23.072653    21.197431    21.458415    10494.902    8779.1567    8546.0973    8495.7639   -38.292741    97.038186   -413.75506   -5161.7162 
 4276000    105.89679   -6755.8375   -6483.4244   -6755.8375            0    7448.8132    23.016168    21.254484    21.470921    10503.505    7668.8006    6691.8871    7985.7518    129.45091    -235.5231    419.72749    -5342.394 
 4277000     99.38753   -6742.8392   -6487.1709   -6742.8392            0     8323.415    23.094026    21.206015    21.435688    10497.748    8339.0738    8968.0224    7663.1488    616.09814   -436.63438    269.25597   -5212.8653 
 4278000    98.375814    -6763.029   -6509.9632    -6763.029            0    6792.6334    23.209438    21.139217    21.433746    10516.025    7089.4291    5966.7306    7321.7405   -611.59977    250.81186    53.551982    -5468.208 
 4279000    97.926079   -6753.8002   -6501.8913   -6753.8002            0    8032.1184    23.106184    21.188741    21.402505    10478.473    7361.0433    8396.5258    8338.7861    135.26765   -272.78637    525.08975   -5274.4408 
 4280000    105.21297   -6750.0232   -6479.3692   -6750.0232            0    7984.4932    23.009774     21.27529    21.418979    10485.439    8308.5227    8203.5118    7441.4452   -354.43868    146.07608    228.66613   -5258.3855 
 4281000    101.63837   -6748.5889   -6487.1304   -6748.5889            0    7405.7408     23.04305     21.31156    21.445203    10531.382    7531.2333    7152.0753    7533.9137    779.54597   -80.362346    289.61908   -5349.6871 
 4282000    103.46691   -6756.0859   -6489.9236   -6756.0859            0    7441.7381    23.124522    21.180115     21.45093    10506.237    6935.4755     8267.079    7122.6599    -268.7997    872.10756    301.50824   -5349.6804 
 4283000    104.85072   -6757.0301    -6487.308   -6757.0301            0    9430.9105    23.151716    21.033267    21.414124    10427.741    8805.0534    9686.5302    9801.1478    491.51278   -250.57085    82.532126   -5053.0749 
 4284000    98.381707    -6757.848    -6504.767    -6757.848            0    7262.8297    23.083437    21.157945    21.556724    10528.263    7377.5028    7282.9449    7128.0415     116.5057    347.82666    779.67211   -5389.6037 
 4285000    102.32632   -6764.5645   -6501.3363   -6764.5645            0    8399.2792    23.050078    21.201471    21.404152    10460.114    7790.6875    9022.0373    8385.1129    564.25162    346.81659   -61.809922    -5220.026 
 4286000    98.014711    -6753.665   -6501.5282    -6753.665            0    8305.9683    23.047341    21.258968    21.355076    10463.191    8205.8061     7776.396    8935.7029    253.60932    199.99922    1022.1128   -5234.0798 
 4287000    103.92261    -6760.795   -6493.4604    -6760.795            0      7220.21    23.161675    21.141416    21.477825     10517.06    7385.9734    7262.3636     7012.293   -853.99425    460.94544     359.4303   -5386.0208 
 4288000    103.42468   -6764.1233   -6498.0697   -6764.1233            0    7513.6594    23.082078    21.223338    21.455401    10510.545     8191.574    6586.7758    7762.6284    382.84085   -20.712088    288.41076   -5346.3345 
 4289000     102.7787   -6757.1678   -6492.7759   -6757.1678            0    8252.7075    22.963656    21.318625     21.40088    10476.877    9336.7346    7386.6633    8034.7244   -789.08041    702.02881   -13.740587   -5231.8075 
 4290000    100.49281   -6762.1128   -6503.6012   -6762.1128            0    7277.0728    23.115453    21.346075    21.297552    10508.728    7986.9465    5860.3143    7983.9577   -241.85315   -231.72931   -253.92741   -5388.3242 
 4291000    101.29547   -6762.4811   -6501.9046   -6762.4811            0    8016.0679    23.191343    21.119555    21.411645    10487.228    7429.0299    8566.5272    8052.6465   -565.40618   -239.88129   -156.88517   -5275.8834 
 4292000    103.24798   -6759.4132   -6493.8141   -6759.4132            0    8303.4664    23.133902    21.110971    21.426882    10464.442    7646.7606    8681.6323    8582.0063    218.09916   -278.79032    115.62647    -5226.596 
 4293000    98.872378   -6747.4315   -6493.0884   -6747.4315            0    6853.1206    23.016806    21.335924    21.471985    10544.566    7029.7988    6566.1653    6963.3977   -1288.9055    770.67191    64.928807    -5439.204 
 4294000     103.4503   -6756.1376    -6490.018   -6756.1376            0    8119.5899    23.025533    21.356304    21.318374    10483.103    8976.2486    6800.5672    8581.9537     173.6386     -73.2025     268.1241    -5248.652 
 4295000    93.416144   -6762.2142   -6521.9069   -6762.2142            0    7748.6263    23.069354     21.22026    21.440709    10496.035     7925.189    7889.7516    7430.9384   -176.62619    52.947744   -253.43136   -5335.7944 
 4296000    104.71911   -6762.1596   -6492.7761   -6762.1596            0    8051.7274    23.188062    21.078644    21.510839    10513.915    7520.4756     8369.845    8264.8615   -171.00632    227.76175    111.56812   -5258.1671 
 4297000    101.03221   -6762.4065   -6502.5073   -6762.4065            0    8648.4033    23.117424    21.055635    21.491686    10461.122    9030.9519    9443.2478    7471.0102    -793.9036   -229.51972   -1073.8313    -5183.066 
 4298000    101.21539   -6751.0983   -6490.7279   -6751.0983            0    7106.7641    23.074437    21.329471     21.38185     10523.41    7589.7002    6699.1024    7031.4897    1385.8076    383.58312    43.823791   -5400.0305 
 4299000    103.19626   -6753.2105   -6487.7444   -6753.2105            0    7704.0104    23.080671    21.276816    21.375767     10497.28    7631.8849    7482.9295    7997.2168    208.53778   -140.28751    4.5033254   -5308.3216 
 4300000    101.55406    -6756.782   -6495.5404    -6756.782            0    7660.0216    23.047133    21.196335    21.487571    10496.996    8435.2248    7491.5552    7053.2847   -410.69715   -823.10691     324.9915   -5322.8836 
 4301000    103.98332   -6757.1137    -6489.623   -6757.1137            0    7451.5662    23.174572    21.075809    21.539762    10520.512     7334.791    7227.1379    7792.7697    614.39354   -327.40166    724.10896   -5346.3227 
 4302000    99.859842    -6763.606   -6506.7227    -6763.606            0    7743.3542    23.143648    21.186815    21.399532    10493.051    8099.4891    6955.5337    8175.0396   -486.51072    400.07106   -41.372885   -5321.7542 
 4303000    99.462051   -6757.9807   -6502.1206   -6757.9807            0    7769.3378    23.003647    21.400043    21.300217     10485.65    7891.4206    6950.4833    8466.1096    795.91627     342.8037    501.49969   -5314.0144 
 4304000    101.97917   -6747.3627   -6485.0275   -6747.3627            0     8184.951    23.052661    21.277537    21.373546    10483.807    7364.8315    7757.4408    9432.5807    787.23815    798.63905     185.5637   -5233.5848 
 4305000    100.70413   -6749.7198   -6490.6646   -6749.7198            0    8242.6666    23.143116    21.154325    21.408727     10481.22    8017.9408    8662.6129    8047.4461    177.28073    47.521673   -706.45767   -5230.7083 
 4306000    104.35058   -6753.3327   -6484.8972   -6753.3327            0    7255.1765    23.177359    21.134601    21.500754     10532.02     7240.484    7243.2237    7281.8218   -1326.4677    276.80023   -409.05809   -5370.5115 
 4307000    99.058499   -6748.3056   -6493.4836   -6748.3056            0    7804.5592    23.127112    21.274914    21.315409    10487.763    7477.2318    7897.4805    8038.9652    342.09308    633.77023   -487.59976   -5299.7508 
 4308000    98.899418   -6751.2753   -6496.8626   -6751.2753            0    8185.9823    23.051053    21.320675    21.347189    10491.375    7962.6179    7582.6968    9012.6321   -349.46758    703.62613    137.97094   -5244.3587 
 4309000    102.29294   -6755.7124   -6492.5701   -6755.7124            0    8237.2852    23.061902    21.173279    21.470465    10483.944    8698.5708    8239.9126    7773.3722   -204.80436   -371.31903    614.32703   -5233.1092 
 4310000    94.031925   -6753.9796   -6512.0882   -6753.9796            0    6983.0431     23.25402    21.029422     21.50778    10517.704     6060.942    7405.6483    7482.5388    243.28609    444.54544   -205.62688   -5440.9598 
 4311000    99.428248   -6756.1821    -6500.409   -6756.1821            0     7654.771    23.147437    21.195882     21.42054    10509.567    7759.1698    8013.1058    7192.0374    130.63064   -449.48853   -384.28741   -5327.1527 
 4312000    96.886631   -6737.6529    -6488.418   -6737.6529            0     7804.944    22.981815    21.347092     21.38144    10489.626    8380.9409    7540.8762    7493.0149    -531.9576   -65.915294   -78.638785   -5294.4143 
 4313000    101.55783   -6740.7344   -6479.4831   -6740.7344            0    7516.0808    23.111816    21.240286    21.424483    10517.313     7580.317    7111.1609    7856.7646     373.3875   -507.24334    144.33687   -5326.6349 
 4314000    98.149897   -6755.7116    -6503.227   -6755.7116            0    7341.8707    23.136507    21.175162     21.44159    10504.649    7494.6876    7878.6815    6652.2431    96.755445    179.09883   -530.63401   -5378.4559 
 4315000    93.526032   -6754.0324   -6513.4423   -6754.0324            0    7709.9734     23.14726    21.217356    21.373245    10496.906    7886.8324    7305.5545    7937.5334    79.074545   -333.74108    544.80575   -5333.1487 
 4316000    103.05632   -6749.1301    -6484.024   -6749.1301            0    7727.7557     23.10275    21.176916    21.477602    10507.809    7792.2204     8170.918    7220.1285   -504.25407    535.57043    -675.4702   -5299.7793 
 4317000    100.32609   -6767.5525   -6509.4698   -6767.5525            0    8279.6696    23.067007    21.092278     21.51171    10466.215     7824.877    8651.4212    8362.7107     213.1261    407.09347   -12.878971   -5245.6692 
 4318000    99.161614   -6763.6304   -6508.5432   -6763.6304            0     7722.661     23.06304    21.232317    21.448107    10502.747    7814.2438    8066.6727    7287.0665   -320.62741    75.982232   -681.77339   -5325.6494 
 4319000    97.711749   -6769.0681   -6517.7106   -6769.0681            0    8067.9445    23.099858    21.211578    21.388067     10479.82    8506.7498    7317.3685    8379.7152   -5.1315827    57.167974    109.86472   -5284.6267 
 4320000    98.751033   -6759.2945   -6505.2635   -6759.2945            0    6702.2533    23.088207    21.236032    21.510136    10546.461    7268.0515    6901.7819    5936.9265    1497.4473     -223.475   -133.16952   -5474.3946 
 4321000    103.36933   -6757.1602   -6491.2489   -6757.1602            0    8206.0866    23.026169     21.20926    21.438451    10469.853     8440.528    7981.8933    8195.8384    286.38806    40.944828    179.07565   -5238.2446 
 4322000    103.50975   -6743.8474   -6477.5748   -6743.8474            0    7333.0036     23.18962     21.23062    21.394515    10533.162    5886.6015     7937.528    8174.8814    248.09968    385.35158   -78.393486   -5351.1129 
 4323000    96.606529   -6753.5113   -6504.9969   -6753.5113            0    8274.0872    23.110204    21.220773    21.384228    10487.176    8511.7708    8125.3258    8185.1651   -393.15444   -232.70497   -470.17204   -5239.5191 
 4324000    99.086487   -6751.8928   -6496.9989   -6751.8928            0    8129.6829    23.060619    21.298754     21.33454    10478.725    7955.3462    7612.8735     8820.829    733.60806    191.70688   -146.26476   -5254.6089 
 4325000    98.194903   -6750.8174    -6498.217   -6750.8174            0    7495.9905    22.980863    21.339038    21.467087    10527.234    8022.0985     7203.134    7262.7389   -571.08196       910.58   -218.06541   -5347.3657 
 4326000    98.245018    -6749.377   -6496.6477    -6749.377            0    8067.6199    23.058251    21.207986    21.440319    10484.724    7866.0573    8118.7449    8218.0576    333.86303    549.58825    537.13039   -5263.0364 
 4327000    96.207068   -6742.7072   -6495.2204   -6742.7072            0     9372.969    23.124402    21.059307    21.442028    10441.922    9567.4541    9924.1512    8627.3019   -1048.6676   -246.10261    389.06704   -5067.8604 
 4328000    106.91112   -6760.6993   -6485.6769   -6760.6993            0     6551.622    23.175581    21.213001    21.424901    10532.987    5990.4875    6769.0958    6895.2827    132.68097   -213.01567    104.72706   -5479.2638 
 4329000    98.602146   -6762.2529   -6508.6049   -6762.2529            0    7714.5853    23.043951     21.28285    21.422423    10506.433     8425.685    6628.1433    8089.9276   -871.78923    4.8018221    7.7120106   -5326.5332 
 4330000      98.0565   -6731.1733    -6478.929   -6731.1733            0    8781.5294     23.04868    21.314765    21.303484    10465.916    8023.7322    8764.3951    9556.4609    -101.7832    905.31126   -331.08508   -5138.5634 
 4331000    98.278597   -6757.0803   -6504.2646   -6757.0803            0    7434.2153    23.139948    21.203133    21.413304    10506.211    6363.8548     7665.265     8273.526    -165.7028    532.19577    130.88655    -5365.177 
 4332000     101.9394   -6764.7364   -6502.5035   -6764.7364            0    7997.9512    23.157214    21.056713      21.5154    10491.228    7703.5758    8306.7223    7983.5556    332.89464    99.773928    545.20453   -5278.7866 
 4333000    100.97485   -6758.9154   -6499.1637   -6758.9154            0    7412.3212     23.01775    21.214864    21.515692    10506.509    7968.9496    6992.8909    7275.1231    784.34832    -593.4694    667.34365   -5363.3986 
 4334000    107.26243   -6750.4804   -6474.5543   -6750.4804            0    7860.6883    23.014334    21.260619     21.45898    10499.857    7809.8782    8410.7824    7361.4043    206.90663    816.60657    112.32492   -5270.8499 
 4335000    99.538724   -6754.2285   -6498.1711   -6754.2285            0    8213.2678    23.139525    21.227155    21.317095    10470.664     7658.596    8455.9185     8525.289    417.46573    173.58398   -124.97961   -5243.9731 
 4336000    97.809359   -6756.1805   -6504.5719   -6756.1805            0     7265.381    23.216814    21.223618    21.334184    10512.308    6478.8771     7314.118    8003.1479   -435.48412    627.54378    426.86242   -5390.7074 
 4337000    100.21388   -6765.5651    -6507.771   -6765.5651            0    8103.8378    23.007366    21.262433    21.431852    10484.302    8591.7581    7421.5306    8298.2247   -109.02098   -222.61898    35.857081   -5268.6715 
 4338000    100.69462   -6753.6534   -6494.6226   -6753.6534            0    7582.6176    22.864217    21.352878    21.541331    10516.841    8728.9055    7119.6702    6899.2771    380.60831   -704.64749   -432.00915    -5331.621 
 4339000    96.903069   -6767.5777   -6518.3005   -6767.5777            0    7167.7213    23.102865    21.191647    21.494565    10523.476    7059.7346     7303.533    7139.8962    716.85232    -299.2048   -119.95879   -5418.2409 
 4340000    100.01156   -6764.9635   -6507.6899   -6764.9635            0    7152.5924    23.206089    21.206025    21.335157    10499.221    6727.2482    6639.9139    8090.6152   -323.65039   -138.52252    308.72146   -5412.4823 
 4341000    100.60189   -6759.5003   -6500.7081   -6759.5003            0    8569.8322    23.078209    21.185086    21.357029    10441.747    8977.7682    8604.7141    8127.0144    11.132931   -705.05162    427.25572   -5195.6754 
 4342000    101.75789   -6760.7966   -6499.0306   -6760.7966            0    7270.7756    23.030835    21.228323    21.513536    10518.097     7323.446    7486.2703    7002.6105    -446.4875    809.07683   -557.99193   -5383.7252 
 4343000    98.817427   -6749.7708    -6495.569   -6749.7708            0    8176.5084     22.94496    21.296271    21.433007    10473.069    9274.2526    7331.1568    7924.1159    514.02477   -287.50752    488.66274   -5246.6975 
 4344000    103.39687    -6760.278   -6494.2959    -6760.278            0    7296.6175    23.136704     21.20218    21.419598    10507.353    7417.2988    7339.0424    7133.5113   -264.64704    278.49577    1073.5626   -5376.1697 
 4345000    98.976816   -6766.7937   -6512.1819   -6766.7937            0    7547.1788    23.275118      21.0187    21.434759    10486.157    6556.0318    8581.6246    7503.8799   -44.895311   -719.63619    484.94217    -5357.993 
 4346000    102.39015   -6750.5353   -6487.1429   -6750.5353            0     7562.755    23.142514    21.209797    21.421871    10514.883    7028.1717    7710.9932    7949.1001   -420.85994    834.36424    671.16756   -5327.4036 
 4347000    102.14323   -6761.3624   -6498.6052   -6761.3624            0    7689.6315    22.976846    21.301131    21.442294    10494.562    7595.7361    7779.9422    7693.2162    654.92773    314.64469   -760.94871   -5321.6885 
 4348000    95.727368   -6759.9231   -6513.6703   -6759.9231            0    7789.4949    23.012901    21.274458    21.427566    10490.657    7663.1361    7800.4051    7904.9435    406.72239   -280.11985   -425.70191   -5321.9128 
 4349000    98.970576   -6750.1117   -6495.5159   -6750.1117            0    7299.3537    23.237075     21.16542    21.381133    10515.721    7155.8274    7281.9798    7460.2539    111.38686   -76.211934    214.76285   -5376.0797 
 4350000    98.903424   -6759.3459   -6504.9229   -6759.3459            0    7923.1748    23.124323    21.146881    21.414282     10471.74    7897.4733    7838.1405    8033.9105   -322.87936    277.83159    161.25423   -5294.8989 
 4351000    98.667616   -6761.0316   -6507.2151   -6761.0316            0    8411.3464     22.98832    21.229479    21.448918    10467.717    8763.8168    7995.9724      8474.25    101.81294    244.49701   -347.91507   -5223.1314 
 4352000     97.95188   -6751.0442    -6499.069   -6751.0442            0    7926.2864    23.006063    21.351117    21.386649    10505.232    7987.5958    7666.7066    8124.5569    695.53447    513.26717    519.38772   -5284.6982 
 4353000    102.01524   -6754.3166   -6491.8886   -6754.3166            0    6449.7618    23.195162    21.206628    21.460319    10556.142    5816.2113    7314.1032    6218.9708   -517.58489    194.10394   -63.953285   -5498.9446 
 4354000    102.42455   -6757.4151   -6493.9341   -6757.4151            0    8376.2352    23.165858    21.120331    21.416951    10478.684    7791.6185    9096.5005    8240.5867    22.245548    -13.29857   -995.74867   -5213.8707 
 4355000    101.08926   -6749.5719    -6489.526   -6749.5719            0    7744.4307    23.076248    21.216223    21.422563    10488.291    7144.6732    8053.6494    8034.9695    9.8091073   -115.55443   -518.06311   -5304.9304 
 4356000    99.580047   -6759.8097    -6503.646   -6759.8097            0    8346.9919    23.017091     21.29745    21.369012    10475.204     7928.198    8846.0222    8266.7557    689.74108    163.23986    253.75727   -5228.4752 
 4357000    99.397703   -6757.6965    -6502.002   -6757.6965            0    7919.6394    22.971476    21.231085    21.495017    10483.321    8500.1432    8484.9214    6773.8536   -717.34679    672.66624    173.24451   -5291.1803 
 4358000    98.990511   -6755.6628   -6501.0158   -6755.6628            0    7718.3287    23.148942    21.173091     21.41229    10494.905    7232.0708    7447.3103    8475.6049    275.34679    417.19169      944.304   -5319.6682 
 4359000    99.756978   -6760.7572   -6504.1384   -6760.7572            0    7929.6767    23.199162    21.065943    21.449477    10482.622    7387.9387     8085.558    8315.5335   -190.72642    422.87653    554.28806   -5291.8631 
 4360000    102.49062   -6764.8822   -6501.2314   -6764.8822            0    7865.0783    23.084907    21.205097    21.379866    10465.822    8149.8272    8342.8774    7102.5304     596.8108   -895.83107   -754.08225   -5300.7586 
 4361000    99.778101   -6757.6931     -6501.02   -6757.6931            0     6438.974    23.019306     21.31034    21.516682    10554.992    6353.6035    6160.0927    6803.2258   -305.42593    703.97733   -307.02321   -5509.8447 
 4362000    99.917591   -6753.2313   -6496.1993   -6753.2313            0    8111.6903    22.982375    21.291656     21.45413     10498.21    9220.8608    7643.7533    7470.4568    77.846347   -594.84988     246.3703   -5254.2539 
 4363000    101.42081   -6754.0526   -6493.1537   -6754.0526            0     7486.029    23.215608    21.111259    21.416335    10496.375    6383.3578    7412.5146    8662.2145   -316.15196    949.50078    795.37036   -5347.2009 
 4364000    99.217349   -6747.9885    -6492.758   -6747.9885            0     8300.804    23.217857    21.160399    21.349959    10489.216    7656.3408    8932.3358    8313.7355    256.32987     173.1741    377.01422   -5222.9469 
 4365000    99.816584   -6748.2794   -6491.5073   -6748.2794            0    7457.1898    23.047171    21.304804    21.398177    10506.836    6962.6718    7499.3789    7909.5189   -277.93515    1039.1697   -292.01033   -5348.8315 
 4366000    95.961042   -6762.5549    -6515.701   -6762.5549            0    8000.7181    23.032942    21.254654    21.450512    10501.253    8562.7286    7543.3256       7896.1    202.69024   -278.37729   -445.12502    -5290.391 
 4367000    91.908114   -6761.7136   -6525.2856   -6761.7136            0    7637.1737    23.091399     21.22404    21.426136    10500.794    7003.0561    8253.0514    7655.4137   -268.43742   -207.59382    -848.8825   -5355.7035 
 4368000    95.636816   -6753.4319    -6507.412   -6753.4319            0    8276.3688    23.150048    21.217976    21.339836    10482.067    7538.4406     8477.338    8813.3276    734.63625   -628.29807   -397.49276    -5242.202 
 4369000    96.064269   -6747.9752   -6500.8558   -6747.9752            0    8078.3712    23.115652    21.235411    21.375002    10492.355    7965.8126    7349.0689    8920.2319   -235.90056   -22.319271   -518.60891   -5264.7015 
 4370000    103.40408   -6764.5016   -6498.5009   -6764.5016            0    8033.5405    22.972518    21.300768    21.426653    10484.753    8130.9952    8567.7276    7401.8988   -269.39371    361.21712   -620.35978   -5270.0973 
 4371000    97.539224   -6748.9862   -6498.0725   -6748.9862            0    8821.6797    22.993997    21.234715    21.442737    10469.866    9030.2709    8619.4871    8815.2811    543.28175   -264.48497    77.992732   -5151.0703 
 4372000    102.38364   -6746.8846    -6483.509   -6746.8846            0    7343.4399    23.181458    21.187493     21.41107    10516.196    7447.1079    7129.1595    7454.0524   -105.54082   -303.74702    542.44623   -5357.2607 
 4373000    97.478566   -6749.1077     -6498.35   -6749.1077            0    8487.6138    23.100306     21.10669    21.451438    10459.099    8484.3373    9489.5736    7488.9303    44.770825   -489.54017   -279.17779   -5203.6899 
 4374000    98.899016    -6746.599   -6492.1873    -6746.599            0    7828.3616    22.971737    21.264516    21.489931    10497.463    8299.8135    7326.8483    7858.4229   -424.55326   -537.04606    702.46985   -5293.7064 
 4375000    103.12475   -6752.0322     -6486.75   -6752.0322            0    7994.5676    22.978552    21.286013    21.439836    10486.691    7966.5468    8420.8719     7596.284   -15.903325    24.353532   -94.149298   -5264.0799 
 4376000    100.35786   -6756.3499   -6498.1855   -6756.3499            0    7685.9806     23.08569    21.218709    21.404968    10485.192      7831.96    7562.0072    7663.9746   -201.28148    170.24972    78.391199   -5322.8778 
 4377000    102.18213   -6765.9007   -6503.0434   -6765.9007            0    7288.1253     23.19976    21.238534     21.30952    10499.816    7182.8606    6522.4171    8159.0981    193.43709   -1219.6307    299.35664   -5387.0197 
 4378000    100.59607   -6758.1993   -6499.4221   -6758.1993            0    7396.2053    23.127005    21.174744    21.453399     10505.91    7039.3365    8252.9849    6896.2945    -779.1865     848.5185   -237.83865   -5366.1909 
 4379000    102.43149    -6744.366   -6480.8672    -6744.366            0    8081.8109    23.081277    21.222174    21.432455    10498.364    7838.5739     8618.993    7787.8659    178.57788    254.15717   -23.010002   -5243.4783 
 4380000     97.16689   -6765.7777   -6515.8218   -6765.7777            0    7932.5167    23.129099    21.286589    21.297701    10485.702    8189.4744    7149.5895    8458.4863    -384.8687    201.57635   -755.50563   -5302.7559 
 4381000    99.012119   -6770.5669   -6515.8643   -6770.5669            0    6895.1878    23.139341     21.25108    21.373705     10510.22    6706.5513    6542.5504    7436.4619   -216.37668   -442.61657    -698.4807   -5458.9645 
 4382000    103.24499   -6746.9243   -6481.3328   -6746.9243            0    8216.6695    23.141434    21.139482    21.431527    10484.259    8361.5818    7514.2692    8774.1575    34.918115    -745.9595    191.03273   -5224.9863 
 4383000    100.69994   -6750.5578   -6491.5134   -6750.5578            0    7862.3896    23.108137    21.221307    21.404842    10496.611      7639.33    8128.0435    7819.7954    517.51916    671.05232    695.80891   -5287.9207 
 4384000    99.231761    -6759.977   -6504.7094    -6759.977            0    8782.5492    22.998929    21.228847     21.40775    10452.136    9135.3423    8073.6742     9138.631   -575.36306    306.20726    1273.0753   -5165.9531 
 4385000    96.723148   -6761.6521   -6512.8377   -6761.6521            0     7076.253    23.110223    21.239154    21.408118    10507.994    6901.3398    7183.1416    7144.2776    1081.8254    6.5046609    214.45346   -5428.4139 
 4386000    100.41893   -6743.7124   -6485.3909   -6743.7124            0    8673.5983    23.008307    21.241655    21.444355    10480.596     8902.369    8354.0554    8764.3706    603.62063   -147.18438    324.98366   -5159.6422 
 4387000    97.003358   -6752.3611   -6502.8259   -6752.3611            0    7221.1128    23.064395    21.147438    21.583384    10527.358    7484.2467    7909.3656    6269.7259   -23.051396    530.19326   -142.33546   -5394.1633 
 4388000    99.627973   -6763.6025   -6507.3156   -6763.6025            0    7901.2676    23.086302    21.155721    21.461849    10482.125    7967.0471    8184.3867     7552.369     751.2055   -744.61395   -189.20363   -5299.4406 
 4389000    100.29076   -6764.3996   -6506.4077   -6764.3996            0    7210.8248    23.050438      21.3071     21.36453    10492.932    6726.5803    7299.6622    7606.2318   -134.76736       398.69    41.174399   -5402.9449 
 4390000    99.495847   -6756.3855   -6500.4385   -6756.3855            0    7437.5209    23.027905    21.264829    21.461215    10509.224     7678.279    7191.6919    7442.5919    437.77413   -908.18906    542.09436   -5360.5176 
 4391000    98.455254    -6762.956   -6509.6859    -6762.956            0    7547.0777    23.119111    21.187982    21.463911    10514.039    7972.2027    8020.6298    6648.4007   -330.15603    576.55587    -976.7039   -5352.4436 
 4392000    102.62694   -6760.1603   -6496.1588   -6760.1603            0    8083.0429    23.197825    21.229958     21.30431    10492.135    7119.8652     8539.878    8589.3857    821.68662   -167.09214    483.69683   -5259.3156 
 4393000    99.314407   -6748.3292   -6492.8489   -6748.3292            0    8739.0164    23.130107    21.184454    21.352079     10462.49    8183.0489    9264.9835    8769.0167   -327.47451    418.69976   -593.48629   -5159.4088 
 4394000    100.13569   -6759.0404   -6501.4475   -6759.0404            0    7929.9802    23.082093     21.18589    21.458101    10493.327    7701.7551    8094.9529    7993.2326    732.08697   -115.31318   -614.82239   -5287.8876 
 4395000    101.77916   -6745.6191   -6483.7985   -6745.6191            0    7483.6114    23.052426    21.197042    21.502214    10506.911    8097.9904    7342.8642    7009.9795   -486.37809    193.33218   -181.40319   -5337.0658 
 4396000    98.599845   -6756.4895   -6502.8474   -6756.4895            0    7883.4823     23.11565    21.269249    21.331397    10487.635     7002.664    8119.3477    8528.4352    60.422172    442.79997    420.56676   -5297.0577 
 4397000    97.881983   -6757.0217   -6505.2262   -6757.0217            0    8740.4081    23.187532     21.18002     21.29296    10457.237      7610.68    8268.6194    10341.925   -1084.1498    682.58345    404.04393   -5172.2434 
 4398000    97.824671   -6762.2434   -6510.5954   -6762.2434            0    7559.8191    23.065267     21.14633    21.539147    10505.627    7449.6527    7955.7217    7274.0829    66.450053   -362.18571   -438.17432   -5352.3268 
 4399000    101.87265   -6746.8781   -6484.8169   -6746.8781            0    8025.1906    22.945657    21.228392    21.562975    10503.313    8825.0018    8209.5105    7041.0594    367.13737   -484.92486    -399.6122   -5255.5179 
 4400000    98.936345   -6762.1182   -6507.6105   -6762.1182            0    7639.7398    23.139974    21.243287    21.351525     10495.75    6626.7769    8179.2244    8113.2181    875.31902    598.92666   -107.11455   -5338.1974 
 4401000    103.49048   -6751.8054   -6485.5824   -6751.8054            0    7332.4708    23.224576    21.166675    21.363967     10502.25    7249.5166    7677.6846    7070.2113   -243.06828   -248.11474   -322.97394   -5362.5079 
 4402000    100.08805   -6766.9903   -6509.5199   -6766.9903            0    7722.0261    23.063347    21.161669    21.507116     10496.74     8603.722    7756.5534     6805.803   -481.57247    225.09488    302.10621   -5327.3998 
 4403000    104.53968   -6759.1074   -6490.1854   -6759.1074            0    6817.7821    23.004621    21.280343    21.506718    10528.533    6998.5704    6962.8434    6491.9326    214.07435   -422.40269   -193.70884   -5443.3296 
 4404000    103.26586   -6758.9691   -6493.3239   -6758.9691            0    9180.7029    23.061686    21.229717    21.315092    10435.721    8227.3423    9477.1149    9837.6514   -86.500703     704.9932   -254.53477   -5096.0734 
 4405000    100.36879   -6769.1645   -6510.9719   -6769.1645            0    7048.7226    23.307585    21.119345    21.369059    10518.725    6240.5318    8058.3437    6847.2922    20.786463    66.251854   -214.87939   -5429.6639 
 4406000    99.168356   -6776.2372   -6521.1326   -6776.2372            0    7400.2157    23.203736    21.061921     21.49848    10506.635    7817.0398    7714.9626    6668.6447    -519.1822   -527.39355    122.69785   -5387.2088 
 4407000    100.98938   -6763.2373   -6503.4483   -6763.2373            0    8307.9492    23.040388    21.202645     21.44404    10475.781    8635.0427    7747.3081    8541.4969   -204.32203    598.79796   -89.442051    -5234.172 
 4408000    102.04696   -6775.2811   -6512.7715   -6775.2811            0    6463.1345     22.96296    21.424481    21.413909     10534.99    6888.0114    5772.5555    6728.8367    435.15971   -38.694473    179.37106   -5519.7624 
 4409000    101.13877   -6753.8234   -6493.6501   -6753.8234            0    8723.5493    23.094633    21.154368    21.412567     10461.16    8465.8434     9197.269    8507.5356    -166.6561    -1009.215     -256.222   -5162.7393 
 4410000    97.063709   -6756.0084   -6506.3179   -6756.0084            0    7288.0166     23.22624    21.130522    21.414805    10510.014    6991.8742    7383.1971    7488.9785     151.9844   -171.16217   -98.108214    -5389.227 
 4411000    99.577596   -6769.4856   -6513.3283   -6769.4856            0    7475.4939    23.119316    21.244747    21.390766    10506.374     7442.318    7659.5378    7324.6258   -67.385721    -825.2729   -310.55549   -5367.8981 
 4412000    98.903557   -6749.9714    -6495.548   -6749.9714            0    8596.2205    22.850441    21.301424    21.525012    10477.234    9223.8345    8633.9434    7930.8836    484.31021    -298.2439    12.939614   -5182.0481 
 4413000    99.370561   -6756.0098   -6500.3851   -6756.0098            0    7436.1753    23.065449    21.223161     21.46499    10507.579    7319.1267     7195.408    7793.9912    -182.3145     128.7641   -334.97035   -5360.8488 
 4414000    98.319561   -6758.5323   -6505.6112   -6758.5323            0    8598.0906    23.125773    21.169388    21.380704    10467.105    8103.3363    8125.9984    9564.9371    454.90095   -62.644055    1177.6428   -5193.0956 
 4415000    100.43327   -6754.9188   -6496.5603   -6754.9188            0    7890.7891    23.209845    21.189764    21.319619    10485.226    7424.1487    7682.8975    8565.3212   -532.71704   -467.18694   -616.09362   -5289.9303 
 4416000    105.00592   -6754.6963    -6484.575   -6754.6963            0    8279.3971    23.062144    21.206646    21.431579    10481.558    8957.0973     7853.717    8027.3769    347.81161    237.44339   -672.41385   -5218.9634 
 4417000    99.461348   -6757.9399   -6502.0817   -6757.9399            0    7598.7366     23.00855    21.337239    21.419849    10515.838    8102.4719    7193.6804    7500.0575   -557.62405     874.3373   -408.75736   -5336.7188 
 4418000    103.52358   -6755.0668   -6488.7587   -6755.0668            0    6955.6569    23.052513    21.319748    21.416485    10525.641    7720.3203    5765.0307    7381.6196   -784.99777   -437.64445    51.390474   -5421.0259 
 4419000    103.18105   -6738.1099    -6472.683   -6738.1099            0    8173.6906     23.29452     21.05474    21.362169     10477.29    7560.4534    8762.4682    8198.1503    200.29358   -937.50236   -429.68497   -5223.7387 
 4420000    102.24181   -6762.1833   -6499.1725   -6762.1833            0      8185.02    23.147855    21.146011      21.4012    10475.562    8271.5946    8525.4063    7758.0591    -868.4135    449.01766   -344.83348   -5248.7033 
 4421000    101.61349   -6758.1305    -6496.736   -6758.1305            0    7877.6898     22.93969    21.354663    21.410416    10488.307    7931.5532    8063.9049    7637.6112    61.190409   -73.633186    273.59643   -5291.7552 
 4422000    102.67963   -6761.4219   -6497.2848   -6761.4219            0    7637.5874     23.02212    21.301669    21.417896    10503.541    8285.3587    7101.2351    7526.1684   -595.90331    415.89865    142.65788   -5327.3335 
 4423000    99.506288   -6763.5318    -6507.558   -6763.5318            0    7604.8558    23.254573    21.086135    21.412329    10499.515    6531.6512    8918.5973    7364.3189    757.74015   -84.995361   -351.18785    -5343.067 
 4424000    96.379382   -6751.5481    -6503.618   -6751.5481            0    8267.3016    23.176516    21.171077    21.346051    10473.905    8772.8865    7688.2091    8340.8093   -588.90956   -736.13744   -34.109673    -5240.778 
 4425000    97.641293   -6746.2901   -6495.1139   -6746.2901            0    7788.9399    23.013372    21.279632    21.462547    10510.555    8272.0247    7064.1179    8030.6771   -128.83547   -411.79483     44.15283   -5301.1811 
 4426000    94.062571   -6749.0323   -6507.0621   -6749.0323            0    7809.6904    22.878999    21.314803     21.51949    10494.224    8305.4912    7463.0852    7660.4947    571.52722    342.69962    430.36317   -5311.8086 
 4427000    101.81534   -6743.2604   -6481.3467   -6743.2604            0    7923.7453    23.136374    21.182954      21.4233     10499.49    8436.6158    7432.9996    7901.6206    7.0297153    -380.8424    225.48566   -5268.0288 
 4428000    99.108883   -6747.8598   -6492.9082   -6747.8598            0    7656.5091     23.22363    21.205743    21.337235    10508.041    7258.9161    6581.3492    9129.2621   -1265.5533   -684.81622    1625.9534   -5319.5559 
 4429000    103.38881   -6763.8615   -6497.9001   -6763.8615            0    7809.9119    23.119217    21.238108    21.353154    10484.578    7747.6874    7779.9953    7902.0531   -542.77032    198.23654    117.55309   -5303.7113 
 4430000    98.595024   -6755.3856   -6501.7559   -6755.3856            0    6569.0687    23.050536    21.306171    21.465701    10542.206     6742.767    7227.1496    5737.2896    259.86471    281.66935   -580.84945   -5491.7796 
 4431000    103.85993    -6767.849   -6500.6757    -6767.849            0    8325.1639     22.89782    21.305705    21.471618    10475.019    9958.9191    7204.7454    7811.8273   -1226.8023    71.611438    458.38048    -5228.862 
 4432000    98.964971   -6747.8688   -6493.2874   -6747.8688            0    7625.4445    23.144205    21.164972    21.441234    10502.912    6844.1597    7827.8988     8204.275   -165.15265    180.82587    758.58611    -5325.266 
 4433000    97.367234    -6757.952   -6507.4807    -6757.952            0    7710.5167      23.2869    21.038449    21.424048    10496.076    6646.3855    8645.7671    7839.3974    331.89178     600.9689    591.58349   -5327.1972 
 4434000    97.754675   -6757.2948   -6505.8269   -6757.2948            0    8364.8398    23.018314    21.199272    21.493807    10488.365    8251.0151    8339.9816    8503.5226    218.73392    330.10422    714.44984   -5226.3238 
 4435000    98.838775     -6744.34   -6490.0832     -6744.34            0    7615.1248       23.004    21.272286     21.45694    10499.904    7465.7698    7499.3553    7880.2493    681.23842    420.85518    -72.74385   -5323.9766 
 4436000    102.54174   -6750.4801   -6486.6977   -6750.4801            0    7396.9062    23.149485    21.237767    21.359369    10501.192     7812.808     6743.672    7634.2387    469.44829   -357.88198    321.87863   -5353.8681 
 4437000     96.49748   -6760.5859    -6512.352   -6760.5859            0    8168.2763    23.110525     21.12385     21.48425    10488.251    8323.5992    8464.7513    7716.4784   -267.67669   -644.31083   -20.962793   -5262.9293 
 4438000    103.49672   -6754.7064   -6488.4674   -6754.7064            0    7722.6799    23.117108    21.140041    21.504025    10508.944    7310.4927    9030.4787    6827.0684   -140.62886    129.91273    -136.0702   -5304.8727 
 4439000    95.932297   -6762.9896   -6516.2096   -6762.9896            0    7594.3593    23.165145     21.20085    21.370762    10495.625    6464.1083    8183.1464    8135.8233    367.95832   -29.025384   -166.32126   -5353.7568 
 4440000    105.08042   -6745.8188   -6475.5058   -6745.8188            0    8367.9839    23.072638    21.335685    21.304317    10487.488    8103.8327    7154.7721     9845.347    740.72497    853.56952    910.88242   -5195.6289 
 4441000    104.53922   -6753.5396   -6484.6188   -6753.5396            0    8113.8566    23.023161    21.243641    21.451981    10492.073    8208.5729    7335.0497    8797.9472   -94.662915    252.10662    688.17017    -5243.068 
 4442000    100.69108   -6751.6723   -6492.6507   -6751.6723            0    7739.0615    23.128177    21.148099    21.475952    10504.253    7171.7219    8448.7747     7596.688   -79.964491   -503.84029    157.90876   -5307.0748 
 4443000    99.849548   -6760.2106   -6503.3537   -6760.2106            0    7970.0226    23.086767    21.164358    21.479442    10495.212    7463.7931    8466.2617     7980.013    4.4570325   -351.74687    308.85782   -5283.4469 
 4444000    102.40109   -6760.7994   -6497.3788   -6760.7994            0    7887.4189    23.041214    21.282044    21.382912    10485.413    7627.2304    8215.0647    7819.9615    298.04812   -301.12187    303.73751   -5291.2427 
 4445000    98.473393   -6746.1484   -6492.8316   -6746.1484            0    6952.4891    23.115936    21.214729    21.467051    10527.405    6716.7974    7113.9124    7026.7576    622.77561    182.83834   -99.422979   -5425.4062 
 4446000    100.23538   -6761.9592   -6504.1098   -6761.9592            0    7643.9469    23.122794    21.213978    21.411482    10502.898    7845.4781     7284.997    7801.3656    498.46348    114.89554   -946.35034   -5333.2559 
 4447000    101.14353   -6752.5426    -6492.357   -6752.5426            0    8648.8576    23.142237    21.200574    21.328605    10464.426    7727.1817    8697.9801    9521.4111   -8.7022848    268.68889    32.219861   -5172.4296 
 4448000    103.25009   -6757.2483   -6491.6437   -6757.2483            0    7315.6371    23.263355    21.235539    21.288681    10516.819    7031.7004    7061.0932    7854.1176   -759.97776   -1186.3248    -756.9004   -5369.5932 
 4449000    103.37402    -6755.652   -6489.7287    -6755.652            0    8151.2713    23.057214    21.209739    21.451334    10490.506    8195.2881    8740.0938    7518.4318    16.111438    364.82581   -876.78541    -5242.639 
 4450000    93.926181   -6745.9882   -6504.3688   -6745.9882            0    8174.2716    22.995079    21.289149    21.441873    10496.776    8758.2021    6822.5959    8942.0169    -92.34354    -371.5545   -16.430118   -5253.0128 
 4451000    102.36145   -6761.8437   -6498.5251   -6761.8437            0    7663.5622    23.076541    21.232638    21.436193    10503.217    7459.9416    8291.6005    7239.1447   -871.91309   -51.957513    517.50534   -5324.6311 
 4452000    102.20925   -6758.0842   -6495.1571   -6758.0842            0    8608.7596    23.205416    21.092602    21.361733    10455.769    7167.3255    8784.4675    9874.4858   -40.909332    826.33374    303.22392    -5182.436 
 4453000    97.937284   -6773.2876   -6521.3499   -6773.2876            0    7523.3297    23.177312    21.190511    21.393359    10507.115    6982.0181    7585.4079    8002.5631    968.51526   -214.84611    248.94228   -5368.5088 
 4454000    100.03121   -6761.0272   -6503.7031   -6761.0272            0    7784.0944    22.995223    21.317071    21.419969    10499.872    8987.4654     7283.073    7081.7448   -454.18699   -430.77482   -138.23139   -5311.7258 
 4455000    99.397809    -6761.957   -6506.2622    -6761.957            0     7982.246    22.978411    21.285572     21.45269    10492.696     8684.519    8360.1892    6902.0298   -102.43305    53.098286   -903.78217   -5284.7774 
 4456000    99.260966    -6765.517   -6510.1742    -6765.517            0    8395.7961    23.155109    21.191085    21.331605    10467.032    8162.9771    7775.5638    9248.8474   -652.52612    273.31047    287.83783   -5228.5481 
 4457000    99.104245   -6762.8019   -6507.8623   -6762.8019            0    7515.0896    23.265507    21.160926    21.304164    10488.459    6811.8836    8180.2709    7553.1143    448.00103    91.358381   -965.92372   -5358.3285 
 4458000    97.586384   -6752.8395   -6501.8045   -6752.8395            0    7170.5279    23.084622    21.227731    21.482285    10527.053    7673.1745     7304.321    6534.0881   -1137.7879    138.40377   -582.18055   -5400.9401 
 4459000    101.39403   -6750.4685   -6489.6385   -6750.4685            0    7997.6062    22.930258    21.289379    21.493235    10492.373    8432.9276    7677.9426    7881.9485    900.58894    302.20023    1012.6853   -5265.8408 
 4460000    98.025406   -6755.2413   -6503.0769   -6755.2413            0    7607.5477    23.106974     21.19845    21.450589    10507.186    7290.8791    8107.1922    7424.5719    304.06109    827.88348    237.97925   -5337.3227 
 4461000    99.959434   -6747.1392   -6489.9996   -6747.1392            0    8481.2455    23.214541    21.111932    21.367027    10472.061     7639.634    8610.0647    9194.0378    181.92243    348.15701    1217.2616   -5194.7076 
 4462000    98.873035   -6761.1561   -6506.8112   -6761.1561            0    7284.3925    23.185292     21.11682    21.458437    10506.043    7505.5177     7559.734    6787.9259   -304.48264    241.44212    191.79445   -5390.6976 
 4463000    98.718876   -6753.3312   -6499.3829   -6753.3312            0    8582.6991    23.042971    21.230685    21.418293    10478.216    9576.5549    8191.3284    7980.2139   -627.55161    166.09442    119.43082   -5187.8261 
 4464000    99.731467   -6757.8344   -6501.2813   -6757.8344            0    7026.8935    22.980068    21.324735    21.476415    10524.385    7564.6015    7053.8996    6462.1792   -142.86377    570.92518   -948.64112   -5422.7419 
 4465000    97.793166   -6766.4014   -6514.8344   -6766.4014            0     7936.679      23.0991    21.251098    21.380982    10495.523    8621.8058    6053.9573    9134.2738    430.61212   -1068.4087    1152.7949   -5299.9952 
 4466000    99.816855    -6759.879   -6503.1062    -6759.879            0    7581.5146    23.271992    21.140775    21.359324     10508.53    6415.0613    7560.6917     8768.791   -23.579539    386.08631        491.3   -5341.1926 
 4467000    97.958334   -6750.4255   -6498.4336   -6750.4255            0    8003.7062    23.096024    21.162193    21.470348    10493.902    8329.4285    8260.5635    7421.1266   -488.89787     335.7439    118.72078   -5273.5241 
 4468000    105.50807   -6763.4671    -6492.054   -6763.4671            0    7781.7231    22.976415    21.273267    21.458224    10488.424      8158.74    7483.4147    7703.0147    165.03922   -87.438147    296.65666    -5301.739 
 4469000    99.115013   -6756.4962   -6501.5289   -6756.4962            0    7609.7334    23.085865    21.228312    21.426454    10500.547    8068.7031    7040.9068    7719.5904   -515.71672    614.38041   -7.6093643   -5336.1766 
 4470000    95.000952   -6755.3972    -6511.013   -6755.3972            0    9150.4492    23.169455    21.102813    21.357313    10442.459    8108.0684    9236.6692     10106.61    389.01363   -818.27253    1587.5757   -5117.4678 
 4471000    98.836035   -6762.3423   -6508.0926   -6762.3423            0    7175.5207    23.111044    21.233928    21.442822    10522.813    6558.7958    7941.1258    7026.6407   -317.59117    1119.6322   -716.77715   -5406.9054 
 4472000     101.8684   -6767.7074   -6505.6572   -6767.7074            0    7695.4026    23.010037    21.330137    21.373057    10490.051    8110.0903    7607.1158    7369.0016    100.48399   -287.74527    338.39353   -5328.3634 
 4473000    100.79336   -6767.3999   -6508.1151   -6767.3999            0    8468.3036    23.087195    21.193712    21.394914    10468.604    8019.5991    8455.0782    8930.2335   -950.03619    147.68803    226.63069   -5215.2267 
 4474000    103.73129   -6754.3888   -6487.5464   -6754.3888            0    7136.1939    23.227523    21.157208    21.409671    10521.345    6994.6523    7370.5107    7043.4188   -460.07891   -565.08075   -613.09144   -5392.5472 
 4475000    96.044052    -6750.901   -6503.8335    -6750.901            0    7971.7328    23.027604    21.220135    21.464262    10488.488    8410.4926    7478.0904    8026.6155      120.614   -450.71599    -288.2351   -5284.4467 
 4476000    99.941102   -6759.4377   -6502.3453   -6759.4377            0    7890.2996    23.030855    21.243347    21.445978    10492.497    7795.4709    7402.7132    8472.7146    425.76613    516.73542    515.55547   -5294.9534 
 4477000    108.03452   -6748.2472    -6470.335   -6748.2472            0    9174.3868     23.04979    21.195222    21.402868    10456.273    8946.8348     9161.431    9414.8946      315.491     593.5217    -394.4781   -5071.2959 
 4478000    103.60143     -6753.91   -6487.4016     -6753.91            0    6275.0457    23.240434    21.171328    21.444416    10551.315    6564.8446    6281.7189    5978.5737    428.30767   -1017.9647    779.65079    -5521.797 
 4479000    101.35073   -6748.0409   -6487.3223   -6748.0409            0    8858.3507    23.174132    21.100147    21.385511    10457.036     7917.709    8794.7747    9862.5684    657.52556    235.77026    59.023451   -5136.3783 
 4480000      99.6495   -6743.4013    -6487.059   -6743.4013            0    7166.5947    22.974848    21.281053     21.53861     10530.85    7499.4752    6893.1194    7107.1893    594.66691   -108.03863    548.04902   -5386.4016 
 4481000    100.57384    -6747.878    -6489.158    -6747.878            0     8110.374    22.931496    21.305366     21.49775    10503.025    9072.7121    7094.2865    8164.1234    457.14369      304.144    33.477866   -5246.8445 
 4482000    100.49237   -6750.3823   -6491.8718   -6750.3823            0     8285.746    23.121004    21.175908    21.387829    10471.658    8476.1397     8165.036    8216.0623   -291.17561    299.34588   -702.66095    -5226.486 
 4483000    98.074281   -6759.0843   -6506.7942   -6759.0843            0    8117.1091    23.272515    21.151333    21.321818    10495.552    7667.1603    7571.7954    9112.3717   -248.79758    297.98413    432.63458   -5264.3338 
 4484000    99.305914   -6756.9755   -6501.5171   -6756.9755            0    7648.0272    23.168064    21.230706    21.373016    10512.838    7916.0967    6694.3786    8333.6062   -901.13869    816.25004   -305.73041   -5328.9295 
 4485000    97.794937   -6748.3951   -6496.8236   -6748.3951            0    8696.5432    22.937241    21.323574    21.438437    10485.624    9770.0854    7730.3625    8589.1817    461.38942    -842.5831    -662.4409   -5166.9301 
 4486000    97.996251   -6756.2886   -6504.1992   -6756.2886            0     8028.144    23.070316    21.212252    21.435446    10489.936    7811.8913    7872.9933    8399.5473   -37.219326   -599.30157    766.71562   -5276.0139 
 4487000     99.65839   -6766.8954   -6510.5303   -6766.8954            0    7510.2575    23.206202    21.181219    21.357121    10497.786    7158.6351     7437.084    7935.0533    481.00238   -784.93075     649.6931    -5360.714 
 4488000    100.20875   -6740.4154   -6482.6345   -6740.4154            0    8302.3236    23.173366    21.207758    21.325017    10480.289    8383.3725    8165.4442     8358.154   -244.37171   -91.218777   -275.05117    -5213.672 
 4489000    95.695727   -6752.4441   -6506.2726   -6752.4441            0    6816.6727    23.088625    21.299123    21.412877    10530.156    6665.8694    6643.3995    7140.7492   -268.59716   -14.337215    68.825589   -5459.4258 
 4490000    99.744754   -6745.9408   -6489.3535   -6745.9408            0     8743.118    22.921318    21.314343    21.430403    10469.884    9080.1652    9036.7388    8112.4498   -55.565126   -66.495518   -962.90066   -5154.3447 
 4491000    98.842182   -6760.4049   -6506.1394   -6760.4049            0    7746.4154    23.066361    21.230056    21.434282    10496.371    8356.9947    7728.9742    7153.2772   -242.27605    -370.3156   -639.22804   -5320.3275 
 4492000    100.08259   -6760.8106   -6503.3542   -6760.8106            0    8082.2722    23.177674    21.128641     21.41609    10487.732    8259.7787    8162.1183    7824.9195     396.1762    310.24857   -648.02465   -5267.1479 
 4493000    98.536564   -6744.2573    -6490.778   -6744.2573            0    8539.9759    23.217268    21.148541    21.331375    10473.947    8125.9433     8476.798    9017.1864    103.91585   -1203.5029    414.22904   -5186.2815 
 4494000    100.36389   -6759.3081   -6501.1282   -6759.3081            0    7580.2121    23.118515    21.207241    21.426482    10504.974    7269.2341    7547.0047    7924.3973    296.80482    979.64207     15.13999   -5339.8073 
 4495000    102.80316   -6743.7747   -6479.3198   -6743.7747            0    8393.8436    22.994828    21.290818    21.429673    10491.511    8839.1744    9013.5941    7328.7623   -51.213713   -97.052795   -1138.9999   -5194.9952 
 4496000    101.50836   -6769.2656   -6508.1416   -6769.2656            0    6936.4364    23.144363    21.256199    21.410177    10532.976    6629.8445    6589.3929    7590.0717   -112.82322   -686.98698   -129.38711   -5442.6171 
 4497000    99.484646   -6751.0664   -6495.1482   -6751.0664            0    8353.7266    23.116944    21.213793    21.363538    10476.638    8785.5574    8375.0865    7900.5359   -437.88854    -277.1395   -320.84267   -5218.7738 
 4498000    101.51102   -6754.7654   -6493.6344   -6754.7654            0    7827.6102     23.14334    21.207969    21.394819    10501.074    7158.7057    7694.0466    8630.0782    779.15782    340.56311    405.25834   -5294.8563 
 4499000    95.833571   -6754.7724   -6508.2464   -6754.7724            0     7006.113    23.035651    21.237668    21.539593    10537.676    7116.7805    7233.7508    6667.8077   -298.11262    365.25449   -232.82593   -5431.5386 
 4500000    108.24906   -6749.7456   -6471.2815   -6749.7456            0    9167.1543    23.042697    21.165661    21.439127    10456.161    8745.8071     9579.963    9175.6929    1800.7865   -852.13733    133.95972   -5073.3603 
Loop time of 653.032 on 64 procs for 250000 steps with 1296 atoms

Performance: 66.153 ns/day, 0.363 hours/ns, 382.830 timesteps/s
196.2% CPU use with 32 MPI tasks x 2 OpenMP threads

MPI task timing breakdown:
Section |  min time  |  avg time  |  max time  |%varavg| %total
---------------------------------------------------------------
Pair    | 38.874     | 49.543     | 62.133     | 106.9 |  7.59
Bond    | 0.76102    | 1.0481     | 1.4072     |  13.7 |  0.16
Kspace  | 347.04     | 364.1      | 387.87     |  52.5 | 55.75
Neigh   | 1.1347     | 1.2405     | 1.4793     |   9.2 |  0.19
Comm    | 82.494     | 95.963     | 103.56     |  52.6 | 14.69
Output  | 0.55085    | 0.55179    | 0.55411    |   0.1 |  0.08
Modify  | 118.05     | 122.96     | 125.06     |  12.0 | 18.83
Other   |            | 17.63      |            |       |  2.70

Nlocal:        40.5000 ave          52 max          29 min
Histogram: 3 3 5 5 0 1 2 7 4 2
Nghost:        3200.12 ave        3221 max        3171 min
Histogram: 1 0 0 5 6 4 6 5 1 4
Neighs:        13357.5 ave       17262 max        9603 min
Histogram: 3 4 4 5 0 1 2 8 4 1

Total # of neighbors = 427440
Ave neighs/atom = 329.81481
Ave special neighs/atom = 2.0000000
Neighbor list builds = 2267
Dangerous builds = 0

unfix		3
unfix		2
unfix		1

write_data	data.final.${pid}
write_data	data.final.0
System init for write_data ...
PPPM initialization ...
  extracting TIP4P info from pair style
  using 12-bit tables for long-range coulomb (../kspace.cpp:340)
  G vector (1/distance) = 0.36835609
  grid = 27 40 32
  stencil order = 5
  estimated absolute RMS force accuracy = 0.0043543361
  estimated relative force accuracy = 1.3112954e-05
  using double precision FFTW3
  3d grid and FFT values/proc = 7395 1120
Last active /omp style is kspace_style pppm/tip4p/omp
WARNING: Not all mixed pair coeffs generated from mixing. Use write_data with 'pair ij' option to store all pair coeffs. (../write_data.cpp:312)

write_restart   restart.lmp.${pid}
write_restart   restart.lmp.0
System init for write_restart ...
PPPM initialization ...
  extracting TIP4P info from pair style
  using 12-bit tables for long-range coulomb (../kspace.cpp:340)
  G vector (1/distance) = 0.36835609
  grid = 27 40 32
  stencil order = 5
  estimated absolute RMS force accuracy = 0.0043543361
  estimated relative force accuracy = 1.3112954e-05
  using double precision FFTW3
  3d grid and FFT values/proc = 7395 1120
Last active /omp style is kspace_style pppm/tip4p/omp
Total wall time: 0:10:53
