#include		in.partitions
include		in.temp
variable        temperature equal 274.80
variable	tempDamp equal 100.0
include		in.pressure
variable        pressure equal -750.0
variable        pressureDamp equal 1000.0 # This is 1 ps
include		in.seed
variable        seed equal 745823

units		real
atom_style	full
#include		in.box
read_restart	restart.lmp.${pid}
read_restart	restart.lmp.0
Reading restart file ...
  restart file = 30 Jul 2021, LAMMPS = 30 Jul 2021
  restoring atom style full from restart
  orthogonal box = (-0.097970325 0.061866236 -0.060930174) to (18.305543 23.567312 22.274126)
  2 by 4 by 2 MPI processor grid
  restoring pair style lj/cut/tip4p/long/omp from restart
  restoring bond style harmonic/omp from restart
  restoring angle style harmonic/omp from restart
  864 atoms
  576 bonds
  288 angles
Finding 1-2 1-3 1-4 neighbors ...
  special bond factors lj:    0        0        0       
  special bond factors coul:  0        0        0       
     2 = max # of 1-2 neighbors
     1 = max # of 1-3 neighbors
     1 = max # of 1-4 neighbors
     2 = max # of special neighbors
  special bonds CPU = 0.001 seconds
  read_restart CPU = 0.005 seconds
include 	in.setup
variable	out_freq equal 1000
variable	out_freq2 equal 10000
variable	out_freq3 equal 1000

timestep	2.0

neigh_modify    delay 7 every 1

include		in.tip4p
# This is TIP4P/Ice

# create groups ###
group ox type 2
288 atoms in group ox
group hy type 1
576 atoms in group hy

# set charges - beside manually ###
set group ox charge -1.1794
Setting atom values ...
  288 settings made for charge
set group hy charge 0.5897
Setting atom values ...
  576 settings made for charge

# ### TIP3P Potential Parameters ###
pair_style lj/cut/tip4p/long/omp 2 1 1 1 0.1577 8.5
pair_coeff 1 1*2 0.000 0.000
pair_coeff 2 2 0.21084 3.1668
bond_style  harmonic
bond_coeff  1 450 0.9572
angle_style harmonic
angle_coeff 1 55 104.52
kspace_style pppm/tip4p/omp 1.0e-5
pair_modify tail yes

thermo          ${out_freq}
thermo          1000
thermo_style    custom step temp pe etotal epair emol press lx ly lz vol pxx pyy pzz pxy pxz pyz enthalpy

restart 	${out_freq3} restart.lmp.${pid} restart2.lmp.${pid}
restart 	1000 restart.lmp.${pid} restart2.lmp.${pid}
restart 	1000 restart.lmp.0 restart2.lmp.${pid}
restart 	1000 restart.lmp.0 restart2.lmp.0


include         in.dump
dump            myDump all atom ${out_freq2} dump.water.${pid}
dump            myDump all atom 10000 dump.water.${pid}
dump            myDump all atom 10000 dump.water.0
dump            myDump2 all dcd ${out_freq2} dump.dcd
dump            myDump2 all dcd 10000 dump.dcd
dump_modify     myDump append yes
dump_modify     myDump2 append yes


variable natoms 	equal  "count(all)"                        # NUMBER ATOMS
variable H      	equal  "enthalpy/v_natoms"                 # ENTHALPY-per-atom
variable Vol      	equal  "vol/v_natoms"                 # volume-per-atom
fix AVG all 		ave/time ${out_freq} 1 ${out_freq} v_Vol v_H file vol_enthalpy.dat
fix AVG all 		ave/time 1000 1 ${out_freq} v_Vol v_H file vol_enthalpy.dat
fix AVG all 		ave/time 1000 1 1000 v_Vol v_H file vol_enthalpy.dat


timer           timeout 23:50:00 every 1000
New timer settings: style=normal  mode=nosync  timeout=23:50:00

fix 		1 all shake 1e-6 200 0 b 1 a 1
       0 = # of size 2 clusters
       0 = # of size 3 clusters
       0 = # of size 4 clusters
     288 = # of frozen angles
  find clusters CPU = 0.000 seconds
fix             2 all nph aniso ${pressure} ${pressure} ${pressureDamp}
fix             2 all nph aniso -750 ${pressure} ${pressureDamp}
fix             2 all nph aniso -750 -750 ${pressureDamp}
fix             2 all nph aniso -750 -750 1000
fix             3 all temp/csvr ${temperature} ${temperature} ${tempDamp} ${seed}
fix             3 all temp/csvr 274.8 ${temperature} ${tempDamp} ${seed}
fix             3 all temp/csvr 274.8 274.8 ${tempDamp} ${seed}
fix             3 all temp/csvr 274.8 274.8 100 ${seed}
fix             3 all temp/csvr 274.8 274.8 100 745823


run             250000
PPPM initialization ...
  extracting TIP4P info from pair style
  using 12-bit tables for long-range coulomb (../kspace.cpp:340)
  G vector (1/distance) = 0.3706597
  grid = 24 27 25
  stencil order = 5
  estimated absolute RMS force accuracy = 0.003273364
  estimated relative force accuracy = 9.8576384e-06
  using double precision FFTW3
  3d grid and FFT values/proc = 6300 1296
Last active /omp style is kspace_style pppm/tip4p/omp
Neighbor list info ...
  update every 1 steps, delay 7 steps, check yes
  max neighbors/atom: 2000, page size: 100000
  master list distance cutoff = 10.8154
  ghost atom cutoff = 10.8154
  binsize = 5.4077, bins = 4 5 5
  1 neighbor lists, perpetual/occasional/extra = 1 0 0
  (1) pair lj/cut/tip4p/long/omp, perpetual
      attributes: half, newton on, omp
      pair build: half/bin/newton/omp
      stencil: half/bin/3d
      bin: standard
Per MPI rank memory allocation (min/avg/max) = 12.25 | 12.28 | 12.30 Mbytes
Step Temp PotEng TotEng E_pair E_mol Press Lx Ly Lz Volume Pxx Pyy Pzz Pxy Pxz Pyz Enthalpy 
 3000000    277.24368   -4151.7743   -3676.5881   -4151.7743            0   -975.37736    18.403513    23.505445    22.335056    9661.7605   -1801.8053     154.2107   -1278.5375    268.29269   -308.23015   -531.42256   -3814.0255 
 3001000    271.53155   -4168.5594   -3703.1636   -4168.5594            0    -1144.686    18.312068    23.653369    22.282819    9651.6271    -3198.848   -751.41987    516.20984   -969.39026   -347.57861    101.90492   -3864.2886 
 3002000    268.59089   -4168.1233   -3707.7677   -4168.1233            0   -1531.9872    18.170157    24.002663    22.204145    9683.9415   -2442.6462   -1081.5728   -1071.7426   -212.77484   -293.00481   -478.43965   -3924.1308 
 3003000    274.06678   -4189.4022   -3719.6612   -4189.4022            0   -1760.9883    18.195587    23.822159    22.323757    9676.4148   -1389.3579    -2382.983   -1510.6242   -251.62671   -991.58537   -576.11691   -3968.1729 
 3004000    250.86355   -4190.3013   -3760.3297   -4190.3013            0   -1126.1351    18.371697    23.246401    22.431112     9579.786   -1293.0834   -900.94292   -1184.3791   -1064.9277   -101.87997   -406.40453   -3917.6636 
 3005000    290.50139   -4195.5636   -3697.6542   -4195.5636            0   -947.83042    18.365493    23.565562    22.236763    9623.9193   -1274.7011   -1304.9341   -263.85609   -265.72715    188.61089   -85.935528   -3830.6869 
 3006000    279.02932   -4166.6275   -3688.3808   -4166.6275            0   -1426.9611    18.180724    23.886887    22.281355    9676.3671   -724.97699   -1661.4886   -1894.4179    253.44167   -62.419772   -247.09253   -3889.7534 
 3007000    276.85197   -4182.4496   -3707.9348   -4182.4496            0   -1395.0143    17.956906    24.069414    22.159592     9577.646   -1335.5038   -2480.5075   -369.03156   -768.64388    48.056507    659.51337   -3902.7906 
 3008000     283.9308   -4183.8704   -3697.2228   -4183.8704            0   -1395.6904     18.20212    23.574761    22.349578    9590.4416   -1926.4538   -1057.4847   -1203.1326    238.07832   -216.56208    107.42525   -3892.4335 
 3009000    293.60373   -4186.8403   -3683.6135   -4186.8403            0     -330.421     18.24621    23.435597    22.304759    9537.7566    293.61477   -609.64608   -675.23167    828.58599   -80.826629   -46.009464   -3729.5746 
 3010000    272.95424   -4171.4123   -3703.5781   -4171.4123            0   -2838.1888    18.481365     23.51941    22.130675     9619.558   -2992.3138   -1330.3039   -4191.9487    362.77822    588.26148   -100.81727   -4101.7516 
 3011000    272.02526   -4183.7126   -3717.4706   -4183.7126            0   -584.62752    18.128717     23.73999    22.243598     9573.101   -1110.4806    368.12626   -1011.5282   -1562.1636    147.34303    52.671963   -3799.0927 
 3012000     286.3364   -4152.9291   -3662.1583   -4152.9291            0   -19.834748    18.115513     23.61614    22.170472    9484.9378    569.21077   -137.04336   -491.67166   -483.23144   -665.74706    464.13782    -3664.902 
 3013000    278.13505    -4160.556   -3683.8421    -4160.556            0    27.015667     18.24472    23.449624    22.312674    9546.0717   -571.29898    747.45657   -95.110596   -549.25301   -356.11858   -63.124776    -3680.081 
 3014000    266.74272   -4200.3213   -3743.1334   -4200.3213            0   -513.13305    18.469935    23.558501    21.955592    9553.4049   -916.31505    1058.8471   -1681.9312   -777.43372   -303.90318   -349.45693   -3814.6265 
 3015000    268.05038   -4172.2693   -3712.8401   -4172.2693            0    -486.5541    18.213376    23.690044    22.287871    9616.6744   -834.32617    105.02616   -730.36229   -537.77238    820.55963    101.52396    -3781.079 
 3016000    277.27715   -4187.6544   -3712.4108   -4187.6544            0   -1826.6611     18.17287    23.538671    22.484365    9618.0293   -3214.9639   -821.24845    -1443.771   -234.63305    890.00843    67.442185   -3968.6349 
 3017000    272.57916   -4171.0088   -3703.8174   -4171.0088            0   -1185.5868    18.406798    23.656033    22.178627    9657.2801   -2053.7042   -510.51058   -992.54569   -701.07745   -136.53023    494.50474   -3870.7973 
 3018000    263.44709   -4199.6734   -3748.1341   -4199.6734            0    -1009.918    18.321467    23.703308    22.164001    9625.3681   -804.99118   -270.21511   -1954.5477   -499.03832    584.56654     696.4825   -3889.9024 
 3019000    265.56856   -4165.2253   -3710.0498   -4165.2253            0   -665.08099    18.080501    23.793027    22.436517    9651.9619   -1112.6554    904.17215   -1786.7597    372.59602   -718.63134    676.03784   -3803.6693 
 3020000    270.31822    -4202.007   -3738.6908    -4202.007            0    -749.0334     18.13528    23.787118    22.102136    9534.5532     -542.711   -711.22832   -993.16087   -178.45879    595.27278   -578.46465   -3842.8452 
 3021000     263.7925   -4183.5591   -3731.4278   -4183.5591            0    759.75844    18.078469    23.444835    22.441156    9511.6104    1214.1127    1479.9411   -414.77846    398.12071   -445.69927    326.38188   -3626.0363 
 3022000     279.4474   -4177.4076   -3698.4443   -4177.4076            0    6.6584701    18.316936    23.514475    22.169057    9548.5041    1256.3416    -583.7003   -652.66593    362.03824   -490.53115    321.73698   -3697.5171 
 3023000    260.24858   -4189.6254   -3743.5683   -4189.6254            0   -805.01672    18.273214    23.674342     22.16871    9590.3238   -726.01794   -1352.6302   -336.40201   -198.80769   -1020.9091   -37.947028    -3856.162 
 3024000    284.95699   -4135.1949   -3646.7884   -4135.1949            0   -1056.8096    18.072042    23.649197    22.502023    9617.1233   -1219.6173   -670.45725   -1280.3543   -637.86027   -445.36221    584.28697   -3795.0122 
 3025000    264.33834   -4159.6366   -3706.5697   -4159.6366            0   -937.18028    18.174697    23.682966    22.231808    9569.2534   -659.54013    -365.2721   -1786.7286    1213.3539   -176.21145   -42.183529   -3837.3604 
 3026000    274.82024   -4145.1355    -3674.103   -4145.1355            0   -124.42762      18.2427     23.56545    22.257994    9568.6544   -1254.3111    1481.4625   -600.43429   -34.177706   -1090.4419    831.34645   -3691.4668 
 3027000    281.57812    -4178.095   -3695.4797    -4178.095            0    519.55898    18.206404    23.537145    22.178903    9504.2537   -10.412286     1329.697    239.39218   -1293.9653     104.1281   -582.63276   -3623.4637 
 3028000    277.68959   -4215.5166   -3739.5661   -4215.5166            0    -1931.161    18.193263    23.813839    22.124509     9585.475   -1946.5056   -1309.0453   -2537.9322    519.60117   -353.73187   -122.79247   -4009.5315 
 3029000      261.185   -4205.7425   -3758.0803   -4205.7425            0   -466.67534    18.029586    23.541008    22.529576    9562.3321      135.459    1051.0112   -2586.4962    776.76327    104.58548    517.37307   -3823.1614 
 3030000    278.20034    -4161.445   -3684.6191    -4161.445            0   -1408.9535    18.347249    23.646235    22.203332    9632.7679   -1403.5879   -1259.4551   -1563.8175    412.98331    102.83541   -122.05405   -3882.5546 
 3031000    283.08322   -4158.0405   -3672.8456   -4158.0405            0   -694.25375    18.294062    23.669702    22.142079    9587.8527   -721.50203    -1205.548    -155.7112    282.80397   -87.313896    21.454708   -3769.9224 
 3032000    262.40855   -4142.6265   -3692.8672   -4142.6265            0   -973.22945    18.197758     23.25266    22.636352    9578.4883   -358.85099   -1071.2274   -1489.6099    74.927115   -811.73278    579.72577     -3828.82 
 3033000    268.00755   -4166.5315   -3707.1758   -4166.5315            0   -1169.2887    18.251982    23.701459    22.122594    9570.2028   -2053.3283   -209.94656   -1244.5912    1016.5921    972.66514   -224.89478   -3870.3752 
 3034000     270.4168   -4207.3782    -3743.893   -4207.3782            0   -1296.5291     18.01085    23.911408    22.225008    9571.5281   -913.63747   -1414.2507   -1561.6993   -152.29505    179.76363   -331.15519   -3924.8767 
 3035000    263.02592   -4199.7692   -3748.9517   -4199.7692            0   -280.35516    18.083242    23.820935      22.2558    9586.9024   -166.76944   -820.02019    145.72415    369.89757    28.197849    465.80976   -3788.1496 
 3036000    261.29054   -4181.9052   -3734.0621   -4181.9052            0   -828.42075    18.491005    23.290311    22.222697    9570.4543   -2088.1141   -460.59249    63.444332   -35.678116   -643.68556    -691.2804   -3849.6892 
 3037000    275.40926   -4178.0715   -3706.0295   -4178.0715            0   -1695.7102    18.271853    23.641399    22.373131    9664.5697   -1207.5264   -1485.8484   -2393.7559   -484.43504    -909.4884    1.1304858   -3945.0362 
 3038000    273.51923   -4187.5018   -3718.6992   -4187.5018            0    -1397.705    18.159187    24.062894    21.860951    9552.4178   -1928.3443   -2466.9339    202.16316    168.22486    392.66354    163.23987   -3913.4166 
 3039000    282.72427   -4190.5979   -3706.0182   -4190.5979            0   -1826.1558    18.234683    23.789492    22.323017    9683.5875   -2319.3546    -1090.931   -2068.1818      706.042   -522.31487     262.9698   -3963.9174 
 3040000    267.95513   -4178.5403   -3719.2744   -4178.5403            0   -2135.9635    18.292058    23.525573    22.467418      9668.43   -1061.2905   -1353.6187   -3992.9814   -811.24159   -266.00339    198.82835   -4020.4541 
 3041000    275.18968   -4183.5202   -3711.8545   -4183.5202            0    -368.8353    18.241119    23.690264    22.126813    9561.8132   -67.076212   -1403.4352    364.00555    81.078387   -169.51256   -152.08298   -3763.2883 
 3042000    280.22774   -4208.3704   -3728.0697   -4208.3704            0   -1328.0626    18.230176    23.795228    22.145273    9606.4246   -2099.1282   -1132.9952   -752.06451   -553.46184    221.95064   -142.81905    -3914.131 
 3043000    274.09089   -4163.7607   -3693.9783   -4163.7607            0   -1331.8104    18.006054     23.89125    22.320425    9601.9595   -344.52245   -1222.4519   -2428.4568   -769.91856    179.52539    -213.2632    -3880.478 
 3044000    275.04681     -4179.79   -3708.3692     -4179.79            0    285.95078    18.140882    23.728346     22.02566     9481.014    1164.7584   -1125.1513     818.2452   -558.42158    158.77197    513.21037   -3668.8305 
 3045000    255.77512   -4205.7644   -3767.3746   -4205.7644            0   -92.942451     18.14924    23.274147    22.408053     9465.343    440.33343   -1088.3189    369.15811   -356.60088   -679.44973    517.26892   -3780.2046 
 3046000    294.40165   -4209.3413    -3704.747   -4209.3413            0    582.77218    18.209924    23.624191    22.048236    9485.0346    954.24685    1335.1424   -541.07274    758.10636   -573.47796   -653.46053   -3624.1324 
 3047000    271.87113   -4199.3502   -3733.3723   -4199.3502            0    191.77862     18.16423    23.639621    22.167725    9518.7216    1427.9922   -437.14559   -415.51074    834.89494   -306.82103     425.4717   -3706.7495 
 3048000     282.2618   -4193.2384   -3709.4513   -4193.2384            0   -694.83484    18.058463    23.303224    22.582663    9503.2453   -820.50639    8.7516776   -1272.7498    66.788501   -726.92695   -466.85044    -3805.752 
 3049000     280.1792   -4176.2544   -3696.0369   -4176.2544            0   -420.91585    18.233577    23.846835    21.986773    9560.1371   -1294.9224   -97.067327    129.24214     778.7564    649.76382    393.49812    -3754.723 
 3050000    269.36413   -4194.6006   -3732.9197   -4194.6006            0   -633.36589    17.981813    23.738048    22.433524    9575.8202    19.427314    166.49163   -2086.0166   -96.562809   -73.180251    316.92502   -3821.3715 
 3051000    276.31784   -4157.1785   -3683.5791   -4157.1785            0   -1049.8953    18.231086    23.670167    22.330487    9636.3387   -643.10412   -1974.2499   -532.33204   -459.46622    120.51827   -627.01158   -3831.1274 
 3052000    275.67822   -4197.9751   -3725.4721   -4197.9751            0    1816.2927    18.147667    23.660733    21.962799    9430.5426    3208.8278    1072.0584    1167.9919    1129.3898   -337.02263    694.06493   -3475.6686 
 3053000    255.69829   -4175.5895   -3737.3314   -4175.5895            0   -1238.0251    18.189683    23.397775    22.616392    9625.4938   -281.90725   -141.11266   -3291.0555    31.913219    115.93514    420.99359   -3911.1229 
 3054000    294.17355   -4198.3867   -3694.1833   -4198.3867            0   -785.72744    18.401045    23.754516    22.064267     9644.466   -1315.6621    127.25796   -1168.7782   -935.79874   -556.84631    175.70046   -3804.6995 
 3055000    276.73988   -4190.6344   -3716.3117   -4190.6344            0   -1856.9753    18.236198    23.617497    22.347486    9624.9135   -2382.3091   -1701.4868     -1487.13    70.208993   -504.39325    550.37608   -3976.9744 
 3056000    281.96117   -4165.1363   -3681.8645   -4165.1363            0   -387.18674    18.100692    23.639188    22.193635    9496.3382    167.30779   -290.69059   -1038.1774   -12.054389    400.69709   -165.64114   -3735.4877 
 3057000    288.27334   -4214.4099   -3720.3192   -4214.4099            0    82.767588    18.249151    23.581167    22.099475    9510.2056   -131.59086    1011.8845   -631.99092   -1336.4487   -370.54656    585.99417   -3708.8396 
 3058000    269.87479   -4177.2516   -3714.6955   -4177.2516            0   -2233.7136    18.208667    23.681606    22.528662     9714.595   -2721.7065    -2568.277   -1411.1573    -633.5344    894.24417    439.55834   -4031.1622 
 3059000    283.28938    -4176.188   -3690.6397    -4176.188            0   -966.95873    18.318802    23.748662    22.110298    9619.0196   -1385.5478   -458.25232   -1057.0761    830.03136     181.4002    503.49515   -3826.2881 
 3060000    274.17975   -4220.3103   -3750.3756   -4220.3103            0   -1499.7593    18.142686    23.759183    22.228385    9581.6653   -891.06498   -1803.6388   -1804.5743   -696.73201   -81.820575   -147.73995   -3959.9501 
 3061000    272.20032   -4179.9052   -3713.3632   -4179.9052            0   -1022.8899    18.053202    23.912466    22.270707    9614.1881   -337.09877   -912.35706   -1819.2138   -1118.5216    64.886178    806.95493   -3856.7857 
 3062000    277.25349   -4168.8556   -3693.6526   -4168.8556            0   -851.68408    18.242026    23.558955    22.348346    9604.4939   -1589.9019   -662.05203   -303.09835    703.78532    -83.07376    87.201448   -3812.9494 
 3063000    287.53907   -4164.0112   -3671.1791   -4164.0112            0    516.14655    18.387375    23.224705    22.090502    9433.5576   -72.971436   -104.07663    1725.4877   -375.91309   -474.53015   -524.18795   -3600.1683 
 3064000     284.4961   -4206.1226    -3718.506   -4206.1226            0   -826.84682     18.16783    23.714927    22.255831     9588.897   -251.68996   -2384.7291    155.87861    1138.6712   -414.86329    745.61925   -3834.1357 
 3065000    272.24841   -4208.5823   -3741.9578   -4208.5823            0   -1666.4194    18.081381    23.930164    22.311046    9653.7761   -506.49127   -2569.0855   -1923.6815   -198.28571    633.75694    126.02386   -3976.5737 
 3066000    286.54099    -4175.368   -3684.2465    -4175.368            0   -1770.9637    18.431826    23.495716    22.322114    9667.0144   -2986.2875   -1169.2367   -1157.3668   -450.02574   -716.68949    325.97033   -3933.9232 
 3067000    271.95606   -4217.2544    -3751.131   -4217.2544            0   -1017.4974    18.362214    23.506751    22.164496    9566.9941   -2021.9791   -402.25997   -628.25309    218.16814   -84.029877     775.6616   -3893.0971 
 3068000    275.09828    -4196.209      -3724.7    -4196.209            0   -230.44833    18.083673    23.584294      22.3802    9544.9459     233.8772    640.42003   -1565.6422     713.5326   -37.473153    226.12504   -3756.7791 
 3069000    262.88282    -4215.797   -3765.2248    -4215.797            0    -1837.588    18.050187    23.978669    22.205609    9611.0197   -515.85918   -1966.3053   -3030.5994   -364.64864    144.46405   -609.62419   -4022.7937 
 3070000    272.65211    -4184.067   -3716.7506    -4184.067            0   -1275.3864    18.208863    23.838908    22.146999    9613.5562   -2280.0788   -2059.2458    513.16561    -484.3584   -197.10324   -1164.6974   -3895.5647 
 3071000    272.35156   -4187.6434   -3720.8422   -4187.6434            0     -1263.21    18.185888    23.495712    22.619153    9664.9463   -1273.8408    449.14178   -2964.9309     121.9407    88.747764   -762.41483   -3898.8958 
 3072000    300.55438   -4163.4264   -3648.2865   -4163.4264            0     -1160.22    18.512606    23.499178    22.167416    9643.5136   -2102.8203   -791.26053   -586.57927   -223.11345    574.27301    127.95638   -3811.4607 
 3073000    266.85134    -4215.798   -3758.4239    -4215.798            0    144.81804    18.215403    23.687113    22.087653    9530.1666   -434.68676    979.72107   -110.58021   -125.88608   -563.36748   -502.79637    -3738.296 
 3074000    269.12216   -4187.0113   -3725.7451   -4187.0113            0   -921.71512    17.904567    23.971558    22.333569    9585.5762   -47.402208   -844.16606   -1873.5771   -435.03411    77.611137    1.0914837    -3854.597 
 3075000    277.53763   -4196.1772   -3720.4872   -4196.1772            0   -706.60814    18.200296    23.743231     22.19809    9592.5458   -236.31683   -939.03961   -944.46799   -696.16207    288.14841   -425.00206   -3819.3398 
 3076000    266.14039   -4182.3364   -3726.1808   -4182.3364            0   -868.26968    18.415632    23.272883    22.384817    9593.7932   -897.00089    1031.5741   -2739.3822    219.17457   -611.09602    206.63667   -3847.6654 
 3077000    264.51324   -4200.6679   -3747.3012   -4200.6679            0   -1189.2655    18.294037    23.678337    22.214938    9622.8974   -2204.5127   -1550.0946    186.81093   -495.18968    782.02531    157.55959   -3914.2029 
 3078000     283.4044   -4154.5317   -3668.7862   -4154.5317            0     -714.269    17.862058    24.067808    22.382024    9622.0451    881.67754   -3294.5111     270.0266    799.65974   -107.89297    358.69498   -3769.0179 
 3079000    282.55049    -4213.257   -3728.9751    -4213.257            0   -1701.7782    18.292122    23.709001     22.17106    9615.3217   -1485.6314   -1909.5436   -1710.1596   -139.34041    53.297399   -80.313099   -3967.6148 
 3080000    284.05824   -4159.2495   -3672.3834   -4159.2495            0   -627.82045    18.414939    23.406671    22.264118    9596.5568   -1085.6797    301.59035   -1099.3721    161.28667    97.056969     659.1416   -3760.2506 
 3081000    270.55422   -4182.4051   -3718.6844   -4182.4051            0   -1123.8743    18.323215    23.435638    22.477301    9652.1179   -1432.5413   -214.81666   -1724.2649   -10.688552   -278.07966   -51.294112    -3876.888 
 3082000    281.90466   -4222.9057   -3739.7308   -4222.9057            0   -3.2177824    18.296851    23.764373    21.989033    9561.1218   -262.57968   -45.902026    298.82836    805.42518   -690.85742    659.95873   -3740.1795 
 3083000    263.60649   -4199.5656   -3747.7531   -4199.5656            0   -1391.5032    17.807722    23.893486    22.486135    9567.5935   -276.47143   -1306.5464   -2591.4916   -147.66922    52.868341   -10.273183   -3941.9144 
 3084000    286.42803   -4164.3572   -3673.4293   -4164.3572            0   -1064.5369    18.252157    23.789737    22.128356    9608.4425   -1915.3313   -947.40309   -330.87641    286.13218    979.87192   -209.20153   -3822.6021 
 3085000    277.57467    -4200.617   -3724.8636    -4200.617            0   -1389.6814    18.391455    23.441609    22.142817    9546.3289   -2570.4386   -291.22842   -1307.3773   -288.85634   -565.53177    530.64737   -3918.3398 
 3086000    267.67241   -4174.8128   -3716.0314   -4174.8128            0   -1188.2856     18.25691    23.568934    22.447285    9658.9748   -2495.6776    93.842161   -1163.0215    29.380691     54.03554   -131.54407   -3883.4208 
 3087000    269.58163    -4201.824   -3739.7703    -4201.824            0   -562.48932    18.217872    23.797105      22.0515    9560.0441   -999.00775   -100.68812    -587.7721   -1249.7207    110.58663    210.33924   -3818.1945 
 3088000    286.30382   -4175.5478   -3684.8329   -4175.5478            0   -1082.5507    18.002045    23.730488    22.455606    9592.9745   -599.77089   -1392.1726   -1255.7087   -207.35591   -294.41931    771.48149   -3836.2857 
 3089000    252.78402   -4188.6646   -3755.4014   -4188.6646            0   -948.59122    18.241845     23.83768     22.02373    9576.8707   -840.61638   -1294.3138   -710.84351   -705.39558   -439.04003    993.61628     -3887.89 
 3090000    274.01818   -4176.0285   -3706.3708   -4176.0285            0    187.63886    18.264272    23.520733    22.284589     9573.216    1419.2335    412.95888   -1269.2758   -1229.2491    85.101927     263.5255   -3680.1735 
 3091000    263.26655   -4198.0176   -3746.7878   -4198.0176            0    450.98033    18.202279    23.491447    22.142296    9467.9987    256.87684    65.103126     1030.961   -168.05114    391.53898    613.01705   -3684.5159 
 3092000    284.48394   -4185.3957   -3697.7999   -4185.3957            0   -846.73536    18.149014    23.907927    22.021055    9555.0523    217.46656   -2571.1606   -186.51205    823.43398   -330.85432   -250.10114    -3815.793 
 3093000    260.54458   -4190.1128   -3743.5483   -4190.1128            0   -224.28442    17.933427    23.593492    22.440092    9494.6755    835.54669    168.03282   -1676.4328    15.200088   -227.38759    708.06337    -3774.605 
 3094000    274.65135    -4190.919    -3720.176    -4190.919            0    -1504.402    18.228458    23.772637    22.210768    9624.7809   -473.84197   -2305.9526   -1733.4113    641.21889   -276.44455   -50.831263   -3931.3452 
 3095000    267.91714   -4206.9277   -3747.7269   -4206.9277            0   -488.52202    18.415517    23.486594    22.131787    9572.3912   -2491.7092     1167.473   -141.32988   -29.135608     468.5827   -136.55045   -3815.9263 
 3096000     281.5464    -4180.893   -3698.3321    -4180.893            0    394.79957     18.26012    23.352878    22.267073    9495.2669    306.84184   -945.80812     1823.365    400.64264   -679.20962    294.48348   -3643.6607 
 3097000    268.65306   -4181.3516   -3720.8894   -4181.3516            0   -1236.3734    18.181921    23.833813    22.240287    9637.7061   -482.80508   -1958.3429   -1267.9722   -245.71074    229.14514    189.39095   -3894.6692 
 3098000    266.23598   -4205.6766   -3749.3572   -4205.6766            0    -1620.019      18.1499    23.812948    22.312239    9643.4079   -1679.4352   -936.07444   -2244.5472   -9.1707293    25.733122   -189.38369   -3977.1954 
 3099000    281.94745   -4195.4428   -3712.1945   -4195.4428            0   -976.18711    18.330732    23.653203    22.175605    9614.9099   -1853.6049   -1100.1976    25.241198    1098.5965   -485.24912   -44.549067    -3849.079 
 3100000    270.15631   -4204.3881   -3741.3494   -4204.3881            0   -99.070587    18.376318    23.363891    22.170769    9518.8491   -442.79923     1417.594   -1272.0065   -98.359725    30.492475    3.8114891   -3755.1027 
 3101000    268.84921   -4224.0958   -3763.2975   -4224.0958            0   -430.16977    18.070156    23.577756    22.326536     9512.304    130.66685    197.77536   -1618.9515    330.51295   -69.195385    799.05616   -3822.9737 
 3102000    289.41769   -4199.0471    -3702.995   -4199.0471            0   -598.37152    18.152281    23.809443    22.252854    9617.5873   -707.22515   -1456.0955    368.20614    258.84833    -215.6245    70.488007   -3786.9242 
 3103000    289.24736   -4200.9254   -3705.1653   -4200.9254            0    -1177.364    18.256627    23.811302    22.023547     9573.945   -763.45211   -2431.7468   -336.89311    40.402004   -1337.4542   -115.02257   -3869.5561 
 3104000    271.87982   -4185.7706   -3719.7779   -4185.7706            0   -1331.9448     18.25308    23.317272     22.52567     9587.196   -1455.0786   -16.892524   -2523.8632    785.86412    307.67259    43.324179   -3906.0096 
 3105000    278.18164   -4161.9451   -3685.1513   -4161.9451            0   -1502.1588    18.669684    23.392085     22.02895    9620.5456   -2795.4634   -1437.9954    -273.0176    214.98607    -118.9558    22.707014   -3895.9129 
 3106000    277.47759   -4230.0706   -3754.4835   -4230.0706            0    738.91754    18.053158    23.618921    22.260888     9491.956    -264.6874     153.0758    2328.3642    645.65396    668.34843    196.07715   -3652.1948 
 3107000    275.09613   -4197.7675   -3726.2622   -4197.7675            0   -2180.4719    17.975011     24.12334    22.267248    9655.4639   -1646.4868   -1839.8288   -3055.1001   -728.35698     350.1208    925.27134   -4033.3054 
 3108000    262.93043   -4166.1782   -3715.5245   -4166.1782            0   -630.20413    18.236135    23.725426    22.178256     9595.646   -1516.2686   -1169.4324    795.08858    832.51311    -243.9698   -326.79344   -3803.7169 
 3109000    275.61832   -4193.6315   -3721.2312   -4193.6315            0   -743.32374    18.426021    23.246629     22.41992    9603.4131   -578.33633    740.12258   -2391.7575   -577.81786    417.06713   -956.55018   -3825.3381 
 3110000    268.51622   -4185.0504   -3724.8228   -4185.0504            0   -1484.3096    18.301898    23.682044    22.189771    9617.6314   -2192.3757   -423.55364   -1836.9994     1060.497   -452.19643    285.45717   -3933.0169 
 3111000    272.67111   -4169.1523   -3701.8033   -4169.1523            0   -839.93059    17.930321    23.891386     22.44534    9615.1396    798.24463   -2050.0223   -1268.0141    698.64938   -12.217314   -916.88174   -3819.5842 
 3112000    274.26583   -4184.0989   -3714.0167   -4184.0989            0   -753.35382      18.0811    23.644148     22.27052    9520.9192    -91.68988    -533.3803   -1634.9913   -1132.4131     314.4579   -1049.3595    -3818.622 
 3113000    270.01724   -4193.0679   -3730.2676   -4193.0679            0   -267.93549    18.305723    23.544749    22.111539    9530.1544   -1135.4796    826.59879   -494.92568   -561.31755   -647.57203     204.0063   -3767.5073 
 3114000    293.04806   -4175.8292   -3673.5549   -4175.8292            0   -580.33338    18.300308    23.329585    22.468821    9592.8064   -617.22586   -513.68583   -610.08846    134.63389    331.33428    -252.7284   -3754.7443 
 3115000    292.73999   -4189.4033   -3687.6569   -4189.4033            0    65.003615    18.070579    23.766382    22.265451    9562.3939    1258.4336   -653.22344   -410.19929   -743.44329    374.23631   -888.67793   -3678.5917 
 3116000    266.42319   -4190.0744   -3733.4342   -4190.0744            0   -827.89027    17.908608    24.056013    22.258878    9589.3406    96.885721   -381.70199   -2198.8545   -440.17847   -63.031874   -855.18015   -3849.2152 
 3117000    262.82011   -4199.7803   -3749.3157   -4199.7803            0   -1770.7764    18.238435    23.736101    22.332437    9667.9207   -1188.2083   -1970.6939   -2153.4271    965.40771   -468.55926    389.28326   -3998.9893 
 3118000    275.18917   -4208.6276   -3736.9627   -4208.6276            0   -1223.9611    18.455209    23.507929    22.249362    9652.7467   -2577.1446   -1582.9182    488.17952   -282.38573   -36.823713     161.0894   -3909.2664 
 3119000    296.70908   -4208.3955   -3699.8463   -4208.3955            0   -406.87595    18.302574    23.518836    22.291077    9595.3107   -674.09239   -420.83057    -125.7049    424.34427   -40.827736     502.0987   -3756.7836 
 3120000    286.71865   -4219.5929   -3728.1669   -4219.5929            0   -1439.3985    18.090161    23.660357     22.36694      9573.49   -529.28696   -2533.6133   -1255.2953   -17.530985   -459.58185    439.21643   -3929.1351 
 3121000    268.68388   -4199.6878   -3739.1728   -4199.6878            0   -166.79489     18.10285    23.862157    22.003073     9504.735   -1898.7011    488.84926    909.46714   -137.31454     331.7094    1225.7643   -3762.2934 
 3122000    275.61546    -4162.261   -3689.8655    -4162.261            0   -719.48798    18.047632     23.58411    22.450714    9555.8623    244.86049   -734.65784   -1668.6666   -530.43822      407.446    4.8864867   -3790.1351 
 3123000    256.99544   -4197.9558   -3757.4744   -4197.9558            0   -659.35823    18.342089    23.473434    22.193918    9555.6318    -1102.376   -1287.8652    412.16654    152.42019    -81.67455    531.05793    -3849.362 
 3124000    265.48956   -4152.5427   -3697.5027   -4152.5427            0   -1509.4923    18.397105    23.553795    22.303664    9664.6605   -2283.8194   -1413.8434   -830.81407   -174.26406   -319.34168   -372.07411   -3910.2644 
 3125000    294.95526   -4172.1438   -3666.6006   -4172.1438            0   -1272.5279     17.99826    23.820961    22.427289    9615.3826   -707.66426   -1602.6489   -1507.2704   -17.178044    706.65873    673.43591   -3845.0478 
 3126000    283.18883   -4208.0824   -3722.7064   -4208.0824            0   -512.58468    18.183328    23.777481    22.186591    9592.4554   -945.25686   -4.2994666   -588.19773   -488.80285   -253.40824    -483.7838    -3794.415 
 3127000    279.37344   -4186.7121   -3707.8756   -4186.7121            0   -1211.9047    18.267297    23.433713    22.340768     9563.426   -1754.0077   -650.27813   -1231.4282   -622.05098   -513.79305    266.75231   -3876.9033 
 3128000    262.68118   -4165.7963   -3715.5697   -4165.7963            0    248.60259    18.405033    23.407012    22.182502    9556.3736    934.80403    900.01341   -1089.0097      1160.25    600.11896    839.84183    -3680.922 
 3129000    275.28461   -4152.9534    -3681.125   -4152.9534            0   -272.41094    18.181864    23.469175    22.529341    9613.5706    404.69266    461.53289   -1683.4584   -1723.1112   -1144.3389    47.688921   -3719.3181 
 3130000    273.57979    -4221.799   -3752.8926    -4221.799            0    147.23093    18.047587    23.814092    22.189303    9536.6719    477.46113   -333.71091    297.94259    129.10321    -972.3869   -331.44891   -3732.4153 
 3131000    266.75692   -4209.3833    -3752.171   -4209.3833            0   -273.11847     18.01305    23.817083    22.319844    9575.6219     175.8849   -778.59086   -216.64944    504.66071     758.2172    272.99754   -3790.3122 
 3132000    286.01223   -4174.5709   -3684.3557   -4174.5709            0   -1048.1486    18.204377    23.687144     22.43236    9673.0511   -34.976654   -2769.9633   -339.50582    887.78162   -249.95728   -294.75134   -3832.2197 
 3133000    282.92465   -4218.3854   -3733.4622   -4218.3854            0    -1270.722    18.481466    23.537873    22.074315     9602.645   -1929.1818    389.96538   -2272.9496    525.35389   -250.94808    520.79691   -3911.4202 
 3134000    265.66103   -4209.8735   -3754.5396   -4209.8735            0   -591.08913    18.276695    23.562686    22.265033    9588.3929   -878.60517    855.46109   -1750.1233   -1264.3181    505.27112    -273.2578   -3837.1957 
 3135000     263.9165   -4211.7196   -3759.3758   -4211.7196            0    -157.3181    17.940199    23.762775    22.363509    9533.7633    946.37222   -1619.8484    201.52182   -565.72581      702.203   -194.11889   -3781.2493 
 3136000    262.67763   -4172.9826   -3722.7621   -4172.9826            0    652.44912    18.017403    23.793222    22.239855    9534.0494    2023.1218    931.27271   -997.04711    717.86718    492.14797    787.87884   -3632.0428 
 3137000    261.09799   -4189.8382   -3742.3252   -4189.8382            0   -365.73659    18.353996    23.563826      22.1591    9583.5976   -1034.6149   -41.116432   -21.478452   -718.81203   -132.29408    165.42906    -3793.443 
 3138000    280.34918   -4196.3444   -3715.8355   -4196.3444            0   -1014.7125    18.403308    23.434182    22.302283    9618.2266    704.02297   -903.56705   -2844.5934   -192.83534    641.57127    834.85856   -3858.1712 
 3139000    251.87662   -4206.3559    -3774.648   -4206.3559            0   -1616.2227     18.22372    23.586105    22.418902    9636.2402   -1316.1632   -509.69051   -3022.8146     473.4773   -805.87733    343.41585   -4001.7834 
 3140000    278.57611    -4195.495   -3718.0251    -4195.495            0   -1680.1231    18.164156    23.884743    22.302428    9675.8234    -2201.513   -1156.2918   -1682.5646   -364.28762    23.215449    -492.1103   -3955.1106 
 3141000    270.18026    -4216.458   -3753.3782    -4216.458            0    100.58935    18.127764    23.709612     22.17264    9529.8502    162.08913   -937.85801    1077.5369   -492.78835   -326.00512    16.893875    -3739.398 
 3142000    273.77243   -4206.5576   -3737.3211   -4206.5576            0     1282.958    18.279512    23.402451    22.048104    9431.8568    1106.3248    989.09075    1753.4584   -477.93733    725.80828   -91.665092   -3560.8451 
 3143000     273.7615   -4212.5187   -3743.3009   -4212.5187            0   -67.476581    18.284916    23.538823    22.157995    9536.9208   -1562.5681     467.9324    892.20597    596.14522    315.15052    200.65437   -3752.6859 
 3144000    269.37687   -4183.9133   -3722.2106   -4183.9133            0   -1417.3877    18.127944    23.822898    22.327626    9642.4117   -733.24133   -1625.4556   -1893.4664    29.556444    401.13022    687.79628   -3921.5303 
 3145000    294.35553   -4198.2876   -3693.7723   -4198.2876            0   -33.323526    18.027348    24.011809    22.147122    9586.8074    856.76874   -953.23268    -3.506644    -1167.983   -474.76588   -387.62813   -3698.4313 
 3146000    270.21303   -4204.7312   -3741.5953   -4204.7312            0   -1015.8379    18.265916    23.648889    22.315156    9639.4475   -1158.0712   -1867.3916   -22.050943    1178.6852    215.83068    618.73823   -3884.4033 
 3147000    255.70024   -4194.9296   -3756.6682   -4194.9296            0   -329.51137    18.223986    23.523303    22.359265    9585.1563     1147.453   -122.63134   -2013.3558   -635.65821   -301.12645    119.33952   -3802.7304 
 3148000    257.91838   -4203.4417   -3761.3784   -4203.4417            0   -771.47464    18.221443    23.776898    22.061175    9557.9909   -1142.8302   -46.359279   -1125.2344   -570.44829   -957.09569      69.2806    -3868.917 
 3149000    285.12847   -4168.8962   -3680.1958   -4168.8962            0   -770.37684    17.812205    23.706124    22.611897    9548.0624    444.40069   -824.58195   -1930.9493    137.20471   -144.71075     1032.976   -3787.4697 
 3150000    264.63933   -4179.3363   -3725.7535   -4179.3363            0   -1608.0979    18.331052    23.801074    22.158566    9667.7539   -1099.0845   -2442.6699   -1282.5393   -995.00727     226.5023   -137.45763   -3952.4861 
 3151000    284.07522   -4184.9472    -3698.052   -4184.9472            0   -878.79225    18.293086    23.472502    22.363319    9602.4626   -1842.2382   -809.78933    15.650776   -451.84308   -754.15808    277.44357   -3821.1198 
 3152000    262.12695   -4205.8625   -3756.5858   -4205.8625            0    -1344.906    18.204825    23.539976    22.413028    9604.9049   -1487.7463    -2155.034   -391.93772   -463.54581    295.59533   -273.33561   -3944.9772 
 3153000    270.39854   -4175.6102   -3712.1564   -4175.6102            0    570.26598     18.19207    23.816178    21.953888     9511.864    664.16545   -1081.0989    2127.7314    50.631065   -474.44141    -550.8533   -3633.0487 
 3154000      268.135   -4204.8579   -3745.2837   -4204.8579            0    -861.5418    18.238054    23.384696    22.449367    9574.4605   -1564.1893   -134.06221   -886.37392   -629.93845   -46.118936    629.69879    -3865.584 
 3155000    282.16276   -4212.8939   -3729.2766   -4212.8939            0   -1340.2283    18.274096    23.591594    22.289118    9609.1741   -1734.0395   -609.58356   -1677.0618   -668.91913   -413.80484    408.52438   -3917.0961 
 3156000     254.1315   -4207.0746   -3771.5019   -4207.0746            0   -1123.1269    18.272345    23.807595    22.107565     9617.246   -471.59327   -1942.5559   -955.23148    12.702304   -497.81906    873.71152    -3929.029 
 3157000    268.97249   -4202.8992   -3741.8895   -4202.8992            0   -464.55687    18.088897    23.543944    22.497906    9581.4976   -222.25836   -949.39021   -222.02205   -522.90523   -637.76204   -303.33238    -3806.805 
 3158000    264.42429   -4192.7716   -3739.5574   -4192.7716            0   -408.32905    18.474987    23.623072    22.074226    9633.9861   -1055.1264    -307.7294    137.86868   -566.57086     392.6759    104.31142   -3796.9284 
 3159000    265.63183   -4183.9828   -3728.6989   -4183.9828            0   -975.34118    18.203653    23.628426    22.282125     9584.069    187.86789   -1251.2314     -1862.66     490.5202   -344.26078    460.39793   -3865.0261 
 3160000    275.92437   -4172.1462   -3699.2212   -4172.1462            0    -336.5927    18.064186    23.748746    22.315757    9573.4991    1092.9945   -2260.1998    157.42716    1043.1488   -377.32629   -760.24958   -3746.2162 
 3161000    268.17224   -4216.8713   -3757.2333   -4216.8713            0   -133.20762    18.234532     23.91529    21.961174    9576.9193   -134.92026   -421.02504    156.32243   -256.69136   -440.69957   -555.12016   -3775.8383 
 3162000    256.29471   -4174.0664    -3734.786   -4174.0664            0   -464.21302      18.2623    23.512482    22.331451    9588.9463   -839.35588    1097.6683   -1650.9515    1635.2713   -331.43282   -139.93102   -3799.7038 
 3163000    266.15098    -4169.726   -3713.5523    -4169.726            0   -2262.8552     18.49978    23.364936    22.376011    9671.9456   -2467.3154   -1914.6588   -2406.5914    807.84252    281.01079   -63.263511   -4032.7402 
 3164000    264.03305   -4185.3975   -3732.8539   -4185.3975            0    119.73765    18.104004    23.761056    22.239806     9566.903    917.52685    408.19924   -966.51313   -12.363042   -373.03322   -237.46385   -3716.1477 
 3165000    276.92258   -4198.5906   -3723.9548   -4198.5906            0    28.943106    18.085395    23.858546    22.178248    9569.7193    214.64683    236.05957   -363.87709     160.8799    354.48924   -329.82411   -3719.9153 
 3166000    270.25771   -4170.0991   -3706.8866   -4170.0991            0   -147.26155     18.15143    23.700104     22.23012     9563.193    571.72545   -637.87489    -375.6352   -252.53168    122.21995     -676.433   -3727.4251 
 3167000    263.98049   -4205.0641   -3752.6105   -4205.0641            0   -738.86697    18.386699    23.445854    22.227261    9581.9915   -1181.7665   -70.577396   -964.25702    306.86631    693.47988    575.48265   -3855.8624 
 3168000    291.50939   -4173.3129   -3673.6758   -4173.3129            0   -2032.1714    18.386763    23.444214    22.403505    9657.3268   -2822.7807   -1731.1893   -1542.5442   -393.86241     239.0941   -629.35388   -3959.8913 
 3169000    278.04952   -4153.8209   -3677.2535   -4153.8209            0   -426.21526    18.177686    23.687491    22.283801    9595.0431    787.05508   -1336.2606   -729.44031   -355.03485   -300.84699   -1153.8311   -3736.8955 
 3170000    283.96377   -4209.6477   -3722.9435   -4209.6477            0   -1111.4983    17.996951    23.934729    22.331551    9619.3635   -1646.6298   -2458.1263    770.26098    444.95832     505.1073   -228.73184    -3878.874 
 3171000    274.24001    -4185.058     -3715.02    -4185.058            0   -1410.9954    18.173904    23.801819    22.094039    9557.2619   -604.48747   -1850.6892   -1777.8095   -834.95727    793.57509   -882.85962   -3911.6886 
 3172000    266.06413   -4188.5131   -3732.4883   -4188.5131            0   -1517.6948     18.32839    23.339125    22.370702    9569.4838   -1373.0047   -902.34326   -2277.7365     439.4597    461.53527    414.75861   -3944.2994 
 3173000    276.43209   -4204.3243   -3730.5291   -4204.3243            0   -1273.2539    18.393175    23.388379    22.294883    9590.9585   -1996.3632   -162.57076   -1660.8276    670.18015     95.70067    954.62352   -3908.6246 
 3174000    260.34725   -4187.0218   -3740.7955   -4187.0218            0   -855.16639    18.248074    23.764548    22.138286    9600.4284   -2498.6797   -388.55574    321.73629   -162.34329    -432.2586   -495.86335   -3860.5294 
 3175000    269.57299   -4168.5317   -3706.4928   -4168.5317            0    293.32497    18.001102    23.614089    22.485266    9558.0287    579.43912    155.52201    145.01377    -54.00013    260.71585    581.68036   -3665.6051 
 3176000     265.4424   -4190.0742   -3735.1151   -4190.0742            0   -911.96307    18.299004    23.794722    21.962817    9563.0434   -1257.8252   -1297.6331   -180.43092   -581.23658    537.12998    390.35912    -3862.304 
 3177000    283.85946   -4177.2094    -3690.684   -4177.2094            0    806.22067    18.108524    23.462835    22.253763    9455.1188    194.95023    1244.2477    979.46406    -711.5944   -562.07772    1047.1302   -3579.5116 
 3178000     285.3353   -4194.6558   -3705.6009   -4194.6558            0   -1302.3924    18.134672    23.577211    22.429565    9590.0967   -1325.6865    -966.7867    -1614.704     22.20826     73.24115   -377.19923   -3887.7557 
 3179000     268.6568   -4178.7265   -3718.2579   -4178.7265            0   -1591.0596    18.367958    23.798112    22.122038    9670.0457   -2539.9918   -1789.3919   -443.79522   -765.47066    158.84798    -174.6681   -3942.6414 
 3180000    272.41493   -4199.5233   -3732.6134   -4199.5233            0   -1034.8663    18.156135    23.379092    22.457927    9532.8051    -712.2587   -701.90891   -1690.4312   -386.65212   -772.30645    285.04863   -3876.4869 
 3181000    278.80412   -4191.2998   -3713.4391   -4191.2998            0    379.79904    18.218988    23.715763     22.06546    9533.9823    364.42068   -961.47051     1736.447   -455.48371   -712.74078    778.75633   -3660.6306 
 3182000    289.28106   -4177.4103   -3681.5925   -4177.4103            0   -392.64665    18.263044    23.614257    22.232386    9588.1211    357.63625    695.11162   -2230.6878    177.46015   -28.531195   -578.62266   -3736.4974 
 3183000    261.93325   -4187.9587   -3739.0141   -4187.9587            0   -1011.1796     18.32364    23.557288    22.365609    9654.2327   -1083.5933   -2117.7785    167.83291   -516.21994    182.41088   -855.37396   -3881.3852 
 3184000    270.43565   -4203.4834   -3739.9659   -4203.4834            0   -1009.2137     18.22691    23.807692    22.193428    9630.6309   -1234.6744   -499.10555   -1293.8612   -1184.9053   -451.98781   -206.74884   -3881.7129 
 3185000    275.13668   -4171.3415   -3699.7667   -4171.3415            0   -67.546414    17.904927    23.772255    22.399741    9534.2367      285.827    49.719725   -538.18597   -683.95626   -77.346783    1164.2324   -3709.1588 
 3186000    268.32544   -4156.6425   -3696.7419   -4156.6425            0   -1298.2348    18.276167    23.813912    22.276325    9695.2591   -1427.3713   -1658.6388   -808.69421   -912.95693    46.710917    724.99105   -3880.3063 
 3187000    274.29343   -4198.6792   -3728.5496   -4198.6792            0   -164.71816    18.326169    23.347663    22.364471    9569.1579    225.21173    288.78395   -1008.1502   -415.89952   -676.44134   -545.33161   -3751.5371 
 3188000    285.57485   -4177.5875    -3688.122   -4177.5875            0    148.62005    18.199414    23.645748     22.09273     9507.358   -1082.1637    -407.7145    1935.7384   -879.52632   -112.47833   -108.89923   -3667.5151 
 3189000    257.80661   -4198.3949   -3756.5232   -4198.3949            0    536.94017    18.097242    23.682286    22.196942    9513.2556    1856.3591      -683.36    437.82137    868.94114    6.2310303   -57.910598   -3682.0276 
 3190000    282.01929   -4155.2349   -3671.8635   -4155.2349            0   -1617.1491    18.265502    23.691148    22.232793    9620.8121   -2299.0989    -1055.923   -1496.4255    550.97524    157.13405     615.6664   -3898.7651 
 3191000    270.08309   -4166.9494   -3704.0362   -4166.9494            0   -2873.7178      18.3019    23.858708    22.265173    9722.3029   -2358.6174   -4257.0185   -2005.5176   -745.45067    107.96213   -367.15705   -4111.5001 
 3192000     269.1616   -4166.2638     -3704.93   -4166.2638            0   -1792.5489    18.349914    23.629033    22.410484    9716.9778   -1897.3599   -1021.9735   -2458.3132    161.57058   -961.33335     288.5791    -3958.956 
 3193000    273.45395   -4172.3675   -3703.6768   -4172.3675            0   -1785.9779    18.260042     23.68476    22.350579    9666.2835   -2984.6176    -582.1454   -1791.1707   -128.35058   -351.44329    161.79279   -3955.4512 
 3194000    280.51391   -4178.1369   -3697.3457   -4178.1369            0    681.50196    18.269293     23.60322    21.982045    9478.9688    515.18867    72.367901    1456.9493    641.32513    58.015387    -58.64209   -3603.1342 
 3195000     271.7802   -4184.8174   -3718.9954   -4184.8174            0   -1078.5499    18.080142    23.297359    22.581311    9511.6896   -1536.1993   -411.11647   -1288.3338   -272.67831   -389.87304    248.84136     -3868.61 
 3196000    269.50996   -4179.1266   -3717.1958   -4179.1266            0   -913.17342    18.233006    23.754885    22.164369    9599.8974    88.157675   -1184.8477   -1642.8303    707.48071   -636.44926    -511.7223   -3845.0443 
 3197000    273.68452    -4177.171   -3708.0851    -4177.171            0   -633.38538    18.114688    23.870128    22.261681    9625.9493    1205.9915   -1583.5396    -1522.608    176.61223    295.37686    695.24244   -3797.0027 
 3198000    271.34317   -4168.9181   -3703.8452   -4168.9181            0   -1637.7667    18.206479    23.629449    22.426614    9648.1329   -1783.6561   -291.40885   -2838.2352    617.61686     -594.486   -374.43767   -3934.2923 
 3199000    280.75387    -4176.475   -3695.2725    -4176.475            0    345.35282    18.283445    23.530778    22.139583     9524.973   -353.90657    638.11612    751.84892   -150.20346    308.51038    51.061295   -3647.2989 
 3200000    277.78959   -4197.4833   -3721.3615   -4197.4833            0   -444.76297    18.345103     23.39068    22.268148    9555.3611    765.49274    900.31102   -3000.0927    360.93965   -537.69385    22.713443   -3783.3415 
 3201000    278.19345    -4191.635   -3714.8209    -4191.635            0   -1253.4359    18.127029    23.560129    22.397734    9565.5156   -1118.1071   -478.24746   -2163.9532    314.99531   -247.12735   -530.79408   -3889.6793 
 3202000    267.04317   -4154.1781   -3696.4753   -4154.1781            0   -1195.3431    18.122254    24.052032     21.97428    9578.0838   -326.07812   -1881.9221   -1378.0292   -1505.5237   -506.46552   -33.357334   -3863.4486 
 3203000     271.3308    -4211.165   -3746.1133    -4211.165            0    358.92685     18.07189    23.577865    22.251972    9481.4889    827.23237    461.39105   -211.84286    857.08252   -163.01409    271.93344   -3696.4817 
 3204000    276.27269   -4225.6574   -3752.1355   -4225.6574            0   -489.01645    18.321415    23.555814    22.165277    9565.9984   -264.39292   -232.84255   -969.81388    65.475128     29.90033    480.34802   -3820.3583 
 3205000    254.97132   -4188.8299   -3751.8178   -4188.8299            0   -774.71444    18.427095    23.483618    21.996925    9518.8358   -1719.7645    -1163.184    558.80511    324.27881    358.15908    156.53863   -3859.3656 
 3206000     265.9504   -4199.4916   -3743.6617   -4199.4916            0   -1653.5524    18.171381    23.621345    22.276269     9561.698   -2317.4937   -1843.0275   -800.13616   -848.39891   -17.282093    303.31713   -3974.2456 
 3207000    263.98734    -4178.737   -3726.2717    -4178.737            0   -1182.1959    17.893414    23.890481    22.479717    9609.6805    443.13709   -1962.8205   -2026.9042    446.32272   -426.49715    514.11277   -3891.9533 
 3208000     275.3579   -4165.7339   -3693.7799   -4165.7339            0   -174.33367    18.181539    23.869756    22.132262    9605.1562   -478.54813   -498.59129     454.1384     -789.333    346.32878   -127.34324   -3718.2008 
 3209000    273.38455   -4193.3964   -3724.8247   -4193.3964            0   -733.73915    18.172833    23.445595    22.487898    9581.4833    445.01987   -1286.7632   -1359.4742   -629.24987    401.14984    534.88669   -3827.3545 
 3210000    265.73403   -4141.5836   -3686.1246   -4141.5836            0   -908.95131    18.316921    23.763432    22.201693    9663.7952   -453.51014     -417.422   -1855.9218   -454.06451    -210.7757    954.50529    -3814.229 
 3211000    262.84001   -4181.8106   -3731.3118   -4181.8106            0   -898.03897     18.39129    23.630295    22.045905    9580.9656   -886.45784   -1546.5669   -261.09223   -498.21272   -279.70065    430.24394   -3856.7935 
 3212000     277.6173   -4184.9929   -3709.1664   -4184.9929            0   -255.87706    18.195246    23.483776    22.494709    9611.8335    -242.5174    -57.01197   -468.10181   -534.55507    484.64874   -405.05936   -3745.0349 
 3213000    272.17762   -4174.3004   -3707.7973   -4174.3004            0   -416.78608    18.268409    23.856283    21.903874     9546.066   -185.76791   -1846.9498    782.35943   -658.79276    178.94647    392.52349   -3765.8221 
 3214000    264.65252    -4182.223   -3728.6176    -4182.223            0   -758.35476    18.088739    23.674748    22.323609    9560.0041   -419.57338   -1697.8256   -157.66535   -189.89844    575.91434   -579.79778   -3834.3496 
 3215000     262.2362   -4225.7955   -3776.3316   -4225.7955            0   -2332.7111    18.365503    23.650039    22.332584    9700.0433   -2470.0456   -2275.6071   -2252.4805    7.6864917    218.82456   -338.94832    -4106.329 
 3216000    265.41345   -4184.2191   -3729.3095   -4184.2191            0   -1256.5627    18.387237    23.694165    22.199226     9671.542   -2032.9669    -1194.233    -542.4881    118.38868    2.3162292   -10.257892    -3906.547 
 3217000    266.09438   -4210.4939   -3754.4172   -4210.4939            0   -409.39361      18.0278    23.474006    22.605728    9566.3977    18.771136    9.1641536   -1256.1161     155.7362    474.44941   -548.29342   -3811.5342 
 3218000    275.19368   -4177.1573   -3705.4848   -4177.1573            0   -1714.4643    18.241258    23.934258     22.10997    9653.0133   -1499.7235    -2592.827   -1050.8425   -279.47459    734.73262    -192.7458   -3946.8459 
 3219000    283.75936   -4185.7183   -3699.3644   -4185.7183            0   -1445.8706    18.229806    23.858332    22.234866    9670.6719   -720.04654   -1964.6316   -1652.9337   -40.809519    748.95532     128.2397   -3903.2855 
 3220000    264.59332   -4202.2024   -3748.6985   -4202.2024            0   -32.254098    18.106185    23.613902    22.374333    9566.3177   -1105.8458    265.26926    743.81425    288.02424   -167.67918   -114.16677   -3753.1985 
 3221000    272.12254   -4185.3427   -3718.9339   -4185.3427            0   -303.63933    18.267261    23.784509    22.054463    9582.1752   -1769.5089    21.539636    837.05124   -1260.8178    179.77321    803.15948   -3761.3664 
 3222000     278.6439   -4213.6324   -3736.0462   -4213.6324            0   -1907.4579    18.230011      23.7345    22.388307    9686.9772   -2507.0542   -1285.9196      -1929.4    446.20379    167.43798   -604.72562   -4005.5217 
 3223000    278.25495   -4214.2833   -3737.3639   -4214.2833            0   -803.14891    18.323269    23.546366    22.268869    9607.8235   -1098.7088   -1067.4405   -243.29736   -381.40641    -227.4902    1023.2405   -3849.9013 
 3224000     271.7862   -4181.3688   -3715.5366   -4181.3688            0   -1257.0851    18.389193    23.637432    22.089511    9601.7206   -2472.4837   -1809.9105    511.13889   -353.26976   -316.12535   -910.69924   -3891.5678 
 3225000    285.47094   -4238.0656   -3748.7782   -4238.0656            0    862.25839      18.1625    23.393676    22.305349    9477.2673    1317.2878    1611.2513   -341.76389     -565.248    -284.5141    -171.0031   -3629.6001 
 3226000    274.60014   -4187.2646   -3716.6094   -4187.2646            0   -1316.9831    18.370972    23.798292    22.028318    9630.7312   -1895.0472   -1420.8926   -635.00953   -7.6463247    512.41922   -275.37546   -3901.5854 
 3227000    289.74728   -4148.7365   -3652.1196   -4148.7365            0   -2131.8307     18.17166    23.744228    22.378768    9655.8127   -988.31048   -3608.7938   -1798.3877   -165.00418   -851.17642    405.83745   -3952.3243 
 3228000    277.58246   -4171.4794   -3695.7126   -4171.4794            0   -1035.4412    18.167838     23.93804    22.088833    9606.4871   -1440.5978   -1380.0735   -285.65241   -214.90491     217.4027    290.88675   -3840.7787 
 3229000    277.74435   -4187.0717   -3711.0274   -4187.0717            0   -259.94389    18.206574    23.479598     22.29482    9530.6574    858.35455   -95.322789   -1542.8634    -1151.069   -276.97749    214.28827   -3747.1583 
 3230000    293.72297   -4193.3719   -3689.9408   -4193.3719            0   -1233.7622    18.273544    23.461389    22.303601    9562.0605   -363.41099   -2060.1659   -1277.7096    -622.4164    57.260957    431.72383   -3861.9925 
 3231000    282.70832   -4185.0588   -3700.5064   -4185.0588            0   -2490.0599    18.364173    23.750351    22.186054    9676.5706   -3620.8505   -2407.2776   -1442.0516   -95.419119   -256.47292    84.884437   -4051.9108 
 3232000    269.42655   -4171.8964   -3710.1085   -4171.8964            0    220.76209    17.979057    23.752481    22.332423    9536.9989    1290.0695    96.333048   -724.11625   -1150.4583    275.36709    958.55993   -3679.4033 
 3233000    271.72364   -4206.8378   -3741.1128   -4206.8378            0   -691.94112    18.198518    23.711005    22.155008         9560   -1640.4409   -147.67338   -287.70909    466.23617   -398.11069     34.33144   -3837.5852 
 3234000    281.99652   -4179.3641   -3696.0317   -4179.3641            0   -1066.0097    18.335967    23.527122    22.251154    9598.9816     -1263.52   -1029.0903    -905.4188    359.39406   -53.205748    102.99124   -3845.2638 
 3235000    257.58221   -4188.3517   -3746.8646   -4188.3517            0   -812.81947    18.383542    23.348561    22.316742    9578.9981   -1176.9732   -836.61816   -424.86709   -1726.2152    665.24634    -37.07011   -3860.4154 
 3236000    276.34336    -4196.614    -3722.971    -4196.614            0   -2057.9329    18.282454     23.82648    22.205764    9672.9759    -1339.657   -3742.2158    -1091.926   -1366.5933   -766.00606    728.98872   -4013.2845 
 3237000     258.6098   -4156.5393    -3713.291   -4156.5393            0   -2024.4112    18.140533    23.790205    22.417773    9674.7711   -2902.8019   -1018.5008   -2151.9308    557.99597   -22.046041    32.245535   -3998.9286 
 3238000    283.34998   -4185.8343   -3700.1821   -4185.8343            0   -1007.5685    18.047823     23.91402    22.146667    9558.4128    -2012.686   -1926.9462    916.92659    378.26416   -237.69222    114.27397   -3840.6368 
 3239000    277.70411   -4198.3371   -3722.3618   -4198.3371            0   -455.27405    18.230618     23.57487    22.245821     9560.908   -372.46106   -53.604069   -939.75702   -120.09765   -404.79875   -591.34904   -3785.8434 
 3240000    274.41947   -4184.4671   -3714.1215   -4184.4671            0   -800.47868    18.396745    23.336173    22.303121    9574.9441   -1829.6645    872.79928   -1444.5709    58.153185   -238.50781    290.28156    -3825.901 
 3241000    261.88994   -4192.6419   -3743.7715   -4192.6419            0   -752.72086    18.217069     23.54785    22.291863     9562.603   -2127.0569    393.73589   -524.84157    232.91694    12.226138    -589.4749   -3848.7466 
 3242000    273.26115   -4189.1747   -3720.8144   -4189.1747            0   -857.56693    18.193014    23.681672    22.259792    9590.4311   -1637.1697   -1002.7911    67.260024   -167.43934    118.08095   -117.60232   -3840.7594 
 3243000    275.18597   -4159.0911   -3687.4317   -4159.0911            0   -353.99277    17.854012    23.829609    22.435007    9545.0659      757.778   -1148.2628   -671.49349   -1516.1396    765.64998    29.610035   -3736.7093 
 3244000    284.20246   -4195.0008   -3707.8875   -4195.0008            0   -885.56485    18.262929    23.740901    22.076193    9571.7605   -1819.2726   -1556.1623    718.74042    -1784.978   -697.16869    235.87037   -3831.5073 
 3245000    292.33387   -4189.1071   -3688.0569   -4189.1071            0   -2081.8249    18.341342    23.477173    22.433132    9659.7707   -1507.4652   -2156.0291   -2581.9805     408.9066   -946.91309    250.81081   -3981.3399 
 3246000    266.59915   -4173.9037   -3716.9619   -4173.9037            0   -965.64189    18.255745    23.530829    22.336167    9595.0102    654.18743   -1349.8738   -2201.2393   -479.00636    121.01958   -339.12026   -3852.0874 
 3247000    271.56409   -4180.9449   -3715.4934   -4180.9449            0   -128.31196    18.137107    23.713738    22.192052    9544.7705   -549.67659    1186.7468   -1022.0061   -1158.6507   -580.01353    578.68729   -3733.3545 
 3248000    268.17491   -4144.2176    -3684.575   -4144.2176            0   -336.98553    18.099027     23.78364    22.306199    9601.9427     685.2368   -1662.0994   -34.093995    127.56168   -597.83362    262.04228   -3731.7646 
 3249000    263.52116   -4190.5499   -3738.8837   -4190.5499            0    -15.90626    18.288628    23.512227     22.28851    9584.2013   -802.38096    600.31025    154.35193   -6.2355058   -368.69907   -35.941059    -3741.107 
 3250000    287.13254   -4167.0764   -3674.9411   -4167.0764            0   -2557.0675    18.490702    23.612804     22.38927    9775.5434   -2789.2691   -1635.5524   -3246.3811    534.74167    316.41281    1239.3388   -4039.4927 
Loop time of 385.597 on 64 procs for 250000 steps with 864 atoms

Performance: 112.034 ns/day, 0.214 hours/ns, 648.346 timesteps/s
383.6% CPU use with 16 MPI tasks x 4 OpenMP threads

MPI task timing breakdown:
Section |  min time  |  avg time  |  max time  |%varavg| %total
---------------------------------------------------------------
Pair    | 23.894     | 27.059     | 29.636     |  32.9 |  7.02
Bond    | 1.5933     | 1.821      | 2.2238     |  11.6 |  0.47
Kspace  | 205.77     | 212.36     | 220.33     |  31.0 | 55.07
Neigh   | 1.4861     | 1.7659     | 2.0899     |  17.3 |  0.46
Comm    | 51.341     | 58.501     | 65.908     |  51.7 | 15.17
Output  | 0.87505    | 0.87538    | 0.87688    |   0.0 |  0.23
Modify  | 59.254     | 66.593     | 75.191     |  55.3 | 17.27
Other   |            | 16.62      |            |       |  4.31

Nlocal:        54.0000 ave          66 max          46 min
Histogram: 3 3 1 1 2 0 3 1 0 2
Nghost:        2446.50 ave        2460 max        2410 min
Histogram: 1 0 0 1 1 1 1 1 4 6
Neighs:        12462.3 ave       15716 max       10710 min
Histogram: 5 1 2 1 1 3 1 1 0 1

Total # of neighbors = 199397
Ave neighs/atom = 230.78356
Ave special neighs/atom = 2.0000000
Neighbor list builds = 7329
Dangerous builds = 0

unfix		3
unfix		2
unfix		1

write_data	data.final.${pid} nocoeff
write_data	data.final.0 nocoeff
System init for write_data ...
PPPM initialization ...
  extracting TIP4P info from pair style
  using 12-bit tables for long-range coulomb (../kspace.cpp:340)
  G vector (1/distance) = 0.37036097
  grid = 24 27 25
  stencil order = 5
  estimated absolute RMS force accuracy = 0.003306857
  estimated relative force accuracy = 9.9585015e-06
  using double precision FFTW3
  3d grid and FFT values/proc = 6300 1296
Last active /omp style is kspace_style pppm/tip4p/omp

write_restart   restart.lmp.${pid}
write_restart   restart.lmp.0
System init for write_restart ...
PPPM initialization ...
  extracting TIP4P info from pair style
  using 12-bit tables for long-range coulomb (../kspace.cpp:340)
  G vector (1/distance) = 0.37036097
  grid = 24 27 25
  stencil order = 5
  estimated absolute RMS force accuracy = 0.003306857
  estimated relative force accuracy = 9.9585015e-06
  using double precision FFTW3
  3d grid and FFT values/proc = 6300 1296
Last active /omp style is kspace_style pppm/tip4p/omp
Total wall time: 0:06:25
