LAMMPS data file via write_data, version 30 Jul 2021, timestep = 26250000

1920 atoms
2 atom types
1280 bonds
1 bond types
640 angles
1 angle types

0.020045877555578073 24.70995512244029 xlo xhi
-0.03564419059503088 24.765645190585637 ylo yhi
-0.024611067702226208 22.834611067703406 zlo zhi

Masses

1 1.008
2 15.999

Pair Coeffs # lj/cut/tip4p/long/omp

1 0 0
2 0.21084 3.1668

Bond Coeffs # harmonic/omp

1 450 0.9572

Angle Coeffs # harmonic/omp

1 55 104.52

Atoms # full

1 1 2 -1.1794 4.692387513955268 1.3762806537558978 4.295020754173756 0 0 0
2 1 1 0.5897 4.765194527994856 2.215308628198662 4.749885945745471 0 0 0
3 1 1 0.5897 5.35764427543176 1.4172178911609599 3.6080144034469197 0 0 0
4 2 2 -1.1794 2.9298341856935965 1.3982683260580622 2.0839204699223295 0 0 0
5 2 1 0.5897 3.2072523090220013 1.5446087806009967 2.988263230285525 0 0 0
6 2 1 0.5897 1.974196385350923 1.4425802480075103 2.1158890551230147 0 0 0
10 4 2 -1.1794 3.192176780334203 4.312355371544483 3.6493014600545024 0 0 0
11 4 1 0.5897 2.893451663179557 5.1603744492244905 3.977630406691956 0 0 0
12 4 1 0.5897 2.7890937604036243 4.234265176132698 2.784639001731957 0 0 0
13 5 2 -1.1794 1.25374345588555 2.8575857048915267 4.932747189926769 0 0 0
14 5 1 0.5897 2.0499100848584795 3.2711330816582738 4.59911478856187 0 0 0
15 5 1 0.5897 1.4816922243954678 1.9318488604621156 5.0176734363050315 0 0 0
22 8 2 -1.1794 1.8247438685236852 4.337570388431009 1.3140519666464052 0 0 0
24 8 1 0.5897 1.7686636635188964 4.983811112592646 0.6101930140451209 0 0 0
23 8 1 0.5897 1.0568182171323204 4.509114461150214 1.859107837892572 0 0 0
20 7 1 0.5897 3.778308326822966 2.931362429405828 0.9864594451853204 0 0 0
9 3 1 0.5897 4.909536184991989 4.469859482713683 3.609988920240982 0 0 0
19 7 2 -1.1794 4.650146132741266 3.180842660729806 0.6800555350093777 0 0 0
21 7 1 0.5897 5.249904074411241 2.772401443194787 1.3042951006821473 0 0 0
27 9 1 0.5897 4.590119905250287 4.973493310663554 0.6474282315602374 0 0 0
7 3 2 -1.1794 5.862954220542299 4.424555902950306 3.5380163928370525 0 0 0
16 6 2 -1.1794 0.17865805239997257 1.6731554283690682 2.212409806630151 0 0 0
28 10 2 -1.1794 1.7731279400199182 0.10164154404551337 5.203169890978864 0 0 0
25 9 2 -1.1794 4.532978316591379 5.922745974061675 0.5387155219599692 0 0 0
98 33 1 0.5897 0.38928539317317734 5.376116792804932 3.7865883615800144 1 0 0
387 129 1 0.5897 4.129505744466864 0.10063023777936858 1.3374109449288587 0 1 0
8 3 1 0.5897 6.169464760029993 5.2654353205065245 3.8773481797569995 0 0 0
150 50 1 0.5897 1.668488875547222 6.075926329248513 5.447420395032618 0 0 0
867 289 1 0.5897 4.571901640512011 0.07636610081742252 5.684739538778439 0 1 0
99 33 1 0.5897 0.07401270363364873 3.895468589969694 3.788546238215786 1 0 0
386 129 1 0.5897 4.812659827183311 0.1639055689600642 -0.012091417341160593 0 1 0
416 139 1 0.5897 10.081868308183402 0.05380022803209705 0.9629415206769115 0 1 0
47 16 1 0.5897 6.23911027751079 0.6678884035268292 1.8024677324693987 0 0 0
55 19 2 -1.1794 10.90307909738694 6.110839467574414 0.5537935595829483 0 0 0
180 60 1 0.5897 8.069190913756564 6.024464267055855 4.281338009423263 0 0 0
78 26 1 0.5897 12.213727379512385 1.4084189407502452 3.158451791532351 0 0 0
58 20 2 -1.1794 7.7318333614723125 0.11596717325813224 5.181578651164812 0 0 0
46 16 2 -1.1794 6.460265545451539 1.5294884827844757 2.155886886376009 0 0 0
31 11 2 -1.1794 10.738873297196465 1.460059466691211 4.4397507771733915 0 0 0
32 11 1 0.5897 10.783039690231865 2.216670017439155 5.024359622739284 0 0 0
34 12 2 -1.1794 9.257193720657362 1.6584338873380455 2.113450382095898 0 0 0
36 12 1 0.5897 9.65899735730998 2.38009588721488 1.6297628692614077 0 0 0
39 13 1 0.5897 11.120859459607965 4.982336182760156 3.458058066240526 0 0 0
40 14 2 -1.1794 9.339552703631657 4.886545500259657 3.4777440154878754 0 0 0
41 14 1 0.5897 9.02059824633233 4.658318647002236 2.6045931409042025 0 0 0
42 14 1 0.5897 9.076542797567656 4.149915847289436 4.029453375541268 0 0 0
43 15 2 -1.1794 7.919592194776915 2.969405809267487 4.929364390890652 0 0 0
45 15 1 0.5897 7.224935354693533 3.431128942828286 4.459821119247401 0 0 0
48 16 1 0.5897 7.405414028979467 1.6068747433413333 2.02575935334805 0 0 0
49 17 2 -1.1794 10.932526529848818 3.3041183839808776 0.7780345023010674 0 0 0
52 18 2 -1.1794 7.439129252373328 4.762876407650556 1.3759077465975331 0 0 0
53 18 1 0.5897 7.409627688802475 4.0141238584966255 0.7803565831976905 0 0 0
54 18 1 0.5897 6.716626252336368 4.6131567394140385 1.9856598949958268 0 0 0
35 12 1 0.5897 9.60903156234568 1.7384610248666759 3.0000296377977884 0 0 0
33 11 1 0.5897 10.661501826122876 0.7077183464524333 5.026415440361276 0 0 0
59 20 1 0.5897 7.770899127629723 1.0575220643902636 5.013917309729412 0 0 0
50 17 1 0.5897 11.536700971388466 2.919118846217254 1.4128253993531454 0 0 0
56 19 1 0.5897 10.961015865711351 5.157732663241558 0.6200590518384668 0 0 0
37 13 2 -1.1794 12.075556128607086 4.917723105094425 3.4828231083159196 0 0 0
77 26 1 0.5897 12.17493089519008 0.7346326016041808 1.8033413780110732 0 0 0
38 13 1 0.5897 12.354360709220659 5.677677572031579 3.993629212407633 0 0 0
1619 540 1 0.5897 7.485194824852511 6.003622770935345 0.09439597832755453 0 0 1
51 17 1 0.5897 10.955485064287275 2.705687827931571 0.03134223367796096 0 0 0
579 193 1 0.5897 0.0643237452335258 5.290207954115082 9.597343601772565 1 0 0
496 166 2 -1.1794 0.07598318200984533 1.6919774916507475 7.667828592348664 0 0 0
527 176 1 0.5897 6.045181554983145 0.6744303743920987 7.4243999815188495 0 0 0
494 165 1 0.5897 1.4661225030568306 1.9662594975842635 10.537666065728098 0 0 0
504 168 1 0.5897 1.4779402783579902 4.112896017445465 6.400452280263868 0 0 0
501 167 1 0.5897 4.694339010063847 4.209820999854616 6.375876479853589 0 0 0
499 167 2 -1.1794 4.769219530976913 3.2570770407196044 6.322650628308406 0 0 0
483 161 1 0.5897 4.9539612678903095 2.188718013677781 10.739382816871917 0 0 0
492 164 1 0.5897 2.844084641772026 3.9916008249764436 9.486319815947445 0 0 0
493 165 2 -1.1794 1.5138368558524864 2.9081141786466236 10.37396042931072 0 0 0
491 164 1 0.5897 2.6435820010972706 4.963587423511167 8.343152439060178 0 0 0
485 162 1 0.5897 3.545956755537401 1.828407292553281 8.559941133165562 0 0 0
481 161 2 -1.1794 4.750069893107268 1.6410704483058536 9.981289556234767 0 0 0
482 161 1 0.5897 5.57451299645364 1.5831189985303402 9.498410508376333 0 0 0
502 168 2 -1.1794 1.573011172286034 4.882679594886624 6.961319815889129 0 0 0
500 167 1 0.5897 4.030936819136584 2.929282016351311 6.836173895782977 0 0 0
490 164 2 -1.1794 3.069443769406755 4.8753442858446 9.195837718400737 0 0 0
503 168 1 0.5897 0.9723032179214249 4.724657790945937 7.689603149400577 0 0 0
498 166 1 0.5897 1.032385623741396 1.7193789280598735 7.695616445314177 0 0 0
484 162 2 -1.1794 2.96802313146743 1.7251303425380924 7.803935512102576 0 0 0
489 163 1 0.5897 4.901512724056032 4.8647988712185635 9.200330013612676 0 0 0
486 162 1 0.5897 3.2472821743474394 0.904137565908713 7.398770197508054 0 0 0
528 176 1 0.5897 6.032975562180886 2.1612067717020285 7.139678834389812 0 0 0
487 163 2 -1.1794 5.855603920910515 4.806005790881062 9.150510559377087 0 0 0
578 193 1 0.5897 0.19876585900771374 3.7880679531712547 9.466147183215194 1 0 0
508 170 2 -1.1794 1.327946745386254 0.10011056042883473 10.547390372597118 0 0 0
629 210 1 0.5897 2.0227170519695563 5.868350452815437 10.159347384675742 0 0 0
488 163 1 0.5897 6.075782572287452 4.032326953985908 9.669279246738304 0 0 0
1347 449 1 0.5897 4.602428140664132 0.24229684205580626 11.147056308372829 0 1 0
505 169 2 -1.1794 4.474306710766198 5.94762763380134 6.375504924949947 0 0 0
495 165 1 0.5897 1.3146369274095198 3.30912125896007 11.219962497042498 0 0 0
530 177 1 0.5897 10.271115855804632 2.9860908522556953 7.031843118048047 0 0 0
896 299 1 0.5897 11.504116711838936 0.07836448848070196 6.94811359365996 0 1 0
513 171 1 0.5897 11.765242580515086 1.4243781669027835 9.317072172334965 0 0 0
534 178 1 0.5897 7.190657423144525 4.733826494055435 7.813083972279004 0 0 0
525 175 1 0.5897 7.871675402608927 2.119161544753993 10.796078044757415 0 0 0
535 179 2 -1.1794 10.719625797656246 6.143633052322609 6.589644461110546 0 0 0
516 172 1 0.5897 9.438688716129095 0.9437854350709771 7.434243674362319 0 0 0
526 176 2 -1.1794 6.463079810345819 1.497216468767 7.6784897368171094 0 0 0
524 175 1 0.5897 8.319413202560405 3.4688871224654307 10.276922839562175 0 0 0
558 186 1 0.5897 12.309759635495656 2.1254747714941025 7.174586373820295 0 0 0
538 180 2 -1.1794 7.787422662697494 0.28562672736426414 10.834785029696777 0 0 0
531 177 1 0.5897 10.88773424206192 4.298261767419109 6.596252525223951 0 0 0
532 178 2 -1.1794 7.9329304688704925 4.715228403683564 7.209009125949421 0 0 0
522 174 1 0.5897 9.000665098879276 4.824680611029409 8.587665968760376 0 0 0
521 174 1 0.5897 8.877559764410853 5.381592957914426 9.98999590043737 0 0 0
529 177 2 -1.1794 10.975424133156018 3.3504402985244197 6.495734997647058 0 0 0
523 175 2 -1.1794 7.612649020907081 3.0398765242351615 10.759256169164304 0 0 0
512 171 1 0.5897 10.251616478394636 1.4458987962145875 9.33611005398875 0 0 0
519 173 1 0.5897 11.2645123552627 4.985685878809397 9.348892114401323 0 0 0
520 174 2 -1.1794 9.373161632965866 4.751967600487402 9.466400228635322 0 0 0
533 178 1 0.5897 7.678260781888993 5.3029380164816144 6.497717796064693 0 0 0
514 172 2 -1.1794 9.147153768056825 1.6778100935453328 7.974985771755641 0 0 0
511 171 2 -1.1794 11.017695144178974 1.5861338058528878 9.89259840954652 0 0 0
44 15 1 0.5897 7.865183175513423 3.3013397706512735 5.825503852794932 0 0 0
517 173 2 -1.1794 12.218105900759344 4.980296443585154 9.266056787860748 0 0 0
515 172 1 0.5897 8.192634184515883 1.663272062203662 7.904921300334305 0 0 0
659 220 1 0.5897 6.94412695240639 5.99828445643227 10.188085210396785 0 0 0
1377 459 1 0.5897 10.95649570414945 0.4495327438970159 11.26125659166093 0 1 0
961 321 2 -1.1794 4.433742802491127 1.4071496311295557 15.912530615430242 0 0 0
962 321 1 0.5897 5.113426881383936 1.2245074300366081 15.26376596549391 0 0 0
963 321 1 0.5897 4.481864716294824 0.6722569531566595 16.523920346618183 0 0 0
964 322 2 -1.1794 2.977634855229831 1.6341609609278678 13.445419356536286 0 0 0
965 322 1 0.5897 3.1887383021715126 1.623980874822109 14.378984743337135 0 0 0
966 322 1 0.5897 2.026607818261609 1.5305181159469292 13.41327973098587 0 0 0
970 324 2 -1.1794 3.1662023488565936 4.621995241832937 15.066117790038653 0 0 0
971 324 1 0.5897 4.109796322589057 4.502036970127353 14.959010015250328 0 0 0
972 324 1 0.5897 2.8733243953733183 3.830316785056128 15.517388649179296 0 0 0
973 325 2 -1.1794 1.3479573100826108 2.875466602954993 16.42678739717659 0 0 0
975 325 1 0.5897 0.7083591533737235 3.3555020931234822 15.900776799760335 0 0 0
982 328 2 -1.1794 1.3528103982863582 4.3998178927835925 12.833845049751073 0 0 0
983 328 1 0.5897 1.3753412602580863 5.168311440740238 12.263681295561808 0 0 0
984 328 1 0.5897 2.1152098614390846 4.501296796401925 13.40364350997289 0 0 0
980 327 1 0.5897 4.033520592339098 2.871942449864258 12.565804094939933 0 0 0
981 327 1 0.5897 5.532215449987381 3.002286500933852 12.735566405523405 0 0 0
979 327 2 -1.1794 4.802077918113859 3.3072143975184853 12.196922305675693 0 0 0
990 330 1 0.5897 1.5545090845735996 1.1054319170801528 16.30899037078224 0 0 0
986 329 1 0.5897 4.806760354873168 5.1518954800462256 12.11039885943697 0 0 0
967 323 2 -1.1794 5.9656733677777485 4.638403450259719 14.877742755979602 0 0 0
1109 370 1 0.5897 0.6243490229677096 5.68882403011701 15.865053313325134 0 0 0
1008 336 1 0.5897 5.907386915305843 0.9947049237917422 13.073875238800111 0 0 0
988 330 2 -1.1794 1.6014017734142145 0.14970575684338053 16.28559459947096 0 0 0
1110 370 1 0.5897 2.1306983048293278 5.835170626013996 15.902290865720682 0 0 0
1346 449 1 0.5897 3.9462820893445705 0.3520026052724211 12.506943677088108 0 1 0
985 329 2 -1.1794 4.818061541104984 6.108549415414592 12.139565785653282 0 0 0
976 326 2 -1.1794 0.273470207717299 1.5085555309449996 13.318684349707063 0 0 0
1006 336 2 -1.1794 6.250277240463496 1.482015051960585 13.822978362349096 0 0 0
1376 459 1 0.5897 10.147086831927174 0.5151416327447904 12.538914126401878 0 1 0
968 323 1 0.5897 6.322329146027308 5.255437488421474 15.516692611945588 0 0 0
969 323 1 0.5897 6.310700793879476 3.787332834941917 15.147570329868115 0 0 0
1017 339 1 0.5897 10.475042672508492 5.209426476640962 11.94740208969029 0 0 0
991 331 2 -1.1794 10.650527585210051 1.531969237567502 15.746459770806538 0 0 0
992 331 1 0.5897 11.430681970383027 1.5309543094836222 15.191858017417477 0 0 0
993 331 1 0.5897 10.793099548682925 0.8134051399864516 16.362514382849817 0 0 0
994 332 2 -1.1794 9.022019444955212 1.597184189515948 13.468325057815573 0 0 0
995 332 1 0.5897 9.514758349908265 2.3452057892426814 13.130900443051146 0 0 0
998 333 1 0.5897 11.213878284811734 4.478576762483941 15.123065197189883 0 0 0
1000 334 2 -1.1794 9.309278139823416 4.638985176617571 15.145620545268816 0 0 0
1001 334 1 0.5897 8.967238816658792 3.7767997797129977 15.381876280352786 0 0 0
1002 334 1 0.5897 8.878110288471385 4.84948892593277 14.31737145727397 0 0 0
1003 335 2 -1.1794 7.510513403449843 2.774063110858242 16.360766951969694 0 0 0
1004 335 1 0.5897 7.596639421053527 1.8316220450969456 16.504108142251752 0 0 0
1007 336 1 0.5897 7.200143062669345 1.3819604649913149 13.759939396793964 0 0 0
1012 338 2 -1.1794 7.771560609207479 4.789116542363828 12.869645815987594 0 0 0
1014 338 1 0.5897 7.788533039984921 3.998446110160123 12.330451192985457 0 0 0
1011 337 1 0.5897 11.48825338084326 2.8904303976811003 12.722759337502442 0 0 0
1009 337 2 -1.1794 10.77591364541558 3.3047437284518835 12.235795089675365 0 0 0
996 332 1 0.5897 9.397960887851287 1.4325400984846686 14.333063804970152 0 0 0
1013 338 1 0.5897 6.923327184507962 4.759639667543693 13.31220210159783 0 0 0
1015 339 2 -1.1794 10.54821264363592 6.162688286933577 11.901462361647331 0 0 0
997 333 2 -1.1794 12.168120368135993 4.5536823863270515 15.126024646063588 0 0 0
1038 346 1 0.5897 12.16761721113078 0.9715329166810351 13.00771435171041 0 0 0
1018 340 2 -1.1794 7.85411636968572 0.06376161306155126 16.533527706373626 0 0 0
660 220 1 0.5897 7.678180060413588 6.03085340518194 11.511702042337394 0 0 0
1139 380 1 0.5897 8.353057560197467 5.899694466680524 16.108908782904557 0 0 0
1375 459 2 -1.1794 10.87727548851779 0.052006919334402824 12.128378177450921 0 1 0
1010 337 1 0.5897 10.741218490747006 2.826121511196554 11.407593951848398 0 0 0
1455 485 1 0.5897 1.471824297226315 3.2735515989276127 22.715058904144954 0 0 0
1460 487 1 0.5897 4.722268421773077 2.4959375345754324 17.225173788771848 0 0 0
1468 490 2 -1.1794 1.6338838968942289 0.10931024204520412 22.012607501834886 0 0 0
974 325 1 0.5897 1.505063946658224 3.4375532661140245 17.185451335158476 0 0 0
1538 513 1 0.5897 0.24601308134996747 4.025907553374891 20.980422257009295 1 0 0
1456 486 2 -1.1794 0.17725007009091154 1.5763184458319097 19.16640247202949 0 0 0
1539 513 1 0.5897 0.18286251762256792 5.538126285872188 20.949977661964446 1 0 0
1454 485 1 0.5897 2.1958194014990413 3.286131463628617 21.385573339394654 0 0 0
1464 488 1 0.5897 1.1066667399719128 4.574655701525557 19.23853067674642 0 0 0
1443 481 1 0.5897 4.573623493628844 2.031490079379846 22.1283145728298 0 0 0
1450 484 2 -1.1794 3.4388132597345296 4.3773237879348885 20.77346475840585 0 0 0
1469 490 1 0.5897 1.4529533958299647 1.04908040935192 22.028614756403456 0 0 0
1442 481 1 0.5897 3.9505556427097646 1.4695958871456876 20.86819474074325 0 0 0
1453 485 2 -1.1794 1.4274504808390045 2.922587030266214 21.8256420179249 0 0 0
1444 482 2 -1.1794 2.8952255714280266 1.287766324438957 19.45099179226476 0 0 0
1463 488 1 0.5897 1.5343288272410807 5.3571768230330274 18.0151826208225 0 0 0
1452 484 1 0.5897 3.0272044917657412 4.5190531454155805 19.92099399712184 0 0 0
1441 481 2 -1.1794 4.666181108036437 1.32646723260498 21.487563499663054 0 0 0
1451 484 1 0.5897 4.3779458958185975 4.442941176500669 20.60039209342262 0 0 0
1445 482 1 0.5897 1.943680006001504 1.3893903048403864 19.42949482477593 0 0 0
1446 482 1 0.5897 3.227275248077995 2.0293676919605392 18.945071778892533 0 0 0
1461 487 1 0.5897 5.40970350832176 2.6494534216457493 18.565219017301793 0 0 0
1459 487 2 -1.1794 4.7136311973099705 3.022574710163582 18.024408110739813 0 0 0
1462 488 2 -1.1794 1.7999851930661908 4.632376679724889 18.581112148153366 0 0 0
1466 489 1 0.5897 4.829520635450571 4.983816648989825 18.016097804445835 0 0 0
1465 489 2 -1.1794 4.677461939409422 5.91596648851029 17.86074139738112 0 0 0
1487 496 1 0.5897 6.139425765620194 1.4756639453755738 20.23127982575798 0 0 0
1447 483 2 -1.1794 6.186702407686746 4.674034211865151 20.612859209387075 0 0 0
1488 496 1 0.5897 6.0200370728093935 0.6298651267205345 18.98140947921437 0 0 0
1590 530 1 0.5897 2.388999652297531 5.840228485534872 21.679136929654035 0 0 0
1588 530 2 -1.1794 1.6425564263132233 6.133496133038601 22.201680316511585 0 0 0
1856 619 1 0.5897 11.561801044545337 0.09061065339527372 18.365597735218778 0 1 0
1490 497 1 0.5897 10.701954915270482 2.7576793241333535 17.16126344635662 0 0 0
1518 506 1 0.5897 12.274325958030644 1.274157029535149 20.13999462946093 0 0 0
1005 335 1 0.5897 7.672201852743838 3.1632689236544307 17.22017417702579 0 0 0
1474 492 2 -1.1794 9.329339071660469 1.375380538142555 19.597909365231423 0 0 0
1483 495 2 -1.1794 7.616016465524676 2.9211313856413925 22.086044382959216 0 0 0
1472 491 1 0.5897 10.970807515198066 0.8579400711508 22.177202078888193 0 0 0
1485 495 1 0.5897 7.874735750821157 1.9995993035608426 22.089766929135358 0 0 0
1481 494 1 0.5897 10.415418572417872 4.454390615796759 20.899100881236947 0 0 0
1493 498 1 0.5897 7.849965028256287 5.208565131844713 18.0871105533789 0 0 0
1449 483 1 0.5897 6.526407479257703 3.936515352479773 21.119661773018088 0 0 0
1495 499 2 -1.1794 10.786712691040025 6.014880525243643 18.034082457312856 0 0 0
1517 506 1 0.5897 12.105546985476874 2.0200106431071836 18.833461773057223 0 0 0
1489 497 2 -1.1794 10.788066574499224 3.182816472334994 18.01452019057875 0 0 0
1473 491 1 0.5897 10.288118172045868 1.5650098245343906 21.025760908533123 0 0 0
1476 492 1 0.5897 9.664625669346602 0.7226893170470905 18.983281531015237 0 0 0
1482 494 1 0.5897 9.126352732507135 4.543773518834715 20.110306188181596 0 0 0
1484 495 1 0.5897 8.355854821228066 3.3764618870144663 21.684140095254286 0 0 0
1498 500 2 -1.1794 7.893274284591319 0.16634176671737616 22.338031972172537 0 0 0
1620 540 1 0.5897 8.400396083970094 6.0158289884839675 21.747749473342694 0 0 0
1475 492 1 0.5897 8.38050207822287 1.3576323900218654 19.47290931870863 0 0 0
1480 494 2 -1.1794 9.479457141037399 4.6300388832594646 20.995796336207505 0 0 0
1494 498 1 0.5897 7.269228466684849 4.392499624299385 19.222273655714375 0 0 0
1471 491 2 -1.1794 11.07770000649493 1.5871108960334526 21.566406486779634 0 0 0
1496 499 1 0.5897 10.697327410762487 5.06211704090995 18.013811864212528 0 0 0
1491 497 1 0.5897 10.189077603915283 2.7005699775661562 18.58448420116595 0 0 0
1448 483 1 0.5897 6.622261684645898 5.441231199571812 20.98417836971472 0 0 0
1486 496 2 -1.1794 6.576843656641074 1.2854274866158368 19.40140706800586 0 0 0
1492 498 2 -1.1794 8.004463695626779 4.421918704833553 18.610076537552814 0 0 0
1477 493 2 -1.1794 12.352018684229899 4.367035693928769 20.72131538882089 0 0 0
121 41 2 -1.1794 4.496420364864125 7.650888105415498 4.218842328922964 0 0 0
122 41 1 0.5897 3.752604775895476 7.680756173390432 3.617117426822397 0 0 0
123 41 1 0.5897 5.264892793952198 7.618702630249614 3.649073232742079 0 0 0
124 42 2 -1.1794 2.9455103363195767 7.785306603984816 1.9419925365134088 0 0 0
125 42 1 0.5897 3.10981830859623 7.042960552583682 1.3605211078076518 0 0 0
126 42 1 0.5897 3.504581726027126 8.484227634693294 1.6026727896035942 0 0 0
129 43 1 0.5897 5.011941309791195 10.85763813122693 3.462816201006533 0 0 0
130 44 2 -1.1794 3.1238030028222323 11.002787929257446 3.3219941336709287 0 0 0
132 44 1 0.5897 2.8089256092715544 10.24375398229364 3.812811462414939 0 0 0
133 45 2 -1.1794 1.6136006937276055 9.102883648970552 4.6533502454367035 0 0 0
135 45 1 0.5897 0.8955174704145555 9.522386000766382 4.179442714185182 0 0 0
137 46 1 0.5897 1.178858161801883 7.936771433805925 2.0701390504475845 0 0 0
139 47 2 -1.1794 4.7078523919778155 9.482224575284873 0.8128082249825924 0 0 0
142 48 2 -1.1794 1.3431858064650564 10.801264514767944 1.2147386046744806 0 0 0
143 48 1 0.5897 2.032626317034599 11.038208809463319 1.8350191075538191 0 0 0
144 48 1 0.5897 1.3985935952472242 11.466453841028619 0.528706754567727 0 0 0
149 50 1 0.5897 1.589734976226537 7.3271993478613835 4.598961440922324 0 0 0
131 44 1 0.5897 2.808851884871052 11.757580032044755 3.8192697281882197 0 0 0
140 47 1 0.5897 4.5910371906811696 10.423648924934806 0.6853716106904615 0 0 0
127 43 2 -1.1794 5.95251764500141 10.723197419450885 3.578884957013005 0 0 0
148 50 2 -1.1794 1.660863827354755 6.3746272503691594 4.53806289315919 0 0 0
507 169 1 0.5897 4.578065718852166 6.408082261980117 5.542788836701176 0 0 0
136 46 2 -1.1794 0.22194737367476422 7.957909501407212 2.080342281984795 0 0 0
168 56 1 0.5897 5.829994457520585 8.403379129372217 1.7332541544529545 0 0 0
26 9 1 0.5897 5.087135771516981 6.277677923293917 1.233800420914797 0 0 0
621 207 1 0.5897 4.533396037373729 9.200374224306247 5.536691809239503 0 0 0
166 56 2 -1.1794 6.187224502008664 7.610153301618716 2.132457198456017 0 0 0
134 45 1 0.5897 1.568012411762981 9.473088609904996 5.534870718914399 0 0 0
145 49 2 -1.1794 4.518664844763795 12.29489547017701 0.8652355003866194 0 0 0
175 59 2 -1.1794 10.722679569389047 12.173667734562262 0.8429592297612268 0 0 0
197 66 1 0.5897 12.185301942238121 8.458852927983457 1.7083307088908999 0 0 0
198 66 1 0.5897 12.139424732524054 7.638555801066112 2.979872925828469 0 0 0
128 43 1 0.5897 6.255794571617766 11.516849974177193 4.019697908617055 0 0 0
178 60 2 -1.1794 7.414185115409605 6.286923505960874 4.928098778716853 0 0 0
151 51 2 -1.1794 10.929840985809465 7.7382584241805015 4.347027722463095 0 0 0
152 51 1 0.5897 10.083704831667658 7.757981124889629 3.8999373673988145 0 0 0
153 51 1 0.5897 10.809057455392331 7.113229827966936 5.061828507716826 0 0 0
154 52 2 -1.1794 8.858302407152056 7.707850296657058 2.180733159699738 0 0 0
155 52 1 0.5897 9.335382405565495 8.421632694618545 1.757533386250157 0 0 0
156 52 1 0.5897 9.124470515701647 6.923628552806542 1.7008082944511842 0 0 0
158 53 1 0.5897 11.158847497458432 10.725052990313701 3.4812287010608385 0 0 0
160 54 2 -1.1794 9.367501252703441 10.876363905501583 3.5357222642964117 0 0 0
161 54 1 0.5897 8.944844540489768 10.923872935927085 2.6782133217745066 0 0 0
162 54 1 0.5897 8.888400823976918 10.191204143233877 4.001780621560669 0 0 0
163 55 2 -1.1794 7.832525493963457 9.13486581551897 4.97508151459433 0 0 0
164 55 1 0.5897 7.022406917567908 9.497557800354674 4.616780202159182 0 0 0
167 56 1 0.5897 7.13401429088547 7.750725501715412 2.139986865717713 0 0 0
169 57 2 -1.1794 10.727972726065175 9.420248959525576 0.7462611273615906 0 0 0
172 58 2 -1.1794 7.639327425147823 11.147012755866895 1.478579914901904 0 0 0
173 58 1 0.5897 7.681822785345105 10.378632260525587 0.9094030251656006 0 0 0
174 58 1 0.5897 6.975564606439561 10.925477192830586 2.131694457577749 0 0 0
179 60 1 0.5897 7.482268302373435 7.240945539939085 4.965048230584504 0 0 0
171 57 1 0.5897 10.735629965970098 10.373478762266167 0.659932659042781 0 0 0
650 217 1 0.5897 11.174901178820532 9.04886236211788 5.5909703570169915 0 0 0
300 100 1 0.5897 8.31498103110616 12.154357933779183 4.431182131213077 0 0 0
57 19 1 0.5897 11.472962344875627 6.434962078534661 1.2512092618433204 0 0 0
157 53 2 -1.1794 12.10601617464544 10.723098355426435 3.6194298127374487 0 0 0
1101 367 1 0.5897 4.332814261603676 8.878025195608028 11.266877026862707 0 0 0
628 210 2 -1.1794 1.2653113811322771 6.207458143297978 10.636378041588367 0 0 0
506 169 1 0.5897 3.8493173577361715 6.479835369023503 6.867791377785995 0 0 0
625 209 2 -1.1794 4.480757713634155 12.225495252601107 6.519510493726272 0 0 0
619 207 2 -1.1794 4.5924632856829835 9.525209519903159 6.43513674996034 0 0 0
624 208 1 0.5897 1.5549968339319709 11.40987797837491 6.3731823761687325 0 0 0
622 208 2 -1.1794 1.4979400583023001 10.64824682553525 6.950106051063849 0 0 0
604 202 2 -1.1794 2.813803744645392 7.633590398513274 7.642955750526308 0 0 0
606 202 1 0.5897 1.8639896419679194 7.6627380836389385 7.757986667058278 0 0 0
630 210 1 0.5897 1.2753870164957521 7.149017945243794 10.464552342670919 0 0 0
623 208 1 0.5897 2.1968730932225276 10.779578968010162 7.590782771195413 0 0 0
620 207 1 0.5897 5.260782262330226 8.976307466639026 6.845340247793898 0 0 0
610 204 2 -1.1794 3.1555355883326257 10.623235111228666 9.070822827061455 0 0 0
601 201 2 -1.1794 4.573591922385904 7.7807321090848225 9.890246067512384 0 0 0
615 205 1 0.5897 0.7352571479832598 9.502778682266232 9.989468127078165 0 0 0
614 205 1 0.5897 2.2437836439614256 9.396281372592618 9.919530812141252 0 0 0
602 201 1 0.5897 4.5516153473171 7.063596300789438 10.523820601620141 0 0 0
611 204 1 0.5897 4.1015263983565555 10.759199313073385 9.124129277312763 0 0 0
605 202 1 0.5897 3.045132837458641 8.509532115972501 7.334114466598773 0 0 0
603 201 1 0.5897 3.8329282753954477 7.60980144774349 9.308507144552795 0 0 0
613 205 2 -1.1794 1.4726609515819218 8.980480085433435 10.305135314405979 0 0 0
626 209 1 0.5897 4.57613019621268 11.275424462056128 6.586079754628505 0 0 0
612 204 1 0.5897 2.7791990459077396 11.3686019545582 9.538776037858284 0 0 0
647 216 1 0.5897 5.809255359144354 7.677997683932262 8.59818819021257 0 0 0
648 216 1 0.5897 5.938910831228411 6.971889016348301 7.265365530100872 0 0 0
607 203 2 -1.1794 5.8564183482758 10.739294774604305 9.242776198745691 0 0 0
698 233 1 0.5897 0.2817512592245255 11.532363857400714 9.435978242014318 1 0 0
699 233 1 0.5897 0.4362234143838582 10.622486991807738 8.235953121997074 1 0 0
616 206 2 -1.1794 0.20542717284080148 7.842603599474949 7.822528759039046 0 0 0
609 203 1 0.5897 6.139716168954191 9.939275193324171 9.685367132287169 0 0 0
750 250 1 0.5897 1.7435993093431557 11.88137817815825 11.324289727873602 0 0 0
644 215 1 0.5897 7.689948504461479 9.659435791912632 11.172972784105458 0 0 0
299 100 1 0.5897 7.713228404802464 12.175910813988772 5.820167782356156 0 0 0
657 219 1 0.5897 11.122737229683075 11.438734249641946 6.342264504882996 0 0 0
165 55 1 0.5897 7.985682602823115 9.635308374402282 5.776516116582459 0 0 0
1130 377 1 0.5897 10.646558684035218 9.149486372324017 11.353828085449354 0 0 0
633 211 1 0.5897 10.647769078792901 7.318625141050063 10.596249979956934 0 0 0
642 214 1 0.5897 9.213470632275106 10.316896659040582 9.65833704504634 0 0 0
643 215 2 -1.1794 7.76243551975437 9.21569049264324 10.327965528183968 0 0 0
678 226 1 0.5897 12.276034121207548 8.631721844040982 7.425932553365703 0 0 0
654 218 1 0.5897 8.45866414730491 10.9547970016769 7.839018445307929 0 0 0
640 214 2 -1.1794 9.640756862010923 11.103681954029765 9.319845303157585 0 0 0
645 215 1 0.5897 7.7900190274651635 8.284461345707365 10.547540296058452 0 0 0
632 211 1 0.5897 11.383792948716003 7.920874369183856 9.418366660245042 0 0 0
651 217 1 0.5897 10.394220200787316 9.307098023285866 6.862073528191416 0 0 0
631 211 2 -1.1794 10.61134875601855 8.042035276362972 9.97052126113034 0 0 0
779 260 1 0.5897 8.29926138705091 12.272158141443049 10.286004298538877 0 0 0
635 212 1 0.5897 9.349386801622133 7.962136364148386 8.524307261710888 0 0 0
658 220 2 -1.1794 7.635789316196283 6.4632809653836985 10.658818131517705 0 0 0
641 214 1 0.5897 10.574132067452238 10.891565105306812 9.326340694984859 0 0 0
608 203 1 0.5897 6.396044192559488 11.430122355460293 9.627163254305325 0 0 0
537 179 1 0.5897 9.952392155009296 6.646534653185676 6.86286745064454 0 0 0
636 212 1 0.5897 8.111174445022442 7.930361329075753 7.653851878069751 0 0 0
649 217 2 -1.1794 11.0785569790969 9.678566449622863 6.305379069346042 0 0 0
646 216 2 -1.1794 6.335689884948389 7.660391448258762 7.798955211675155 0 0 0
634 212 2 -1.1794 9.058008100960746 8.06631738697028 7.61851614774758 0 0 0
536 179 1 0.5897 11.43140736469253 6.475378872933994 7.136940961054977 0 0 0
652 218 2 -1.1794 7.7122429524481 11.006280664357298 7.242004061132385 0 0 0
653 218 1 0.5897 6.946529274342034 10.890384878117485 7.804564407209984 0 0 0
780 260 1 0.5897 7.274595032877349 12.076674377786977 11.3831424477706 0 0 0
1081 361 2 -1.1794 4.634234721534149 7.634598509312881 15.741863467706192 0 0 0
1082 361 1 0.5897 4.781454415050751 8.364844641949462 16.342906796616056 0 0 0
1083 361 1 0.5897 4.620325540224455 6.860102700867562 16.304126820364026 0 0 0
1084 362 2 -1.1794 2.988686901091795 7.364309101872351 13.601923455572933 0 0 0
1085 362 1 0.5897 3.485887194393861 7.40318972496384 14.41892775180218 0 0 0
1086 362 1 0.5897 3.3116212910036666 8.105113139805493 13.088981226432278 0 0 0
1089 363 1 0.5897 4.962387894240001 10.96114909407589 15.063226903404084 0 0 0
1090 364 2 -1.1794 3.18805852967393 10.537031819128268 14.865575276214656 0 0 0
1091 364 1 0.5897 2.673222742435318 11.219880406826764 15.295518367646233 0 0 0
1092 364 1 0.5897 2.88265379816261 9.720977061647528 15.261752436183714 0 0 0
1095 365 1 0.5897 0.8793086839113355 9.392143305347844 15.884542774962792 0 0 0
1097 366 1 0.5897 1.1091529035856738 7.418233389553848 13.663354396164237 0 0 0
1099 367 2 -1.1794 4.264634744966342 9.339457128035987 12.102718725979086 0 0 0
1102 368 2 -1.1794 1.4702600425064059 10.601445939758737 12.616047494701736 0 0 0
1104 368 1 0.5897 2.2677959882927454 10.564814638668707 13.144080687071128 0 0 0
1093 365 2 -1.1794 1.5682280113016487 8.988185839870058 16.41219766346041 0 0 0
1103 368 1 0.5897 1.522789599340613 9.832597823401995 12.048339092739212 0 0 0
1100 367 1 0.5897 4.944624112526758 8.946542636968118 12.649933687690478 0 0 0
1094 365 1 0.5897 1.4674418626505052 8.04862494888497 16.25978577857002 0 0 0