LAMMPS (30 Jul 2021)
  using 1 OpenMP thread(s) per MPI task
package omp 0
using multi-threaded neighbor list subroutines
echo both

include		in.partitions
variable        pid world 0
include		in.temp
variable        temperature equal 260.28
variable	tempDamp equal 100.0
include		in.pressure
variable        pressure equal 8000.0
variable        pressureDamp equal 1000.0 # This is 1 ps
include		in.seed
variable        seed world 745823

units		real
atom_style	full
read_restart	restart.lmp.${pid}
read_restart	restart.lmp.0
Reading restart file ...
  restart file = 30 Jul 2021, LAMMPS = 30 Jul 2021
  restoring atom style full from restart
  orthogonal box = (0.57367991 1.7672504 0.69988815) to (17.633892 21.861927 21.513308)
  4 by 4 by 4 MPI processor grid
  restoring pair style lj/cut/tip4p/long/omp from restart
  restoring bond style harmonic/omp from restart
  restoring angle style harmonic/omp from restart
  864 atoms
  576 bonds
  288 angles
Finding 1-2 1-3 1-4 neighbors ...
  special bond factors lj:    0        0        0       
  special bond factors coul:  0        0        0       
     2 = max # of 1-2 neighbors
     1 = max # of 1-3 neighbors
     1 = max # of 1-4 neighbors
     2 = max # of special neighbors
  special bonds CPU = 1.566 seconds
  read_restart CPU = 1.712 seconds
include 	in.setup
variable	out_freq equal 1000
variable	out_freq2 equal 10000
variable	out_freq3 equal 1000

timestep	2.0

neigh_modify    delay 7 every 1

include		in.tip4p
# This is TIP4P/Ice

# create groups ###
group ox type 2
288 atoms in group ox
group hy type 1
576 atoms in group hy

# set charges - beside manually ###
set group ox charge -1.1794
Setting atom values ...
  288 settings made for charge
set group hy charge 0.5897
Setting atom values ...
  576 settings made for charge

# ### TIP3P Potential Parameters ###
pair_style lj/cut/tip4p/long/omp 2 1 1 1 0.1577 8.5
pair_coeff 1 1*2 0.000 0.000
pair_coeff 2 2 0.21084 3.1668
bond_style  harmonic
bond_coeff  1 450 0.9572
angle_style harmonic
angle_coeff 1 55 104.52
kspace_style pppm/tip4p/omp 1.0e-5
pair_modify tail yes

thermo          ${out_freq}
thermo          1000
thermo_style    custom step temp pe etotal epair emol press lx ly lz vol pxx pyy pzz pxy pxz pyz enthalpy

restart 	${out_freq3} restart.lmp.${pid} restart2.lmp.${pid}
restart 	1000 restart.lmp.${pid} restart2.lmp.${pid}
restart 	1000 restart.lmp.0 restart2.lmp.${pid}
restart 	1000 restart.lmp.0 restart2.lmp.0


include         in.dump
dump            myDump all atom ${out_freq2} dump.water.${pid}
dump            myDump all atom 10000 dump.water.${pid}
dump            myDump all atom 10000 dump.water.0
dump            myDump2 all dcd ${out_freq2} dump.dcd
dump            myDump2 all dcd 10000 dump.dcd
dump_modify     myDump append yes
dump_modify     myDump2 append yes


variable natoms 	equal  "count(all)"                        # NUMBER ATOMS
variable H      	equal  "enthalpy/v_natoms"                 # ENTHALPY-per-atom
variable Vol      	equal  "vol/v_natoms"                 # volume-per-atom
fix AVG all 		ave/time ${out_freq} 1 ${out_freq} v_Vol v_H file vol_enthalpy.dat
fix AVG all 		ave/time 1000 1 ${out_freq} v_Vol v_H file vol_enthalpy.dat
fix AVG all 		ave/time 1000 1 1000 v_Vol v_H file vol_enthalpy.dat


timer           timeout 23:50:00 every 1000
New timer settings: style=normal  mode=nosync  timeout=23:50:00

fix 		1 all shake 1e-6 200 0 b 1 a 1
       0 = # of size 2 clusters
       0 = # of size 3 clusters
       0 = # of size 4 clusters
     288 = # of frozen angles
  find clusters CPU = 1.548 seconds
fix             2 all nph iso ${pressure} ${pressure} ${pressureDamp}
fix             2 all nph iso 8000 ${pressure} ${pressureDamp}
fix             2 all nph iso 8000 8000 ${pressureDamp}
fix             2 all nph iso 8000 8000 1000
fix             3 all temp/csvr ${temperature} ${temperature} ${tempDamp} ${seed}
fix             3 all temp/csvr 260.28 ${temperature} ${tempDamp} ${seed}
fix             3 all temp/csvr 260.28 260.28 ${tempDamp} ${seed}
fix             3 all temp/csvr 260.28 260.28 100 ${seed}
fix             3 all temp/csvr 260.28 260.28 100 745823

run             250000
PPPM initialization ...
  extracting TIP4P info from pair style
  using 12-bit tables for long-range coulomb (../kspace.cpp:340)
  G vector (1/distance) = 0.37384813
  grid = 24 24 24
  stencil order = 5
  estimated absolute RMS force accuracy = 0.0032085008
  estimated relative force accuracy = 9.6623048e-06
  using double precision FFTW3
  3d grid and FFT values/proc = 2535 216
Last active /omp style is kspace_style pppm/tip4p/omp
Neighbor list info ...
  update every 1 steps, delay 7 steps, check yes
  max neighbors/atom: 2000, page size: 100000
  master list distance cutoff = 10.8154
  ghost atom cutoff = 10.8154
  binsize = 5.4077, bins = 4 4 4
  1 neighbor lists, perpetual/occasional/extra = 1 0 0
  (1) pair lj/cut/tip4p/long/omp, perpetual
      attributes: half, newton on, omp
      pair build: half/bin/newton/omp
      stencil: half/bin/3d
      bin: standard
Per MPI rank memory allocation (min/avg/max) = 9.236 | 9.238 | 9.242 Mbytes
Step Temp PotEng TotEng E_pair E_mol Press Lx Ly Lz Volume Pxx Pyy Pzz Pxy Pxz Pyz Enthalpy 
 8000000    267.05253   -3861.7811   -3404.0622   -3861.7811            0     7548.715    17.060213    20.094677     20.81342    7135.2452    6864.7025    7782.1956    7999.2468    1149.1631    3055.4258    538.25264   -2618.5412 
 8001000    261.12894   -3873.8613   -3426.2952   -3873.8613            0     7300.702    17.117352    20.161979    20.883129    7207.1791    8904.6653    6602.4348    6395.0059   -74.497184    422.85435    436.98537   -2658.9234 
 8002000    259.28078   -3894.0714   -3449.6731   -3894.0714            0    8156.7801    17.070987    20.107368    20.826564    7148.7725    8840.2848    9245.3967    6384.6589    1422.5533    708.70301    1097.0125   -2599.2674 
 8003000    259.29694   -3898.5576   -3454.1315   -3898.5576            0    8720.9545    17.044153     20.07576    20.793826    7115.1135    10659.757    7880.3635    7622.7427   -239.46754    261.20625   -1600.7978   -2549.1875 
 8004000    249.78924   -3920.9902     -3492.86   -3920.9902            0    7924.0545    17.075739    20.112965    20.832361     7154.744    7510.4572    8124.4121    8137.2941   -237.05899   -1265.6625   -92.114495   -2666.0277 
 8005000    259.74155   -3862.4859   -3417.2978   -3862.4859            0    8419.5319    17.023902    20.051908    20.769121    7089.7827    7760.0283    10820.403    6678.1642   -178.95001   -174.95332    69.725758   -2546.7417 
 8006000     262.2188   -3850.0942   -3400.6601   -3850.0942            0    7900.2505    17.097139    20.138172     20.85847    7181.6784    8119.7963    7942.0961    7638.8592    882.92688    1082.0781   -403.29392   -2573.2083 
 8007000    257.31362    -3860.757   -3419.7302    -3860.757            0     8334.728    17.097475    20.138568     20.85888    7182.1017    9459.3368    8190.4073    7354.4398    425.17388   -603.17929   -189.56659   -2546.7209 
 8008000    269.52657   -3870.2418   -3408.2824   -3870.2418            0    7529.7272    17.060404    20.094903    20.813654     7135.486    8122.9827     6771.091     7695.108    846.52181   -1187.3886   -265.35271   -2624.7108 
 8009000    271.90487    -3851.126   -3385.0904    -3851.126            0    8360.7889    17.046678    20.078735    20.796907    7118.2762     9009.484    8127.8686     7945.014   -1339.9231   -488.11548   -1922.7025   -2517.1338 
 8010000    259.67757   -3864.1792   -3419.1008   -3864.1792            0      7956.58    17.029695    20.058732    20.776188    7097.0231    6383.6947    8312.7709    9173.2743   -957.86077    978.95139    63.452503   -2595.5724 
 8011000    259.46401   -3892.7547   -3448.0423   -3892.7547            0      7173.11    17.034231    20.064074    20.781722     7102.695    7682.4886    7474.8592    6361.9823     661.6177   -656.26848     763.1846    -2705.012 
 8012000    276.89759   -3892.2576   -3417.6646   -3892.2576            0    5205.7112    17.086384    20.125503    20.845348    7168.1329    5250.0878    4358.1646    6008.8812   -935.15683   -445.70391     188.0157   -2873.4602 
 8013000    263.97448   -3866.6107   -3414.1675   -3866.6107            0    9148.5507    17.003039    20.027333    20.743667    7063.7481     11614.42    7730.4027    8100.8292    136.49463   -812.75569     1205.882   -2471.7064 
 8014000    258.61237   -3860.7293   -3417.4765   -3860.7293            0    10292.192    16.940032     19.95312      20.6668    6985.5126    8016.1606    12823.226    10037.189   -233.57999   -469.55313    797.60951   -2368.9437 
 8015000    262.51917   -3861.7501   -3411.8012   -3861.7501            0    7404.1916    17.059299    20.093601    20.812305    7134.0989    6988.0401    7676.9609    7547.5737     1270.061    359.51653    739.89693   -2641.4431 
 8016000    270.77492   -3854.4183   -3390.3194   -3854.4183            0    9525.0848    16.943249    19.956909    20.670724    6989.4929    10838.131    7768.7263    9968.3969    1994.4641    291.52834   -1069.7645   -2419.3838 
 8017000    247.56317   -3811.1218    -3386.807   -3811.1218            0    8898.7813    17.061938    20.096709    20.815525    7137.4104    9667.4407    9078.0321    7950.8711    -887.9034    243.79787    -511.8892   -2460.5168 
 8018000    243.45876   -3859.1361   -3441.8561   -3859.1361            0    7071.2625     17.04815    20.080469    20.798704    7120.1212    7390.3729    6746.9445    7076.4701   -1268.8747   -1231.4737   -1180.8903   -2707.5786 
 8019000    250.41431   -3849.2774   -3420.0758   -3849.2774            0    9058.8577    17.042766    20.074127    20.792135    7113.3769      8909.41    10466.261    7800.9019   -1315.4576    1273.8854   -34.889773   -2480.2981 
 8020000    260.17493   -3883.5551   -3437.6241   -3883.5551            0    6093.4231    17.055351     20.08895    20.807488    7129.1469    8546.8933    5010.2663    4723.1096    1114.0091   -25.366604   -376.21271    -2804.083 
 8021000    254.26839   -3859.7695   -3423.9622   -3859.7695            0    7968.6624    17.042628    20.073965    20.791967    7113.2046    10783.052    8964.6154    4158.3197   -1590.0877    40.381922   -780.53407   -2597.3028 
 8022000    269.31804   -3861.8399    -3400.238   -3861.8399            0    6525.9743    17.042352    20.073639    20.791629    7112.8584    7105.0909    8368.4097    4104.4222   -259.43092    1231.2132    458.07992   -2723.2743 
 8023000    247.30973   -3881.4839   -3457.6035   -3881.4839            0    6753.0818    17.063096    20.098074    20.816938    7138.8643    6850.4878    7957.0643    5451.6934    259.43233    -1570.861    1750.9528   -2754.5198 
 8024000    267.11349   -3825.9644    -3368.141   -3825.9644            0    10645.751    16.950095    19.964973    20.679076    6997.9688    10285.294    10610.066    11041.894    939.23164   -1400.6935     -1497.05   -2281.6548 
 8025000    268.72027   -3899.3057   -3438.7284   -3899.3057            0    7304.2225    16.989804    20.011745    20.727522    7047.2669    6199.9046    8906.9067    6805.8562    135.92343   -466.19701    179.85094   -2688.0211 
 8026000    272.67872   -3873.3876   -3406.0256   -3873.3876            0     8678.747    16.949916    19.964763    20.678858    6997.7475    7194.2255    10926.056    7915.9596    -365.3733    -819.0682    1051.9461   -2520.3164 
 8027000    262.88005   -3860.2546   -3409.6872   -3860.2546            0    7674.3238    17.020347     20.04772    20.764783    7085.3414    6509.9469    8663.3092    7849.7155    1137.6478    784.17614    -122.5808   -2616.6806 
 8028000    260.60724   -3914.1654   -3467.4935   -3914.1654            0    5892.5442    17.023793    20.051779    20.768988    7089.6464    3167.9214    8478.6959    6031.0151    163.55019    291.50608   -457.20971   -2858.2326 
 8029000    259.90834   -3916.3025   -3470.8285   -3916.3025            0    8549.4721     16.94791    19.962399    20.676411    6995.2628    8672.6026    9071.1413    7904.6724   -814.32563    -268.7078   -1006.6745   -2598.6222 
 8030000    269.17001   -3866.4025   -3405.0543   -3866.4025            0    9041.6519    16.954667    19.970358    20.684654    7003.6325    6643.8837    11368.702    9112.3698    1090.1641   -1810.1822   -457.68176   -2481.5328 
 8031000    262.68338   -3838.7628   -3388.5324   -3838.7628            0    8557.3974    17.006855    20.031829    20.748324    7068.5063    8761.9161    8159.8233    8750.4528    690.69653   -1583.3415    346.80111   -2506.3768 
 8032000     264.1006   -3881.7433   -3429.0839   -3881.7433            0    8662.1296    17.020772    20.048222    20.765302    7085.8732    8541.6169    9492.6733    7952.0986     712.5272   -36.246078   -819.22045   -2533.9377 
 8033000    273.21859   -3901.0563    -3432.769   -3901.0563            0    8039.2734    17.019125    20.046281    20.763293    7083.8162    10705.657    4857.9299     8554.233    852.52042    390.33693    1120.6439   -2602.2301 
 8034000    258.97815   -3900.7876   -3456.9079   -3900.7876            0     7774.351    16.999379    20.023023    20.739203    7059.1882    9633.3524    6348.7388    7340.9617    1646.7939     63.64876     479.1474   -2656.5306 
 8035000    238.99781   -3869.3716   -3459.7376   -3869.3716            0    7894.0348    17.003394    20.027752    20.744101    7064.1913    9115.9085     6769.033     7797.163    688.71834   -410.59274    2694.7117   -2646.4627 
 8036000    261.11886   -3907.0153   -3459.4665   -3907.0153            0    7710.1851    16.985621    20.006818    20.722418    7042.0625    6275.2962    7538.0294    9317.2296    175.27363     896.9575    322.99167   -2667.6208 
 8037000    265.47487   -3871.3695   -3416.3547   -3871.3695            0    7720.6902    17.065623    20.101049     20.82002    7142.0356    7669.1558    6950.9766    8541.9384    345.40053    636.41815   -1198.1809   -2612.1733 
 8038000    260.73366   -3906.5666    -3459.678   -3906.5666            0    7480.1808    17.101936    20.143822    20.864322    7187.7248    8247.6565    4378.9704    9813.9153   -219.42843    1060.0177   -1092.9879   -2675.5636 
 8039000    251.58335    -3862.969   -3431.7638    -3862.969            0    8432.3953    17.048677     20.08109    20.799346    7120.7812     9017.429    7960.3679    8319.3891   -334.80665    725.50894   -371.85502   -2556.0655 
 8040000    262.28335   -3898.8437    -3449.299   -3898.8437            0    6621.3642    16.994203    20.016927    20.732888    7052.7424    6289.7187    6209.6442    7364.7297   -20.044055    65.634971     250.5707   -2768.2453 
 8041000    244.62962   -3824.4615   -3405.1747   -3824.4615            0    9095.0362    16.986447    20.007791    20.723426    7043.0903    11012.869    7937.1621    8335.0772   -686.89013    629.77757   -1916.7737   -2470.9667 
 8042000     262.1909    -3892.592   -3443.2058    -3892.592            0     7891.717    17.012335    20.038284    20.755009     7075.341    9675.9205    7023.7641    6975.4662    782.90865    285.63749   -156.97919   -2628.8864 
 8043000    253.56798   -3854.7051   -3420.0982   -3854.7051            0     6961.525    16.993673    20.016302    20.732242    7052.0823    7613.0741    6848.5924    6422.9085    779.27556    666.77452   -1214.7597   -2704.1236 
 8044000    270.91912   -3878.4637   -3414.1176   -3878.4637            0    9738.9422    16.895358    19.900499    20.612297    6930.3912    9855.9717     9024.121    10336.734   -460.77441    361.53666     1866.721   -2429.7769 
 8045000    254.17378   -3918.0843   -3482.4392   -3918.0843            0    7841.5306    16.917408    19.926471    20.639198     6957.561    7553.0059    7393.9647    8577.6211    59.519043    513.71131   -653.57462   -2686.7677 
 8046000    266.79538   -3888.9415   -3431.6634   -3888.9415            0    8166.9236    17.038467    20.069064     20.78689    7107.9959    7929.3003    10303.135    6268.3357    2176.4546   -834.52987    487.04594    -2585.057 
 8047000    262.55299   -3897.1259    -3447.119   -3897.1259            0    8198.9631    16.986193    20.007492    20.723116    7042.7742     9943.866    7676.5901    6976.4333    381.94049   -794.32516    319.89903   -2604.9901 
 8048000    256.88266    -3859.968   -3419.6799    -3859.968            0    8621.2184    16.991443    20.013676    20.729521    7049.3067     11063.43    7466.1577    7334.0671    114.01925    173.27624    1497.6724   -2533.3591 
 8049000    273.73955   -3884.8352    -3415.655   -3884.8352            0    10288.052    16.968573    19.986737    20.701619    7020.8794    9861.8591    10159.479    10842.816   -359.06273    -113.2934   -904.95696   -2362.2375 
 8050000    251.13885   -3862.1014    -3431.658   -3862.1014            0    9146.4578    16.950949    19.965979    20.680118    6999.0267    8102.3753    10008.897    9328.1009    2615.6858    859.98961   -1661.5578   -2498.0459 
 8051000    258.27698   -3847.6489    -3404.971   -3847.6489            0    6048.1052    17.066082    20.101591    20.820581    7142.6128    6474.1009    6421.4799    5248.7347    1659.2653   -813.10963   -423.61869   -2774.9539 
 8052000    256.98788   -3860.2383   -3419.7699   -3860.2383            0    8180.8656    17.034423      20.0643    20.781956    7102.9352    10424.707    8202.8592    5915.0303    645.35679   -1432.4551   -440.83576    -2572.322 
 8053000    265.60274   -3872.1352   -3416.9012   -3872.1352            0    8956.8063    16.992961    20.015463    20.731373    7051.1958    8612.0917    8299.9947    9958.3326   -658.31405   -875.43522   -113.74283   -2495.8329 
 8054000    274.99082   -3818.1503   -3346.8254   -3818.1503            0    9710.1137    17.025344    20.053607     20.77088    7091.5848     11305.68    9149.4021    8675.2589   -1830.0019     487.6756   -591.38617   -2342.5716 
 8055000    257.34924   -3845.2166   -3404.1288   -3845.2166            0    8206.1758    17.000982    20.024911    20.741158    7061.1851    7127.9585    8975.2075    8515.3613    257.28907    414.45922   -1312.9227   -2559.0557 
 8056000    269.95723   -3834.8772   -3372.1798   -3834.8772            0    8422.5829    17.013787    20.039994     20.75678    7077.1526    7051.1733    8219.8551    9996.7202    860.39981   -596.33421   -513.43356   -2502.8596 
 8057000    260.51001   -3871.8345   -3425.3293   -3871.8345            0    8686.6675    16.987635     20.00919    20.724875    7044.5673    7942.9769    8023.5424    10093.483    508.16566   -204.14669    1348.4756   -2532.8803 
 8058000    263.89395   -3884.8879   -3432.5827   -3884.8879            0    7698.3443    17.062107    20.096908     20.81573    7137.6222    8305.6214    7007.3523    7782.0591    571.02971   -1237.3044   -1104.2997   -2631.2244 
 8059000    273.21732   -3885.6018   -3417.3167   -3885.6018            0    9370.7943    16.992118    20.014471    20.730344    7050.1466      9549.11    10436.243    8127.0299   -351.42048    373.65207    470.04363   -2453.8196 
 8060000    254.37399   -3883.0452   -3447.0569   -3883.0452            0    9224.5401    16.974894    19.994183    20.709332    7028.7296    9553.5787    9568.8037    8551.2378    706.86606   -606.91208   -1572.4122   -2501.4787 
 8061000    261.09043   -3866.7308   -3419.2308   -3866.7308            0    7327.3552    17.029824    20.058883    20.776346    7097.1841    8469.0863    6817.6181    6695.3612    -1377.645   -1636.2292    937.18542   -2660.8118 
 8062000    250.87761   -3853.6063   -3423.6107   -3853.6063            0    6946.1509     17.03786    20.068349    20.786149    7107.2359    6010.6941    7924.4576    6903.3011    1036.2283   -2141.5069   -224.39259     -2703.63 
 8063000    274.13996   -3862.9487   -3393.0822   -3862.9487            0    7986.8164    16.992476    20.014892     20.73078    7050.5914    8854.5628    7892.5897    7213.2967   -1192.4481   -502.40491   -1135.2111   -2571.8326 
 8064000    266.08332   -3907.1953   -3451.1376   -3907.1953            0    6622.2779     17.01146    20.037253    20.753942    7074.2495     6920.251    7929.7638    5016.8188   -1943.2618    460.99546    210.96759   -2767.9128 
 8065000    245.26771    -3893.359   -3472.9785    -3893.359            0    6868.1795    16.996346     20.01945    20.735502    7055.4099     6652.792    8897.8792    5053.8674    770.55816    985.39018   -953.04164   -2766.2709 
 8066000    278.66976   -3881.8789   -3404.2485   -3881.8789            0    8127.9524    17.012637    20.038639    20.755377    7075.7171    8794.2693    8426.5371    7163.0508   -462.58833   -110.27763   -2852.8515   -2565.5082 
 8067000    246.55939   -3872.0742   -3449.4799   -3872.0742            0    8714.7534    16.977601    19.997371    20.712633    7032.0919    9802.5897    10301.558    6040.1121   -3150.1372    466.91088   -427.35814    -2555.731 
 8068000    265.22582    -3891.862    -3437.274    -3891.862            0    8955.3882    17.020703     20.04814    20.765218    7085.7869    8763.1507    9487.1202    8615.8938   -1299.6466    1709.4797   -1386.5692   -2511.8337 
 8069000    255.57433   -3907.4856   -3469.4399   -3907.4856            0     9456.441    16.930868    19.942326    20.655619    6974.1812    10286.797    9278.2539    8804.2718   -694.63856   -748.15287    1743.7893   -2507.6132 
 8070000    271.37437   -3914.0866   -3448.9602   -3914.0866            0    7660.9314    17.026949    20.055497    20.772838    7093.5899    8069.7159    7563.3562    7349.7221   -559.70758   -33.462393    489.86435   -2656.4159 
 8071000    259.92947    -3887.187   -3441.6768    -3887.187            0    8109.5427    16.959622    19.976195      20.6907    7009.7756    7890.7003    7481.8758    8956.0521   -174.04499   -615.50258    700.10652   -2612.6351 
 8072000    284.02903   -3869.9545   -3383.1385   -3869.9545            0    7666.8576    16.962245    19.979284    20.693899    7013.0278    6273.9126    9073.2671    7653.3931    2260.8638   -264.86788   -1176.8204    -2598.989 
 8073000    246.08435   -3886.3453   -3464.5652   -3886.3453            0    11438.395    16.914327    19.922843     20.63544    6953.7614    12839.351    9999.1086    11476.725    1542.3925   -826.59588    695.94282   -2304.5578 
 8074000    254.34097   -3885.2182   -3449.2865   -3885.2182            0    8666.0517    16.900277    19.906294    20.618299     6936.447    9364.2413    9585.6878     7048.226   -213.70972   -593.85399   -1499.2501   -2572.6203 
 8075000     262.5895   -3902.4963   -3452.4269   -3902.4963            0         9012    16.940348    19.953493    20.667186    6985.9039    8518.1128      8792.98    9724.9073    1053.6763   -448.59941    1812.6042   -2534.2641 
 8076000    258.83279   -3891.7143   -3448.0837   -3891.7143            0    6921.5915    17.021206    20.048732    20.765831    7086.4146    8200.9121    4921.2812    7642.5811    872.42529    70.007059   -1017.2924   -2732.7505 
 8077000    250.64382   -3889.6121   -3460.0171   -3889.6121            0    9713.1178    16.935807    19.948144    20.661646    6980.2876    10263.423    9714.8423    9161.0884   -819.71335    -651.6816    560.76372   -2471.2185 
 8078000    271.36812   -3874.3328   -3409.2171   -3874.3328            0    7355.6568    17.004682    20.029269    20.745672    7065.7968     6731.538    8025.9394    7309.4929   -211.57856   -170.62827      537.032   -2651.2358 
 8079000    263.67424   -3905.1241   -3453.1955   -3905.1241            0    7232.1585    16.992264    20.014642    20.730522    7050.3278    7250.3397    6022.2987     8423.837     442.1887    865.96027    453.34434   -2709.5719 
 8080000    270.02481   -3886.7735   -3423.9602   -3886.7735            0    7217.1068    17.060462    20.094971    20.813724    7135.5581    7729.0383    6376.4117    7545.8703   -1339.2507   -1435.8617    1055.9772   -2672.9135 
 8081000    262.74116   -3881.3442   -3431.0149   -3881.3442            0     8402.339    16.970242    19.988703    20.703655    7022.9515    7451.5882    8321.9078     9433.521    1187.5579   -245.28508    294.58118   -2570.4259 
 8082000    248.51107   -3887.7827   -3461.8432   -3887.7827            0    9143.3533    16.960879    19.977675    20.692233    7011.3338    6488.7856    11342.597    9598.6777    43.104324   -1463.4475   -1001.0596   -2526.9069 
 8083000    238.98856   -3837.2435   -3427.6253   -3837.2435            0     8502.208    16.982245    20.002842      20.7183    7037.8649     8184.791    9429.3244    7892.5087    -261.6884    528.63578    462.69949   -2554.9584 
 8084000    266.77845   -3839.7811   -3382.5319   -3839.7811            0    5771.5367    17.022633    20.050413    20.767573    7088.1974    5728.7873    6667.4749    4918.3479    966.66104    112.91295   -793.47525   -2785.9046 
 8085000    267.85626   -3876.8223   -3417.7259   -3876.8223            0    7681.0557    16.951107    19.966165    20.680311     6999.222    7142.8806    9671.5787    6228.7078    997.60324   -467.47934   -698.79102   -2633.6708 
 8086000    260.28093   -3847.5419   -3401.4293   -3847.5419            0    8018.9348    16.976549    19.996133     20.71135    7030.7854    8188.0708    7416.3909    8452.3426   -1288.6452   -712.76935   -1280.1939   -2579.1935 
 8087000    263.14527    -3904.232     -3453.21    -3904.232            0    8370.1157    16.976182      19.9957    20.710902    7030.3291    9689.0473    7372.9333    8048.3664    1279.3285   -1365.6942   -105.72299   -2595.0209 
 8088000    262.22884   -3848.4071   -3398.9558   -3848.4071            0    6491.2747    17.070387    20.106661    20.825832    7148.0186    7865.2103    4644.2616    6964.3523   -1190.4844   -315.69902     767.1777    -2722.263 
 8089000    255.79315    -3899.807   -3461.3863    -3899.807            0    6989.8743    17.063119    20.098101    20.816966    7138.8928    5733.2289    6573.3843    8663.0098   -1371.0633    280.61839   -1066.0761   -2733.6465 
 8090000    263.60651    -3857.707   -3405.8944    -3857.707            0    10344.351    16.920324    19.929906    20.642755    6961.1595    9878.5266    9723.1398    11431.386    48.704163     554.4546    243.88167   -2355.7218 
 8091000    262.68037   -3894.3203   -3444.0951   -3894.3203            0    9341.9179    16.994466    20.017237    20.733209    7053.0698    9168.2616    9332.4652     9525.027    509.27995   -921.40119   -951.44039   -2483.1688 
 8092000    267.11107    -3875.633   -3417.8138    -3875.633            0     7652.618    17.012402    20.038362     20.75509     7075.424    9180.6774     6476.696    7300.4807   -1674.9318    232.07263    407.41476    -2628.157 
 8093000    251.88837    -3890.742    -3459.014    -3890.742            0    7977.2237     17.03941    20.070174     20.78804    7109.1756    7956.2681    5488.1418    10487.261   -1020.1873   -630.64277    1591.6606   -2631.9351 
 8094000    255.41596   -3897.9804   -3460.2062   -3897.9804            0    6841.6505    17.045116    20.076895    20.795002    7116.3202     7704.275    5615.7649    7204.9117   -278.02946    25.125429   -1163.0808   -2750.1508 
 8095000    264.34133   -3927.1525   -3474.0805   -3927.1525            0    9480.0583    16.965538    19.983162    20.697916    7017.1131    9936.6491    7958.2145    10545.311    726.60078   -703.05415   -796.46246    -2503.916 
 8096000    263.71133   -3899.0535   -3447.0613   -3899.0535            0    6896.6011    17.056101    20.089834    20.808403    7130.0873    5782.1172    7614.9496    7292.7365   -576.47749   -1242.9255    383.58143   -2729.9181 
 8097000    258.68457   -3884.6068   -3441.2303   -3884.6068            0    8850.2023    17.003606    20.028002     20.74436    7064.4559    10396.589    8184.0846    7969.9327    1532.8534   -206.43449    159.74802    -2529.413 
 8098000    255.69198    -3906.764   -3468.5167    -3906.764            0    8133.7725    16.967442    19.985406     20.70024    7019.4765    9178.9861    8398.5571    6823.7745    79.315616   -1068.8081   -39.464171   -2635.8473 
 8099000    276.03538   -3921.9496   -3448.8344   -3921.9496            0    8394.3484    16.977564    19.997328    20.712589    7032.0466    6395.0575     8389.529    10398.459    1158.5293    608.07061    1426.0012   -2587.9504 
 8100000    256.97011   -3898.3298   -3457.8918   -3898.3298            0    9860.1213    16.942046    19.955492    20.669256    6988.0039    11880.736    8504.4761    9195.1521   -701.46436   -152.52268   -229.59638   -2453.0186 
 8101000    246.94553   -3893.2431   -3469.9869   -3893.2431            0    8468.9606    17.047357    20.079535    20.797736    7119.1273    7284.8226    9736.1802     8385.879    1367.2291   -910.14972   -985.08258   -2590.6957 
 8102000    278.70139   -3877.5342   -3399.8496   -3877.5342            0    10294.751    16.920031    19.929562    20.642399    6960.7986    8927.8305    11727.083    10229.338    640.64399   -977.85185     564.6443   -2354.7666 
 8103000    261.73712   -3860.7066   -3412.0982   -3860.7066            0    8594.3121    16.977421     19.99716    20.712414    7031.8688    8447.7068     7774.007    9561.2224    2000.1514    328.57304   -521.94405   -2530.7292 
 8104000    262.66294   -3889.4968   -3439.3015   -3889.4968            0     7242.465     17.00773     20.03286    20.749391    7069.5972    8167.2363    7471.8845    6088.2742    2958.1239    1163.9468    286.75041   -2692.5829 
 8105000    262.91622   -3869.1918   -3418.5623   -3869.1918            0    7106.3726    17.062045    20.096836    20.815655     7137.545    7543.4483    6343.2832    7432.3864     55.98402    742.18337   -464.63012   -2678.8332 
 8106000    248.78631   -3888.9063   -3462.4951   -3888.9063            0    6737.3946    17.036717    20.067002    20.784754    7105.8049    6422.0022    5647.9309    8142.2507     629.6898   -1574.3826   -1394.9582    -2764.293 
 8107000    262.13487   -3914.7014   -3465.4112   -3914.7014            0    7737.3897    17.010858    20.036544    20.753207    7073.4986    6335.3292    8914.4736    7962.3664    1297.5238    60.666383    578.53292   -2667.2243 
 8108000    250.51959   -3865.3808   -3435.9987   -3865.3808            0    8814.9262    17.032973    20.062592    20.780187    7101.1219    11963.529    7388.4482    7092.8011    1370.4767   -952.27478   -836.68598   -2523.1023 
 8109000    258.58495   -3871.7522   -3428.5465   -3871.7522            0    8397.8331    17.006723    20.031673    20.748162    7068.3411    6602.2456    9612.7973    8978.4565   -2070.1669    293.50167    1053.9472     -2562.86 
 8110000    263.06631   -3870.3675   -3419.4809   -3870.3675            0    9782.1787    16.913558    19.921937    20.634501    6952.8122     9042.537    11996.094     8307.905   -546.92341    766.36993    1783.3373   -2427.5715 
 8111000    253.08058   -3851.9669   -3418.1954   -3851.9669            0    7607.2522    16.988036    20.009663    20.725365    7045.0672    7162.9438    5636.5713    10022.242    26.554699    -62.37164   -1022.1683   -2636.5877 
 8112000    258.34669   -3879.5375   -3436.7401   -3879.5375            0    9166.9408    16.977693    19.997479    20.712746    7032.2062    9572.9283    7897.7655    10030.129    390.77362    699.62904    41.241989   -2496.6015 
 8113000    251.50371   -3865.4745   -3434.4058   -3865.4745            0    7725.1798    17.012215    20.038142    20.754862    7075.1908    7243.7431    7392.5506    8539.2455    1805.0148   -912.05766    239.76494   -2637.2877 
 8114000    271.39132   -3849.3793   -3384.2239   -3849.3793            0    7945.7069    16.993245    20.015798     20.73172    7051.5496    10041.408    7172.4669    6623.2451   -2454.5522    165.50388    610.72102   -2567.0905 
 8115000    269.37297   -3841.6662   -3379.9701   -3841.6662            0    9761.5708    16.907319    19.914589     20.62689    6945.1218    7708.6367    9869.2637    11706.812    621.72372   -476.53385   -1734.2567   -2391.2453 
 8116000     252.4916   -3850.8804   -3418.1185   -3850.8804            0    9988.7101    16.929652    19.940894    20.654136    6972.6794    9916.1894    9739.0495    10310.891   -88.814688   -49.391971    569.56748   -2402.3728 
 8117000    252.35473   -3898.6175   -3466.0901   -3898.6175            0    7391.6982    17.007204     20.03224    20.748749    7068.9412    8675.3985    6985.7635    6513.9325   -1929.3896   -373.26734   -801.20851   -2704.0559 
 8118000    256.32213   -3901.1258   -3461.7984   -3901.1258            0    7712.3412    16.963504    19.980767    20.695435    7014.5894    8220.1502    6933.1258    7983.7475   -223.27718    206.28512   -924.58426   -2672.8214 
 8119000     267.7686   -3890.0247   -3431.0785   -3890.0247            0    7832.4543    17.000649    20.024519    20.740752    7060.7706    7782.0172    5999.6105    9715.7353    1076.0164   -369.69137    499.32038   -2624.5386 
 8120000    259.11105   -3900.8657   -3456.7583   -3900.8657            0     8870.113      16.9353    19.947547    20.661027    6979.6605     7734.181    10180.008    8696.1499     1022.554   -935.52047    94.060994   -2553.8589 
 8121000    250.88883   -3904.5569    -3474.542   -3904.5569            0    6344.2056    17.015195    20.041652    20.758498      7078.91    5754.3203     6466.204    6812.0925   -763.57024    633.59465    352.71401   -2819.5749 
 8122000    271.19038    -3887.394   -3422.5829    -3887.394            0    7306.7181    16.998549    20.022045     20.73819    7058.1543    7743.7507    6763.9438    7412.4597   -1198.8269   -1256.3994   -640.57936    -2670.459 
 8123000    249.33462    -3904.111     -3476.76    -3904.111            0     8346.615    16.943424    19.957116    20.670938    6989.7097    9656.7327    9179.2833    6203.8291    1772.0969    875.23324    148.77923   -2625.9249 
 8124000    265.47527   -3873.4568   -3418.4413   -3873.4568            0    8761.1589    16.942412    19.955924    20.669703    6988.4575    9101.0452    9459.0044    7723.4271   -219.79624    709.96657    902.39815   -2525.5085 
 8125000    274.91578   -3891.0264   -3419.8302   -3891.0264            0    9380.2176    17.039273    20.070013    20.787873     7109.004    10607.855    8935.9012    8596.8968    43.915976   -694.10746    342.89431   -2447.3123 
 8126000    254.47224   -3892.6365   -3456.4798   -3892.6365            0    8757.5534    16.949425    19.964183    20.678259    6997.1386    9587.9676    7711.9573    8972.7352   -1286.5008   -419.60565     626.9222   -2562.8057 
 8127000    271.55707   -3933.1537   -3467.7141   -3933.1537            0     7529.005    16.998108    20.021526    20.737652     7057.605    7503.6538    7205.5226    7877.8386   -415.88661   -763.93417   -811.39915   -2692.7692 
 8128000    264.61695   -3905.1704    -3451.626   -3905.1704            0    9621.6252    17.023035    20.050887    20.768063    7088.6997    12185.474    8514.0115    8165.3898    946.71424   -1186.7542    237.23519   -2456.9287 
 8129000     267.2014   -3890.6774   -3432.7034   -3890.6774            0    7940.3484    16.999284    20.022912    20.739087    7059.0703    8343.3433    7982.5764    7495.1256    216.90132    893.20894   -389.57821   -2615.2501 
 8130000    259.32817   -3923.7588   -3479.2792   -3923.7588            0    9709.1128     16.97913    19.999172    20.714499    7033.9923    9534.6668    9610.0569    9982.6147    1084.2748    1026.3693     832.1897   -2483.2838 
 8131000    250.33638   -3927.6056   -3498.5376   -3927.6056            0    6340.8295      17.0403    20.071223    20.789127    7110.2902    4845.7507    7771.0683    6405.6695    753.60944   -1652.3316   -454.03873   -2841.0171 
 8132000    267.22991   -3886.5602   -3428.5373   -3886.5602            0    8853.2298    16.999667    20.023362    20.739554    7059.5465      8718.41    8937.7989    8903.4806   -1394.5942   -795.70418   -36.583447    -2517.042 
 8133000    245.67382   -3859.0518   -3437.9752   -3859.0518            0    8413.0394    17.034986    20.064964    20.782644    7103.6404    5730.0068    10061.585    9447.5267   -478.61488    342.39445    1299.2699   -2566.3902 
 8134000    252.16199   -3888.9868   -3456.7898   -3888.9868            0    7766.8043    16.966232     19.98398    20.698763    7017.9743    7650.5316    8944.9939    6704.8874   -662.81277    2991.4463    80.517623   -2661.8577 
 8135000    248.79433   -3904.3381   -3477.9132   -3904.3381            0    7657.6596    16.972478    19.991337    20.706384    7025.7283    7917.5706     7163.071    7892.3373   -783.81696   -130.82295    1945.3488   -2693.2861 
 8136000    261.36383   -3878.5361   -3430.5674   -3878.5361            0    7197.9753    16.942969     19.95658    20.670383    6989.1468     7805.718    6521.0472    7267.1607    844.87737    856.50427     263.0394   -2696.8811 
 8137000    243.71223   -3865.9369   -3448.2225   -3865.9369            0    6963.3406    17.011031    20.036747    20.753418    7073.7135    7888.7262    4736.4332    8264.8625    -881.8476   -381.11203    18.095128   -2729.8644 
 8138000    250.75069   -3857.3192   -3427.5411   -3857.3192            0     8432.337     16.97046     19.98896    20.703921    7023.2224    8324.8051    8782.1712    8190.0347    1253.4336    1120.2059   -580.92059   -2563.8464 
 8139000    242.66438   -3913.5556   -3497.6372   -3913.5556            0    8040.5937    16.957389    19.973564    20.687975    7007.0068    7254.4155      8981.26    7886.1055    1249.1454    1620.6469    1132.1408   -2675.9688 
 8140000    259.29168   -3870.6193   -3426.2022   -3870.6193            0    6296.9581    16.991701     20.01398    20.729836    7049.6277    4899.3532    7913.0771     6078.444    392.46852   -364.50506   -483.42007    -2778.802 
 8141000    252.16306   -3885.7265   -3453.5277   -3885.7265            0    7127.0153    16.984529    20.005531    20.721085    7040.7042    10700.553     4709.902    5970.5912   -238.98435   -235.64781   -169.55999   -2721.7154 
 8142000    253.99785   -3868.5971   -3433.2535   -3868.5971            0    7527.5707    16.988513    20.010225    20.725947    7045.6607    7264.0086    7732.4109    7586.2925   -985.37946    567.37346   -5.0616133   -2659.7675 
 8143000    250.78192   -3857.1896    -3427.358   -3857.1896            0     6108.647    17.015495    20.042006    20.758865    7079.2847     6330.455    7625.9969     4369.489    1050.6856    583.17433     369.7069   -2796.6762 
 8144000    264.23251   -3887.8739   -3434.9885   -3887.8739            0    7190.3351    16.973114    19.992086    20.707159    7026.5179    7959.4844    7697.4084    5914.1125   -765.87408   -758.13769   -198.57865   -2698.1621 
 8145000    269.03549   -3878.5124   -3417.3948   -3878.5124            0    6597.2718    16.996905    20.020109    20.736185    7056.1069     4931.259    8340.7596    6519.7969    508.53121   -822.24408   -773.36449   -2738.4954 
 8146000    259.45415    -3896.604   -3451.9085    -3896.604            0    5541.5059    17.013746    20.039945     20.75673     7077.101    6127.0313    6221.7774    4275.7091    774.26768    1393.6694     265.1389   -2879.9572 
 8147000    242.31715   -3881.4907   -3466.1674   -3881.4907            0    7852.9512    16.970828    19.989394    20.704371    7023.6798    5179.7256    7819.4771    10559.651   -1949.3452    2046.9224    147.65529   -2661.7648 
 8148000    252.57572    -3874.272   -3441.3659    -3874.272            0     7137.999    16.977884    19.997704    20.712978    7032.4436    7646.3505    8735.3344    5032.3121    603.34273     -692.462   -250.12897   -2709.2857 
 8149000    271.05879    -3838.891   -3374.3055    -3838.891            0    7253.3966    16.965111    19.982659    20.697395    7016.5831    8742.2214    7314.8255     5703.143     913.8543    179.00571   -864.75925   -2632.0679 
 8150000    245.10446    -3860.748   -3440.6473    -3860.748            0    6632.1587     17.02218     20.04988     20.76702    7087.6321    8518.7008    6728.3013    4649.4739    1028.0969    79.884834    -2025.119   -2755.1087 
 8151000    258.24911   -3843.0948   -3400.4647   -3843.0948            0    8567.9735    17.008735    20.034043    20.750616    7070.8496    8164.0345    7499.1343    10040.752       107.53   -881.78109   -594.57563   -2516.9259 
 8152000    259.63248    -3921.548   -3476.5468    -3921.548            0    7140.1855    17.044287    20.075918     20.79399    7115.2814    7219.4188    7982.1251    6219.0125   -1364.4904    64.161373    -668.3152   -2735.6164 
 8153000    262.98445   -3865.6793   -3414.9329   -3865.6793            0    8127.0579    16.967038    19.984929    20.699746    7018.9744    9125.4113    8823.3729    6432.3894   -163.65251   -447.48773    52.871397   -2583.0104 
 8154000    246.58254   -3879.5067   -3456.8726   -3879.5067            0    9366.3402    16.899493    19.905371    20.617343    6935.4821    11581.722    8847.4717    7669.8265     379.8252    2696.3546    133.84551   -2509.4964 
 8155000    253.33967   -3875.4816   -3441.2661   -3875.4816            0    9312.5345    16.923227    19.933326    20.646297    6964.7434    8290.1407    10434.211    9213.2521   -415.09575   -1025.1993   -890.43571   -2495.3581 
 8156000    243.73225   -3890.2709   -3472.5221   -3890.2709            0    7585.0538    16.961633    19.978564    20.693153    7012.2697    6829.3873    7450.0936    8475.6807   -452.25049    1956.7895    121.13364   -2696.8233 
 8157000    268.53694   -3921.2684   -3461.0053   -3921.2684            0    5774.3899    16.987364    20.008871    20.724544    7044.2305    5120.6806    5810.3355    6392.1537   -490.93694    1459.7501   -88.645331   -2867.7856 
 8158000    262.59843   -3904.6461   -3454.5614   -3904.6461            0     10208.82    16.895928    19.901171    20.612993    6931.0931    8794.1868     10190.84    11641.432   -1883.4652    933.92679    1187.9917   -2422.6244 
 8159000    250.92022   -3867.5496   -3437.4809   -3867.5496            0      7072.03    16.977551    19.997312    20.712572      7032.03    6487.4764    7735.5485    6993.0652   -350.83338    158.11136    -434.1106   -2712.2093 
 8160000    276.40089   -3867.3865   -3393.6448   -3867.3865            0    8571.9271    16.938303    19.951083     20.66469    6983.3733    9469.8336    8273.3749     7972.573   -1991.3554    415.38091   -1768.7763    -2520.634 
 8161000    242.73321   -3880.9473   -3464.9109   -3880.9473            0    8517.8615    16.992419    20.014825    20.730712    7050.5215    8976.9775    8427.9522    8148.6547     742.1668    234.30571    -1241.031    -2589.065 
 8162000    260.65722   -3872.5896    -3425.832   -3872.5896            0    6665.8704    17.015593    20.042121    20.758984    7079.4067     7585.419    6774.2046    5637.9877    630.11455   -388.93912    204.65921   -2737.6083 
 8163000    263.50156   -3869.5351   -3417.9024   -3869.5351            0    6818.5683    17.036358    20.066579    20.784316    7105.3559    8856.6451    6797.3419     4801.718    119.61864    741.16141   -221.25962   -2711.3329 
 8164000    249.37029   -3823.9426   -3396.5304   -3823.9426            0    11648.648    16.882221    19.885026     20.59627    6914.2382    10840.315    12494.394    11611.235    -135.1703    400.09105    523.70953   -2221.9148 
 8165000    269.73458   -3886.0085   -3423.6926   -3886.0085            0    8944.8372    16.980505    20.000792    20.716176    7035.7013    9536.6471    9555.0683    7742.7962    374.27407   -130.58402    -970.8287   -2505.8764 
 8166000    270.32372   -3879.9054   -3416.5798   -3879.9054            0    9323.4045     16.98371    20.004567    20.720087    7039.6861    9794.1428    9709.7586    8466.3122   -1581.0994    125.31217    303.68014   -2459.3775 
 8167000    249.38065   -3921.1476   -3493.7177   -3921.1476            0    6687.4089    17.106898    20.149666    20.870375    7193.9825    6006.3883    6034.9241    8020.9144    1403.8928    56.331849    -1375.207   -2792.0958 
 8168000    265.51239   -3876.6277   -3421.5485   -3876.6277            0    6678.0703    17.038875    20.069544    20.787388     7108.506     6244.823    6848.2797    6941.1082   -1010.8727   -772.47492    -652.7873   -2729.2312 
 8169000    254.23448   -3863.4691   -3427.7199   -3863.4691            0    7988.5662    17.041511    20.072648    20.790603    7111.8052    6436.9382    9645.8111    7882.9494   -751.09836    1010.1531    729.85151   -2599.1587 
 8170000    269.08554   -3906.3325   -3445.1291   -3906.3325            0    7518.3845    16.993181    20.015722    20.731641     7051.469    7117.5723    8186.7885    7250.7927    465.55949    1071.8193   -1095.5934   -2671.9501 
 8171000    240.37313   -3872.8716   -3460.8803   -3872.8716            0    6535.9937    17.057672    20.091684     20.81032    7132.0578    7462.6667    7024.6388    5120.6756     209.7178   -333.11295   -1945.2432   -2781.0471 
 8172000     251.0229   -3875.3794   -3445.1347   -3875.3794            0    6644.4229    17.013574    20.039743    20.756521    7076.8875    5482.7814    7774.1337    6676.3535    127.79153    534.09599   -779.31463   -2759.3695 
 8173000     255.6471   -3906.7561   -3468.5857   -3906.7561            0    8521.1154    17.037296    20.067684    20.785461    7106.5296     8639.668    8218.2739    8705.4044   -1389.4992   -362.31714   -88.852053    -2585.445 
 8174000    244.84941   -3851.5247   -3431.8612   -3851.5247            0    6962.1473    17.039451    20.070223    20.788091    7109.2271    5676.4141    6267.1807    8942.8472   -817.59186    1017.9443    95.704314   -2710.0203 
 8175000    256.87138   -3868.9564   -3428.6877   -3868.9564            0     6729.614    16.994461     20.01723    20.733203    7053.0632    6612.7988    6155.6368    7420.4063     1174.026   -448.76954    618.67504   -2736.4682 
 8176000    252.32527   -3869.7371   -3437.2602   -3869.7371            0    6575.4386    16.967508    19.985484    20.700321    7019.5586    6640.3165    7773.8284     5312.171   -1665.1731    916.76408    982.98516   -2764.1124 
 8177000    257.44596   -3859.4764   -3418.2229   -3859.4764            0    8449.4553    16.963103    19.980294    20.694945    7014.0919    9831.7676    7273.5651    8243.0331   -820.88609   -225.89792   -43.360644   -2553.8999 
 8178000    268.96002   -3879.4664   -3418.4781   -3879.4664            0    6893.4889    17.002995    20.027282    20.743614    7063.6942    6492.0173    7685.1392    6503.3101    1301.6436   -1349.4465   -2017.8799   -2708.3334 
 8179000    265.38046   -3880.4836   -3425.6306   -3880.4836            0    6586.5185    17.013653    20.039835    20.756616    7076.9849    6899.3454    6376.8072    6483.4029    305.34415   -476.57152   -277.47264   -2745.8323 
 8180000      261.212   -3872.3937   -3424.6853   -3872.3937            0    8424.2312    17.041452    20.072579    20.790531    7111.7315    7400.5342    7831.9838    10040.176    -1141.112   -479.69387   -165.97721   -2550.9467 
 8181000    266.66016   -3866.8783   -3409.8319   -3866.8783            0    9137.7509    16.952653    19.967986    20.682197    7001.1379    9985.3042    8663.1583    8764.7902    85.252429    184.42969   -51.650881   -2476.8272 
 8182000    258.92079   -3850.8046   -3407.0232   -3850.8046            0    9734.4961    17.044083    20.075678    20.793741    7115.0257    8634.2209    9568.2394    11001.028    254.75821    580.87758    1834.6493   -2396.9198 
 8183000    250.04546   -3890.1227   -3461.5534   -3890.1227            0     7710.658    17.056433    20.090226    20.808809    7130.5046    8062.9857    7800.9481    7268.0403    1054.1089    26.655558   -70.244704   -2659.7136 
 8184000    251.04793   -3882.8963   -3452.6088   -3882.8963            0    5582.5232    17.106129     20.14876    20.869437    7193.0123    5951.0008    5301.6538     5494.915    780.19751   -867.85854   -1133.8796    -2866.987 
 8185000    263.13694   -3858.4004   -3407.3927   -3858.4004            0    8046.8521    17.016616    20.043326    20.760232    7080.6833    7238.5906    8892.9732    8008.9925   -111.56919   -239.93302   -174.83773   -2576.4385 
 8186000    261.81789   -3839.5313   -3390.7844   -3839.5313            0    9401.6513    16.949346    19.964091    20.678163    6997.0411     9802.964    8596.8674    9805.1225    684.62606   -484.22459   -1420.6772    -2431.396 
 8187000    253.00068   -3871.2968   -3437.6622   -3871.2968            0    9556.4266    16.986819     20.00823     20.72388    7043.5533    6455.9328    12162.812    10050.535   -994.48278     414.1546   -877.96277   -2455.9974 
 8188000    274.32359   -3872.6338   -3402.4526   -3872.6338            0    9968.6614    16.989884    20.011839    20.727619    7047.3663    11549.706    11187.551    7168.7273   -54.264878    564.36931     145.7421   -2377.8874 
 8189000    259.36022    -3895.127   -3450.5925    -3895.127            0    8180.1732    16.894579    19.899582    20.611347     6929.433    8835.6381    8375.0563    7329.8251   -1026.2657    356.25442    439.68082    -2623.915 
 8190000    272.14505   -3872.8873     -3406.44   -3872.8873            0    6031.3685    17.089927    20.129677    20.849671    7172.5935    7731.7242    6498.8182    3863.5631    213.89975    727.96074     564.4563   -2775.5292 
 8191000    260.05283   -3841.8463   -3396.1246   -3841.8463            0    8344.7499     17.00387    20.028313    20.744682    7064.7847    9762.2893    7597.5864    7674.3738   -12.854944   -636.14072    411.62011    -2536.343 
 8192000    264.36879    -3891.539   -3438.4199    -3891.539            0     8991.754     17.00117    20.025132    20.741388    7061.4195    7006.8771    9245.6486    10722.736   -1117.9589     1618.847    202.06568   -2512.4171 
 8193000    259.60789   -3867.0224   -3422.0634   -3867.0224            0    7966.0445    17.029774    20.058824    20.776284    7097.1212    8677.1058    5743.0919    9477.9358    103.72036    1016.0488     193.5601    -2597.544 
 8194000    273.39025   -3875.7803   -3407.1988   -3875.7803            0    8622.6283     17.00158    20.025615    20.741888    7061.9302    8037.4654    9566.4605     8263.959    150.73152   -1647.7725   -1290.5587   -2519.1456 
 8195000    263.86972   -3868.3576    -3416.094   -3868.3576            0    8634.4243    17.011899     20.03777    20.754477    7074.7967    7315.9018    8465.5443    10121.827   -497.26558   -2751.5057    281.55907   -2525.2057 
 8196000    257.46205   -3865.7305   -3424.4493   -3865.7305            0    4294.5851    17.116508    20.160985      20.8821    7206.1132    3205.3669     4005.124    5673.2644   -1946.7818   -467.77199    1381.5094   -2973.1152 
 8197000    262.83993   -3871.2521   -3420.7535   -3871.2521            0    8081.3821    17.017494     20.04436    20.761303    7081.7798    8363.7907      8791.57    7088.7854   -1366.1888   -182.27022   -718.25482   -2586.1043 
 8198000    253.04321   -3846.3024    -3412.595   -3846.3024            0    7931.9381    16.996473      20.0196    20.735657    7055.5683    7855.1295     10034.14    5906.5451    -1411.438   -406.64627    13.282281   -2596.4127 
 8199000     263.8245   -3849.6772   -3397.4911   -3849.6772            0    7508.7201    16.993401    20.015982    20.731909    7051.7433    7575.2909    9906.1829    5044.6864    1479.3383    764.40969   -517.53895   -2625.2759 
 8200000    260.32301   -3860.2403   -3414.0556   -3860.2403            0    8974.7859    17.004763    20.029365    20.745771    7065.8978    10916.137    8159.8593    7848.3609    509.19301   -72.782268    -905.0281   -2489.2141 
 8201000    261.51977   -3852.4746   -3404.2386   -3852.4746            0    6898.4578    16.986884    20.008306    20.723959    7043.6336     8757.852      6881.01    5056.5115   -1850.4086   -1580.4256    977.57857   -2695.6003 
 8202000    274.63851   -3884.3675   -3413.6465   -3884.3675            0    7493.1231    17.047308    20.079477    20.797676    7119.0658    6665.8527    6986.0548    8827.4616   -648.45823    1262.2388   -604.38415   -2635.6785 
 8203000    253.71615   -3886.7448   -3451.8841   -3886.7448            0    6132.6164    17.016348    20.043011    20.759905    7080.3493    5370.7617    5348.6199    7678.4677    255.85286    320.31659    137.49586   -2818.6323 
 8204000    257.06878    -3867.859   -3427.2519    -3867.859            0    9423.8786    16.967426    19.985387     20.70022    7019.4565     10379.21     10233.13    7659.2962   -301.28152    191.04555    935.91925   -2462.5146 
 8205000    247.45223   -3870.5654   -3446.4408   -3870.5654            0    7007.1623    17.073222    20.110001    20.829292    7151.5814    6605.6492    8733.0646    5682.7732   -190.25138    39.336889    59.675458   -2715.6044 
 8206000    254.77551   -3876.9307   -3440.2542   -3876.9307            0    7853.6645    16.983273    20.004052    20.719553    7039.1425    7724.6899    7564.7917    8271.5119    762.64462    -59.48646    665.58934   -2634.0075 
 8207000    265.10548   -3899.6067   -3445.2249   -3899.6067            0    6038.8396    16.992003    20.014335    20.730204    7050.0031    5969.2526     6602.463    5544.8031   -817.53993   -454.32373    218.91197   -2824.3292 
 8208000    259.46798   -3862.9802    -3418.261   -3862.9802            0    7659.5907    16.980383    20.000649    20.716028    7035.5502    8735.7455    6299.6123    7943.4143    -627.1024   -12.051805    2449.6972   -2632.3388 
 8209000    252.30032   -3871.1518   -3438.7177   -3871.1518            0    8569.2225    16.973887    19.992996    20.708102    7027.4779    9643.2758    7918.0975    8146.2943    991.73594    343.31835   -107.88857   -2560.4704 
 8210000    263.46333   -3845.0197   -3393.4526   -3845.0197            0    6640.5182    17.068706    20.104681    20.823781    7145.9072    5965.9304    6830.4158    7125.2083   -1143.1885    872.62389     955.6026   -2701.4062 
 8211000     253.3322   -3858.8766   -3424.6739   -3858.8766            0    7572.8603    17.032459    20.061987    20.779561    7100.4794    6313.8492    8673.6125    7731.1192    667.19039   -1371.8417   -411.72743   -2640.4799 
 8212000    270.46706   -3866.3458   -3402.7745   -3866.3458            0    8506.1349    17.030189    20.059313    20.776791    7097.6403    8245.7641    8582.8238    8689.8167    883.35032     667.2916    1765.8757   -2522.2892 
 8213000    277.49998   -3881.2118   -3405.5863   -3881.2118            0    8287.6509    17.088332    20.127798    20.847726    7170.5859    9249.1692    8029.1201    7584.6635     170.1681   -255.95866   -34.289732   -2538.8999 
 8214000    250.46754   -3846.6785   -3417.3857   -3846.6785            0    7991.1989    16.991172    20.013356     20.72919    7048.9689    7779.8854    8231.7768    7961.9344    1418.5294   -831.40972   -382.20211   -2595.8746 
 8215000    239.62765    -3884.671   -3473.9574    -3884.671            0    7210.0381    17.009247    20.034646    20.751242    7071.4887    5824.2383    6314.9719    9490.9039    -187.2566   -548.21501    20.938077   -2730.3832 
 8216000    246.37511   -3862.2372   -3439.9587   -3862.2372            0    9259.2236    17.069169    20.105226    20.824346    7146.4886    10070.259    8840.0766    8867.3355    824.37961   -110.29713    82.909717   -2474.9235 
 8217000     255.2282   -3896.6573   -3459.2049   -3896.6573            0    7333.8348    17.046441    20.078455    20.796618    7117.9792    6882.8329    7282.2564    7836.4153    2572.2454   -1002.8883    1111.7664   -2697.8911 
 8218000    253.89579   -3847.1396   -3411.9709   -3847.1396            0    8830.2702      17.0724    20.109032    20.828288    7150.5477    9936.8232    10392.092    6161.8953   -220.98297   -2232.9809    443.73278   -2491.1203 
 8219000    261.00095   -3837.2417    -3389.895   -3837.2417            0     9051.012    17.026589    20.055073    20.772399    7093.1405    9850.1359    10086.491    7216.4094   -300.84258   -463.10569    -42.51373   -2453.6024 
 8220000    240.92846   -3824.1544   -3411.2113   -3824.1544            0    11251.188    16.944632    19.958538    20.672411    6991.2044    10352.686    13249.492    10151.385   -482.61418   -355.04919    642.69387   -2264.0453 
 8221000    258.28563   -3854.8408   -3412.1481   -3854.8408            0    6254.0217    17.011277    20.037037    20.753718    7074.0205    8032.9545    4354.4388    6374.6718   -592.27626   -564.26913    571.52455   -2766.9373 
 8222000    260.85871   -3887.3334   -3440.2305   -3887.3334            0    8558.9063    17.020524    20.047929       20.765    7085.5634    8236.5141    7758.8662    9681.3385   -293.80044    822.78384    345.51571   -2555.7902 
 8223000    241.57811   -3828.0217   -3413.9651   -3828.0217            0    6865.6771    17.046251    20.078232    20.796386    7117.7414    6562.9734    6403.0636    7630.9943    673.81437    58.800765    982.97514   -2701.2738 
 8224000     251.7404   -3829.6645     -3398.19   -3829.6645            0    8244.7167    17.072698    20.109383    20.828651     7150.922    7320.5672    10541.782    6871.8004   -1267.8002    104.17017    128.18754   -2538.3579 
 8225000    255.11901   -3867.9679   -3430.7026   -3867.9679            0    12232.952    16.950712      19.9657    20.679829    6998.7331    12917.692    10743.402    13037.763   -10.147554    363.21357    -882.3096   -2182.0932 
 8226000    260.74177   -3880.9687   -3434.0662   -3880.9687            0    8731.5992    17.031074    20.060356    20.777871    7098.7471     8964.815    8251.1178    8978.8647   -678.72327    492.52775   -1399.7259   -2530.1017 
 8227000    273.72935   -3858.6366   -3389.4739   -3858.6366            0    6591.8851    17.082809    20.121292    20.840987    7163.6348    6046.6067    6321.7584    7407.2903    1183.7085    649.89712    641.41305   -2700.7915 
 8228000    261.36805   -3862.0537   -3414.0778   -3862.0537            0    9118.1453    16.987697    20.009263     20.72495    7044.6447    8404.0202     9666.532    9283.8838    1818.0418   -1133.4309    565.11799   -2477.2894 
 8229000    247.00613   -3849.8872   -3426.5271   -3849.8872            0    8452.8157    17.009234    20.034631    20.751225    7071.4721    7256.1467    11243.262    6859.0387   -1512.0015    -706.7021   -520.09253   -2554.7868 
 8230000    262.93471   -3866.1187   -3415.4576   -3866.1187            0    8336.3673    17.062156    20.096966     20.81579    7137.6835    10150.481    9982.8923    4875.7283   -130.11151   -122.80612    832.92669   -2547.6769 
 8231000    262.27825    -3890.988    -3441.452    -3890.988            0    7737.2463     16.99782    20.021187    20.737301    7057.2466    9713.9744    6852.6431    6645.1214   -658.96472    1376.6371   -105.64617   -2645.1137 
 8232000    257.74532   -3900.0138   -3458.2472   -3900.0138            0    8613.3352    17.020499    20.047899    20.764969    7085.5317    8319.1592    8826.4603     8694.386    865.50983   -253.23484   -954.24265   -2568.1864 
 8233000    257.90688   -3934.3894   -3492.3459   -3934.3894            0     7621.162    17.042429     20.07373    20.791724    7112.9554    8731.5495    5234.8236    8897.1131    -202.2329    632.27378   -251.56908   -2701.7634 
 8234000    261.97953   -3890.4202   -3441.3963   -3890.4202            0    9744.5065    17.010269    20.035849    20.752488    7072.7629    10958.618    8950.1851    9324.7162    420.60162    765.70372   -95.609561   -2436.2603 
 8235000    252.25864   -3913.6044   -3481.2417   -3913.6044            0    7989.4517    17.013059    20.039136    20.755892    7076.2442    7071.6342    8184.3374    8712.3836    1708.7253   -1162.7984   -793.01385   -2656.7322 
 8236000    251.13645   -3889.4447   -3459.0054   -3889.4447            0    7398.6242    16.985377    20.006531     20.72212    7041.7592    7883.4968    6965.1837    7347.1921    657.04347    304.23277    1108.9189   -2699.1901 
 8237000    263.73679   -3919.6245   -3467.5887   -3919.6245            0    9271.7267    16.976556    19.996141    20.711359    7030.7938    10541.501    7855.4875    9418.1918    -503.5054    992.15889    215.35687   -2516.8944 
 8238000    275.98296   -3925.1557   -3452.1304   -3925.1557            0     8107.864    17.001261     20.02524    20.741499    7061.5335    7366.1788    7610.9786    9346.4347    1490.5279    114.01061    552.60926   -2617.1402 
 8239000    261.31681   -3911.5084   -3463.6203   -3911.5084            0    6169.8441    17.016101     20.04272    20.759604    7080.0411     6788.662    4509.6285    7211.2419    176.73899    -11.68847    1028.0714   -2826.5522 
 8240000    253.88276   -3897.7641   -3462.6178   -3897.7641            0     7629.122    17.004995    20.029638    20.746054     7066.187    7531.8612    7654.0562    7701.4485    708.35897    478.62119    1342.6506   -2676.4132 
 8241000    250.32255   -3885.2652   -3456.2209   -3885.2652            0    8699.8901    16.939542    19.952543    20.666202    6984.9061    7913.2033     10333.15    7853.3168   -768.86405     -565.935    1740.9894   -2569.9832 
 8242000    263.19166   -3876.4242   -3425.3227   -3876.4242            0    7265.6696    16.983657    20.004505    20.720022      7039.62    5798.8258    8491.2057    7506.9771     1692.653   -386.86665    856.02617   -2679.3881 
 8243000    257.79413   -3857.4152   -3415.5649   -3857.4152            0    7481.7608    17.067509    20.103271    20.822321     7144.404    6555.2578    6463.2019    9426.8229   -223.78972    490.08702    268.77205   -2636.0117 
 8244000    269.42924   -3893.9899   -3432.1974   -3893.9899            0    7221.5383    16.927975    19.938919     20.65209    6970.6076    8535.2969    7583.4771    5545.8411    849.32573     780.6115    487.96021   -2698.0619 
 8245000    267.66352   -3884.8232   -3426.0571   -3884.8232            0    7187.5345    16.985024    20.006115     20.72169    7041.3201    6662.3029    7255.8757    7644.4248    -1623.787    1162.9365   -1184.3389   -2687.9661 
 8246000    255.44769   -3880.4692   -3442.6406   -3880.4692            0    8007.3439    16.965752    19.983415    20.698178     7017.379    7630.9607    10475.689    5915.3818      1198.53    1056.5419   -907.09913   -2623.1589 
 8247000    270.48814   -3926.6267   -3463.0193   -3926.6267            0    8179.9887    17.028292    20.057079    20.774477     7095.269     9329.838    7196.8214    8013.3068   -1815.1201   -356.12644   -637.30177   -2616.5768 
 8248000    274.07242   -3896.0651   -3426.3143   -3896.0651            0      6309.59    17.067427    20.103175    20.822221    7144.3015    5294.3439    5624.4716    8009.9544   -944.70647   -979.40195    2059.4216   -2768.9036 
 8249000    250.35299   -3893.9763   -3464.8798   -3893.9763            0    9407.7753      16.9715    19.990186    20.705191    7024.5142    11421.864    9619.8992    7181.5624   -46.964217    1133.1675    297.67192   -2501.0971 
 8250000    270.29807   -3866.2307    -3402.949   -3866.2307            0    8790.5947    16.980611    20.000917    20.716306    7035.8334     8682.909    9073.6076    8615.2674    123.41012    273.27832    155.74069   -2500.9425 
Loop time of 515.289 on 64 procs for 250000 steps with 864 atoms

Performance: 83.837 ns/day, 0.286 hours/ns, 485.165 timesteps/s
99.0% CPU use with 64 MPI tasks x 1 OpenMP threads

MPI task timing breakdown:
Section |  min time  |  avg time  |  max time  |%varavg| %total
---------------------------------------------------------------
Pair    | 21.656     | 26.662     | 31.695     |  48.9 |  5.17
Bond    | 0.27212    | 0.28404    | 0.30194    |   1.2 |  0.06
Kspace  | 220.88     | 232.71     | 244.01     |  30.1 | 45.16
Neigh   | 5.4306     | 6.4691     | 7.6453     |  20.9 |  1.26
Comm    | 109.34     | 118.17     | 128.82     |  40.9 | 22.93
Output  | 1.3447     | 1.3469     | 1.3584     |   0.3 |  0.26
Modify  | 121.96     | 124.33     | 126.29     |   9.2 | 24.13
Other   |            | 5.314      |            |       |  1.03

Nlocal:        13.5000 ave          19 max           7 min
Histogram: 2 0 4 6 9 21 8 8 3 3
Nghost:        2241.97 ave        2271 max        2203 min
Histogram: 1 3 4 7 8 8 12 13 4 4
Neighs:        4384.41 ave        7184 max        2023 min
Histogram: 2 2 5 18 13 12 7 1 3 1

Total # of neighbors = 280602
Ave neighs/atom = 324.77083
Ave special neighs/atom = 2.0000000
Neighbor list builds = 13911
Dangerous builds = 0

unfix		3
unfix		2
unfix		1

write_data	data.final.${pid}
write_data	data.final.0
System init for write_data ...
PPPM initialization ...
  extracting TIP4P info from pair style
  using 12-bit tables for long-range coulomb (../kspace.cpp:340)
  G vector (1/distance) = 0.37423426
  grid = 24 24 24
  stencil order = 5
  estimated absolute RMS force accuracy = 0.0031641235
  estimated relative force accuracy = 9.528664e-06
  using double precision FFTW3
  3d grid and FFT values/proc = 2535 216
Last active /omp style is kspace_style pppm/tip4p/omp
WARNING: Not all mixed pair coeffs generated from mixing. Use write_data with 'pair ij' option to store all pair coeffs. (../write_data.cpp:312)

write_restart   restart.lmp.${pid}
write_restart   restart.lmp.0
System init for write_restart ...
PPPM initialization ...
  extracting TIP4P info from pair style
  using 12-bit tables for long-range coulomb (../kspace.cpp:340)
  G vector (1/distance) = 0.37423426
  grid = 24 24 24
  stencil order = 5
  estimated absolute RMS force accuracy = 0.0031641235
  estimated relative force accuracy = 9.528664e-06
  using double precision FFTW3
  3d grid and FFT values/proc = 2535 216
Last active /omp style is kspace_style pppm/tip4p/omp
Total wall time: 0:08:40
