LAMMPS data file via write_data, version 30 Jul 2021, timestep = 11250000

972 atoms
2 atom types
648 bonds
1 bond types
324 angles
1 angle types

0.08872202388085881 19.911278976125203 xlo xhi
0.06948368532524718 19.930517314676464 ylo yhi
0.07864236963629878 20.62135563037298 zlo zhi

Masses

1 1.008
2 15.999

Pair Coeffs # lj/cut/tip4p/long/omp

1 0 0
2 0.21084 3.1668

Bond Coeffs # harmonic/omp

1 450 0.9572

Angle Coeffs # harmonic/omp

1 55 104.52

Atoms # full

4 2 2 -1.1794 4.318834684611085 1.307747173690488 3.449535960091408 0 0 0
5 2 1 0.5897 4.263853363711427 0.5870717647162372 2.8219739488289535 0 0 0
1 1 2 -1.1794 2.8911107677030503 2.752888628957344 0.2232645233532938 0 0 0
10 4 2 -1.1794 1.2262076218843219 4.16442785150506 3.9909251727349004 0 0 0
11 4 1 0.5897 1.0875619839957391 3.3701526159523203 3.4750597248735398 0 0 0
12 4 1 0.5897 2.1598919584123983 4.15392110651865 4.201477475459327 0 0 0
16 6 2 -1.1794 3.905281606599131 3.9349069510940606 3.839485797300019 0 0 0
18 6 1 0.5897 4.070272838176535 3.040414566930084 3.5414178745232694 0 0 0
23 8 1 0.5897 2.785150607316026 1.0528113596593571 4.52003720834282 0 0 0
31 11 2 -1.1794 0.9046653974493141 2.149399672320526 2.1416891930164685 0 0 0
33 11 1 0.5897 1.6606256054641189 2.4308999898160457 1.626408519848382 0 0 0
17 6 1 0.5897 4.124680326189952 4.483164253174753 3.086129929871598 0 0 0
3 1 1 0.5897 3.8243571608842997 2.650836905190385 0.4099321482405244 0 0 0
102 34 1 0.5897 0.23080539750335255 1.120030947885499 5.173074695615697 1 0 0
236 79 1 0.5897 0.8866618231417743 0.43612409163576565 2.230738250245804 0 1 0
32 11 1 0.5897 0.14823542177414595 2.370094888778267 1.5982354246395722 0 0 0
2 1 1 0.5897 2.770258406114549 3.695907885039924 0.11245052168930414 0 0 0
356 119 1 0.5897 1.593077944871886 2.236895482453467 8.544729577446898 0 0 0
330 110 1 0.5897 4.337360163872632 1.0563947120845054 9.385077488639155 0 0 0
325 109 2 -1.1794 2.779972621463912 2.5961961575161734 7.231766941685576 0 0 0
326 109 1 0.5897 2.58100721042312 1.9696160065869486 6.536020286897744 0 0 0
327 109 1 0.5897 3.734615616469311 2.583534779994934 7.300337139913168 0 0 0
357 119 1 0.5897 0.08950263142053398 2.2120379314681906 8.71924914431117 0 0 0
355 119 2 -1.1794 0.9059314088026398 1.961425636917789 9.151516124656135 0 0 0
27 9 1 0.5897 2.616616986159659 4.368199383507765 6.6983040437287835 0 0 0
328 110 2 -1.1794 4.138323307609953 1.6614193365723773 10.099626472196986 0 0 0
335 112 1 0.5897 1.2498661284502288 3.40738444160754 10.088363821559446 0 0 0
342 114 1 0.5897 4.343370730937043 4.98347623365931 9.958144078354506 0 0 0
22 8 2 -1.1794 2.164551479862955 0.9098743627623914 5.234666051623217 0 0 0
561 187 1 0.5897 0.7936464625541949 0.13919453270564475 8.953169020736077 0 1 0
683 228 1 0.5897 4.532986035813618 2.6899451732705684 14.212687738748008 0 0 0
329 110 1 0.5897 4.749132979700228 1.4198187158113154 10.795907527120633 0 0 0
346 116 2 -1.1794 2.2247283078712 0.4770694011923459 11.711671397899238 0 0 0
347 116 1 0.5897 1.3121030558578568 0.7354485423783689 11.582995099882904 0 0 0
348 116 1 0.5897 2.701590914711653 0.9241506363700362 11.012399033136791 0 0 0
350 117 1 0.5897 2.573717279911719 4.430110292775685 13.345848299642952 0 0 0
649 217 2 -1.1794 2.796532826754715 2.597282348271131 13.551222629098168 0 0 0
650 217 1 0.5897 2.65463246141262 1.8907248924524673 12.921247261951095 0 0 0
651 217 1 0.5897 2.244097139165179 2.3672944082810026 14.298348392316692 0 0 0
334 112 2 -1.1794 1.3325142079751655 4.210154109293862 10.603091295162862 0 0 0
336 112 1 0.5897 2.2749238780571543 4.372302471600862 10.645160391377702 0 0 0
340 114 2 -1.1794 4.095076901790834 4.446109189873891 10.710349886497356 0 0 0
680 227 1 0.5897 0.30058765885102146 2.1984718607422273 15.219449590365807 0 0 0
341 114 1 0.5897 4.068664318145313 3.5524413143839 10.368520779573958 0 0 0
652 218 2 -1.1794 4.2529020899238414 1.4455497259265722 17.165604241421672 0 0 0
653 218 1 0.5897 3.498967847625773 1.0465248739344548 17.599864895841378 0 0 0
654 218 1 0.5897 4.407880456295673 0.8939872534668767 16.39877370084126 0 0 0
658 220 2 -1.1794 1.1368521124896511 4.126954400381947 17.524989993317995 0 0 0
659 220 1 0.5897 0.4207679537742562 4.310469258746084 18.133099869048387 0 0 0
664 222 2 -1.1794 3.8502208387769907 4.116364029971492 17.633094133346646 0 0 0
665 222 1 0.5897 2.9025381911537544 4.104231700169782 17.76709955447935 0 0 0
666 222 1 0.5897 4.065075427161588 3.2252134677476283 17.357646948627853 0 0 0
670 224 2 -1.1794 2.115187431555712 0.8823390931358976 18.824290796933322 0 0 0
671 224 1 0.5897 2.1660760261084056 1.6201246128916054 19.431995118891265 0 0 0
672 224 1 0.5897 1.1775355415181472 0.7529194129358378 18.681931630094308 0 0 0
681 227 1 0.5897 1.1282128834473542 2.571136964531298 16.431127298646544 0 0 0
679 227 2 -1.1794 1.0439449944042272 1.9067401665934745 15.747229042108724 0 0 0
884 295 1 0.5897 1.0459273220554213 0.1312146197238418 15.500157029554165 0 1 0
660 220 1 0.5897 1.012952044777582 4.753634900818683 16.81212956668728 0 0 0
110 37 1 0.5897 2.1644661275313712 9.15879625555637 0.4588453415976693 0 0 0
141 47 1 0.5897 1.0439520214736246 8.040802512734196 2.225769559491846 0 0 0
139 47 2 -1.1794 0.9453712327573013 8.936145132529512 1.9020143144275496 0 0 0
114 38 1 0.5897 3.206723396764813 7.642053358056615 3.6841837499569268 0 0 0
13 5 2 -1.1794 4.68839636695129 5.6577773974342405 1.8257756604443134 0 0 0
14 5 1 0.5897 4.052757130224331 5.674280336218708 1.1102647818904547 0 0 0
15 5 1 0.5897 4.551328837804979 6.484833751488423 2.287710226209241 0 0 0
19 7 2 -1.1794 0.7904493852547048 6.040003534578868 2.1105212825062325 0 0 0
140 47 1 0.5897 1.056304802551511 9.485464843631284 2.6780298162363736 0 0 0
112 38 2 -1.1794 3.990897553829983 7.822084439671618 3.165645564535914 0 0 0
113 38 1 0.5897 4.718567143330648 7.6469369545532855 3.7623566288167916 0 0 0
126 42 1 0.5897 4.00226085410887 9.69269062774177 3.2622697380893757 0 0 0
674 225 1 0.5897 1.9581173045870193 5.614229752287951 0.6995557057087028 0 0 1
20 7 1 0.5897 0.9294919036534457 5.4477117649668925 2.849521785894754 0 0 0
130 44 2 -1.1794 2.0666903109939287 7.416358563537314 5.1362858851030975 0 0 0
132 44 1 0.5897 1.1171932171604169 7.489983719342759 5.040226048565192 0 0 0
339 113 1 0.5897 4.195640645095622 5.7407864019520165 7.652454585911364 0 0 0
464 155 1 0.5897 1.6061204017575565 8.824915459168766 8.364220894389994 0 0 0
337 113 2 -1.1794 4.64868613089692 5.909605247468741 8.478612237423782 0 0 0
437 146 1 0.5897 4.2071384227017425 7.838504839775857 9.427766395391243 0 0 0
468 156 1 0.5897 4.741802287443498 9.016265824338092 7.284003064261779 0 0 0
435 145 1 0.5897 2.684501816490462 8.481541943905965 6.373737056167261 0 0 0
433 145 2 -1.1794 2.8421241605751115 9.042144499251119 7.133429904396738 0 0 0
463 155 2 -1.1794 0.8704522820919479 8.771672217621756 8.974308211809177 0 0 0
345 115 1 0.5897 0.8367709077030319 6.938889781884172 8.876049521725228 0 0 0
25 9 2 -1.1794 2.62575005760977 5.325044492367414 6.6751967924740745 0 0 0
343 115 2 -1.1794 0.8018155314172583 6.019177169844118 8.613226890436511 0 0 0
438 146 1 0.5897 4.4197374468281945 9.21747951638545 10.01515227782765 0 0 0
26 9 1 0.5897 2.124452644372676 5.588523295772429 7.446916899300627 0 0 0
344 115 1 0.5897 0.9690576094595329 5.532473671032307 9.420323813217038 0 0 0
131 44 1 0.5897 2.205671364698953 6.532508708041972 5.476393516224022 0 0 0
434 145 1 0.5897 2.6679164703425617 9.928763451554621 6.8176111504537396 0 0 0
436 146 2 -1.1794 4.124119065345002 8.335692250030656 10.241518303779609 0 0 0
465 155 1 0.5897 0.09428438700447472 8.875920619550655 8.423913018439466 0 0 0
757 253 2 -1.1794 2.733791336430677 9.365563374348419 14.442494156409817 0 0 0
668 223 1 0.5897 1.4050526449146918 5.941296600738288 14.822736760211681 0 0 0
351 117 1 0.5897 3.196198317472817 5.498572700296349 14.219222558329472 0 0 0
533 178 1 0.5897 0.4621942917006633 7.527288201928431 12.156856946176497 1 0 0
792 264 1 0.5897 4.6504980355928 9.25845885199271 14.505078213138566 0 0 0
454 152 2 -1.1794 2.236597510072184 7.717640114580819 12.220315122373147 0 0 0
455 152 1 0.5897 2.7368617313517203 7.968381763649333 11.443693933912886 0 0 0
456 152 1 0.5897 2.483784797201123 6.807072342456731 12.381353125278515 0 0 0
759 253 1 0.5897 2.5302456859076172 8.745997678120968 13.741807980510263 0 0 0
349 117 2 -1.1794 2.5813362443489867 5.375389388904821 13.496004963370147 0 0 0
443 148 1 0.5897 1.0524352508862997 9.934758904638002 10.399663608392212 0 0 0
787 263 2 -1.1794 0.6854398984719098 8.821085488371084 16.25178603630704 0 0 0
788 263 1 0.5897 0.7524976630827406 9.553622373887551 16.86425059066376 0 0 0
858 286 1 0.5897 0.18563567772394046 7.5269062605561725 18.470917169989253 1 0 0
779 260 1 0.5897 2.3235044561546787 7.949178109437288 19.032080284895628 0 0 0
780 260 1 0.5897 2.782828102064986 7.331721009971975 17.72831544988389 0 0 0
675 225 1 0.5897 2.5394920397205833 6.060077210990196 19.917405899531218 0 0 0
760 254 2 -1.1794 4.316761779369924 8.157993956964363 16.976950454035027 0 0 0
761 254 1 0.5897 4.241365320272264 9.084332140670142 17.205815430499065 0 0 0
778 260 2 -1.1794 2.1746612850384635 7.199672507146337 18.455615704974445 0 0 0
669 223 1 0.5897 0.9454047411658641 6.884947283159896 15.913698799089294 0 0 0
662 221 1 0.5897 4.1802212831443395 5.242999323870127 16.272493831699766 0 0 0
663 221 1 0.5897 4.199693305221079 6.726275325597095 15.970404065530905 0 0 0
667 223 2 -1.1794 0.7515692929026613 6.036285392565298 15.515705397643284 0 0 0
762 254 1 0.5897 4.9612224442642034 7.810201559774512 17.59334950925851 0 0 0
673 225 2 -1.1794 2.628888935525889 5.391629401708978 20.596694914793364 0 0 0
661 221 2 -1.1794 4.244798956259984 5.867548186527771 15.549987059469911 0 0 0
111 37 1 0.5897 3.6096600889611783 9.1720758012623 20.55091348335749 0 0 -1
109 37 2 -1.1794 2.713064599204666 9.224685931243437 20.219906294820365 0 0 -1
789 263 1 0.5897 1.3831611407290785 8.9759348459991 15.615029345918215 0 0 0
222 74 1 0.5897 4.121651641125038 13.888762309700715 2.65251377672091 0 0 0
118 40 2 -1.1794 1.2328055566084866 10.797621179511495 3.792430712974329 0 0 0
119 40 1 0.5897 2.1793103702350023 10.713078384150567 3.9072625315300638 0 0 0
120 40 1 0.5897 1.128597254917247 11.540464788357465 3.1978276264659256 0 0 0
125 42 1 0.5897 4.545854833452634 10.75479764899644 4.194106911790147 0 0 0
123 41 1 0.5897 4.386770560522422 12.390218238336962 0.8805395996838256 0 0 0
124 42 2 -1.1794 3.8686944324177306 10.600277698300044 3.5354434331438402 0 0 0
240 80 1 0.5897 2.517416828273848 14.013756844103609 4.473585321210722 0 0 0
127 43 2 -1.1794 0.9151878631738624 12.77773866582118 1.7683117560811157 0 0 0
129 43 1 0.5897 1.0285846783902846 13.674561626956097 2.0829983604493325 0 0 0
220 74 2 -1.1794 3.9214414069029586 14.382029366191018 3.448046036065517 0 0 0
783 261 1 0.5897 2.1128933411473048 12.291432863668996 0.47956343824924375 0 0 1
122 41 1 0.5897 4.496565526698594 11.74583174070439 2.246101188639848 0 0 0
238 80 2 -1.1794 1.829445706813806 13.820441094042144 5.1104305806617765 0 0 0
121 41 2 -1.1794 4.857983492640536 12.45272379952938 1.7114079554940815 0 0 0
133 45 2 -1.1794 2.701905833052298 11.779295863862975 6.938965934109829 0 0 0
134 45 1 0.5897 2.0363889132902253 11.960435893360364 7.602693501382609 0 0 0
135 45 1 0.5897 3.5049358311878014 12.160386991478212 7.294106744963989 0 0 0
239 80 1 0.5897 2.1391232900744326 13.03914773179424 5.5685639124919 0 0 0
445 149 2 -1.1794 4.829734750794208 12.730128075145613 8.357195061910415 0 0 0
446 149 1 0.5897 4.69118498308153 13.584097529961756 8.766729775148121 0 0 0
450 150 1 0.5897 4.179861362251577 11.72134718477299 9.609679305225912 0 0 0
451 151 2 -1.1794 0.7599239937834682 12.338521186979326 8.66881765610927 0 0 0
453 151 1 0.5897 0.9586379035182327 11.808552439006034 9.440764293101674 0 0 0
573 191 1 0.5897 0.8671187691721348 14.092472224279197 8.960632499294114 0 0 0
544 182 2 -1.1794 4.161864226961915 14.96258192572839 9.99030095588863 0 0 0
448 150 2 -1.1794 3.9543450930413186 11.09705583617958 10.299356492225444 0 0 0
449 150 1 0.5897 4.544839968098838 11.313035572297212 11.021116389802645 0 0 0
442 148 2 -1.1794 1.2311719312511307 10.744848885459804 10.877169829050295 0 0 0
457 153 2 -1.1794 2.871016991099176 11.98696070762143 13.316031131722637 0 0 0
458 153 1 0.5897 2.1191327065959555 12.236765867070124 13.853157337956047 0 0 0
459 153 1 0.5897 3.62644601277608 12.354039681431361 13.77516851507209 0 0 0
642 214 1 0.5897 0.4165473120816721 13.829916997127716 11.739077439894169 1 0 0
545 182 1 0.5897 3.3790813031455387 14.622182071054196 10.423420279615595 0 0 0
562 188 2 -1.1794 2.1419869772249496 14.05308133545118 11.686746022590858 0 0 0
563 188 1 0.5897 2.2946394487430957 13.236182464945458 12.161697223568924 0 0 0
758 253 1 0.5897 2.766688479421904 10.217498508667953 14.007379364583665 0 0 0
769 257 2 -1.1794 4.599638668649706 12.594864769826968 15.350578943531431 0 0 0
444 148 1 0.5897 2.184693419880716 10.827097620949928 10.86177771715595 0 0 0
564 188 1 0.5897 2.267971665167244 14.73896227790348 12.342438745719537 0 0 0
546 182 1 0.5897 4.875472419534159 14.77030097187046 10.598613835035907 0 0 0
775 259 2 -1.1794 0.9786496891496149 12.7031336532528 15.043187694240917 0 0 0
512 171 1 0.5897 0.24029467385677705 10.943555856981334 12.375409662116162 1 0 0
777 259 1 0.5897 1.0882252942672397 13.625734333221684 15.273319144867273 0 0 0
766 256 2 -1.1794 1.4397663531790192 11.189060151830564 17.47008832246453 0 0 0
965 322 1 0.5897 0.5564682257876837 14.307678930299348 18.85189744373398 1 0 0
768 256 1 0.5897 1.3574539754947053 11.802673843618745 16.74004546699676 0 0 0
772 258 2 -1.1794 4.0359356852640005 10.794749828713925 17.327087331002687 0 0 0
773 258 1 0.5897 3.103766555304592 10.837143868035902 17.54033178141315 0 0 0
774 258 1 0.5897 4.121334560474094 11.304919428568386 16.521660023748964 0 0 0
767 256 1 0.5897 0.715656795028839 11.413001558233175 18.054690332937092 0 0 0
868 290 2 -1.1794 4.330662158400645 14.681387454676315 17.008179578743068 0 0 0
869 290 1 0.5897 3.5645794794642005 14.556791743028265 17.568382315703005 0 0 0
886 296 2 -1.1794 2.3940062133880065 14.321830234711083 18.92478098789998 0 0 0
888 296 1 0.5897 2.590379099829214 13.516744033523317 19.403823714208862 0 0 0
781 261 2 -1.1794 2.815274776048507 12.084656624303591 20.405709032508774 0 0 0
782 261 1 0.5897 2.6812416205693697 11.161808600895235 20.189937608404577 0 0 0
771 257 1 0.5897 4.371869676363596 13.312542393302131 15.94158761231801 0 0 0
249 83 1 0.5897 1.6248676016890327 15.711900487575786 1.7291318852673476 0 0 0
248 83 1 0.5897 1.0608395222721274 16.053745274021487 3.0918634258435707 0 0 0
247 83 2 -1.1794 0.9402858940001377 15.461556713287838 2.349556253467211 0 0 0
235 79 2 -1.1794 0.7670167523704404 19.35612664416101 2.1030091204106145 0 0 0
226 76 2 -1.1794 1.646892272827451 17.524005224968953 4.02053976671253 0 0 0
227 76 1 0.5897 1.397656847879827 18.17741418447104 3.3669642337882206 0 0 0
228 76 1 0.5897 0.9870641853973949 17.60906218393002 4.708765710804503 0 0 0
229 77 2 -1.1794 4.65738309845628 19.00126932442368 1.8564036613426604 0 0 0
230 77 1 0.5897 3.9339446543100567 18.88462902530133 1.2405450900457995 0 0 0
232 78 2 -1.1794 4.3299183253314855 17.074003539083634 3.7007769352591566 0 0 0
233 78 1 0.5897 4.477695997281005 17.677789256980645 2.972861080792368 0 0 0
234 78 1 0.5897 3.4017187255500985 17.17493208997736 3.911656111870664 0 0 0
221 74 1 0.5897 4.181759743105359 15.280501923519711 3.245170443780771 0 0 0
890 297 1 0.5897 1.820650465195911 19.034573558775826 0.7230043346360242 0 0 1
217 73 2 -1.1794 2.8787013996904354 16.12265629610374 0.42827072502432956 0 0 0
219 73 1 0.5897 3.814887038368031 16.025033118471864 0.6021175507269512 0 0 0
889 297 2 -1.1794 2.4926902451201816 18.76232527743594 0.09811155501007802 0 0 1
218 73 1 0.5897 2.7787392955128714 17.03533831380723 0.15771702708014046 0 0 0
571 191 2 -1.1794 0.9170673127703644 15.037329782587268 8.816012546640911 0 0 0
576 192 1 0.5897 4.508724684049739 15.616853284080578 7.1151320114137 0 0 0
559 187 2 -1.1794 0.767615698333582 19.053340501417303 8.815710859652805 0 0 0
241 81 2 -1.1794 2.5561461153509977 18.397256448192977 6.8313670020633 0 0 0
242 81 1 0.5897 2.513893872802027 17.45092097696773 6.694180720555432 0 0 0
243 81 1 0.5897 1.9390173191960007 18.564277094634363 7.543775919211511 0 0 0
541 181 2 -1.1794 2.6922084878019334 15.729989680964534 6.957484645488512 0 0 0
542 181 1 0.5897 2.1906239815663255 15.59739312864803 7.761923019701814 0 0 0
553 185 2 -1.1794 4.6882288144343205 19.435357234465727 8.415090499017863 0 0 0
543 181 1 0.5897 2.2860444591661686 15.141076087043317 6.321521838241607 0 0 0
555 185 1 0.5897 4.14061690478103 19.054703939450697 7.728441528517574 0 0 0
572 191 1 0.5897 0.9073193520107612 15.415521788072711 9.69531340827002 0 0 0
558 186 1 0.5897 4.1827648511383515 18.347563601529664 10.131266530505206 0 0 0
551 184 1 0.5897 1.0009300040078455 17.94639617297146 10.219629578487588 0 0 0
24 8 1 0.5897 2.338059903917596 19.876432006734966 5.527896764605993 0 -1 0
885 295 1 0.5897 1.7906141343094415 18.88421054823447 14.786355611124437 0 0 0
866 289 1 0.5897 3.5873550054795706 15.81212404900519 13.998599505741405 0 0 0
879 293 1 0.5897 4.216115586495131 19.008104662864056 14.750101151491137 0 0 0
867 289 1 0.5897 2.1675558050239765 15.632533208483528 14.492308312357643 0 0 0
550 184 2 -1.1794 1.28858539262613 17.30387890963725 10.868219200133082 0 0 0
552 184 1 0.5897 2.2254433250850827 17.47045319792315 10.971914248002552 0 0 0
565 189 2 -1.1794 2.9758343247374106 18.521957438768148 13.577148905491907 0 0 0
566 189 1 0.5897 2.7479838561964467 17.60360092224098 13.43266654073293 0 0 0
567 189 1 0.5897 2.751832307848976 18.957060116953002 12.754475260096884 0 0 0
865 289 2 -1.1794 2.67539236705686 15.84819060757795 13.710090566625361 0 0 0
556 186 2 -1.1794 3.9383681308492475 17.71744334123038 10.809107342147067 0 0 0
557 186 1 0.5897 4.119953764816871 16.86257444437412 10.418693833374588 0 0 0
877 293 2 -1.1794 4.871322264981511 19.04823362522918 15.446779620910064 0 0 0
883 295 2 -1.1794 1.041950505629334 19.045317843919648 15.360625061191147 0 0 0
896 299 1 0.5897 0.23258412759632918 15.688716023732557 15.28168789496912 0 0 0
881 294 1 0.5897 3.0960304935905074 17.478376313500917 17.550751628170897 0 0 0
897 299 1 0.5897 0.9897648987310953 16.05199943204522 16.541344939220636 0 0 0
887 296 1 0.5897 2.5374436808829945 15.02135264261431 19.562222328563053 0 0 0
882 294 1 0.5897 4.162922988150032 16.540523496414814 17.02729614524967 0 0 0
880 294 2 -1.1794 4.038898892624024 17.413834646020966 17.398961197875128 0 0 0
874 292 2 -1.1794 1.2673697927980168 17.407173073733524 17.575924002951655 0 0 0
875 292 1 0.5897 0.6195366128929377 17.619754432793286 18.247775774060386 0 0 0
876 292 1 0.5897 1.0804416360851627 18.01574592585513 16.861115185170586 0 0 0
891 297 1 0.5897 2.465530670905653 19.428260939883344 19.953797808559525 0 0 0
895 299 2 -1.1794 0.9379518219134738 15.387463144586297 15.8543553433514 0 0 0
878 293 1 0.5897 4.596174636665459 18.379449552779583 16.07387869062454 0 0 0
873 291 1 0.5897 4.976142640939329 17.705296134154715 18.799381731235368 0 0 0
69 23 1 0.5897 6.808083513744559 2.0275034189280277 1.665023000972035 0 0 0
36 12 1 0.5897 5.717729968509078 3.35385864106457 0.19565913236180826 0 0 0
68 23 1 0.5897 8.311115241106306 2.1745436876185087 1.5597007832731564 0 0 0
67 23 2 -1.1794 7.618674663424097 1.884880716661885 2.1537275089829464 0 0 0
46 16 2 -1.1794 8.249111918763658 3.8436372995009784 3.8287796747710865 0 0 0
47 16 1 0.5897 7.951038201249466 3.0306658556079564 3.420831573798271 0 0 0
48 16 1 0.5897 7.508601492295756 4.129206813173353 4.363876939026638 0 0 0
41 14 1 0.5897 9.89601627477003 1.2999198081874488 3.3993455717299246 0 0 0
34 12 2 -1.1794 5.557879093855661 2.4884818739819967 0.5721742359860336 0 0 0
273 91 1 0.5897 7.653701991745336 0.09868076004943625 1.9963162694356857 0 1 0
58 20 2 -1.1794 8.935118440816275 1.0816554960917277 4.950819172714853 0 0 0
9 3 1 0.5897 5.1783934786390535 4.354920995297737 4.899207718453394 0 0 0
29 10 1 0.5897 7.1203532094058914 0.8664718693544144 5.153203901858604 0 0 0
53 18 1 0.5897 9.968160894568854 4.0078705760288695 3.678107872391862 0 0 0
6 2 1 0.5897 5.089584431824327 1.105816516695584 3.9800171658142816 0 0 0
8 3 1 0.5897 5.849989284299795 3.9960873129991126 6.207735375046214 0 0 0
391 131 2 -1.1794 7.4149899913860695 2.176813659077137 9.151930804532633 0 0 0
393 131 1 0.5897 7.384867837809975 1.22030985373019 9.132897979547627 0 0 0
7 3 2 -1.1794 5.869188051965474 4.638270072690378 5.498169954180302 0 0 0
361 121 2 -1.1794 9.311344172569573 2.78794704671772 7.2259672151008045 0 0 0
392 131 1 0.5897 8.044862932066629 2.4106888245177926 8.470148904748546 0 0 0
362 121 1 0.5897 9.084368327279371 3.624406942506978 6.819747320098182 0 0 0
358 120 2 -1.1794 5.494711145829187 2.6549380826521913 7.295608152670743 0 0 0
359 120 1 0.5897 6.0112199748003885 2.406717900813802 8.062339756515415 0 0 0
360 120 1 0.5897 5.580316556788879 1.9122680240386498 6.6978279013870194 0 0 0
59 20 1 0.5897 9.02521930426142 1.7025971325042233 5.673708554777087 0 0 0
28 10 2 -1.1794 6.202048770691863 0.6828815464066413 5.35124912283024 0 0 0
60 20 1 0.5897 9.184397497788192 0.23757729938893146 5.3271003430587385 0 0 0
371 124 1 0.5897 7.471001657827903 3.528392767461221 10.348345358656475 0 0 0
352 118 2 -1.1794 5.800344336643653 1.1355063341392406 12.124288806944818 0 0 0
353 118 1 0.5897 6.73979444356073 1.0634985011626288 11.955599853174855 0 0 0
354 118 1 0.5897 5.734862457911369 1.7404864061542162 12.863186723595044 0 0 0
386 129 1 0.5897 9.077199983658247 4.3488574722369355 13.777932600139348 0 0 0
372 124 1 0.5897 7.1587753264674285 4.509839569939404 11.457951125117846 0 0 0
685 229 2 -1.1794 9.310315801915458 2.325800973908158 13.963709855766195 0 0 0
382 128 2 -1.1794 8.52069110596382 0.9198115057485797 11.848099785677782 0 0 0
383 128 1 0.5897 8.850442032536648 1.404074531412046 12.605075624480406 0 0 0
384 128 1 0.5897 9.14513210152195 1.1131563546565069 11.148844003617736 0 0 0
682 228 2 -1.1794 5.422358290248757 2.9992100235757864 14.384672328537983 0 0 0
686 229 1 0.5897 8.772974709881337 2.2308677451917807 14.750172443364024 0 0 0
377 126 1 0.5897 9.562541818347167 4.359369449486991 10.381359174004045 0 0 0
684 228 1 0.5897 5.499811603796027 3.804052237362509 13.872380363187776 0 0 0
370 124 2 -1.1794 7.7555765515773825 4.361317693781905 10.724438399573105 0 0 0
332 111 1 0.5897 5.163437064247021 4.842930647120548 12.125835958071026 0 0 0
657 219 1 0.5897 6.714633490110257 4.5571691750373375 18.915968774901724 0 0 0
38 13 1 0.5897 9.232191694286744 1.9662736355861998 19.87535409403534 0 0 -1
717 239 1 0.5897 6.698572656883682 2.531235117186577 15.518622467576673 0 0 0
677 226 1 0.5897 5.526778895385489 1.0347469006229904 18.247149831979407 0 0 0
676 226 2 -1.1794 6.094276087627887 0.8281482744828554 18.989807358554575 0 0 0
35 12 1 0.5897 5.723570227057053 1.879404979589091 20.39528259149125 0 0 -1
694 232 2 -1.1794 8.020303989887879 4.404627060748784 17.787278525382252 0 0 0
695 232 1 0.5897 7.791773138822729 3.558015077720393 17.403589258260396 0 0 0
716 239 1 0.5897 7.377732623585988 1.2601384893546985 15.982136490972339 0 0 0
706 236 2 -1.1794 8.792868929988312 0.7265606252844881 18.662594251703535 0 0 0
708 236 1 0.5897 7.8359698849580495 0.7055893785981184 18.67256120772935 0 0 0
710 237 1 0.5897 9.327631197154371 4.300448671431871 20.29199422211144 0 0 0
715 239 2 -1.1794 7.444950664257451 2.213887345711235 16.026995353483144 0 0 0
655 219 2 -1.1794 5.897193375391896 4.625366591624665 19.40930368845104 0 0 0
656 219 1 0.5897 5.229072603212016 4.28376592353531 18.81502133810071 0 0 0
702 234 1 0.5897 9.899826330444176 4.382567088354648 17.732691735468197 0 0 0
37 13 2 -1.1794 9.371463336898914 2.5702259749048557 20.604805888844638 0 0 -1
689 230 1 0.5897 9.91459205592809 1.1700522536251268 17.359146097624073 0 0 0
143 48 1 0.5897 6.155766100438187 9.186422295124776 1.0552732293731157 0 0 0
176 59 1 0.5897 7.544976794915467 7.623648906662653 2.167369397686831 0 0 0
142 48 2 -1.1794 5.478659252728439 9.209490669207215 0.37906950920642757 0 0 0
711 237 1 0.5897 8.688327164631371 5.514432361419889 0.3890937435150591 0 0 1
175 59 2 -1.1794 7.578523663755837 8.576690453362124 2.085196937714741 0 0 0
55 19 2 -1.1794 7.552537541327355 5.856401434884973 1.7058098649662445 0 0 0
56 19 1 0.5897 6.604753395938288 5.744461727927787 1.6325746639090337 0 0 0
177 59 1 0.5897 8.298907888872979 8.73986487036892 1.4763670853939288 0 0 0
57 19 1 0.5897 7.808998009709958 5.27098609353082 2.4183902335841574 0 0 0
166 56 2 -1.1794 8.79596630859935 7.52972157522573 4.887277795434266 0 0 0
138 46 1 0.5897 6.900840748620415 7.468796398043203 4.782372464719291 0 0 0
136 46 2 -1.1794 5.994131528530359 7.313608884659022 5.046956917311984 0 0 0
155 52 1 0.5897 7.847677295183212 9.84419611070083 3.529730245913649 0 0 0
338 113 1 0.5897 5.578341035332183 5.845225048059934 8.259983777869339 0 0 0
501 167 1 0.5897 7.029387854487228 8.782496933429988 8.571283465046127 0 0 0
380 127 1 0.5897 7.607393456498015 6.732556725684314 8.62960064063519 0 0 0
467 156 1 0.5897 5.840866688213327 8.333197848108519 6.498281828046859 0 0 0
499 167 2 -1.1794 7.877139346045456 8.610776658686783 8.981231022426712 0 0 0
466 156 2 -1.1794 5.685121135815826 8.854013498258038 7.286168080937169 0 0 0
62 21 1 0.5897 8.473308396611195 5.621146439621003 7.1855967067979964 0 0 0
469 157 2 -1.1794 9.343346600924535 9.3436368211756 6.828464640380112 0 0 0
500 167 1 0.5897 7.911712377406911 9.214642150152775 9.723130167872633 0 0 0
470 157 1 0.5897 8.886710988236205 9.172163949652521 7.652095339705493 0 0 0
381 127 1 0.5897 7.512461210866074 5.341422540289954 9.219115425677506 0 0 0
168 56 1 0.5897 8.987919526535388 8.278542424352587 5.451761191152457 0 0 0
379 127 2 -1.1794 7.396126819216406 5.827045766935086 8.402463826687702 0 0 0
61 21 2 -1.1794 9.170903038048221 5.495664986340162 6.542276941602445 0 0 0
167 56 1 0.5897 9.058920961711037 6.767159955908002 5.4026021250351 0 0 0
63 21 1 0.5897 9.980055448729892 5.617587662951871 7.03890708421586 0 0 0
137 46 1 0.5897 5.9824294697014775 6.4027398145360745 5.34082700670996 0 0 0
791 264 1 0.5897 6.095511594156495 9.245811209173244 14.956336230644363 0 0 0
794 265 1 0.5897 9.056353210536178 8.28706322184274 13.478230295231844 0 0 0
491 164 1 0.5897 9.366929367965556 7.479006037298977 11.34212726335883 0 0 0
790 264 2 -1.1794 5.533729031337316 9.49602693150103 14.222806197074624 0 0 0
333 111 1 0.5897 6.002719158046104 6.011149038781992 12.59769647261679 0 0 0
793 265 2 -1.1794 9.33365776923138 8.857566985787704 14.195074224925802 0 0 0
462 154 1 0.5897 5.381751372506801 7.958689937651977 11.400936897935608 0 0 0
387 129 1 0.5897 8.979238776562065 5.764791176510426 13.25132121411064 0 0 0
460 154 2 -1.1794 5.985622508391691 7.708306227181278 12.100160910866324 0 0 0
461 154 1 0.5897 5.838431506445678 8.357211627221183 12.788270881124172 0 0 0
492 164 1 0.5897 7.908662875409929 7.419200247630516 11.744284007241324 0 0 0
490 164 2 -1.1794 8.786777593900046 7.184148683104107 12.044083991344786 0 0 0
385 129 2 -1.1794 8.96155427678304 5.25565167836148 14.06171833250833 0 0 0
705 235 1 0.5897 7.555158847384793 5.699465361596233 15.091888965531735 0 0 0
331 111 2 -1.1794 5.912964519949851 5.061723119005643 12.67953080168323 0 0 0
795 265 1 0.5897 9.133824517529861 9.742118502889717 13.888784005383329 0 0 0
814 272 2 -1.1794 8.593851025144978 7.295382764328812 18.7197776024233 0 0 0
786 262 1 0.5897 6.922320885536118 7.396293731505577 18.882127362500217 0 0 0
815 272 1 0.5897 8.835157503617312 6.478165592440534 19.15581411662573 0 0 0
825 275 1 0.5897 7.167827908316091 7.774542350038517 16.052894328835684 0 0 0
785 262 1 0.5897 5.841897020798751 6.394677670158491 19.23033078411255 0 0 0
703 235 2 -1.1794 7.038779894716658 6.072595008741171 15.80629457198691 0 0 0
816 272 1 0.5897 8.805144485559532 7.978385458992576 19.356243031653314 0 0 0
823 275 2 -1.1794 7.385647033077711 8.70659277075979 16.05037259238128 0 0 0
784 262 2 -1.1794 5.993917026113044 7.331468228902748 19.105898161183095 0 0 0
144 48 1 0.5897 5.678684425500363 8.463568984042135 20.356265638032745 0 0 -1
704 235 1 0.5897 6.129151768200314 5.943052669923462 15.537967529046012 0 0 0
145 49 2 -1.1794 9.389643889622299 9.212222608499973 20.49866217944843 0 0 -1
709 237 2 -1.1794 9.354954691022007 5.2572206202524026 20.294857773004477 0 0 0
696 232 1 0.5897 7.724782430695851 5.047729976317874 17.142823119595896 0 0 0
797 266 1 0.5897 9.936441298609958 7.559472086355743 17.798642234491165 0 0 0
824 275 1 0.5897 8.186818637912536 8.76440658215348 15.529775724388454 0 0 0
154 52 2 -1.1794 8.085574204637426 10.61913743167381 4.038731786137945 0 0 0
819 273 1 0.5897 8.532397762828204 12.295144257501608 0.5812853935483193 0 0 1
156 52 1 0.5897 9.038600215975908 10.670735497237569 3.966035007125544 0 0 0
163 55 2 -1.1794 7.596817919270653 12.496708725277196 2.0125439803846574 0 0 0
164 55 1 0.5897 6.640902885122887 12.541540492832588 1.991971409129698 0 0 0
165 55 1 0.5897 7.791248038711464 11.812530756381014 2.6531209177106874 0 0 0
276 92 1 0.5897 9.496375088362603 14.158157369643448 4.535147873531253 0 0 0
285 95 1 0.5897 7.811914624643136 14.291781201470762 2.212508250295078 0 0 0
246 82 1 0.5897 5.400372306014216 13.927810586641614 4.451573334345193 0 0 0
275 92 1 0.5897 8.039983837361733 14.017501395168734 4.9237210612333895 0 0 0
244 82 2 -1.1794 6.090078014204068 13.789789809061764 5.100815407039456 0 0 0
169 57 2 -1.1794 9.430643032649956 12.100520486899907 7.1375930249564545 0 0 0
170 57 1 0.5897 9.277206938558841 12.691560334905413 6.400460643733151 0 0 0