LAMMPS data file via write_data, version 30 Jul 2021, timestep = 9000000

1296 atoms
2 atom types
864 bonds
1 bond types
432 angles
1 angle types

-10.64099763773178 12.620997637731781 xlo xhi
-9.17778200755721 12.16778000755721 ylo yhi
0.15588512789838305 21.70411387211069 zlo zhi
-9.034460722846397 1.7922726881135351 2.666712872513878 xy xz yz

Masses

1 1.008
2 15.999

Pair Coeffs # lj/cut/tip4p/long/omp

1 0 0
2 0.21084 3.1668

Bond Coeffs # harmonic/omp

1 450 0.9572

Angle Coeffs # harmonic/omp

1 55 104.52

Atoms # full

323 108 1 0.5897 -6.296020602017299 -5.803468702173586 3.5947681634427484 1 1 0
298 100 2 -1.1794 -6.127823968307781 -7.497094802327332 4.223583045249529 1 1 0
280 94 2 -1.1794 -9.694882283222947 -4.689322250460393 1.919667981394642 1 1 0
299 100 1 0.5897 -6.704446921510501 -8.26065741753433 4.1948408052107045 1 1 0
270 90 1 0.5897 -8.443822290724837 -7.5950047849631925 2.2308620349858517 1 1 0
163 55 2 -1.1794 -7.2579979969937956 -7.980973619927406 0.8793307976225869 1 1 0
164 55 1 0.5897 -6.470271627594114 -8.373194428606514 1.2559099236208864 1 1 0
269 90 1 0.5897 -9.235001214672346 -6.34485694722968 2.552320181683767 1 1 0
268 90 2 -1.1794 -9.063715295633358 -7.233537033800873 2.8642560734421316 1 1 0
300 100 1 0.5897 -5.24536223293018 -7.859968932991259 4.147743357802186 1 1 0
324 108 1 0.5897 -7.135298567436669 -4.5453069775793535 3.6643770375295057 1 1 0
73 25 2 -1.1794 -8.556986338788391 -4.026263397835592 4.832756562233692 1 0 0
314 105 1 0.5897 -8.940950761197929 -7.0102974080775855 4.696164081370557 1 1 0
282 94 1 0.5897 -10.55331490897334 -4.267186930060835 1.8867772698545175 1 1 0
1226 409 1 0.5897 -9.706253155181914 -5.5845162005940825 0.3197532412597546 0 0 1
1141 381 2 -1.1794 -10.449445030989743 -8.735914718711307 0.25231761813365355 0 0 1
275 92 1 0.5897 -10.52233511334259 -8.09534956891219 3.4020757508169797 1 1 0
261 87 1 0.5897 -6.719297421434549 -5.052234196273756 1.3204011871866526 1 1 0
75 25 1 0.5897 -9.242146103208913 -3.5983387225179815 4.319337382758848 1 0 0
259 87 2 -1.1794 -6.871181236755124 -5.317349282212733 0.41337717956327646 1 1 0
260 87 1 0.5897 -6.906194655115902 -6.27349385636399 0.44536382265134994 1 1 0
281 94 1 0.5897 -9.072331209800792 -3.979467044115255 1.7620391757969283 1 1 0
322 108 2 -1.1794 -6.396466100396555 -4.937563223237603 3.1991811724393884 1 1 0
165 55 1 0.5897 -7.561558592206584 -8.622242099769906 0.23678843366124636 1 1 0
429 143 1 0.5897 -6.380675299990164 -7.337612520323085 8.545839636775334 1 0 0
428 143 1 0.5897 -6.536594472424168 -7.151580298774002 10.039975264701237 1 0 0
427 143 2 -1.1794 -5.967033871351047 -6.9260845096851735 9.304565961730772 1 0 0
419 140 1 0.5897 -8.87949029618325 -5.611601478296751 8.98430774251803 1 0 0
418 140 2 -1.1794 -9.566478530665082 -6.1757236980481975 9.339335541204314 1 0 0
413 138 1 0.5897 -7.6720465360188355 -3.7105134351355344 7.815420848061404 1 0 0
627 209 1 0.5897 -10.503307829567364 -7.043092867827462 6.498611667930943 1 1 0
351 117 1 0.5897 -7.020738813583524 -2.8549225614950497 10.896233769780345 0 0 0
618 206 1 0.5897 -7.8334179442602085 -7.573896244654307 6.674377219982432 1 1 0
350 117 1 0.5897 -7.247377512125574 -4.062639538646283 10.011862889966448 0 0 0
414 138 1 0.5897 -6.805442567331941 -4.951836747467065 7.798560266062332 1 0 0
412 138 2 -1.1794 -7.552088654799462 -4.556005838037377 8.247988378270826 1 0 0
420 140 1 0.5897 -9.112794228777233 -6.7435700614901775 9.9621666511242 1 0 0
616 206 2 -1.1794 -7.350127756401397 -8.09992687420976 7.311478018247101 1 1 0
74 25 1 0.5897 -8.413157186312509 -3.4406029285843784 5.576059342332163 1 0 0
349 117 2 -1.1794 -7.142014064870411 -3.8040191935105447 10.927317442849983 0 0 0
633 211 1 0.5897 -5.837147291537992 -6.13323041662731 5.7352462846434555 1 1 0
315 105 1 0.5897 -8.65480296365566 -5.790889753113739 5.546616818967326 1 1 0
313 105 2 -1.1794 -8.96048648477911 -6.696494887725869 5.600159852126283 1 1 0
684 228 1 0.5897 -8.554844561481039 -6.508744000302235 14.392913738753967 0 0 0
740 247 1 0.5897 -10.988049925172744 -3.5219657489068474 12.0374505231856 1 0 0
652 218 2 -1.1794 -5.81694420943512 -5.54309957534835 12.635398164040504 0 0 0
682 228 2 -1.1794 -7.970627038751239 -6.924042357796186 13.758603106606776 0 0 0
780 260 1 0.5897 -7.406530761274734 -4.196016618316787 15.307850436595565 0 0 0
779 260 1 0.5897 -7.1544388866109845 -3.1842271648806406 14.210308636417157 0 0 0
778 260 2 -1.1794 -7.8580865284981405 -3.6176024973781296 14.693242989304542 0 0 0
768 256 1 0.5897 -9.427064342250725 -2.794357917708764 14.931315165727904 0 0 0
654 218 1 0.5897 -6.119257631428988 -4.99557992537804 11.910832025720119 0 0 0
653 218 1 0.5897 -6.616010539785561 -5.928813599871038 12.994403395969426 0 0 0
661 221 2 -1.1794 -9.38433052830084 -4.371457485198316 12.359617279363729 0 0 0
788 263 1 0.5897 -5.120794415512556 -4.763588813337764 15.63577702826108 0 0 0
766 256 2 -1.1794 -10.280397962457155 -2.366305107687092 15.000431247363641 0 0 0
663 221 1 0.5897 -8.672516079163916 -4.052306435000814 11.805021556213052 0 0 0
729 243 1 0.5897 -8.038671769550335 -7.400004114107641 11.963445464622847 1 0 0
662 221 1 0.5897 -9.054613757561192 -4.274102660853966 13.252835442651522 0 0 0
727 243 2 -1.1794 -8.015763540213435 -7.6648191854599315 11.04399496377876 1 0 0
767 256 1 0.5897 -10.913160731106737 -3.0634675943198157 14.82760144482997 0 0 0
757 253 2 -1.1794 -9.644532076043827 -5.98845997075949 15.65361779966773 0 0 0
749 250 1 0.5897 -10.221312743057398 -6.188929825754083 12.38276999760093 1 0 0
789 263 1 0.5897 -4.941248555673202 -4.842792499105247 14.134831619669901 0 0 0
1129 377 2 -1.1794 -7.68731661949182 -1.9696554313243233 17.865229985599857 0 0 0
1248 416 1 0.5897 -5.956889622538956 -1.5994843471371283 20.8176322537392 0 0 0
1088 363 1 0.5897 -6.7649837519317675 -6.142634128890992 16.660085986029262 0 0 0
1097 366 1 0.5897 -9.105890672603053 -5.979768461595773 18.560378795874634 0 0 0
1152 384 1 0.5897 -6.827905975031998 -4.057906440468754 19.846256658885586 0 0 0
1225 409 2 -1.1794 -8.164874556832855 -3.50019018639618 21.151002802990984 0 0 0
1227 409 1 0.5897 -8.927448521100091 -3.0784239068127395 20.755070865570996 0 0 0
1109 370 1 0.5897 -8.622993394556064 -3.5096672518897103 17.775545071579426 0 0 0
1108 370 2 -1.1794 -9.151553427706338 -4.283881951645583 17.969351814310517 0 0 0
1089 363 1 0.5897 -6.487344003985436 -4.9468950605263835 17.54620071444772 0 0 0
1219 407 2 -1.1794 -10.354026895035078 -2.1541873932089457 20.28575932598522 0 0 0
1142 381 1 0.5897 -8.692567713681452 -6.520156429954929 20.957047481644853 0 0 0
1221 407 1 0.5897 -10.822857170906593 -2.393968035568024 19.486523309271373 0 0 0
1151 384 1 0.5897 -6.158353292799119 -5.4059241099531095 19.68249378473457 0 0 0
1150 384 2 -1.1794 -6.134933968778777 -4.504818557907093 19.36022901356983 0 0 0
1131 377 1 0.5897 -7.073394342184016 -1.77436217247973 17.157393633083796 0 0 0
1110 370 1 0.5897 -10.038244707881912 -3.944599447994163 18.0911176425688 0 0 0
1096 366 2 -1.1794 -8.906480530167308 -6.791914452831083 19.026204503371787 0 0 0
1121 374 1 0.5897 -4.947843763164142 -3.4669846431406013 18.554661314078878 0 0 0
1087 363 2 -1.1794 -6.592648385119789 -5.201452046038464 16.629598554375768 0 0 0
1143 381 1 0.5897 -8.450308505414707 -5.161177631645481 21.578916840704533 0 0 0
758 253 1 0.5897 -9.372009976553125 -5.386504075337787 16.34613304824801 0 0 0
107 36 1 0.5897 -9.191721744287337 1.5740881723128268 3.2829948086644176 1 0 0
69 23 1 0.5897 -10.987021649280749 -2.30468966867082 3.206510792581304 1 0 0
272 91 1 0.5897 -9.456384844071737 -1.3783514790727445 1.4649174458327565 1 1 0
271 91 2 -1.1794 -10.166443710263142 -0.8712329105241299 1.0714110414461449 1 1 0
301 101 2 -1.1794 -7.9575889102324275 -2.511232089133153 1.673284904073418 1 1 0
84 28 1 0.5897 -8.119015901751045 -0.3475231147494089 4.147721966679953 1 0 0
258 86 1 0.5897 -12.60034658826931 -2.795059639319952 1.2219706313925414 1 1 0
83 28 1 0.5897 -9.588787114241267 -0.7006858860832939 4.065762210908234 1 0 0
67 23 2 -1.1794 -10.552669445724394 -2.1999451044157485 4.052920853164672 1 0 0
97 33 2 -1.1794 -11.786448789283206 0.6704606633658017 5.510587705516458 1 0 0
68 23 1 0.5897 -11.23130335513235 -2.400734567584623 4.697299627461694 1 0 0
52 18 2 -1.1794 -12.138347371398803 0.24414495471962816 2.823783358893968 1 0 0
98 33 1 0.5897 -11.68719405537061 0.2934226566860936 4.636476146643654 1 0 0
53 18 1 0.5897 -12.234137084959794 1.1477268306346833 2.522490071822553 1 0 0
54 18 1 0.5897 -11.453633166087963 -0.12384175862019653 2.2653294536322734 1 0 0
82 28 2 -1.1794 -8.993189950384831 0.04184749906647589 4.166981048850767 1 0 0
302 101 1 0.5897 -7.564585423741116 -2.2608332926331487 2.5092946815779094 1 1 0
59 20 1 0.5897 -13.441009008623901 -0.7623642331577365 3.475490366165723 1 0 0
99 33 1 0.5897 -11.608601086208955 1.603508168761289 5.391256560051202 1 0 0
256 86 2 -1.1794 -12.074926638435512 -3.1927824875478565 1.9161446114155116 1 1 0
44 15 1 0.5897 -9.804708462212854 0.837120520355251 0.28198800389870876 1 0 0
273 91 1 0.5897 -10.524594511474081 -1.4453619734315408 0.3944316058700881 1 1 0
1010 337 1 0.5897 -12.584903174110085 1.4399088512131364 0.2651881339731922 0 -1 1
527 176 1 0.5897 -12.051875256507072 1.6574547807312285 8.740119996387053 1 0 0
526 176 2 -1.1794 -12.693804759281697 1.1401679042369608 9.226471160217331 1 0 0
426 142 1 0.5897 -8.850574340127677 -1.7523182176182397 7.127759100477555 1 0 0
411 137 1 0.5897 -13.30501034616833 0.2620058096286453 6.470863201921716 1 0 0
424 142 2 -1.1794 -8.005424550673728 -2.177616479693322 6.982754832677796 1 0 0
402 134 1 0.5897 -10.837129883132626 -0.2726098837079629 6.722991986278911 1 0 0
401 134 1 0.5897 -11.085790151435983 -1.3787411176192421 7.726283766650447 1 0 0
400 134 2 -1.1794 -10.391779678746898 -0.8298106380891355 7.361255124186268 1 0 0
537 179 1 0.5897 -9.26732172976762 0.15664428060975233 8.623676162098425 1 0 0
536 179 1 0.5897 -9.628144637177368 0.3110183691615269 10.085637665325287 1 0 0
535 179 2 -1.1794 -8.884560111753613 0.3312540040799714 9.483357903282574 1 0 0
528 176 1 0.5897 -12.170988539002808 0.6242838113281532 9.840216791527128 1 0 0
435 145 1 0.5897 -7.420381374266955 -0.8678653369157612 9.892132071236507 0 0 0
522 174 1 0.5897 -9.951131513676131 2.2058764970714897 7.355231808212127 1 0 0
425 142 1 0.5897 -7.381424875921791 -1.454753270964714 6.916319063059529 1 0 0
417 139 1 0.5897 -8.813515386440292 1.013045552537422 5.621895620128727 1 0 0
415 139 2 -1.1794 -8.610409521393901 1.6551045806222557 6.3021319959440465 1 0 0
790 264 2 -1.1794 -10.748647059084584 0.029866499287596326 13.774006501590783 0 0 0
888 296 1 0.5897 -10.587736394766466 2.99053385645656 14.988815729617677 0 0 0
762 254 1 0.5897 -9.252404205000476 2.1476340167218577 12.118772487201959 0 0 0
761 254 1 0.5897 -9.424586520646741 0.9782151155554537 13.064736034679894 0 0 0
760 254 2 -1.1794 -8.759418426240012 1.4742014211433627 12.587519280210142 0 0 0
769 257 2 -1.1794 -12.322442033917092 2.5091429241354586 12.466597583477183 0 0 0
792 264 1 0.5897 -11.453414647498766 0.3660459121819706 14.327544231673913 0 0 0
896 299 1 0.5897 -8.1132510574058 2.3186113141500417 15.347549896080581 0 0 0
837 279 1 0.5897 -11.04730399002835 -0.0902934948879075 11.97327484470417 1 0 0
791 264 1 0.5897 -10.616599115389846 -0.8697871377707038 14.073336969074292 0 0 0
866 289 1 0.5897 -12.44279026288671 1.8077695048315725 16.221771597124857 0 0 0
836 279 1 0.5897 -11.332464302548502 -1.289164167486394 11.09380140949164 1 0 0
835 279 2 -1.1794 -11.054391933728569 -0.3737893284817613 11.059146937056981 1 0 0
771 257 1 0.5897 -11.63890295204167 2.6321311666233225 11.808035175425912 0 0 0
770 257 1 0.5897 -11.927166940724163 2.8154280053391947 13.282705491956749 0 0 0
865 289 2 -1.1794 -12.651903452873208 1.1944547404289665 15.517267684284723 0 0 0
1195 399 2 -1.1794 -9.537365313757526 2.009960003340737 16.276227938280506 0 0 0
1101 367 1 0.5897 -10.110371810058846 -1.2363246703338238 16.283859444270732 0 0 0
1009 337 2 -1.1794 -11.14479743757916 3.541516919756047 21.125791001559307 0 -1 0
1260 420 1 0.5897 -9.933034189358109 2.7802794091414054 19.782637488698175 0 0 0
1218 406 1 0.5897 -13.121968703136673 3.1786626591708664 17.785759278435705 0 0 0
1259 420 1 0.5897 -9.16030968667636 1.5370175885445665 19.39615701387461 0 0 0
1258 420 2 -1.1794 -9.378281044296996 2.418090474574681 19.091857450383472 0 0 0
1246 416 2 -1.1794 -6.3127538570206845 -1.0480194815048716 20.12090745365618 0 0 0
1204 402 2 -1.1794 -11.865890254777266 0.3509535908389605 18.79867423112144 0 0 0
1249 417 2 -1.1794 -11.59709427193424 0.8630936433084422 21.54928439475598 0 0 0
1236 412 1 0.5897 -7.844721945993963 -0.22413444190231324 20.25486844559605 0 0 0
1216 406 2 -1.1794 -12.215939217040328 2.8871163843199756 17.684457618631058 0 0 0
1235 412 1 0.5897 -9.307483499716504 -0.603489528534821 20.344895658637196 0 0 0
1234 412 2 -1.1794 -8.718702465875802 0.15107726569952362 20.362316238548498 0 0 0
1099 367 2 -1.1794 -9.915724579816457 -0.6165124413746934 16.98682035735537 0 0 0
1229 410 1 0.5897 -7.911956788013316 3.4825014909599883 18.177538153333874 0 0 0
1206 402 1 0.5897 -11.158369298328351 0.07448082636595288 18.216366955796946 0 0 0
1251 417 1 0.5897 -11.53545253580178 1.8168115541679661 21.49378143635896 0 0 0
1197 399 1 0.5897 -9.552594903535386 2.3578353249293453 17.16775510168781 0 0 0
1100 367 1 0.5897 -9.109645921993772 -0.9479467537848478 17.38245745378169 0 0 0
1205 402 1 0.5897 -12.032388212971897 1.2624818966009048 18.55822137267933 0 0 0
1130 377 1 0.5897 -7.308306565083674 -1.5458876040335188 18.635225892158108 0 0 0
1250 417 1 0.5897 -11.611153266350753 0.5700382801618034 20.63825641062818 0 0 0
1011 337 1 0.5897 -11.961769707212031 3.9649763405551273 20.862316203731876 0 -1 0
1196 399 1 0.5897 -9.687540421094388 1.0704867036817962 16.382458983744527 0 0 0
40 14 2 -1.1794 -15.15137816295422 3.79345966138823 1.852002619395004 1 0 0
177 59 1 0.5897 -14.266881540677883 4.41889546087339 3.182899029122688 1 0 0
42 14 1 0.5897 -15.587348153449657 4.436032118042487 1.2922942178168257 1 0 0
108 36 1 0.5897 -10.249581310476254 2.6489516173299013 3.4157431509868768 1 0 0
175 59 2 -1.1794 -13.732088264238529 4.5978081466601655 3.9562353915805675 1 0 0
55 19 2 -1.1794 -13.3407604509613 6.289793571805221 0.9838744143857069 1 0 0
56 19 1 0.5897 -12.429330106690253 6.037332184471291 1.1311881561043333 1 0 0
66 22 1 0.5897 -13.40272431548925 3.153522429162864 1.6238268882556084 1 0 0
65 22 1 0.5897 -11.941027103073884 3.545816604456901 1.6591057347987177 1 0 0
64 22 2 -1.1794 -12.51948701016922 2.7867539633802476 1.5846024952370126 1 0 0
162 54 1 0.5897 -14.608536190602688 6.789775829990747 2.117336799395612 1 0 0
190 64 2 -1.1794 -12.013833720670599 6.982358578919827 4.06428921184985 1 0 0
191 64 1 0.5897 -12.707969492701908 6.323241388849839 4.070199667165872 1 0 0
182 61 1 0.5897 -11.189660309716642 3.9580759969190087 5.279778084570177 1 0 0
183 61 1 0.5897 -12.329636680156979 3.6474875002572116 4.3334352770523 1 0 0
181 61 2 -1.1794 -11.471475238055834 3.330170720229903 4.614540482484681 1 0 0
176 59 1 0.5897 -14.31633714177034 4.431035368720574 4.695760746503203 1 0 0
85 29 2 -1.1794 -10.897761064118207 5.026508335439365 1.2873409691430113 1 0 0
45 15 1 0.5897 -9.854150011374642 2.0465775808137305 1.191293233971112 1 0 0
43 15 2 -1.1794 -9.715749019818897 1.7902949454878598 0.27958628226850535 1 0 0
192 64 1 0.5897 -11.20554804402815 6.47857149147478 3.9690275346275783 1 0 0
167 56 1 0.5897 -16.58159726918815 6.289317761719573 3.539559972196611 1 0 0
57 19 1 0.5897 -13.67122116716586 5.642718707749996 0.3607253220062029 1 0 0
106 36 2 -1.1794 -9.511560379320851 2.376549082580656 2.8705606837481197 1 0 0
160 54 2 -1.1794 -15.205394555556712 7.149554149101958 2.773410200735403 1 0 0
508 170 2 -1.1794 -13.374004426599935 6.396492351565046 7.1708920193715695 1 0 0
645 215 1 0.5897 -12.413555861298093 7.146418653605513 8.668866960282177 1 0 0
644 215 1 0.5897 -12.707091683224714 7.061840582810918 10.151444793237975 1 0 0
643 215 2 -1.1794 -12.00254215723336 7.2388592198499015 9.52826376878246 1 0 0
509 170 1 0.5897 -14.002101834544906 5.850142244949307 7.643333684151821 1 0 0
519 173 1 0.5897 -16.59559236313095 7.481137775551664 6.62840164185568 1 0 0
532 178 2 -1.1794 -11.012984228590733 5.047177818625091 6.790989720422951 1 0 0
543 181 1 0.5897 -10.520203348796189 6.097137148445848 9.96381335173009 0 0 0
510 170 1 0.5897 -13.915623282492664 7.00196534868965 6.664653600989696 1 0 0
534 178 1 0.5897 -11.854046348320043 5.502240209947207 6.8324995617716535 1 0 0
521 174 1 0.5897 -10.73978757201371 3.432016881191309 7.763573662651276 1 0 0
636 212 1 0.5897 -15.377211459935554 7.702208082729674 10.122367199679722 1 0 0
459 153 1 0.5897 -10.01478982773191 4.153300436498872 10.741405799993549 0 0 0
533 178 1 0.5897 -10.35988393570011 5.742865590861118 6.866939531630524 1 0 0
457 153 2 -1.1794 -10.185206472380283 3.212861770535268 10.796042213463505 0 0 0
458 153 1 0.5897 -10.11348695220031 2.9030612160248754 9.893304265116907 0 0 0
520 174 2 -1.1794 -10.53891773219412 2.5361316297923064 8.034597615882259 1 0 0
538 180 2 -1.1794 -15.431434173636298 4.950658164453808 8.414006848871216 1 0 0
887 296 1 0.5897 -10.28152733825544 4.130270632869102 14.040554124683663 0 0 0
944 315 1 0.5897 -14.276182215854913 5.702187656908887 11.295413532978165 1 0 0
876 292 1 0.5897 -12.724663910136272 4.260750067298099 14.873464723127045 0 0 0
848 283 1 0.5897 -13.776145974347317 3.463684438969251 12.21914903340703 1 0 0
945 315 1 0.5897 -14.202678375258817 6.983927167957658 12.097852291976645 1 0 0
886 296 2 -1.1794 -10.993010948449008 3.7351863739087463 14.544391354819542 0 0 0
900 300 1 0.5897 -14.398459930412692 7.66233826395178 14.461000228172018 0 0 0
899 300 1 0.5897 -13.737416090005073 6.336156857432005 14.150322811809335 0 0 0
898 300 2 -1.1794 -13.790441747995345 7.244069784985152 13.851490499886777 0 0 0
874 292 2 -1.1794 -13.581533676332459 4.678174025018313 14.961303597037878 0 0 0
650 217 1 0.5897 -15.552063098095868 8.68635028897298 16.244039918861986 0 -1 0
869 290 1 0.5897 -12.368872801589234 8.139815561988966 13.037909477428814 0 0 0
943 315 2 -1.1794 -14.177123170216081 6.649706396466417 11.201352101706341 1 0 0
649 217 2 -1.1794 -15.717213835252906 8.046230057113215 15.551799963996224 0 -1 0
1018 340 2 -1.1794 -11.896156476085537 7.2948219176678375 20.379704529973683 0 -1 0
1019 340 1 0.5897 -12.454886244217352 6.520437710989857 20.446792168718424 0 -1 0
1020 340 1 0.5897 -11.0037549777323 6.950046016747089 20.409910524205376 0 -1 0
1043 348 1 0.5897 -12.371289464950378 8.828804883731964 19.451560799211258 0 -1 0
1237 413 2 -1.1794 -10.885431485436712 5.2981751082305735 17.64468291683332 0 0 0
1217 406 1 0.5897 -11.69549732043418 3.6853948207124656 17.77526224392861 0 0 0
1030 344 2 -1.1794 -9.40562973305484 6.163427369106161 19.942459760422572 0 -1 0
1032 344 1 0.5897 -8.91244257604179 5.604400241121423 20.54282825141734 0 -1 0
1034 345 1 0.5897 -14.695404002785814 7.826080952601936 20.76350886428864 0 -1 0
1207 403 2 -1.1794 -13.193794477229606 6.653116272594797 16.95173237710374 0 0 0
1208 403 1 0.5897 -12.349001380486461 6.319681437513498 17.253886452971813 0 0 0
1239 413 1 0.5897 -10.193596845744649 5.411535594820554 16.9930839328859 0 0 0
1238 413 1 0.5897 -10.435637053540695 5.3673423605390855 18.486671150565336 0 0 0
990 330 1 0.5897 -14.220260352393714 7.119910673775616 18.334715024189574 0 -1 0
1003 335 2 -1.1794 -13.365516557912652 4.8896192984997615 20.285330093277135 0 -1 0
989 330 1 0.5897 -15.038543210755678 8.365648968277478 18.600636952647378 0 -1 0
980 327 1 0.5897 -12.81810145353948 8.405664135299398 16.366130797661263 0 -1 0
1005 335 1 0.5897 -13.845264800692027 4.679026086142056 19.48435485184825 0 -1 0
1209 403 1 0.5897 -13.52266217202851 5.9743496534838325 16.3623436336082 0 0 0
988 330 2 -1.1794 -14.896046680594289 7.4723064263181005 18.913726141665375 0 -1 0
1035 345 1 0.5897 -14.654415787796694 9.131755711788395 21.528791839590717 0 -1 0
1033 345 2 -1.1794 -14.827596354277276 8.196374716502904 21.63611795189529 0 -1 0
291 97 1 0.5897 -15.112558892681616 10.495858080085805 4.3873914274460795 1 0 0
174 58 1 0.5897 -16.49778251383661 10.141132762144617 1.6545295618413618 1 0 0
173 58 1 0.5897 -15.009831416483387 10.419777468025346 1.649587667642167 1 0 0
172 58 2 -1.1794 -15.646010426349033 9.705026213340558 1.6765740328976435 1 0 0
283 95 2 -1.1794 -16.727938058922277 11.556486773542465 4.215074270714963 1 0 0
161 54 1 0.5897 -15.403983126498414 8.031756515976513 2.4592718102255526 1 0 0
205 69 2 -1.1794 -15.01798422541162 7.780578519640466 5.538475044050996 1 0 0
193 65 2 -1.1794 -13.976153119455944 12.051675786829028 1.660913197900351 1 0 0
285 95 1 0.5897 -17.123961037474388 11.336865194324565 3.3718819841614507 1 0 0
148 50 2 -1.1794 -18.078075616594944 10.962586750692685 1.7794684888784766 1 0 0
289 97 2 -1.1794 -14.25762236395602 10.22463249408941 4.7215465983743465 1 0 0
150 50 1 0.5897 -18.48008403281215 11.625217912599352 1.2177195849304383 1 0 0
284 95 1 0.5897 -17.452838654466888 11.514954867024505 4.838660917475798 1 0 0
215 72 1 0.5897 -12.256899584528602 8.573011200083377 3.228891152070439 1 0 0
216 72 1 0.5897 -12.991910681184237 9.870219006331398 3.491997833772549 1 0 0
206 69 1 0.5897 -14.886019252181772 7.407884513142877 4.666828475897225 1 0 0
152 51 1 0.5897 -13.174230486548453 8.179578485544399 0.2095102617227471 1 0 0
1118 373 1 0.5897 -15.635029044700559 8.662148043741398 0.21052743914743915 0 -1 1
290 97 1 0.5897 -14.06583387715759 10.846933960753054 5.423088164109008 1 0 0
151 51 2 -1.1794 -12.83192792974925 9.070788451081237 0.2801828453560693 1 0 0
207 69 1 0.5897 -14.811185395258626 8.709665951333745 5.4362099484550965 1 0 0
525 175 1 0.5897 -11.702000242616837 8.124146648707777 5.49005276783789 1 0 0
214 72 2 -1.1794 -12.364945218124184 9.463320541769695 2.8941049529180565 1 0 0
153 51 1 0.5897 -12.715430320431683 9.209280365719957 1.2200067244567891 1 0 0
640 214 2 -1.1794 -13.900678402936606 11.909175783592163 6.895927320221341 1 0 0
630 210 1 0.5897 -12.801140370703918 9.209421385275965 7.483564214534132 1 0 0
629 210 1 0.5897 -13.775687241651141 10.342372486927234 7.725975455260824 1 0 0
628 210 2 -1.1794 -13.539169701703905 9.467919208234905 8.03546696735808 1 0 0
566 189 1 0.5897 -13.208005775539856 9.782635710725101 9.850999756842603 0 0 0
617 206 1 0.5897 -17.06206805229686 12.854119652388613 7.8626918508660335 1 0 0
634 212 2 -1.1794 -15.71805794899613 8.330128986837602 9.485377689189807 1 0 0
642 214 1 0.5897 -14.724551733080617 12.394868324017759 6.935177088297297 1 0 0
635 212 1 0.5897 -14.94865542766627 8.611525281406918 8.990450396773072 1 0 0
567 189 1 0.5897 -13.032824345662341 11.104705217531526 10.56769899310813 0 0 0
327 109 1 0.5897 -13.563536272800462 13.292100245473959 9.787134034228785 0 -1 0
565 189 2 -1.1794 -13.222973077333581 10.179238855905576 10.72195955148746 0 0 0
641 214 1 0.5897 -13.222487177604192 12.582308987516443 6.952919545595231 1 0 0
658 220 2 -1.1794 -16.490664021933476 11.961349415700477 14.724042061859206 0 -1 0
870 290 1 0.5897 -12.209675843530011 9.13335922807399 11.906824247933182 0 0 0
683 228 1 0.5897 -16.865429607146673 13.53915323515397 14.10257246604639 0 -1 0
671 224 1 0.5897 -13.350287393450223 11.203124720961876 14.114068783258265 0 -1 0
670 224 2 -1.1794 -14.068371302993073 10.811445540806362 14.6111527928203 0 -1 0
672 224 1 0.5897 -13.640641682804727 10.37789473702672 15.349538479679655 0 -1 0
956 319 1 0.5897 -16.825897287482526 10.662697253463874 11.985320020877483 1 0 0
660 220 1 0.5897 -15.579715023499837 11.670231174712859 14.763715461706003 0 -1 0
879 293 1 0.5897 -14.663149506807944 9.83201969531566 11.759904470172694 0 0 0
878 293 1 0.5897 -14.940421747758844 10.00287995081924 13.238176984793164 0 0 0
877 293 2 -1.1794 -15.32545955544531 9.663961357538854 12.430108529117442 0 0 0
680 227 1 0.5897 -11.038759402900094 9.479261902341138 15.467930931732225 0 -1 0
868 290 2 -1.1794 -11.707928702961857 8.62489345451087 12.54391299246045 0 0 0
728 243 1 0.5897 -17.220581865416932 12.738863018800691 11.06111487100836 1 -1 0
659 220 1 0.5897 -16.993153089279545 11.158652257809178 14.5842194519656 0 -1 0
1140 380 1 0.5897 -12.11109108911615 12.748438149067445 20.636296205906223 0 -1 0
1138 380 2 -1.1794 -12.480947849768269 13.354391045233244 19.994235455471603 0 -1 0
1128 376 1 0.5897 -14.121391585861963 13.998090394579792 20.238304025723988 0 -1 0
1127 376 1 0.5897 -15.524655325896983 13.445410272523707 20.369251462901296 0 -1 0
1022 341 1 0.5897 -13.294254843486147 12.565713084748028 18.56783299391099 0 -1 0
1119 373 1 0.5897 -15.016141867956918 11.106818081627866 20.82847707404762 0 -1 0
1117 373 2 -1.1794 -14.1378942741322 10.783658200084888 21.029495423485244 0 -1 0
1044 348 1 0.5897 -13.022500895270372 10.157464906904794 19.772237110672247 0 -1 0
1042 348 2 -1.1794 -12.469966271824827 9.722480746971831 19.122914444788893 0 -1 0
981 327 1 0.5897 -12.583264125046918 9.53063058198041 17.351672050006343 0 -1 0
1013 338 1 0.5897 -10.952140073952567 10.753033343594437 18.380563071185502 0 -1 0
1111 371 2 -1.1794 -16.599552890704942 11.859279235619463 20.23973921543478 0 -1 0
991 331 2 -1.1794 -16.124523356316313 13.447492947063425 17.241634618690206 0 -1 0
992 331 1 0.5897 -15.24795415526561 13.095437539500127 17.39607110429337 0 -1 0
1002 334 1 0.5897 -16.32578721128184 10.21959398179021 17.68726444498725 0 -1 0
1023 341 1 0.5897 -13.099979197646022 12.254304896281235 17.099274636889497 0 -1 0
1021 341 2 -1.1794 -13.701281732323672 12.111589386645777 17.830116930762912 0 -1 0
1001 334 1 0.5897 -14.873652756187937 10.647356020966365 17.692316280238238 0 -1 0
1000 334 2 -1.1794 -15.434487879191794 9.872792322165141 17.64906364646143 0 -1 0
1126 376 2 -1.1794 -15.032721083664933 14.266489092416398 20.35478873795887 0 -1 0
979 327 2 -1.1794 -12.471177869424881 9.295551434126201 16.430686348697144 0 -1 0
1098 366 1 0.5897 -17.332712437065226 14.089893133004354 18.45074944019377 0 -1 0
993 331 1 0.5897 -16.43349854844775 12.987945799275332 16.460938399060545 0 -1 0
305 102 1 0.5897 -1.5152916698925747 -6.2522031686139155 2.2507334561024663 1 1 0
311 104 1 0.5897 -2.7468842251245293 -7.902295822938188 3.475412648838135 1 1 0
243 81 1 0.5897 -0.7340211302484025 -5.557790472286941 5.318869838506365 0 1 0
318 106 1 0.5897 -2.817715434430381 -4.300776148259317 1.5332321372216362 1 1 0
293 98 1 0.5897 -5.1484727274873885 -3.904523637651387 2.4155592045698464 1 1 0
304 102 2 -1.1794 -1.3019440923609658 -7.03913032551932 2.7522737577158467 1 1 0
316 106 2 -1.1794 -1.934979043834705 -4.670827526342237 1.5349191139611005 1 1 0
242 81 1 0.5897 -0.7368346277246829 -6.874759325201563 4.5720323194783665 0 1 0
306 102 1 0.5897 -0.6542183962847723 -7.4970173342719955 2.216597024849198 1 1 0
241 81 2 -1.1794 -0.7692231156377858 -6.504840163654519 5.4541800961017834 0 1 0
310 104 2 -1.1794 -3.4312333366335057 -8.490185613627142 3.795203390743516 1 1 0
201 67 1 0.5897 0.4853663804859778 -8.638108444867541 0.3232432646536576 1 1 0
1 1 2 -1.1794 -0.7062765462173068 -3.824213856568944 4.704309089976817 0 0 0
317 106 1 0.5897 -1.3581327751212449 -3.9147283101512054 1.6440277696781336 1 1 0
3 1 1 0.5897 -1.526711488445459 -3.5245544300563587 4.312862267455377 0 0 0
632 211 1 0.5897 -4.714248346542304 -5.990389700740437 6.7403437082716 1 1 0
555 185 1 0.5897 -2.345459866204223 -7.094236295657045 6.369570743600089 0 1 0
554 185 1 0.5897 -2.695141461832284 -6.868389934084239 7.824937754640804 0 1 0
553 185 2 -1.1794 -3.0847450959594314 -7.082526453886414 6.977345123727939 0 1 0
546 182 1 0.5897 0.05678118708044977 -7.384256509462633 6.828399976964834 0 1 0
359 120 1 0.5897 -4.528863168590686 -3.055797274029098 8.898586367973452 0 0 0
544 182 2 -1.1794 0.4305449518560831 -8.019521860068808 7.43910306130968 0 1 0
348 116 1 0.5897 -1.1523797505324964 -6.507153346763883 10.04892899926993 0 0 0
347 116 1 0.5897 -1.0586514024172864 -5.4339812010616795 8.985257947428574 0 0 0
346 116 2 -1.1794 -1.6624975554751344 -6.0715922531302375 9.366142044613934 0 0 0
336 112 1 0.5897 -3.3245470240272272 -5.415895496905253 9.497757268477628 0 0 0
334 112 2 -1.1794 -4.074704224742797 -4.8222236754468035 9.530135990736419 0 0 0
335 112 1 0.5897 -4.838043786853357 -5.397036841002751 9.474023430405406 0 0 0
356 119 1 0.5897 1.3084471906462394 -7.144889724707758 10.243196392243009 0 0 0
404 135 1 0.5897 -5.310260517828017 -3.731475510619063 5.982623115293115 1 0 0
631 211 2 -1.1794 -5.490646121703115 -5.5427524226419695 6.404174731193113 1 1 0
326 109 1 0.5897 -3.4354619978495755 -7.820210960612014 10.807488086754418 0 0 0
678 226 1 0.5897 -4.117486103120646 -6.293283901393764 12.571104422999426 0 0 0
793 265 2 -1.1794 -1.991581822225264 -5.92557499634775 15.438949241920811 0 0 0
795 265 1 0.5897 -2.7547246578722806 -5.518700557814782 15.028788646248929 0 0 0
803 268 1 0.5897 -3.2602826294133234 -2.820785598508328 15.098983250273745 0 0 0
774 258 1 0.5897 -5.191956859895379 -2.4800452442555905 12.830400677947168 0 0 0
657 219 1 0.5897 -0.1796163487922442 -7.201238538912419 12.106907482110667 0 0 0
718 240 2 -1.1794 0.18111496238371494 -7.021259317431271 13.911331307624396 0 0 0
699 233 1 0.5897 -0.7767832638723515 -4.346041849499496 11.726829556610134 0 0 0
697 233 2 -1.1794 -1.4082158279236854 -4.445509682145561 12.439189187798053 0 0 0
677 226 1 0.5897 -2.6862386865183137 -5.854195719653879 12.346566257662968 0 0 0
676 226 2 -1.1794 -3.2453422092287934 -6.630928577533849 12.36734229695205 0 0 0
698 233 1 0.5897 -0.9387991114322496 -4.149350187676605 13.218950575197335 0 0 0
668 223 1 0.5897 -2.991356909004617 -3.392446371620796 12.111811381075185 0 0 0
667 223 2 -1.1794 -3.7896079887840246 -3.1238166489407106 11.657108168753343 0 0 0