LAMMPS data file via write_data, version 30 Jul 2021, timestep = 3250000

972 atoms
2 atom types
648 bonds
1 bond types
324 angles
1 angle types

-0.02812188299103191 20.028122882989386 xlo xhi
0.002997386455277251 19.99700361354676 ylo yhi
0.2013256321674497 20.49867236783657 zlo zhi

Masses

1 1.008
2 15.999

Pair Coeffs # lj/cut/tip4p/long/omp

1 0 0
2 0.21084 3.1668

Bond Coeffs # harmonic/omp

1 450 0.9572

Angle Coeffs # harmonic/omp

1 55 104.52

Atoms # full

3 1 1 0.5897 3.283805526841331 2.952796457067501 0.3362716645578468 0 0 0
10 4 2 -1.1794 1.2000860479128996 3.724294465958275 4.235109289705962 0 0 0
48 16 1 0.5897 7.180589897636763 4.373885469869627 4.701282758733831 0 0 0
31 11 2 -1.1794 0.8457144031782594 2.2436331811949786 2.099218578067779 0 0 0
33 11 1 0.5897 1.4768099355037987 2.607782412956578 1.4783285820271836 0 0 0
18 6 1 0.5897 3.9518755687128118 3.335833056956835 2.985537846507056 0 0 0
12 4 1 0.5897 2.0306157724513203 4.165478502366534 4.0563725879490615 0 0 0
11 4 1 0.5897 1.0667120168392559 3.149385867392288 3.4814345437134238 0 0 0
8 3 1 0.5897 4.991287619641234 4.557332776339874 4.618793904960825 0 0 0
34 12 2 -1.1794 5.244296873271059 2.966685836376484 0.6371876008334938 0 0 0
4 2 2 -1.1794 4.212901204080166 1.4323194485910886 3.3718892265080327 0 0 0
32 11 1 0.5897 0.007782087242836078 2.2776903255382512 1.6375640310095931 0 0 0
6 2 1 0.5897 4.835649861899819 1.145250968444466 4.039825790685413 0 0 0
46 16 2 -1.1794 7.904563939396191 4.150324733192824 4.11622549578986 0 0 0
23 8 1 0.5897 2.875858652071595 0.9934694261620639 4.58045089692182 0 0 0
236 79 1 0.5897 1.052094443115277 0.31834253635227494 2.4257921527926434 0 1 0
69 23 1 0.5897 6.585272775841923 2.3184050532167615 1.5484458178461629 0 0 0
16 6 2 -1.1794 3.899858875311494 4.253029478709605 3.254420919371099 0 0 0
47 16 1 0.5897 7.514457212890083 3.569804772639369 3.4626583108075906 0 0 0
68 23 1 0.5897 8.068950934200595 2.401061933404406 1.2582264782475348 0 0 0
67 23 2 -1.1794 7.440772978744619 2.3357132617339524 1.9776089042177132 0 0 0
5 2 1 0.5897 4.258118514839326 0.7566379695258314 2.6953401940234265 0 0 0
53 18 1 0.5897 9.717355485331533 4.088942258783481 3.8195229995771425 0 0 0
17 6 1 0.5897 4.276705584821406 4.739727851142739 2.521303405436797 0 0 0
272 91 1 0.5897 7.147621966246121 0.4419769825816347 1.9755694521023648 0 1 0
20 7 1 0.5897 0.7769007420703161 4.911860280688795 2.8129719716842834 0 0 0
102 34 1 0.5897 0.41428863318748976 0.7344434421779509 5.231298216865352 1 0 0
325 109 2 -1.1794 2.611478843514415 2.847101823421862 6.974196385255174 0 0 0
326 109 1 0.5897 2.4953998925309593 2.034739678765434 6.481370520241122 0 0 0
327 109 1 0.5897 3.543832480023475 2.8654772725820417 7.190508474479276 0 0 0
393 131 1 0.5897 7.275219199670905 1.2082047164648528 9.337347923879246 0 0 0
356 119 1 0.5897 1.467000745104928 2.2066974318176706 8.079089932748904 0 0 0
355 119 2 -1.1794 0.8409991917162265 1.981019223704531 8.767250265335461 0 0 0
27 9 1 0.5897 2.747175335769223 4.473024147106089 6.415356791066249 0 0 0
342 114 1 0.5897 3.8353341398958416 4.9555844204326585 9.717331414109655 0 0 0
335 112 1 0.5897 0.9701580960505917 3.1520046266962587 9.866329673653256 0 0 0
360 120 1 0.5897 5.476835162608769 2.014178842519996 6.772971081101409 0 0 0
359 120 1 0.5897 5.893050002157759 2.734663757022971 8.037831998294592 0 0 0
9 3 1 0.5897 5.444963795426369 4.037289662124556 5.966375565898471 0 0 0
561 187 1 0.5897 0.829133637335354 0.1563602545310064 9.039279953086519 0 1 0
358 120 2 -1.1794 5.285019271727048 2.7895660126456443 7.300497469894238 0 0 0
361 121 2 -1.1794 9.212146158341739 3.0946691241476296 7.357537541008602 0 0 0
392 131 1 0.5897 8.087016542597375 2.2920116948871874 8.660288225597228 0 0 0
7 3 2 -1.1794 5.5870887878409965 4.749650770549178 5.342955932533179 0 0 0
391 131 2 -1.1794 7.399261307243741 2.157009147967015 9.312318038791238 0 0 0
59 20 1 0.5897 9.014329082687174 1.7965940267004896 6.090390714603495 0 0 0
362 121 1 0.5897 9.172597204234027 4.027415447473324 7.1461748410871415 0 0 0
330 110 1 0.5897 4.038210580593494 0.7747778024128792 9.768530951845548 0 0 0
357 119 1 0.5897 -0.011941501374342599 2.0056351092859432 8.333307659838038 0 0 0
328 110 2 -1.1794 4.094097039629895 1.6236937525559982 10.20723472786804 0 0 0
60 20 1 0.5897 8.953850696809436 0.28402284022733465 6.07222024582521 0 0 0
341 114 1 0.5897 3.8451432605045497 3.540762735969679 10.255998619742536 0 0 0
58 20 2 -1.1794 8.868496340609136 1.05182014490421 5.506999770342826 0 0 0
28 10 2 -1.1794 5.8829316599531385 0.7883274453849327 5.50595139688137 0 0 0
29 10 1 0.5897 6.839577863709334 0.8024088345027164 5.538417950707173 0 0 0
22 8 2 -1.1794 2.252203316494371 0.791377796705699 5.278011974149937 0 0 0
649 217 2 -1.1794 2.8959224386601554 2.4399496652281023 13.643177931465948 0 0 0
650 217 1 0.5897 2.583419419069422 1.9773667950434002 12.865552649454466 0 0 0
386 129 1 0.5897 9.265749684290997 4.717774567052285 13.348322558350473 0 0 0
329 110 1 0.5897 4.741053335075811 1.4934574262926466 10.900680888345558 0 0 0
651 217 1 0.5897 2.3013466294561398 2.164921116326079 14.341203340558751 0 0 0
683 228 1 0.5897 4.544019566779005 2.6654024251207304 14.191210321247505 0 0 0
332 111 1 0.5897 4.861974007610811 4.8170884333604596 11.69194120339249 0 0 0
346 116 2 -1.1794 2.1227396157168 0.4241433797291539 11.713368391526538 0 0 0
348 116 1 0.5897 2.5764307182211295 0.8564418775778405 10.989730982333471 0 0 0
370 124 2 -1.1794 7.87174635369067 4.303872264049608 10.738923308394126 0 0 0
682 228 2 -1.1794 5.446853658997043 2.9366731402311115 14.357642417750505 0 0 0
352 118 2 -1.1794 6.013165345341712 1.1872766306423257 12.177795536844458 0 0 0
350 117 1 0.5897 2.6636261988474206 4.184583402479053 13.855099909878316 0 0 0
684 228 1 0.5897 5.5494319962871534 3.7476984621870586 13.859656668570398 0 0 0
354 118 1 0.5897 5.979049846777027 1.9285481762367969 12.782489817754074 0 0 0
382 128 2 -1.1794 8.751871467806895 0.7971210769172812 11.743053878121897 0 0 0
372 124 1 0.5897 7.132827988608786 4.584431915067798 11.278989966451725 0 0 0
685 229 2 -1.1794 9.197217669190167 2.887909137929403 13.585081514827001 0 0 0
353 118 1 0.5897 6.938178498164025 1.111191238991788 11.943314218595678 0 0 0
347 116 1 0.5897 1.2112027265921947 0.368731577782129 11.426267883129391 0 0 0
383 128 1 0.5897 8.969395794914837 1.633848682570584 12.153962778650248 0 0 0
334 112 2 -1.1794 0.9007611354744778 3.815895486399248 10.552356579187887 0 0 0
686 229 1 0.5897 8.809456208959384 2.588857963359119 14.407629858131681 0 0 0
384 128 1 0.5897 9.437840412017309 0.6656939655285525 11.088423701214147 0 0 0
340 114 2 -1.1794 3.5540246021366886 4.428329750581174 10.465132352559442 0 0 0
680 227 1 0.5897 0.2599414921015237 1.7028174253482473 15.043141251998689 0 0 0
336 112 1 0.5897 1.8044942140505702 4.083744100046917 10.719459643989838 0 0 0
331 111 2 -1.1794 5.699385129734776 4.980758300809612 12.125939023956816 0 0 0
371 124 1 0.5897 7.648365005616563 3.412474700871189 10.471010913835139 0 0 0
377 126 1 0.5897 9.761916866707626 3.9886083857186674 10.460709845152909 0 0 0
652 218 2 -1.1794 4.2439422701341005 1.1820657255608042 16.925685636969266 0 0 0
676 226 2 -1.1794 5.79292257770556 0.9072303391664164 19.280877991275368 0 0 0
664 222 2 -1.1794 4.156357645779438 4.010715354184422 17.347321939562395 0 0 0
672 224 1 0.5897 1.100245813267698 0.8910291575205936 18.361254284098564 0 0 0
658 220 2 -1.1794 1.4000475404810406 4.083069700562786 17.077859661431575 0 0 0
671 224 1 0.5897 2.3153759595054257 1.579019098066182 18.946390929185473 0 0 0
665 222 1 0.5897 3.2540750590274516 4.318141965847459 17.259112336258212 0 0 0
666 222 1 0.5897 4.111051220000884 3.074639084813364 17.152495340390516 0 0 0
716 239 1 0.5897 7.598054404183876 1.3290032837692167 15.931815741116662 0 0 0
677 226 1 0.5897 5.343195803813902 0.9537355865136046 18.43708585991831 0 0 0
706 236 2 -1.1794 8.271688702083706 0.9027271599244937 18.487784955581432 0 0 0
653 218 1 0.5897 3.456845081194048 1.0857382908457203 17.461970761921037 0 0 0
659 220 1 0.5897 0.6851946118246497 4.077590701594479 17.71448735951751 0 0 0
696 232 1 0.5897 8.095679440216838 4.849648935095236 17.058941768575604 0 0 0
670 224 2 -1.1794 2.0514287908075324 0.8132609851054564 18.436250800942727 0 0 0
681 227 1 0.5897 0.9226223237176998 2.3825862299461833 16.22255488279855 0 0 0
655 219 2 -1.1794 5.956400903749474 4.848498536950948 19.21648413457563 0 0 0
657 219 1 0.5897 6.683646071235768 4.708381227696612 18.609941833893505 0 0 0
660 220 1 0.5897 1.2017748276777724 4.820494611677935 16.500631187552578 0 0 0
708 236 1 0.5897 7.36660191516564 0.980657641727421 18.789699576817878 0 0 0
656 219 1 0.5897 5.192849836705611 4.492188856090798 18.76213655050042 0 0 0
38 13 1 0.5897 9.06396423340435 2.216459946395919 19.50665382531835 0 0 -1
715 239 2 -1.1794 7.592808545513952 2.2861177585381554 15.921548035169652 0 0 0
695 232 1 0.5897 8.27357243956853 3.365097766430594 17.296442776745977 0 0 0
707 236 1 0.5897 8.626881517147813 0.16402130857500438 18.982202241982087 0 0 0
694 232 2 -1.1794 8.265683092999103 4.208477771972887 17.749099778288866 0 0 0
35 12 1 0.5897 5.518596358797166 2.2213043639726457 20.400244522460405 0 0 -1
654 218 1 0.5897 4.184726113081095 0.4748505962597088 16.283347626462923 0 0 0
2 1 1 0.5897 2.4196838295022394 3.867817367171278 19.792075188752875 0 0 -1
679 227 2 -1.1794 1.0678728578688685 1.7105621083903428 15.556521580507564 0 0 0
36 12 1 0.5897 5.468527778181742 3.7343298292774514 20.40851710688352 0 0 -1
1 1 2 -1.1794 2.4158979066121438 3.019363736158514 20.235234517757572 0 0 -1
710 237 1 0.5897 8.8666115348802 4.687373986311146 20.134063190099898 0 0 0
689 230 1 0.5897 9.82295156280386 1.2395773463731388 17.28405579528658 0 0 0
37 13 2 -1.1794 9.324539232004659 2.6726750418528993 20.306858648951007 0 0 -1
717 239 1 0.5897 6.762360467946014 2.5171154246548593 15.505164733055357 0 0 0
711 237 1 0.5897 8.399434528448328 5.755868561230203 0.8022200932210292 0 0 1
55 19 2 -1.1794 7.51859962013507 6.4930838604372605 2.2774554967923506 0 0 0
14 5 1 0.5897 4.353925270101551 6.136337430435484 0.7550650770954848 0 0 0
110 37 1 0.5897 1.7851646223134914 8.788934076597162 0.8600114243614211 0 0 0
13 5 2 -1.1794 4.956698313970176 6.195504267760187 1.4963847870253069 0 0 0
15 5 1 0.5897 4.5548434353868235 6.837483448254544 2.0817816933930016 0 0 0
113 38 1 0.5897 4.7368274739708855 7.712064490411026 4.1475108616243315 0 0 0
19 7 2 -1.1794 0.8567744724882059 5.598945374404747 2.1513060831162836 0 0 0
21 7 1 0.5897 -0.027313971431636462 5.694836419758037 1.7969629400185856 0 0 0
56 19 1 0.5897 6.593256604718558 6.39735183357762 2.051759292359696 0 0 0
141 47 1 0.5897 1.1782744937722553 7.67036092059427 2.941499232414341 0 0 0
112 38 2 -1.1794 4.116607967801938 7.817196002623186 3.42592533664303 0 0 0
114 38 1 0.5897 3.2705992738493803 7.568296049550891 3.7983907685305907 0 0 0
140 47 1 0.5897 1.1584159966654488 9.181339701048477 3.0332976405662158 0 0 0
111 37 1 0.5897 3.1559581938692314 9.096448004818335 0.2954892425199578 0 0 0
674 225 1 0.5897 2.2995698438239947 5.7583059378162496 0.501217771840119 0 0 1
139 47 2 -1.1794 1.0020354147790689 8.457745513657112 2.4264672672234444 0 0 0
177 59 1 0.5897 7.847799038560456 9.851621720617167 1.7462688669178472 0 0 0
126 42 1 0.5897 4.2284625679596735 9.824416591681395 3.193829986657442 0 0 0
175 59 2 -1.1794 7.216685372778854 9.346856089999923 2.259371832048649 0 0 0
143 48 1 0.5897 5.747149828075613 9.251397183648669 1.1386828422344677 0 0 0
176 59 1 0.5897 7.5504135517838185 8.450046998051437 2.2352330432451355 0 0 0
132 44 1 0.5897 2.3219366400251333 6.486501553601075 5.140400371188299 0 0 0
142 48 2 -1.1794 5.047107038871357 9.110767739571614 0.5010740199663006 0 0 0
57 19 1 0.5897 7.6649838138146595 5.847955372101466 2.969280654326235 0 0 0
166 56 2 -1.1794 8.794261048771089 7.703717007920741 4.929383882005548 0 0 0
130 44 2 -1.1794 1.903855924661945 7.257998126072099 4.757974617271705 0 0 0
138 46 1 0.5897 6.990358435708609 7.576089579039171 5.225194927038039 0 0 0
145 49 2 -1.1794 9.420701267806015 9.99362692111658 0.6918566333608789 0 0 0
155 52 1 0.5897 7.768670766001776 9.980116501627492 3.7373965514063103 0 0 0
464 155 1 0.5897 0.7843898229508166 7.84538058688858 9.280720302453245 0 0 0
338 113 1 0.5897 5.291697824899949 6.286321514708691 8.269428743532039 0 0 0
26 9 1 0.5897 2.063897880449251 5.607477304906986 7.14899995458967 0 0 0
167 56 1 0.5897 9.208710690756455 6.999821080224944 5.4284496201679415 0 0 0
437 146 1 0.5897 4.066219270154231 7.3423420166270255 9.694018966069958 0 0 0
343 115 2 -1.1794 0.9666774900269774 5.932527177701015 8.660554249468976 0 0 0
500 167 1 0.5897 7.9033408401679415 9.391317686601079 9.720047680055607 0 0 0
499 167 2 -1.1794 7.712110615008773 8.700100451709313 9.086049046444739 0 0 0
468 156 1 0.5897 4.231124017066683 8.88600806880578 7.645240642516296 0 0 0
345 115 1 0.5897 0.035339155290459376 5.822444823753709 8.468490548752843 0 0 0
433 145 2 -1.1794 2.46669329749618 9.110335981728593 6.836474304537814 0 0 0
438 146 1 0.5897 4.1183379449402615 8.814103716409322 10.04488372358544 0 0 0
466 156 2 -1.1794 5.1740608332483475 8.988287217654717 7.515496532002052 0 0 0
470 157 1 0.5897 8.841208262003374 9.132575066725442 7.602016740065713 0 0 0
63 21 1 0.5897 8.560123014822416 5.822466656684018 7.265861521301898 0 0 0
381 127 1 0.5897 7.368305908911209 5.424056859350613 9.284865534195179 0 0 0
337 113 2 -1.1794 4.416184636742093 6.0609135264010225 8.584185382999571 0 0 0
467 156 1 0.5897 5.374954647080742 8.429891886910534 6.764389320448501 0 0 0
469 157 2 -1.1794 9.249985262148321 9.519618230775878 6.82777636202173 0 0 0
25 9 2 -1.1794 2.6949875809016652 5.428099894939864 6.451894550132908 0 0 0
434 145 1 0.5897 1.837840147377563 9.014855982553726 7.551889728741118 0 0 0
380 127 1 0.5897 7.358150658066227 6.808008335949432 8.671235476794095 0 0 0
501 167 1 0.5897 6.830763426112505 8.900681467935083 8.770770491136187 0 0 0
463 155 2 -1.1794 0.6499722075092631 8.760133739201999 9.032912343398548 0 0 0
379 127 2 -1.1794 7.138700122185856 5.895322409459237 8.483935574055446 0 0 0
137 46 1 0.5897 5.963911936346859 6.537323673471776 5.624605164798275 0 0 0
61 21 2 -1.1794 9.291220214484918 5.729368848231303 6.654923928613579 0 0 0
339 113 1 0.5897 3.9184975365707007 5.865791421524622 7.79006589986737 0 0 0
168 56 1 0.5897 8.852437450314879 8.469410157842477 5.500817062895408 0 0 0
344 115 1 0.5897 1.1615560473859594 5.250110589260204 9.302901152439599 0 0 0
136 46 2 -1.1794 6.072883910209878 7.477240586195359 5.479930424536819 0 0 0
131 44 1 0.5897 2.1584899554360715 7.979072295982147 5.333758086367485 0 0 0
456 152 1 0.5897 2.1548403325675056 6.601325261607734 12.519494454725594 0 0 0
351 117 1 0.5897 3.413456576468097 5.388369560141529 14.384941942857703 0 0 0
443 148 1 0.5897 1.3456715330227744 9.733729318564375 10.521036302246966 0 0 0
491 164 1 0.5897 9.108034995356252 7.947787501078844 11.151825322073979 0 0 0
794 265 1 0.5897 9.113404537230435 8.840432568686305 13.378361322340119 0 0 0
455 152 1 0.5897 2.4245365087172988 7.473060097951171 11.311402011370047 0 0 0
454 152 2 -1.1794 1.7605315511204565 7.281915311520138 11.973946518135103 0 0 0
492 164 1 0.5897 7.8047946353985385 7.622860056001334 11.850627445673473 0 0 0
759 253 1 0.5897 2.3424894600391966 8.528359962010454 13.099946030324388 0 0 0
385 129 2 -1.1794 9.436997361648164 5.613975675259819 13.637653372498784 0 0 0
757 253 2 -1.1794 2.7630981799951773 9.03366862171568 13.795730368609535 0 0 0
490 164 2 -1.1794 8.752870568903447 7.632156272353091 11.982859501098932 0 0 0
793 265 2 -1.1794 9.153363450438649 9.476723781886182 14.092409182756137 0 0 0
333 111 1 0.5897 5.6814538092197715 5.914021116831976 12.337909627271163 0 0 0
349 117 2 -1.1794 2.6382353446660227 5.141101793802005 13.880674082372526 0 0 0
705 235 1 0.5897 8.168549828250264 5.494062732777847 14.784080501946626 0 0 0
792 264 1 0.5897 4.659732281719014 9.22929468018645 14.25962597348752 0 0 0
460 154 2 -1.1794 5.921223102101058 7.7617418901145205 12.278970008762018 0 0 0
462 154 1 0.5897 5.400791480784765 7.933666755922064 11.494142405026839 0 0 0
791 264 1 0.5897 5.910420228476322 9.070129308359844 15.097904135806937 0 0 0
461 154 1 0.5897 5.744624640684586 8.507676778910872 12.852286094906498 0 0 0
387 129 1 0.5897 9.017494034051978 6.164013188828199 12.975969622806359 0 0 0
790 264 2 -1.1794 5.545775102013713 9.574255995187167 14.370408200475653 0 0 0
668 223 1 0.5897 0.8229540742720751 5.976517043112956 14.57368843307911 0 0 0
789 263 1 0.5897 1.4163841095454002 8.775916828892498 15.015365663217196 0 0 0
704 235 1 0.5897 6.723365738674018 5.660113403286897 15.203835502420846 0 0 0
661 221 2 -1.1794 4.926247788678541 5.798082457520887 15.219268588471687 0 0 0
824 275 1 0.5897 8.12051759024154 9.029543633361609 15.366666079353694 0 0 0
436 146 2 -1.1794 3.9115022093140723 7.955082904932456 10.413004756424396 0 0 0
758 253 1 0.5897 2.60414879565354 9.94724744225688 13.558448611954931 0 0 0
675 225 1 0.5897 2.381265817401323 6.35920806367258 19.411302702274988 0 0 0
760 254 2 -1.1794 4.4585793921776204 8.123464773598668 16.791543862380454 0 0 0
662 221 1 0.5897 4.822529083885134 5.142956332991928 15.90945584190158 0 0 0
823 275 2 -1.1794 7.468808452763994 8.578578720331135 15.903581895884257 0 0 0
816 272 1 0.5897 9.250418048750534 8.654149545249204 19.74075655536778 0 0 0
784 262 2 -1.1794 6.157301328021969 7.5032774045107145 18.910029434395476 0 0 0
109 37 2 -1.1794 2.225711537497914 9.101392598650722 20.366992581617623 0 0 -1
778 260 2 -1.1794 1.6758546007274433 7.6214355417257735 18.216996473420668 0 0 0
779 260 1 0.5897 1.852757150130624 8.350651214329234 18.811339516525074 0 0 0
780 260 1 0.5897 2.4571617713894423 7.565340255896746 17.666711641105664 0 0 0
786 262 1 0.5897 7.09817714524239 7.668535629982445 18.847868205336955 0 0 0
762 254 1 0.5897 5.0918986095676 8.014306629886494 17.501029959581622 0 0 0
144 48 1 0.5897 5.37962054174701 8.419785566097035 20.225460150367674 0 0 -1
814 272 2 -1.1794 8.799124564580515 8.037999741743107 19.16366342768903 0 0 0
788 263 1 0.5897 1.0438549110129192 9.293541925982492 16.388480856427776 0 0 0
785 262 1 0.5897 6.091309509924742 6.578682656809497 19.14880670299173 0 0 0
787 263 2 -1.1794 0.6741065271457867 8.873296771589679 15.611945805741485 0 0 0
815 272 1 0.5897 8.794012659862563 7.213518070809398 19.64995052728332 0 0 0
825 275 1 0.5897 7.587834496203413 7.651501114170635 15.697187578746847 0 0 0
669 223 1 0.5897 0.509926523858715 7.133909066135142 15.498096209178629 0 0 0
761 254 1 0.5897 4.440647371930828 9.066565082679144 16.628855682522346 0 0 0
663 221 1 0.5897 4.6717839815063575 6.62352108387564 15.631756257520522 0 0 0
703 235 2 -1.1794 7.61695263883964 5.667081892699344 15.54710693293263 0 0 0
673 225 2 -1.1794 2.8443665385131336 5.774789173092872 20.011588583291147 0 0 0
667 223 2 -1.1794 0.5290787525345845 6.177573152774394 15.462284341969543 0 0 0
709 237 2 -1.1794 8.972409924713888 5.61485247358561 20.345767318925606 0 0 0
284 95 1 0.5897 7.499149196307397 14.491871554459207 2.083683465307055 0 0 0
120 40 1 0.5897 1.0710703668279755 11.303309201271 3.259003898270549 0 0 0
275 92 1 0.5897 7.6528319571320065 13.924911190039516 5.072581976321763 0 0 0
220 74 2 -1.1794 4.033969043405062 14.471733376843153 3.200312950018297 0 0 0
819 273 1 0.5897 8.807607792736286 12.909824856965395 0.4333755349698235 0 0 1
121 41 2 -1.1794 5.0642542454326955 12.287484271952914 1.7270236076471703 0 0 0
129 43 1 0.5897 0.6700087777290765 13.430004179412636 2.265319964074037 0 0 0
156 52 1 0.5897 9.08078694384958 10.646940225150844 4.092334293110799 0 0 0
222 74 1 0.5897 4.530212180880593 14.368992513669147 2.38815842813346 0 0 0
154 52 2 -1.1794 8.15163375904872 10.633911569754513 4.322393920072369 0 0 0
122 41 1 0.5897 4.457166435964998 12.019355299746492 1.0371527539557222 0 0 0
123 41 1 0.5897 4.689851026670688 11.925484071557147 2.530217060704395 0 0 0
238 80 2 -1.1794 1.9180840206651197 13.849202867558057 5.038597943853571 0 0 0
127 43 2 -1.1794 0.5893515824911606 12.529789489436613 1.9501309439777543 0 0 0
240 80 1 0.5897 2.5004754764632082 14.081605816063991 4.315266250630865 0 0 0
125 42 1 0.5897 4.690018979045689 10.59129906378719 4.414909624337174 0 0 0
118 40 2 -1.1794 1.3242503811755095 10.606235786597871 3.8642274082705574 0 0 0
163 55 2 -1.1794 7.683755439701959 12.631919460809414 2.107636022336806 0 0 0
164 55 1 0.5897 6.748017450745911 12.487695398627812 1.9661599167191053 0 0 0
165 55 1 0.5897 7.867210918501127 12.210895194533448 2.947547198086738 0 0 0
119 40 1 0.5897 2.281290604747423 10.605023830120604 3.8421068981528963 0 0 0
246 82 1 0.5897 5.228910119327601 13.734495866321387 4.447695018925582 0 0 0
124 42 2 -1.1794 4.120106543245847 10.659573974730321 3.64879984977815 0 0 0
783 261 1 0.5897 2.154014553040973 12.167389459250064 0.7711977428805669 0 0 1
276 92 1 0.5897 8.85438112094049 14.4552153284046 4.319373629800019 0 0 0
274 92 2 -1.1794 8.490828439620305 14.36954413501648 5.200776344097098 0 0 0
244 82 2 -1.1794 5.851983830643683 13.636849637809366 5.167871538417309 0 0 0
146 49 1 0.5897 9.260086788402637 10.910853909953646 0.4701438090577192 0 0 0
133 45 2 -1.1794 2.4807683303767414 11.708893382717964 6.88093592413891 0 0 0
134 45 1 0.5897 1.969152514631134 11.950819737446258 7.65301331008631 0 0 0
135 45 1 0.5897 3.39179052158643 11.764312026431222 7.169675837514179 0 0 0
573 191 1 0.5897 1.2623988704632672 14.445310141954408 9.259294041500922 0 0 0
170 57 1 0.5897 9.012023904674066 12.624511385544801 6.1509988408257446 0 0 0
446 149 1 0.5897 4.389865910498891 13.338816871119972 9.058303735348135 0 0 0
453 151 1 0.5897 1.0265771043959007 11.699973398069078 9.831289785313004 0 0 0
489 163 1 0.5897 7.330250967871115 13.995355802141813 9.203090696382379 0 0 0
239 80 1 0.5897 2.3869441134469738 13.162673305923937 5.513115271810964 0 0 0
435 145 1 0.5897 2.451746695707506 10.044186248414459 6.626826927624014 0 0 0
447 149 1 0.5897 5.567718497927628 12.506155490506389 8.598337262254482 0 0 0
171 57 1 0.5897 9.161661909668101 11.337126608655183 6.933401408389077 0 0 0
450 150 1 0.5897 4.436755740615663 11.415649459489261 9.688031227648848 0 0 0
445 149 2 -1.1794 4.635069165588317 12.651508249706122 8.438784265675334 0 0 0
169 57 2 -1.1794 9.127670762671695 12.28780892514507 7.039569505822168 0 0 0
487 163 2 -1.1794 7.427523911765992 13.048889703388651 9.098317413999697 0 0 0
488 163 1 0.5897 8.122395460736326 12.949624351935979 8.447396721664951 0 0 0
451 151 2 -1.1794 0.7890714998001411 12.261759910113733 9.09351732286642 0 0 0
117 39 1 0.5897 5.6055551295273895 10.311856875349331 6.461768997394968 0 0 0
480 160 1 0.5897 7.862955890905635 11.561302563164524 10.272579859041857 0 0 0
115 39 2 -1.1794 5.799785363478153 10.885190130538788 5.720217808798493 0 0 0
245 82 1 0.5897 5.794461751121662 12.712921186527877 5.411368850796233 0 0 0
544 182 2 -1.1794 4.11638004765534 14.660410590162773 10.223222722582616 0 0 0
575 192 1 0.5897 5.6309008312059845 14.702018103823477 6.734542458924819 0 0 0
448 150 2 -1.1794 4.564015664965326 10.698835866503037 10.30955801342017 0 0 0
317 106 1 0.5897 0.12058168060904428 13.808142433420732 5.493894358713927 1 0 0
116 39 1 0.5897 6.722910986133863 10.722182741540793 5.526120156854283 0 0 0
457 153 2 -1.1794 2.3466221456234555 11.916074733481215 13.875532096631654 0 0 0
458 153 1 0.5897 1.6078211480129472 11.94040592796066 14.483804677289667 0 0 0
459 153 1 0.5897 3.016260306491615 12.460789482286708 14.289332231896065 0 0 0
599 200 1 0.5897 8.81859436473565 13.443265713890533 12.280720827440279 0 0 0
769 257 2 -1.1794 4.303858399274072 13.16285111081712 15.155964894050726 0 0 0
563 188 1 0.5897 2.152373103888769 13.066484478869647 12.599328769185117 0 0 0
493 165 2 -1.1794 8.88632978666215 12.048332173727172 13.509902577211445 0 0 0
570 190 1 0.5897 6.92484981339434 14.583568337151238 11.908641045720957 0 0 0
568 190 2 -1.1794 6.025836225606503 14.499568451921846 12.226624712838884 0 0 0
495 165 1 0.5897 9.74084628478251 12.304267408872429 13.85730738778358 0 0 0
600 200 1 0.5897 8.966582924763554 14.931743241470448 12.51408992763436 0 0 0
770 257 1 0.5897 5.226836573557772 12.918166974405581 15.224078844464518 0 0 0
569 190 1 0.5897 6.002207484438921 13.644619716345192 12.656488847091534 0 0 0
478 160 2 -1.1794 8.00444127798451 10.785911236891609 10.815764693004553 0 0 0
449 150 1 0.5897 5.029150258220209 11.098260705451722 11.044731526313038 0 0 0
441 147 1 0.5897 5.5572302531114675 11.169788796199095 13.279521350752123 0 0 0
439 147 2 -1.1794 5.815448312666086 11.693931207152982 12.521300873847556 0 0 0
440 147 1 0.5897 6.710104357953679 11.413017695996972 12.328749306579798 0 0 0
442 148 2 -1.1794 1.6859680849937675 10.486975529399976 11.003867771971326 0 0 0
494 165 1 0.5897 8.263033208176438 12.313156348087363 14.186490119187424 0 0 0
562 188 2 -1.1794 2.039799918048677 13.837420748799985 12.043255446629875 0 0 0
479 160 1 0.5897 8.937600834755056 10.808665602039937 11.028180622430565 0 0 0
598 200 2 -1.1794 8.774914072433143 14.28779428736871 11.83223754988028 0 0 0
581 194 1 0.5897 9.98132180521772 14.746593569410615 10.576022872200761 0 0 0
545 182 1 0.5897 3.3674071695658747 14.297998576468864 10.69659358591259 0 0 0
546 182 1 0.5897 4.852748139034708 14.561016023639986 10.82678942406282 0 0 0
795 265 1 0.5897 8.905256061834734 10.307768960254498 13.687376751673273 0 0 0
642 214 1 0.5897 0.14737261626872672 14.274311958741393 12.179228797015226 1 0 0
564 188 1 0.5897 2.2009810776689065 14.579359313856761 12.626213476624088 0 0 0
444 148 1 0.5897 2.6252754716625772 10.486073497877548 10.819129986939625 0 0 0
765 255 1 0.5897 5.725895045654236 10.63541869052549 19.878167251315432 0 0 0
888 296 1 0.5897 2.2643216888669184 13.12734238518116 18.996083354737735 0 0 0
777 259 1 0.5897 0.7118353104253647 13.223326717515999 15.953797701227316 0 0 0
965 322 1 0.5897 0.3637502984695854 13.753596950982319 18.498534413898145 1 0 0
772 258 2 -1.1794 4.205725336179118 10.911790288368575 17.079767310266867 0 0 0
802 268 2 -1.1794 7.959438844221317 10.874079458653204 17.472029996437502 0 0 0
922 308 2 -1.1794 8.610905741456351 14.61805660689582 18.310302952076995 0 0 0
774 258 1 0.5897 4.284271575566989 11.679907481980639 16.51398765200226 0 0 0
813 271 1 0.5897 7.209755467697692 12.047106169988378 16.48072740313605 0 0 0
886 296 2 -1.1794 2.188366471557941 13.867936453307147 18.394388073348452 0 0 0
812 271 1 0.5897 7.305106041952179 13.427920124040062 15.867346194065842 0 0 0
773 258 1 0.5897 3.2647479678950124 10.819090026361245 17.22935190547816 0 0 0
924 308 1 0.5897 9.357570290263325 14.683247239485413 17.714775191847465 0 0 0
768 256 1 0.5897 1.0302403592404379 11.147919649280757 16.94090459723565 0 0 0
764 255 1 0.5897 5.178112453102244 11.13909053585514 18.55964855016213 0 0 0
767 256 1 0.5897 0.5502692698677997 10.805546213156205 18.33540209131842 0 0 0
766 256 2 -1.1794 1.2276420917800082 10.590882681378334 17.693944437799253 0 0 0
804 268 1 0.5897 7.690268938485289 10.109367661010781 16.963079309763344 0 0 0
803 268 1 0.5897 7.36873479106063 10.881103161134405 18.225277344542537 0 0 0
763 255 2 -1.1794 5.790718462697874 11.36354623067231 19.26017089250178 0 0 0
818 273 1 0.5897 9.00882703721505 13.280303028742914 19.276585329291716 0 0 0
869 290 1 0.5897 3.6089716070608664 14.489819688244099 17.568850746351437 0 0 0
868 290 2 -1.1794 4.4337102202742615 14.803946772260547 17.198042610844833 0 0 0
892 298 2 -1.1794 6.054508970457976 14.227352922587587 19.19952017793762 0 0 0
894 298 1 0.5897 5.977896986967323 13.29745847329874 19.41323930397294 0 0 0
817 273 2 -1.1794 9.093219273416512 12.550780908385066 19.89055682423104 0 0 0
893 298 1 0.5897 6.8974572627841555 14.302116428527293 18.752017534545626 0 0 0
870 290 1 0.5897 5.0957139747439415 14.562051630056487 17.84584140124854 0 0 0
811 271 2 -1.1794 7.071705387754434 12.522705122369281 15.661514533371136 0 0 0
782 261 1 0.5897 2.704559420789657 10.99107362486164 20.290550093607425 0 0 0
887 296 1 0.5897 2.165521076479616 14.637665538231788 18.962958884546374 0 0 0
775 259 2 -1.1794 0.48455213862894453 12.303020441197072 15.821031211184335 0 0 0
771 257 1 0.5897 4.189146550777642 13.851403346626785 15.810991410924444 0 0 0
810 270 1 0.5897 9.982595390249127 11.001491836520595 17.748393699488787 0 0 0
781 261 2 -1.1794 2.7673537452294292 11.943014360694763 20.368646185055148 0 0 0
890 297 1 0.5897 1.6154919784781987 18.971995039917235 0.6610484650887571 0 0 1
248 83 1 0.5897 0.9656287262245294 15.936742376615891 2.911055849494051 0 0 0
232 78 2 -1.1794 4.437077101745059 17.231541383477502 3.951896138234343 0 0 0
271 91 2 -1.1794 6.948264261144127 19.513001122231316 1.8186816182647818 0 0 0
250 84 2 -1.1794 5.006436920650834 15.65823986299034 0.8627236596948795 0 0 0
233 78 1 0.5897 4.379805633835875 18.00997717303635 3.397787935775762 0 0 0
230 77 1 0.5897 3.4155973997865976 18.824698310401484 1.4076374202058615 0 0 0
253 85 2 -1.1794 9.354375889245611 16.187335406842095 0.3615563469961746 0 0 0
247 83 2 -1.1794 0.6780347350528909 15.385381227148853 2.1832972232155337 0 0 0
231 77 1 0.5897 4.9047145188660375 19.089424800537735 1.4764168907286126 0 0 0
226 76 2 -1.1794 1.6732005850234852 17.167887034883265 4.060027125785762 0 0 0
227 76 1 0.5897 1.6147022281076593 17.931101607100473 3.4852436256758907 0 0 0
228 76 1 0.5897 2.612239856083773 17.04215603754713 4.1972159073897455 0 0 0
283 95 2 -1.1794 7.398271475140176 15.443561346458116 2.064940836385706 0 0 0
234 78 1 0.5897 5.003518000866337 17.494401120792194 4.677409321120473 0 0 0
262 88 2 -1.1794 8.029931165114828 17.61887045509399 3.8562306601093863 0 0 0
273 91 1 0.5897 7.302935004300365 19.057722704411642 2.582416381609317 0 0 0
263 88 1 0.5897 7.782192819670575 16.725513036945866 3.617900305198446 0 0 0