#include		in.partitions
include		in.temp
variable        temperature equal 276.47
variable	tempDamp equal 100.0
include		in.pressure
variable        pressure equal 7838.4
variable        pressureDamp equal 1000.0 # This is 1 ps
include		in.seed
variable        seed equal 745823

units		real
atom_style	full

read_restart	restart.lmp.${pid}
read_restart	restart.lmp.1
Reading restart file ...
  restart file = 30 Jul 2021, LAMMPS = 30 Jul 2021
  restoring atom style full from restart
  orthogonal box = (0.074003696 0.019728597 0.052034166) to (19.925997 19.980272 20.647964)
  2 by 4 by 4 MPI processor grid
  restoring pair style lj/cut/tip4p/long/omp from restart
  restoring bond style harmonic/omp from restart
  restoring angle style harmonic/omp from restart
  972 atoms
  648 bonds
  324 angles
Finding 1-2 1-3 1-4 neighbors ...
  special bond factors lj:    0        0        0       
  special bond factors coul:  0        0        0       
     2 = max # of 1-2 neighbors
     1 = max # of 1-3 neighbors
     1 = max # of 1-4 neighbors
     2 = max # of special neighbors
  special bonds CPU = 0.002 seconds
  read_restart CPU = 0.008 seconds
include 	in.setup
variable	out_freq equal 1000
variable	out_freq2 equal 10000
variable	out_freq3 equal 1000

timestep	2.0

neigh_modify    delay 7 every 1

include		in.tip4p
# This is TIP4P/Ice

# create groups ###
group ox type 2
324 atoms in group ox
group hy type 1
648 atoms in group hy

# set charges - beside manually ###
set group ox charge -1.1794
Setting atom values ...
  324 settings made for charge
set group hy charge 0.5897
Setting atom values ...
  648 settings made for charge

# ### TIP3P Potential Parameters ###
pair_style lj/cut/tip4p/long/omp 2 1 1 1 0.1577 8.5
pair_coeff 1 1*2 0.000 0.000
pair_coeff 2 2 0.21084 3.1668
bond_style  harmonic
bond_coeff  1 450 0.9572
angle_style harmonic
angle_coeff 1 55 104.52
kspace_style pppm/tip4p/omp 1.0e-5
pair_modify tail yes

thermo          ${out_freq}
thermo          1000
thermo_style    custom step temp pe etotal epair emol press lx ly lz vol pxx pyy pzz pxy pxz pyz enthalpy

restart 	${out_freq3} restart.lmp.${pid} restart2.lmp.${pid}
restart 	1000 restart.lmp.${pid} restart2.lmp.${pid}
restart 	1000 restart.lmp.1 restart2.lmp.${pid}
restart 	1000 restart.lmp.1 restart2.lmp.1


include         in.dump
dump            myDump all atom ${out_freq2} dump.water.${pid}
dump            myDump all atom 10000 dump.water.${pid}
dump            myDump all atom 10000 dump.water.1
dump            myDump2 all dcd ${out_freq2} dump.dcd
dump            myDump2 all dcd 10000 dump.dcd
dump_modify     myDump append yes
dump_modify     myDump2 append yes


variable natoms 	equal  "count(all)"                        # NUMBER ATOMS
variable H      	equal  "enthalpy/v_natoms"                 # ENTHALPY-per-atom
variable Vol      	equal  "vol/v_natoms"                 # volume-per-atom
fix AVG all 		ave/time ${out_freq} 1 ${out_freq} v_Vol v_H file vol_enthalpy.dat
fix AVG all 		ave/time 1000 1 ${out_freq} v_Vol v_H file vol_enthalpy.dat
fix AVG all 		ave/time 1000 1 1000 v_Vol v_H file vol_enthalpy.dat


timer           timeout 02:55:00 every 1000
New timer settings: style=normal  mode=nosync  timeout=02:55:00

fix 		1 all shake 1e-6 200 0 b 1 a 1
       0 = # of size 2 clusters
       0 = # of size 3 clusters
       0 = # of size 4 clusters
     324 = # of frozen angles
  find clusters CPU = 0.000 seconds
fix             2 all nph aniso ${pressure} ${pressure} ${pressureDamp}
fix             2 all nph aniso 7838.4 ${pressure} ${pressureDamp}
fix             2 all nph aniso 7838.4 7838.4 ${pressureDamp}
fix             2 all nph aniso 7838.4 7838.4 1000
fix             3 all temp/csvr ${temperature} ${temperature} ${tempDamp} ${seed}
fix             3 all temp/csvr 276.47 ${temperature} ${tempDamp} ${seed}
fix             3 all temp/csvr 276.47 276.47 ${tempDamp} ${seed}
fix             3 all temp/csvr 276.47 276.47 100 ${seed}
fix             3 all temp/csvr 276.47 276.47 100 745823


run             250000
PPPM initialization ...
  extracting TIP4P info from pair style
  using 12-bit tables for long-range coulomb (../kspace.cpp:340)
  G vector (1/distance) = 0.37173726
  grid = 24 24 24
  stencil order = 5
  estimated absolute RMS force accuracy = 0.0035664352
  estimated relative force accuracy = 1.0740214e-05
  using double precision FFTW3
  3d grid and FFT values/proc = 3211 432
Last active /omp style is kspace_style pppm/tip4p/omp
Neighbor list info ...
  update every 1 steps, delay 7 steps, check yes
  max neighbors/atom: 2000, page size: 100000
  master list distance cutoff = 10.8154
  ghost atom cutoff = 10.8154
  binsize = 5.4077, bins = 4 4 4
  1 neighbor lists, perpetual/occasional/extra = 1 0 0
  (1) pair lj/cut/tip4p/long/omp, perpetual
      attributes: half, newton on, omp
      pair build: half/bin/newton/omp
      stencil: half/bin/3d
      bin: standard
Per MPI rank memory allocation (min/avg/max) = 10.18 | 10.19 | 10.19 Mbytes
Step Temp PotEng TotEng E_pair E_mol Press Lx Ly Lz Volume Pxx Pyy Pzz Pxy Pxz Pyz Enthalpy 
 3000000    279.18939   -4638.8416   -4100.4014   -4638.8416            0    7654.4241    19.851994    19.960544     20.59593    8161.2728    7545.8092    8442.0833    6975.3797    316.90521   -1485.9576    1357.6734   -3189.3428 
 3001000     270.1092   -4651.8951   -4130.9668   -4651.8951            0     7471.873    20.199519    19.683429    20.518643    8158.1263    5618.4979    8903.0005    7894.1206   -337.71394    1907.5951    567.79888    -3241.979 
 3002000     290.3684   -4682.9609    -4122.961   -4682.9609            0    8273.9369    19.748921    20.036072    20.556747    8134.1156    9493.2144    7507.9132    7820.6829   -722.42574   -193.03372   -27.606464   -3141.4426 
 3003000    272.81104   -4664.6006   -4138.4616   -4664.6006            0    6267.8903    19.855773    20.184637    20.534335     8229.783    7526.3022    5509.3803    5767.9883    554.56523   -1565.3649    -527.3803   -3386.1709 
 3004000    272.46657   -4692.7046   -4167.2299   -4692.7046            0    8662.4012    20.152021    19.979058    20.194921     8130.847    8935.1428    6467.0561    10585.005    218.92571    2871.1707   -371.67107   -3140.0418 
 3005000    280.91775   -4671.6677   -4129.8942   -4671.6677            0    8206.2089    19.961652    20.107082    20.330964    8160.2506     8082.718    7307.1428    9228.7659    192.44969    1565.3683    1783.6071   -3153.2824 
 3006000    275.22013   -4643.7771   -4112.9919   -4643.7771            0    8355.6954    19.791148    20.032816    20.657696    8190.2069    8812.1578    8007.1371    8247.7911    378.61418   -1458.6378   -1535.0403   -3114.9395 
 3007000     288.7054   -4672.0326   -4115.2399   -4672.0326            0    7363.1926    20.022736    19.923369    20.397431    8136.9506    6279.6316    7918.8955    7891.0506   -239.77856    527.69405    155.43235   -3241.4567 
 3008000    261.24846   -4633.6717   -4129.8321   -4633.6717            0    8116.4743    19.847478    20.039387    20.638056    8208.4009    11411.011    6266.7578     6671.654   -437.19532   -1409.4405    -1027.003   -3158.1999 
 3009000    283.31052   -4643.6538   -4097.2656   -4643.6538            0    9007.4832    20.153695    19.764001    20.475978    8155.9435    8770.6819    10160.336    8091.4315    181.67816   -109.78851   -299.36823   -3025.8609 
 3010000    275.73528    -4641.524   -4109.7454    -4641.524            0    8243.0309    19.917886    20.128842    20.310335    8142.9003    9948.8779    5963.4951    8816.7195    1035.0619   -1204.5463   -1341.2051   -3130.8372 
 3011000    273.65115   -4652.1274   -4124.3681   -4652.1274            0    9546.7196    20.056561    19.860926     20.30126    8086.8418    9914.7895     7802.145    10923.224   -216.77701   -922.20963    1823.3063   -2998.4443 
 3012000     284.7094   -4628.9111   -4079.8251   -4628.9111            0    8042.2732    19.819766    20.080361    20.628789    8210.0116    7572.6521    8422.4558    8131.7118    922.52076    1611.5789    169.15938   -3116.8867 
 3013000    284.13915   -4633.8135   -4085.8272   -4633.8135            0    6922.4341    19.964078    19.604719    20.870754    8168.6072    7315.7528    7924.0503    5527.4994   -97.187852    249.61517    803.96139   -3261.1524 
 3014000    268.45594   -4655.8881   -4138.1482   -4655.8881            0    9044.3821    19.819201    20.000697    20.455893    8108.6717    9781.0366    8820.0851    8532.0246    265.15776    366.71747   -1270.5977   -3068.5898 
 3015000    274.80603   -4669.0891   -4139.1025   -4669.0891            0    7309.9411    20.031325    19.848145    20.535675    8164.6686    6721.1423    7676.8259    7531.8551    258.15542    959.51654    1442.4805   -3268.6836 
 3016000    277.58842   -4655.4101   -4120.0575   -4655.4101            0     8638.296    19.908061    19.926489    20.321703    8061.5741    7344.2483    8701.1171    9869.5225    748.55838    1268.4523   -105.88962   -3104.4549 
 3017000    279.88492   -4669.5009   -4129.7193   -4669.5009            0    8688.4409    20.104584    19.809862    20.390207    8120.7878    9387.1539    8245.4871    8432.6818    435.56666    1060.7739    799.03009   -3100.7181 
 3018000    272.62105   -4682.3693   -4156.5967   -4682.3693            0    8676.0163    19.727309    20.049505      20.4771    8099.1598    8886.3178     8571.791    8569.9402    460.47676    312.05648    179.06673   -3131.8036 
 3019000    274.22673   -4659.5732   -4130.7039   -4659.5732            0    7832.3618    19.950955     19.90563    20.516176     8147.719    10869.568    5889.5523    6737.9649   -330.28463   -425.38921     444.5467   -3200.0147 
 3020000    268.44073   -4655.5228   -4137.8123   -4655.5228            0    8063.9649    20.277645    19.696902     20.48294    8181.0254    7669.2372     8491.381    8031.2764   -487.20795   -823.64095    582.31293   -3175.6856 
 3021000    268.67053   -4672.4944   -4154.3407   -4672.4944            0    9031.8272    19.987015    19.995352     20.28894    8108.4219    8282.5845     9505.102    9307.7951    208.71836    947.90206   -417.09077   -3086.2999 
 3022000    266.26469   -4641.3111   -4127.7973   -4641.3111            0    8202.3068    19.737393    19.767302    20.949792    8173.6664    11140.583    6881.8428    6584.4948   -207.80781   -1440.4765   -1728.1661    -3150.045 
 3023000    264.83138   -4651.7678   -4141.0182   -4651.7678            0    8063.1509    19.909068    19.656282    20.690078    8096.8189    8340.5751    7559.4033    8289.4744    953.63164   -273.72606     119.9938   -3188.8907 
 3024000    291.91618   -4639.3711   -4076.3862   -4639.3711            0    7490.3684    19.949828    19.822784    20.630908    8158.7222    8547.3037     7320.103    6603.6985    488.92159    -1153.021    1269.0547   -3185.1328 
 3025000    294.76927   -4662.8687   -4094.3814   -4662.8687            0    8497.6484    20.265038    19.707639    20.349609    8127.1465    6137.0816    8488.9399    10866.924    344.56941    923.63262    170.03139   -3087.1883 
 3026000    287.44266   -4643.0021   -4088.6447   -4643.0021            0    7078.5639    19.926784    20.059592    20.418223    8161.6363    7122.0529    8036.6336    6077.0052    958.73341   -798.61884    315.10125   -3246.0897 
 3027000    282.14176   -4624.4541     -4080.32   -4624.4541            0    10304.592    20.054381    19.744366    20.449149    8097.0664    11121.198    9557.7828    10234.795   -377.68571   -310.98481   -1128.4659   -2863.4775 
 3028000    279.72335    -4682.056    -4142.586    -4682.056            0    5929.0492    19.796854    19.709132    21.018404     8200.936    7100.0228    6366.1352    4320.9897    753.11313    -811.2272   -1527.3912   -3433.4584 
 3029000    285.48295   -4662.0123   -4111.4344   -4662.0123            0    11429.301     19.94895    19.782849    20.443285    8067.8823    12246.906    11136.453    10904.543    392.65019   -1422.4124   -370.62092   -2766.6424 
 3030000    263.30003   -4620.8935   -4113.0972   -4620.8935            0    6868.6267    20.044298    19.939301    20.539663    8209.0725    6369.3221    8028.0634    6208.4947   -648.68574   -1743.1545     776.3534   -3290.7791 
 3031000    278.93448   -4635.1073   -4097.1588   -4635.1073            0    7320.2077    19.861397    20.080507    20.483071       8169.2    9222.3791    4718.8188    8019.4251    505.13141    400.46438      679.451   -3225.0336 
 3032000      278.516     -4647.91   -4110.7685     -4647.91            0     7535.557    20.019621     19.83209    20.545552    8157.2199    7847.8528    7100.7088    7658.1094   -514.68253    173.47526    1283.8627   -3214.3033 
 3033000    282.35751   -4664.1332   -4119.5829   -4664.1332            0    7397.3476    19.995929    19.783054     20.65284    8169.8616    8603.3846    7135.6973    6452.9609   -325.55757   -1195.6079   -588.97464    -3238.196 
 3034000    276.75575   -4684.0551   -4150.3084   -4684.0551            0    7510.7631    19.754485    20.091291    20.465115    8122.4628    8948.2741    6494.7064    7089.3087   -164.96625   -684.61973   -1441.9283      -3260.6 
 3035000    269.82044   -4693.1323   -4172.7609   -4693.1323            0    7426.7124    20.045884    19.916875    20.331444    8117.3567    7555.1699    7341.0423     7383.925     714.9949   -1372.6094    1834.3718    -3293.562 
 3036000    270.61103   -4687.7868   -4165.8906   -4687.7868            0    7224.6344    19.948728    20.034167    20.325953    8123.3921    8924.7623    5215.1973    7533.9437   -130.94499     432.2667   -472.64147   -3309.9785 
 3037000    274.21448   -4672.9885   -4144.1428   -4672.9885            0    6662.9296    20.084579    19.910979    20.419653    8165.8937    5702.8064     7339.187    6946.7955    784.10939   -840.50962    37.933186   -3350.6466 
 3038000    293.39232   -4665.8427    -4100.011   -4665.8427            0    9036.0219    19.870682    19.914159    20.520426    8120.0949    8219.9058    9404.3843    9483.7754   -1424.4154   -388.85593    394.88347   -3029.9359 
 3039000    270.76321   -4673.3687   -4151.1791   -4673.3687            0    6634.8648    19.897339    19.924015    20.689117    8201.8878    6868.8583    6966.8385    6068.8975    -350.7923    199.89526   -81.209221   -3357.5423 
 3040000    282.65175   -4677.2877     -4132.17   -4677.2877            0    8613.1429    19.872241    19.867126    20.669006    8160.2128    6636.5025    11784.473    7418.4536    141.15854   -593.05915    908.38899   -3107.1342 
 3041000    279.32946   -4658.6616   -4119.9512   -4658.6616            0    7752.7268    20.075608    19.854154    20.532197    8183.8096    8127.2018    8080.1352    7050.8435    518.06731   -644.79305    506.01107   -3194.6442 
 3042000    276.53502   -4665.1089   -4131.7878   -4665.1089            0    7953.0515    19.884279    19.871812     20.57557    8130.1619    10155.424    6085.3815    7618.3488    517.74427    680.53641   -435.76153   -3188.7939 
 3043000    284.58722   -4651.3737   -4102.5233   -4651.3737            0    8532.4004    19.956898    19.699795    20.670115    8126.3896    9698.9312    7814.4126    8083.8574   -908.48551   -1552.7442   -356.94062   -3091.3054 
 3044000    268.94769   -4672.4204   -4153.7322   -4672.4204            0    9206.5982    19.910096    19.735063    20.482574    8048.1563    6697.7459    11426.262     9495.787   -107.66478   -669.25205   -1340.5247    -3073.116 
 3045000    262.17655   -4670.4877   -4164.8582   -4670.4877            0    10019.531    19.936684    19.835974    20.455498    8089.4036    9794.4625    11016.003    9248.1261    270.22181    308.47237    273.34512   -2982.7975 
 3046000    270.02867   -4686.2309   -4165.4579   -4686.2309            0    6231.6149    20.114129     20.15826    20.452309    8292.7125    6161.4168    5726.0901    6807.3378   -528.38467   -1217.4287   -2.1034386    -3411.802 
 3047000    281.36333   -4670.7646   -4128.1318   -4670.7646            0    8679.9274    20.004805    19.979061    20.253954    8095.0442     8963.197    8314.9125    8761.6728   -555.07682   -1530.6808    55.757592   -3103.3976 
 3048000     277.7026   -4693.1817   -4157.6089   -4693.1817            0    9930.1353    19.881554    19.860491    20.568825    8121.7537    10047.133    10514.736    9228.5363   -288.27975    633.38543    1162.6547   -2981.4098 
 3049000    282.80557   -4662.6581   -4117.2438   -4662.6581            0    7464.3622    19.832355    19.843216    20.752737    8166.9843    6081.2433    9653.0944     6658.749    42.898188    1438.0802    939.75707   -3228.1853 
 3050000    271.23543   -4678.5231   -4155.4228   -4678.5231            0     8555.025    19.908111    19.821489    20.578525    8120.4589    9008.1611    9318.0453    7338.8687    485.37341    828.81503    179.13887   -3142.2634 
 3051000    297.02685   -4623.1494   -4050.3082   -4623.1494            0    8280.2356    19.829239     20.16636    20.471796    8186.3354    9284.8639    7585.7896    7970.0532    110.16313   -722.00521    228.83748   -3061.7366 
 3052000    256.07363   -4653.6387   -4159.7792   -4653.6387            0    6620.5842    20.209295    19.740178     20.58017     8210.152    4827.7577     7339.558    7694.4368   -624.89523     -2051.28   -932.51588   -3367.0526 
 3053000    249.38768   -4651.9819   -4171.0168   -4651.9819            0      7525.01    19.764222    20.104901    20.504531     8147.634    6731.6333    8414.7031    7428.6938   -52.811973   -393.90662   -559.25634   -3276.8584 
 3054000    288.78191   -4652.2264   -4095.2862   -4652.2264            0    9157.8725    19.968951     19.92598    20.421449     8125.713    9752.7981     9419.238    8301.5814    64.480887    1043.4849    1422.1065   -3010.0308 
 3055000    286.57378   -4684.2294   -4131.5478   -4684.2294            0    7038.5296     20.02265    20.210639    20.242251    8191.4429    7134.6069    6150.0551    7830.9269   -73.040701     418.9897    1633.4265   -3290.6983 
 3056000    274.47462   -4614.8089   -4085.4615   -4614.8089            0    8262.7964    20.077953    19.857302    20.536111    8187.6236    8855.3316    7874.0482    8059.0092    130.91436   -1527.8713    1553.9225   -3098.8168 
 3057000    273.38581   -4705.0412   -4177.7936   -4705.0412            0    6952.1661    19.840893    19.993981    20.697811    8210.7894    9207.8191    5820.8353     5827.844   -638.96677   -432.85534    607.90324      -3345.3 
 3058000     274.7808   -4663.0967   -4133.1588   -4663.0967            0    5950.9289     20.26432    19.863481    20.397689    8210.4766    3051.1156    8263.3751    6538.2959   -563.22819     -430.607    -285.8771   -3420.5864 
 3059000     274.4903   -4653.1204   -4123.7428   -4653.1204            0     8851.667    19.766996     20.06892    20.468975    8120.0886    9605.4176    7970.5605    8979.0228     666.2575   -556.77153   -407.09652   -3075.5004 
 3060000    276.54612   -4660.2012   -4126.8588   -4660.2012            0     7910.942    20.080673    19.699812    20.595812    8147.4042    6260.4221     8460.454    9011.9497   -427.05453    759.04933    621.47998   -3186.8685 
 3061000    272.73898   -4639.4223   -4113.4222   -4639.4223            0    9742.2928    19.932096    19.841321    20.346812    8046.7391    10823.831    8153.7669    10249.281    428.10639    2215.4121   -197.22847   -2970.1307 
 3062000    289.07967     -4635.77   -4078.2556     -4635.77            0    7733.0385    19.823343    19.884786    20.726588    8170.0671    8793.4526    7351.9548     7053.708   -128.18173    636.74015    258.52919   -3156.8482 
 3063000    277.44191   -4632.6182   -4097.5481   -4632.6182            0    7880.2735    19.857639    19.949723    20.574627    8150.7289    6196.0412    10212.499    7232.2801   -233.02283    316.43056   -319.42499   -3160.8198 
 3064000    272.61998   -4653.2155   -4127.4449   -4653.2155            0    7788.9221    20.232671    20.028006    20.085349    8138.9859    5286.9988    9299.8715    8779.8961   -182.37134    -438.6083   -107.13944   -3202.9095 
 3065000    285.62926   -4687.6437   -4136.7836   -4687.6437            0    8529.9828    19.954297    20.044234    20.286295     8113.881    8157.5358    6296.0459    11136.367    596.34484   -413.94247    422.96071   -3127.4083 
 3066000    292.47765   -4655.9657    -4091.898   -4655.9657            0      5528.44    20.127685    19.937193    20.588923    8262.1192    4525.0189    6826.7328    5233.5682    58.800469   -259.23662   -203.19389   -3425.7512 
 3067000    274.04279   -4668.4815   -4139.9669   -4668.4815            0    7978.0475    19.610578    20.047211    20.796202    8175.7648    9280.1495    7719.4169     6934.576   -208.29701   -80.262049    580.53574   -3188.7033 
 3068000    285.60823   -4675.9223   -4125.1028   -4675.9223            0    8630.4923    20.210153    19.731769    20.447927    8154.2667    6724.7168      9981.43    9185.3301    108.80693    585.13023    2119.5657   -3098.7507 
 3069000    267.11794   -4683.9942   -4168.8348   -4683.9942            0    7983.9456    19.934451     20.01044    20.335878    8111.9235    7569.0766    8594.5261    7788.2342    480.69105    959.00204   -421.10091   -3224.3015 
 3070000    277.55308   -4664.0912   -4128.8068   -4664.0912            0    6423.2545    20.158051    20.014606    20.455581    8252.9157    4515.3656    6147.1661    8607.2318   -241.93142     -207.797     167.0423   -3355.7019 
 3071000    277.75259   -4650.5973   -4114.9281   -4650.5973            0    9459.3826    19.911745    19.881305    20.547083    8134.0039    11816.032    7085.1078    9477.0081   -570.27913   -647.09534   -928.92798   -2992.7984 
 3072000    287.32994    -4624.463    -4070.323    -4624.463            0    6355.4578    20.034379    19.995523    20.598475    8251.7057    4952.0933    8300.1714    5814.1086    962.09054     427.5455   -1907.4681   -3305.4903 
 3073000    267.25927   -4673.0275   -4157.5955   -4673.0275            0    8382.4274    20.221631    19.734692    20.349561    8120.8516    8081.9707    8379.6113    8685.7004   -919.04152   -321.35634   -21.582778   -3164.8286 
 3074000    267.29678   -4666.5917   -4151.0873   -4666.5917            0    8571.6791    19.678667    20.076318    20.563968    8124.3135    10316.444    6447.5744    8951.0189    163.45702   -84.313715   -819.72011   -3135.4738 
 3075000    265.98198   -4660.2501   -4147.2815   -4660.2501            0    7827.4695    19.921428    19.711937     20.82791    8178.9104    7945.4731     9002.448    6534.4872   -187.00252    853.07929    1572.5116    -3213.613 
 3076000     281.2899   -4675.0358   -4132.5446   -4675.0358            0     7039.855    19.942615      20.0016    20.530748    8189.3911    9027.6007     6106.337    5985.6273   -18.700875    464.21604    393.31526   -3291.7475 
 3077000    264.24235   -4688.6118   -4178.9982   -4688.6118            0    7270.1592    19.950491    19.982502     20.45528    8154.7166    6973.1614    7822.4625    7014.8538   -222.69774    -413.2326    1623.1426   -3314.3714 
 3078000      277.194   -4628.1293   -4093.5374   -4628.1293            0    8365.7211    20.164028    19.823619    20.437307    8169.2823     6831.576    9889.5508    8376.0364   -221.52103   -146.60982   -1082.0602   -3096.8403 
 3079000    277.43511   -4673.0965   -4138.0395   -4673.0965            0    10231.422    19.696932    19.979239    20.511312    8071.8108    12214.539    7683.6785    10796.047   -584.21767   -1258.4697   -228.61237    -2933.606 
 3080000    277.16216   -4636.6161   -4102.0856   -4636.6161            0    8774.0388    19.994793    19.911999    20.537073    8176.5543     8458.892    9940.0621    7923.1623    665.39718   -406.22432    276.98403   -3055.8108 
 3081000    273.31998   -4647.7182   -4120.5976   -4647.7182            0    7393.8345    19.949597    19.932952    20.551568    8172.4206    5468.8757    8816.2124    7896.4154    747.82951   -233.54776    2561.8646   -3239.3533 
 3082000    267.04904   -4673.0333   -4158.0068   -4673.0333            0    8554.0041    20.001017    19.636603    20.790634    8165.5642    9476.2336    7474.6481    8711.1306   -250.93022    1062.2213    502.41798   -3139.3414 
 3083000     273.0407   -4635.4939   -4108.9119   -4635.4939            0    10167.774    19.881574    19.837013    20.473102    8074.4076    10205.999    10185.561    10111.763   -64.642759   -289.27884    1193.0321   -2911.5858 
 3084000    300.68771   -4660.9395   -4081.0379   -4660.9395            0     7261.272    19.769898    19.991974    20.594169    8139.6247    9113.5627    4202.0796    8468.1736   -52.987427    439.20773    802.67898   -3219.0663 
 3085000    276.79414    -4677.199   -4143.3782    -4677.199            0    10386.815    19.924713    19.919793    20.388102    8091.9593    9769.6389    11056.765    10334.041   -84.978148   -211.55512   -1091.4572   -2917.5998 
 3086000    268.52714   -4662.4051   -4144.5279   -4662.4051            0    8355.2682    19.575286    20.055874    20.747705    8145.5376    10013.234    8506.3447    6546.2257      -53.343    2640.7593   -871.59181   -3151.9696 
 3087000    275.54361   -4681.1993   -4149.7903   -4681.1993            0    7240.5972    19.912005    20.014953    20.565343    8196.0673    7395.4498    6772.2446    7554.0971    531.41693    177.08558   -933.86664   -3284.3128 
 3088000    288.69428   -4693.0023   -4136.2311   -4693.0023            0    5136.2193    19.991311     20.15901    20.403636    8222.7682    4695.5897     3807.017    6906.0511   -590.79335    142.14304   -404.26231   -3520.2924 
 3089000    271.35849   -4712.6049   -4189.2673   -4712.6049            0    7750.6268     19.96415    19.728557    20.588861    8109.2086    8579.8034    8890.3197    5781.7573   -31.086672   -364.36067     1581.505   -3272.6433 
 3090000    259.68331   -4636.8252   -4136.0041   -4636.8252            0     9752.295     20.20667    19.688645    20.395378    8114.1371    8402.0963    11767.392     9087.397    818.40305    766.31859   -23.111141   -2981.9529 
 3091000    275.66244   -4664.5359   -4132.8977   -4664.5359            0    8492.7711    19.824061    20.158863    20.367903     8139.636     10465.31    6615.2064    8397.7967    597.59112   -528.27749    76.250749   -3124.7357 
 3092000    285.59864   -4684.2783   -4133.4773   -4684.2783            0    7972.6398    20.179787     19.71199    20.411749    8119.4625     5836.059    9194.0873     8887.773   -439.71015   -328.85768   -501.70178   -3189.4049 
 3093000    285.24802    -4664.327   -4114.2022    -4664.327            0     8597.588    19.893605    20.234301    20.386085    8206.0758    9936.1064    6563.8335    9292.8242    248.81767    311.61199    383.82433    -3085.267 
 3094000     284.6058   -4689.2307   -4140.3445   -4689.2307            0    7514.4271    19.994861    20.002764    20.455392    8181.1846    6485.4161    8900.1002     7157.765   -179.71485    434.47222    -453.5019   -3243.7667 
 3095000    251.72542   -4669.3386    -4183.865   -4669.3386            0    7628.6207    19.906459    19.853086    20.782393     8213.298    8586.0808     7407.915    6891.8664    989.59864    816.35589   -112.62475   -3270.0895 
 3096000    276.77831   -4639.4762    -4105.686   -4639.4762            0    10423.979    19.913013    19.824851    20.477213    8083.8411     11956.87    9162.9035    10152.164   -334.48175    378.87154   -955.42269   -2876.7559 
 3097000    284.00576   -4669.4826   -4121.7536   -4669.4826            0     9680.729    20.004758    19.756289    20.417964    8069.5833    6502.0562    12617.307    9922.8232   -839.56926    636.08725    988.55459   -2982.4616 
 3098000    276.49306   -4663.0693   -4129.8291   -4663.0693            0    7954.6476    19.933814    20.021077    20.415944    8147.9302    7900.4795    6039.0654     9924.398   -443.80925    514.80169    -2200.041   -3184.5847 
 3099000    273.10528    -4670.611   -4143.9045    -4670.611            0    7439.8551    19.981985     20.22949    20.250395    8185.7233    8022.9146    5769.3233    8527.3274    519.56131   -1062.5667   -1437.1245   -3255.7318 
 3100000    265.03785   -4633.6796   -4122.5318   -4633.6796            0     8920.757    19.922845    19.846195    20.587249    8140.0472    8023.5725    10658.565    8080.1334   -705.75555    1190.7435   -802.03731   -3063.5109 
 3101000    259.36013   -4669.8916   -4169.6938   -4669.8916            0    7390.3703    19.848105    19.818969    20.857413     8204.659    6999.8602    9765.6153    5405.6354   -537.43375    148.39493   -1066.7704   -3285.3877 
 3102000    273.83508   -4653.8295   -4125.7156   -4653.8295            0    7364.1645     20.09422    19.997765    20.370278    8185.5821    8328.4575    6671.4979    7092.5382   -233.76491    816.56191   -99.659498    -3246.594 
 3103000    289.59535   -4651.1247   -4092.6157   -4651.1247            0    9228.8989    19.708144    20.110569    20.343288    8062.8995     10996.11    6335.0417    10355.545   -182.48791    2061.6961    211.95384   -3007.3976 
 3104000    283.36848   -4639.2756   -4092.7756   -4639.2756            0    7986.0462    20.038281     19.77948    20.404706    8087.3392    7509.1344    7474.4907    8974.5134    621.77908   -793.30744   -231.32947    -3150.857 
 3105000    283.51439   -4629.5577   -4082.7763   -4629.5577            0    7630.0067    19.838855    20.031716    20.788189    8261.3576    7961.1134    8008.1205    6920.7862   -156.33367    44.768774   -669.65138    -3163.487 
 3106000    276.97692   -4690.3165   -4156.1432   -4690.3165            0    8169.4329     19.90345    19.823766    20.745454    8185.3535    6647.1099    9968.9378     7892.251   -688.62734    517.82072   -33.629477   -3180.9173 
 3107000    282.01726   -4659.0549   -4115.1609   -4659.0549            0    8296.1831    19.933683    19.952985     20.55575    8175.7716    9020.6768    7632.1439    8235.7286    189.68148   -1715.3485    1101.9563   -3125.9635 
 3108000    287.38809   -4649.5911   -4095.3389   -4649.5911            0    9223.2289    20.081609    19.781097    20.328229    8075.1095    6565.0855    11328.784    9775.8174    734.20818    854.29435   -1111.7474   -3009.1452 
 3109000     273.8875   -4658.7253   -4130.5102   -4658.7253            0    7849.4513    19.851233    20.169537    20.520532    8216.2193     9618.063    6578.5448    7351.7462    376.64805   -386.07548    1733.6301   -3189.9487 
 3110000    283.10702   -4650.6621   -4104.6664   -4650.6621            0    7809.0103    20.174114    19.926126    20.367259    8187.4739    6619.7687    9082.5098    7724.7523   -138.83019    300.81261    -790.1139   -3172.2244 
 3111000    273.63499   -4624.9172   -4097.1891   -4624.9172            0    7108.4735    19.863634    20.000222    20.714375    8229.3463    9460.3517    6080.7171    5784.3516   -901.01835   -1045.7646    858.97194   -3244.0545 
 3112000     278.6739   -4645.4006   -4107.9546   -4645.4006            0    6806.2428    20.009472    19.787142    20.752647     8216.601    5589.8486    9714.7548    5114.1251    920.00257   -1115.9778     268.1729   -3292.3577 
 3113000    270.18859   -4690.0741   -4168.9927   -4690.0741            0    6167.5941    19.963995    19.959349    20.580596    8200.7162    5021.9324    7192.4019     6288.448   -16.169889    11.330903    1411.6247   -3431.3544 
 3114000    272.41858   -4643.4918   -4118.1096   -4643.4918            0     6606.447    19.897274    20.273694    20.334413     8202.724    8297.5819     4220.725    7301.0342   -450.83421   -1240.2569    -71.22632   -3327.7915 
 3115000    265.76828   -4624.2264   -4111.6699   -4624.2264            0    9767.0018    20.155765    19.955562    20.076794    8075.2807    7264.3195    10369.049    11667.637   -748.31869    1265.5856     1103.691   -2961.4132 
 3116000    273.75662   -4684.8362   -4156.8735   -4684.8362            0    7242.0906    19.833818    19.983878    20.587352    8159.9328    9129.4226    6499.9288    6096.9204   -246.62873    854.30631    382.13427    -3295.034 
 3117000    260.27413   -4659.2872   -4157.3267   -4659.2872            0    7870.9443    19.913425    19.817181    20.713045    8173.9466    8250.8559    8634.3062    6727.6708    466.77437   -512.03257   -99.831099   -3219.0422 
 3118000    266.95118   -4667.9636   -4153.1258   -4667.9636            0    7142.1032    19.948857    19.777486    20.636855    8142.0284    8275.6943    6811.3626    6339.2526   -542.43361   -497.52755    383.20409   -3305.0501 
 3119000    270.44117   -4683.7233   -4162.1548   -4683.7233            0    8250.6147    19.855811    19.938896    20.586665    8150.3213    8551.0067    8633.4662    7567.3712    1013.2254     1109.597    1588.5826   -3181.4531 
 3120000    281.64361   -4672.0698   -4128.8964   -4672.0698            0    5703.3261    20.023756    20.164934    20.330313    8208.9275     2416.943    8255.0833    6437.9521    736.65965   -221.38729   -768.69672   -3446.1011 
 3121000    269.54845   -4680.8532   -4161.0064   -4680.8532            0    5289.3957    20.150534     19.80212    20.546851     8198.672    5733.7676    4620.5387    5513.8808   -50.500434   -867.77269   -715.87632   -3528.5575 
 3122000     269.6538   -4613.7888   -4093.7388   -4613.7888            0    7665.3293     19.91036    19.926879    20.595943    8171.4677    6811.2158    8019.4449    8165.3272    -173.7131   -282.68503    2114.0293   -3180.2426 
 3123000    285.58757   -4667.1287   -4116.3491   -4667.1287            0    8075.2641    19.956381    19.837332    20.488574    8111.0446    6616.2304    9263.9868     8345.575   -203.99244   -92.946773    1117.8091   -3161.1159 
 3124000    276.04224   -4650.8325   -4118.4618   -4650.8325            0    9934.1651    19.828747    19.990766    20.378465     8077.857     9453.727    10748.036    9600.7328   -718.67535    308.75686   -321.64078   -2948.1451 
 3125000     277.7988   -4632.0853    -4096.327   -4632.0853            0    7268.5241     20.11374    19.902997    20.487054    8201.4533    8328.2565    6732.0857    6745.2301    111.29844   -35.791147    142.36768   -3226.9404 
 3126000    252.84374   -4651.6204     -4163.99   -4651.6204            0    8312.3095    19.903902    19.919038    20.431511    8100.4117    8002.1225    8561.1708    8373.6353    361.62877    1458.2997    40.653866   -3182.0053 
 3127000    280.50445   -4669.9883   -4129.0119   -4669.9883            0    8218.0676    20.128927    19.827096    20.327031    8112.4809    5653.1894      9564.31    9436.7035   -329.24444   -1070.5912    1450.6418   -3156.7141 
 3128000    272.15755    -4663.727   -4138.8482    -4663.727            0    8593.7059    19.831872    20.081315    20.464262     8149.894    10431.738     9230.163    6119.2167     661.7415     458.3001    -686.3776   -3117.4189 
 3129000    285.79329   -4634.5544    -4083.378   -4634.5544            0    7880.1041    20.340984    19.736466    20.435137    8203.8725    7120.2836    10193.226    6326.8023    1022.8593   -1061.9488   -210.34906   -3140.5624 
 3130000    257.04783   -4668.2299   -4172.4916   -4668.2299            0    7521.2536    19.801446    19.994898    20.599918    8156.0819    9612.3469    5700.4175    7250.9965   -263.65494    18.419095    517.97573   -3277.8528 
 3131000    270.05761   -4688.9887   -4168.1598   -4688.9887            0    9534.2216    19.947494    19.843656    20.513182    8119.7576    10855.663    8934.6696    8812.3324   -357.51919    298.89508   -131.61753   -3039.1332 
 3132000    287.42209   -4639.3302   -4085.0126   -4639.3302            0    10353.126    20.007527    19.638226     20.48891    8050.3456    9869.1581    10085.699    11104.522    8.0170899   -1258.9161    221.58892   -2869.4931 
 3133000    289.42712   -4641.8823   -4083.6978   -4641.8823            0    9632.8701    19.679614    19.919023    20.759422    8137.6663    11043.771    9742.0833    8112.7564   -1001.2616   -361.05939    879.85485   -2940.4734 
 3134000     262.9152   -4669.1613   -4162.1072   -4669.1613            0    8025.4792    20.130801    19.889019    20.438472    8183.1939    6952.9048    9133.5402    7989.9927    -251.1772    176.13157    758.87394   -3204.3185 
 3135000    270.04952   -4677.2837   -4156.4705   -4677.2837            0    5693.9158    19.938231    19.952579    20.656893    8217.7073    7626.9045    3187.1276    6267.7152    185.74252    1146.2984   -312.76234   -3474.0727 
 3136000     281.1744   -4652.8863   -4110.6178   -4652.8863            0    8853.4968    19.838038    19.943018    20.405589    8073.0706    8302.2168    10009.247    8249.0269   -115.10663    1351.1706     131.4961   -3068.2296 
 3137000    258.18656   -4652.9482   -4155.0137   -4652.9482            0    6928.2704    20.056831    20.217298    20.206242    8193.5287    7135.2854    5645.7059    8003.8199    570.24985   -999.42909   -472.80163   -3327.1255 
 3138000    272.75472        -4671   -4144.9696        -4671            0    6139.5008    19.984833     20.10904    20.428905    8209.8825    5697.3397    5832.3747    6888.7881    627.81754    252.21739   -368.67419   -3409.8705 
 3139000    264.23732   -4691.5195   -4181.9156   -4691.5195            0    8495.7078    19.945018    19.941651    20.533002    8166.7264    8470.4105    8790.3962    8226.3168   -107.57596   -1851.3013    866.21576   -3170.0485 
 3140000    286.99216   -4670.7296    -4117.241   -4670.7296            0     7960.878    20.080157    20.056771    20.209693    8139.3143    7188.4383    8273.0807    8421.1151   -448.08273   -362.91655     505.8539   -3172.2566 
 3141000    273.39469    -4671.412   -4144.1473    -4671.412            0     5824.765    20.037086    20.122472     20.38586    8219.4909    5534.2411    6566.4071     5373.647   -139.69691    718.54853    1852.4471   -3445.9162 
 3142000    283.17549   -4671.5803   -4125.4525   -4671.5803            0    8107.2371    19.986124     19.99479    20.413188    8157.4844     6984.225    9605.2451    7732.2412    60.241264   -13.716265   -144.71703   -3160.9463 
 3143000    264.45144   -4646.1859   -4136.1691   -4646.1859            0    6824.2344    19.954424    20.244736    20.244094     8178.048     8445.435    4392.4699    7634.7982    127.72296   -382.98351     1003.523   -3322.2533 
 3144000    272.57171   -4647.3103   -4121.6329   -4647.3103            0    8607.2886    19.998371    20.005945    20.412788    8166.8771     9184.736    8040.6854    8596.4444    176.08194   -461.04267    2243.9635   -3096.4572 
 3145000    278.98932    -4663.132   -4125.0776    -4663.132            0    7293.3613    19.853614    20.000093    20.714319    8225.1204     8323.156    6362.7531     7194.175    240.63112    30.556423   -1431.7315   -3250.2029 
 3146000    265.58831   -4664.5037   -4152.2943   -4664.5037            0    7838.4272    20.005856    19.667911    20.698189    8144.1867    9608.1898    6470.2593    7436.8326   -270.21073   -157.28123   -20.405097   -3221.2881 
 3147000     271.5939    -4688.498   -4164.7063    -4688.498            0    8140.0316    19.969436    19.843526    20.610771    8167.3069    8186.3704    7543.4458    8690.2785    1019.1077   -417.82958    1031.4816   -3195.1325 
 3148000    277.03554   -4685.3923    -4151.106   -4685.3923            0    8621.1902    19.980881    20.031037    20.350456     8145.021    7614.3599    9122.8412    9126.3694   -600.62501   -347.73899     -53.6111   -3127.0226 
 3149000    277.76857   -4637.3003   -4101.6002   -4637.3003            0    9047.7607    19.988528    20.131459    20.260162    8152.6532     9866.504    6505.5245    10771.254    104.76002    -268.3447   -1420.5803   -3025.8388 
 3150000    272.16065   -4667.6388   -4142.7541   -4667.6388            0    8918.6894    20.052291    19.853515    20.456902    8144.0661    6242.9447    10555.649    9957.4744   -1.7437659     2038.496   -855.55824    -3083.456 
 3151000    281.45051   -4635.4071   -4092.6061   -4635.4071            0    6452.2563     19.93288     19.94201    20.633885    8202.0041    6901.5645    6179.7184     6275.486    -861.9571    228.89043    345.21864   -3320.8013 
 3152000    278.50501   -4641.0287   -4103.9084   -4641.0287            0    7335.0733     19.79307     19.93874    20.653131     8150.735    7354.9897    6937.2491    7712.9811   -284.08317    -1431.801    447.07423   -3231.9874 
 3153000    269.18089   -4661.1143   -4141.9763   -4661.1143            0    8033.1327    20.058387    19.898003    20.413132    8147.3269    9146.9172    7495.0188    7457.4622     1159.093   -648.37491   -558.79905   -3187.4762 
 3154000     279.9739   -4674.0452    -4134.092   -4674.0452            0    7918.8076    20.120803    19.798258    20.484038    8159.9569    6491.9514    9948.8044    7315.6669    574.57062   -117.67863    706.60588   -3191.7175 
 3155000    270.95141   -4650.0136    -4127.461   -4650.0136            0    11081.748     19.90187     19.74924    20.575697    8087.2123    12020.307    9589.7436    11635.194    334.01765    691.91259     778.1747   -2820.4387 
 3156000    265.65261   -4672.7819   -4160.4485   -4672.7819            0     6772.058    20.098647    19.779866    20.587529    8184.5423     7106.225    6100.1366    7109.8125    300.04508    2295.1454   -88.614865   -3352.1143 
 3157000    270.66127   -4645.6416   -4123.6486   -4645.6416            0    6915.1555    19.998586    19.863047    20.665764    8209.1203    9092.1468    5716.5968    5936.7228   -249.42412   -312.89782   -185.01022   -3295.7551 
 3158000    263.00779   -4660.0205   -4152.7879   -4660.0205            0     10960.44    19.799814    19.726152    20.535921    8020.8002    12169.685    10476.022    10235.614   -256.21992   -33.585723   -858.21845   -2870.6888 
 3159000    266.22015    -4671.167   -4157.7391    -4671.167            0    6941.8418    19.941986    19.846284    20.607139    8155.7764    4745.7823    7879.8296    8199.9136     837.5899   -70.725161    569.29793   -3332.0512 
 3160000    279.97712   -4675.0893   -4135.1298   -4675.0893            0    6941.7544    20.083494    19.779858    20.702616    8224.0864    5513.4611    7667.5502    7644.2518    9.9319602    312.97086    305.49677   -3302.5368 
 3161000    281.31946   -4689.0898   -4146.5416   -4689.0898            0    7854.7852    19.990634    20.092405    20.262888    8138.7896    7643.9926     8174.826    7745.5368   -264.71379   -981.22616     627.0324   -3214.2108 
 3162000    282.78666   -4679.0829    -4133.705   -4679.0829            0    7282.3824    19.939741    20.005432    20.518456    8184.8765    7666.2592    6693.0208    7487.8673    658.04669   -965.63386   -1394.0434   -3264.4214 
 3163000     277.4816   -4656.0571   -4120.9105   -4656.0571            0    7619.6573    19.991157    19.896328     20.51521    8159.9377    8095.7305    8340.6152    6422.6264    698.67662   -859.77327   -1015.9913   -3214.1383 
 3164000    270.00629   -4672.8438   -4152.1139   -4672.8438            0    7452.9199    20.220287    19.893856    20.349784    8185.8932    7045.7295    7008.2114    8304.8189    471.74041   -574.18243    1378.5657    -3262.363 
 3165000    275.36887   -4668.4445   -4137.3725   -4668.4445            0    6823.9308    19.793317    20.215336    20.524433    8212.4113    7918.4073    6596.5414    5956.8436   -640.95971   -708.20779    972.36082   -3320.0731 
 3166000    275.40307   -4647.4829    -4116.345   -4647.4829            0    5079.2815    20.002714    20.013883    20.628566    8258.2747    5897.6747    4928.8649    4411.3051   -173.00594    161.02548   -466.72686   -3504.6041 
 3167000    282.95348    -4690.193   -4144.4934    -4690.193            0    7522.8494    20.070945    19.927577    20.500638    8199.5438     7573.375    7980.6659    7014.5073    745.34783    651.18315   -256.59601   -3244.8965 
 3168000    290.35497   -4659.9075   -4099.9335   -4659.9075            0    7903.7005     19.66348    20.187841    20.737259    8231.9291     9952.419    6698.1318    7060.5508   -876.80339    1422.9991   -2230.7348   -3151.0607 
 3169000    293.03953   -4668.7263   -4103.5749   -4668.7263            0    5690.7579    20.050138    19.835178    20.689147    8228.0332    3249.6944    8889.1501    4933.4292    361.56361    1265.4014   -146.17722   -3420.6986 
 3170000    277.85897   -4643.5309   -4107.6565   -4643.5309            0    8203.0095    20.081533    19.885151    20.307361    8109.2228    6287.6409    9322.1567    8999.2309   -119.17897   -259.51146    51.371308     -3137.53 
 3171000    282.27271   -4649.5931   -4105.2065   -4649.5931            0    8762.3219    20.242455    19.839175    20.211828    8116.9408    8111.0474    9150.9833     9024.935    112.39755   -205.94255   -300.18573   -3067.9469 
 3172000    280.61997   -4692.8001   -4151.6009   -4692.8001            0    7631.3137    19.895214    19.858901    20.654544    8160.5505    9507.9163    5673.4889    7712.5358    234.12011    2025.0525   -225.09676   -3243.3734 
 3173000    261.15574   -4670.2724   -4166.6115   -4670.2724            0    7739.6888    20.055654     19.79847    20.560618    8164.0304    8130.5381    8043.2506    7045.2778   -521.04146    173.40649    30.371164   -3245.0932 
 3174000    281.87891    -4662.105   -4118.4778    -4662.105            0    6368.0326    20.081546    19.968343    20.318741    8147.7175     3875.564    7491.3173    7737.2164    176.59295   -237.69764   -767.95507   -3361.7893 
 3175000    284.77612   -4688.6035   -4139.3888   -4688.6035            0    8439.6412    20.034633    19.797061    20.542113     8147.554    7986.7078    8632.8181    8699.3979    72.739478   -285.92115    -2155.964   -3136.5592 
 3176000    267.40516   -4681.1882   -4165.4748   -4681.1882            0    8602.8622    19.668079    20.056927    20.512641    8091.8518    9151.2426    10116.361    6540.9831   -65.233262    1008.7132    2234.4006   -3150.2394 
 3177000    283.45282   -4675.9869   -4129.3243   -4675.9869            0    7836.1295    19.964768    19.808005     20.44966    8087.0682    9153.9017    6644.8716    7709.6152    133.30698    170.36669   -173.97209   -3205.1187 
 3178000    275.80023   -4651.2863   -4119.3823   -4651.2863            0    8482.8328     19.93104     20.05165    20.317018    8119.7012    9939.6553    6407.4758    9101.3674   -787.09928    603.30824    11.578166   -3114.8664 
 3179000    274.57531   -4635.4115   -4105.8699   -4635.4115            0     7032.214    20.072359    19.921697    20.451352     8177.994    8109.8844    5274.7691    7711.9886     41.57943   -941.93518    554.98032   -3267.1542 
 3180000    283.81612   -4663.9364   -4116.5731   -4663.9364            0    5485.4366    19.753435    20.175308    20.526468    8180.4469    6135.1505    4525.6407    5795.5186   -988.77725    40.617066    1045.0254   -3462.1417 
 3181000    272.35915   -4673.6382   -4148.3706   -4673.6382            0    8859.1581    20.073975    19.781276    20.613483    8185.3842    9914.0429    9099.6992    7563.7323   -253.18513    451.68394    344.18872   -3090.8048 
 3182000      279.989   -4664.8905   -4124.9082   -4664.8905            0    9990.7831    20.045237    19.722206    20.415748    8071.0864    9596.9143    11226.295    9149.1405   -721.82066   -914.67999    967.63626   -2948.9079 
 3183000    261.22335   -4665.7221   -4161.9309   -4665.7221            0    7267.9879     20.06131    19.980412    20.297402    8135.8732    6221.3045    7582.6178    8000.0416   -568.98704    55.090471    864.34904   -3299.5597 
 3184000     274.5047    -4682.868   -4153.4626    -4682.868            0    8835.2017    20.153827    19.671987    20.381221    8080.4573    7422.3491    9191.9304    9891.3255    139.45795    184.74227   -260.04174   -3112.2767 
 3185000    274.53409   -4630.8493   -4101.3872   -4630.8493            0    8844.4078    19.828466    19.923383    20.614582    8143.7932     8243.999    9601.9646    8687.2597    322.67692   -718.97814    709.58718   -3050.9469 
 3186000    273.21209   -4636.7581   -4109.8456   -4636.7581            0    6912.8815    19.950172    19.916934    20.744329     8242.682    4802.0097    8157.0972    7779.5377   -1176.2797   -226.22462    1174.3324   -3278.8407 
 3187000    265.12849   -4665.2056   -4153.8831   -4665.2056            0    6935.1496    20.143133     19.78942    20.553027    8192.8663    7458.1897    6795.4494    6551.8096   -16.779856    499.76017    -783.4409   -3325.2398 
 3188000    276.87381   -4649.2986   -4115.3242   -4649.2986            0    7637.6587    20.138566    19.975905    20.313267    8171.7448    6064.4545    8656.6916    8191.8301    35.841088   -39.834252    1022.9141   -3205.0946 
 3189000    270.66817   -4688.2992   -4166.2928   -4688.2992            0    7176.0275     19.92911     19.89408    20.612416    8172.2315    6849.0759    6949.4816    7729.5252    570.04868    224.46872   -247.76315   -3311.0279 
 3190000    284.24056   -4624.1322   -4075.9504   -4624.1322            0    10647.868    19.920796    19.747652    20.546937    8082.9379    9570.5604    11490.109    10882.935   -351.02708   -95.295539     554.8306   -2820.7653 
 3191000    281.96169   -4654.5966   -4110.8098   -4654.5966            0    9263.3465    19.811047    19.746918    20.553479    8040.6677    10220.148    9753.0851    7816.8062    110.03885    1159.4854    1606.3936   -3024.5445 
 3192000    281.03467   -4670.3645   -4128.3655   -4670.3645            0    6763.7211    19.801503    20.153873    20.597901    8220.1479    7154.7815    5851.9184    7284.4634   -364.48101   -312.35361    299.65558   -3317.5142 
 3193000     270.7033   -4642.6543   -4120.5803   -4642.6543            0    7778.0808    20.189863    19.945517    20.339485    8190.6548    8146.7074    6565.6637    8621.8713    577.10521    724.59688    192.03914   -3191.4706 
 3194000    280.35858   -4642.8968   -4102.2017   -4642.8968            0    8604.0735    20.033409    20.052141    20.244527    8132.4845    9236.5274    5704.6208    10871.072    695.03663   -171.64809    794.32723   -3081.7246 
 3195000    276.14022   -4655.8968   -4123.3371   -4655.8968            0     8062.934    20.138202    19.696938    20.453918    8113.2698    6178.1505    10174.172    7836.4796    132.01412   -307.24596    421.43468   -3169.3008 
 3196000    280.50886   -4677.9256   -4136.9407   -4677.9256            0    7923.0117    19.994755    19.925006    20.510003    8171.0952    6705.8558    8435.4785    8627.7008   -55.911984   -1044.6733    284.90428   -3192.7788 
 3197000    271.15523    -4654.976   -4132.0303    -4654.976            0    6271.9751    19.887385     20.10184    20.526225    8205.8309    8257.1329    3727.7553     6831.037    718.15654    350.08455    1599.8154   -3381.4403 
 3198000    276.35708   -4655.9525   -4122.9747   -4655.9525            0    9005.3211    20.093043     19.85954    20.456802    8163.0533    5864.4103    11931.402    9220.1507    1470.1249    2037.8045   -757.95246   -3050.8933 
 3199000    281.29286   -4649.8358   -4107.3389   -4649.8358            0    7292.2665    19.985283    20.108459    20.453604    8219.7562    8798.7799    4414.2966    8663.7231    60.197565    122.34256   -341.03034    -3233.166 
 3200000    266.41784   -4659.0833   -4145.2741   -4659.0833            0    6308.1486    20.149544    19.815436    20.583699    8218.4945    4981.8893     8017.132    5925.4245   -484.16831    617.99621    1378.5755   -3389.1901 
 3201000    277.19417   -4666.1908   -4131.5985   -4666.1908            0    7798.1031    19.894921    20.091609    20.340156     8130.387    8440.0244    7214.0241    7740.2608    1436.4087    20.561545   -1638.0083   -3206.9513 
 3202000    270.55235   -4658.2566   -4136.4736   -4658.2566            0    6313.4185    20.051987    19.861198    20.776046    8274.1952    3876.2042    8703.7383     6360.313    145.18202    483.15967    708.96675   -3374.6293 
 3203000    262.31144    -4670.588   -4164.6983    -4670.588            0     6460.239    19.966984    19.958098    20.598369    8208.5122    6441.6266    6552.9656    6386.1249   -207.96926    890.15599   -220.24108   -3391.3254 
 3204000     256.6043   -4651.9981   -4157.1151   -4651.9981            0    6818.0131    19.967437    19.952376    20.503086    8168.3841    8114.5935    6288.4676    6050.9781    -557.1074   -1424.1676   -346.55533   -3344.9022 
 3205000    262.21699   -4671.3013   -4165.5938   -4671.3013            0     8760.755    19.973705    19.865713    20.501894    8134.9852    7594.6488    8574.5675    10113.049    25.362828     -618.002    283.83074   -3126.2142 
 3206000    268.37347   -4681.3098    -4163.729   -4681.3098            0    7893.1046    19.788794    20.022635    20.662269    8186.8826    10860.347    5239.7298    7579.2373    837.62445    561.27656    276.87811   -3221.3137 
 3207000    276.78798   -4666.9896   -4133.1808   -4666.9896            0    6873.2948    20.041736    19.844515    20.591522      8189.63     5794.738    7915.9655    6909.1807    197.93096     -392.998   -336.27566   -3312.2526 
 3208000    281.99261   -4670.8298   -4126.9833   -4670.8298            0    6820.9364    19.958341    19.984549    20.553165    8197.8034    8383.5497    6261.1446     5818.115    247.57728   -294.61883    254.88517   -3311.4957 
 3209000    284.16822   -4676.9561   -4128.9137   -4676.9561            0    8059.3755    19.982896    19.545826    20.787233    8119.1233    8008.4358    9039.4476    7130.2432    959.66867    144.60119    220.20573   -3174.6105 
 3210000    284.26799   -4646.9728   -4098.7381   -4646.9728            0    9284.7071    19.925364    19.854435    20.560085    8133.7104    9819.7278     9461.475    8572.9185   -986.88788    1438.3258    237.50823   -2997.3692 
 3211000    273.15458   -4651.9728   -4125.1712   -4651.9728            0    9908.9178    19.974211    20.013464    20.355629    8137.2267    8141.3686    11411.184    10174.201    1138.8003   -397.08396    305.84301   -2949.2492 
 3212000    276.27428   -4663.4327   -4130.6145   -4663.4327            0    8243.2708    20.187971     19.94223    20.286311      8167.13    5115.0053    10359.835    9254.9723     -137.786   -879.65048    1738.8196    -3148.765 
 3213000    284.64789   -4652.5825   -4103.6151   -4652.5825            0    6603.8982    19.950396    19.894088    20.568914    8163.6978    7050.8647    6783.7652    5977.0647      598.949    393.58025   -807.78673   -3317.3606 
 3214000    279.07513   -4658.2759   -4120.0561   -4658.2759            0    7771.2879    19.636738     20.00781    20.716883    8139.4175    8783.4026    6833.6883    7696.7729    165.25999    2456.7001     218.4963   -3197.5649 
 3215000     260.5892   -4685.7328   -4183.1646   -4685.7328            0    5356.4294    20.069424    19.874632    20.575938    8207.1738    5839.2331    5784.9862    4445.0689   -457.45811    996.72014    1369.5741   -3542.0363 
 3216000    270.06483   -4677.3265   -4156.4838   -4677.3265            0    7182.7789    20.064067    19.993584    20.469276    8211.3037    7840.5751     6146.506    7561.2554   -482.58471   -303.38127   -553.05051   -3296.3213 
 3217000    259.86589   -4670.1444   -4168.9712   -4670.1444            0    8843.2662    19.926157    19.714055    20.597576    8091.2502    9599.1481     8074.104    8856.5465   -165.83268    -547.4474   -998.63434   -3125.4429 
 3218000    270.48023   -4626.2457   -4104.6018   -4626.2457            0    9387.5796    19.964717    19.861556    20.544968     8146.703    11397.439    7709.8916    9055.4084    28.332238    83.284668    180.33702   -2989.2512 
 3219000    280.91968   -4661.1606   -4119.3834   -4661.1606            0    6859.7308     19.98013      19.7785    20.645802     8158.746    6394.7141    6882.9265    7301.5518    627.23903   -610.23302    326.07115    -3303.165 
 3220000    276.55195   -4694.1889   -4160.8352   -4694.1889            0    7640.8262    19.879595     19.84247    20.685174    8159.4797    6989.8898    8523.3499    7409.2388   -237.05813   -406.35329    1536.7471   -3251.5949 
 3221000    282.58031    -4690.573   -4145.5932    -4690.573            0    7069.6733    20.018233    19.983509    20.517427    8207.6796    7560.7898    6709.2623    6938.9679    180.55662   -547.63893   -1087.5443   -3299.3491 
 3222000    276.89341   -4689.7719   -4155.7597   -4689.7719            0    8437.2567    20.059851    20.036515    20.209209    8122.6774    5578.6992    10982.279    8750.7916    115.11547    189.37103   -877.67876   -3156.2745 
 3223000    264.86614   -4664.4292   -4153.6126   -4664.4292            0    8249.3401    20.011364    20.006512    20.307184    8130.1354    7884.6582    7947.2426    8916.1194    585.63479    1254.4521   -634.73583   -3175.4909 
 3224000    284.05362   -4680.0548   -4132.2335   -4680.0548            0    8394.6225    19.941134    19.880502    20.611556      8171.24    8947.6513    7932.3552     8303.861   -898.86197   -70.491439    140.80982   -3131.8535 
 3225000    273.94817   -4679.6701    -4151.338   -4679.6701            0    7252.6003    19.831107    19.880121    20.656299    8143.6389    6508.8965    7412.3845    7836.5199    -453.2222   -55.167227     897.2109   -3289.9711 
 3226000     280.5373   -4674.0134   -4132.9736   -4674.0134            0    8397.8559     19.92789    19.893962    20.486384     8121.718    9159.5591    8277.5036     7756.505    -9.756593    1202.8855     420.9567   -3138.2734 
 3227000    291.76113   -4618.4325   -4055.7466   -4618.4325            0    9902.8208    20.091119    19.785591    20.506657    8151.6967    8262.2509    12788.052    8658.1593     59.99458   -159.80689   -2206.1119   -2878.4584 
 3228000    278.25502   -4645.5993   -4108.9611   -4645.5993            0    7326.5274    19.995518    20.025488    20.442599    8185.6257    8792.8589     5679.549    7507.1742    100.71181    890.61496   -179.74124    -3234.328 
 3229000    275.87782   -4652.5092   -4120.4556   -4652.5092            0    7528.9734    19.869038    19.960035    20.573132    8159.0305    7869.7581     8452.029    6265.1331   -483.62676    784.69591    613.67765   -3224.5748 
 3230000    272.86748   -4620.6037   -4094.3558   -4620.6037            0    5460.9738    20.051806    19.822197    20.761991    8252.2861    6918.4704    5145.9948    4318.4563   -718.25018    418.67015   -7.7850547   -3437.1215 
 3231000    280.16929   -4642.4392   -4102.1092   -4642.4392            0    8461.2919    19.923419    19.866754    20.545087    8132.0261    8692.2039    8121.7861    8569.8856    -736.0968    1525.4226    127.46794   -3098.6231 
 3232000    273.44398   -4650.6705   -4123.3108   -4650.6705            0    7497.3401    20.174397    19.683963    20.518297    8148.0632    7514.7523     7723.086    7254.1822   -542.42887   -237.97035    -376.7667   -3232.3933 
 3233000    280.98167   -4682.4367   -4140.5399   -4682.4367            0    7864.9036    19.896419    19.850386    20.688999     8171.153     7948.174    10990.046    4656.4903    -1425.133    451.18441   -551.78732    -3203.296 
 3234000    283.06331   -4656.0926   -4110.1812   -4656.0926            0    7961.9128    19.895216    20.037255    20.437278    8147.2291    7228.7028    8811.3032    7845.7325   -487.49562    332.68424    73.544017   -3164.1549 
 3235000     279.8802   -4691.8146   -4152.0421   -4691.8146            0    8468.1394    19.900743     20.01934      20.3744    8117.1556    9991.6454     7064.818    8347.9548    515.13951    1327.6466    319.14889   -3149.5804 
 3236000    275.07967   -4693.9135   -4163.3992   -4693.9135            0    6129.2917    19.855237    20.004819    20.759085    8245.5175     8412.224    4600.6619    5374.9893    222.17477    687.34428   -362.06781   -3426.3371 
 3237000    271.57944   -4650.8954   -4127.1316   -4650.8954            0    5334.5287    20.122688    19.866596    20.583925    8228.8215    2329.2115    7821.9346    5852.4399    65.501676   -300.93564   -48.574618   -3486.9406 
 3238000     270.8923   -4638.8189   -4116.3803   -4638.8189            0    7776.3892    20.113556     19.98334    20.358707     8182.898    7056.9793    6984.9094    9287.2789   -25.189483   -652.08841    134.49048   -3188.3525 
 3239000    268.40941   -4650.1787   -4132.5286   -4650.1787            0     9561.754    19.860394    20.127827    20.291697    8111.5365    9878.2243    6688.5583    12118.479    77.315088   -886.29404   -535.82182    -3001.388 
 3240000    285.06475   -4663.9535   -4114.1821   -4663.9535            0    9225.8371    19.982781     19.78608    20.604089     8146.463    9292.8207    9942.5771    8442.1135    411.22516    1802.6781   -643.18464   -3018.0807 
 3241000    269.34386    -4677.363   -4157.9107    -4677.363            0    8084.7414    19.922796    19.807285    20.648184    8148.1142    9768.0626    7094.1837    7391.9777   -18.730703    307.44911   -185.32351   -3197.1856 
 3242000    264.99166   -4642.7844   -4131.7257   -4642.7844            0     7568.849    19.917059    19.845462    20.741351    8198.2935    8260.6749    6848.8818    7596.9905    56.850452   -905.16609    2.6167228   -3226.7661 
 3243000     286.4963   -4661.9879   -4109.4557   -4661.9879            0    6825.1536    20.092499    19.846578       20.615    8220.5885    6690.6097    6628.2266    7156.6244    818.74605    554.65935   -866.71411   -3291.1959 
 3244000    284.54849   -4666.8302   -4118.0545   -4666.8302            0    8539.2896    20.022864    19.975023    20.348136    8138.3828    6872.0449    8721.9782    10023.846    174.46925    1366.0587    721.33765   -3104.5265 
 3245000    287.74314   -4637.1945   -4082.2576   -4637.1945            0    8940.3096    19.913854    19.953095    20.431942    8118.4898    9771.2624    9675.4074    7374.2589   -492.76166   -297.24272    494.70347   -3023.7263 
 3246000    286.26407   -4673.6479   -4121.5635   -4673.6479            0    6949.9637    19.915313    19.990811    20.594589    8199.1848    6393.5967    7754.3597    6701.9348    198.45934    416.01147   -133.45627   -3290.5098 
 3247000    272.91486    -4661.074   -4134.7347    -4661.074            0    9666.6206    19.858634    19.942409    20.562411    8143.3112     7480.387    12012.367    9507.1076    566.49248    466.81095   -757.58708   -2986.7091 
 3248000    278.71492   -4648.8599   -4111.3348   -4648.8599            0    7716.9901    19.926831    20.015619    20.605898    8218.6182    8596.0075    6774.3354    7780.6275   -186.38592    -485.6288    167.66513   -3186.3754 
 3249000    258.06276   -4645.1389   -4147.4432   -4645.1389            0    6494.7717    20.210927    19.930545    20.342797    8194.3792     4986.012    7288.5957    7209.7073    487.58143   -1000.3975    15.394924    -3371.275 
 3250000    282.91079   -4631.1977   -4085.5804   -4631.1977            0    7842.4043    20.056245    19.994006    20.297347    8139.3311    6018.6815    9150.8787    8357.6527    175.36708    514.56613   -74.398844   -3154.6573 
Loop time of 313.298 on 64 procs for 250000 steps with 972 atoms

Performance: 137.888 ns/day, 0.174 hours/ns, 797.964 timesteps/s
195.7% CPU use with 32 MPI tasks x 2 OpenMP threads

MPI task timing breakdown:
Section |  min time  |  avg time  |  max time  |%varavg| %total
---------------------------------------------------------------
Pair    | 30.177     | 35.898     | 41.205     |  58.7 | 11.46
Bond    | 0.97546    | 1.1293     | 1.4115     |   9.6 |  0.36
Kspace  | 133.02     | 140.47     | 147.33     |  33.1 | 44.84
Neigh   | 2.5714     | 2.7914     | 3.0409     |   9.4 |  0.89
Comm    | 56.736     | 60.829     | 64.531     |  29.4 | 19.42
Output  | 0.77256    | 0.77284    | 0.77465    |   0.0 |  0.25
Modify  | 61.684     | 63.181     | 64.862     |  10.7 | 20.17
Other   |            | 8.227      |            |       |  2.63

Nlocal:        30.3750 ave          36 max          25 min
Histogram: 3 2 3 4 8 2 3 1 2 4
Nghost:        2635.91 ave        2659 max        2612 min
Histogram: 2 1 5 7 1 5 1 5 2 3
Neighs:        9654.31 ave       12049 max        7600 min
Histogram: 2 5 4 3 5 2 4 3 1 3

Total # of neighbors = 308938
Ave neighs/atom = 317.83745
Ave special neighs/atom = 2.0000000
Neighbor list builds = 9090
Dangerous builds = 1

unfix		3
unfix		2
unfix		1

write_data	data.final.${pid}
write_data	data.final.1
System init for write_data ...
PPPM initialization ...
  extracting TIP4P info from pair style
  using 12-bit tables for long-range coulomb (../kspace.cpp:340)
  G vector (1/distance) = 0.37187614
  grid = 24 24 24
  stencil order = 5
  estimated absolute RMS force accuracy = 0.0035446517
  estimated relative force accuracy = 1.0674613e-05
  using double precision FFTW3
  3d grid and FFT values/proc = 3211 432
Last active /omp style is kspace_style pppm/tip4p/omp
WARNING: Not all mixed pair coeffs generated from mixing. Use write_data with 'pair ij' option to store all pair coeffs. (../write_data.cpp:312)

write_restart   restart.lmp.${pid}
write_restart   restart.lmp.1
System init for write_restart ...
PPPM initialization ...
  extracting TIP4P info from pair style
  using 12-bit tables for long-range coulomb (../kspace.cpp:340)
  G vector (1/distance) = 0.37187614
  grid = 24 24 24
  stencil order = 5
  estimated absolute RMS force accuracy = 0.0035446517
  estimated relative force accuracy = 1.0674613e-05
  using double precision FFTW3
  3d grid and FFT values/proc = 3211 432
Last active /omp style is kspace_style pppm/tip4p/omp
Total wall time: 0:05:13
