LAMMPS (30 Jul 2021)
  using 1 OpenMP thread(s) per MPI task
package omp 0
using multi-threaded neighbor list subroutines
echo both

include		in.partitions
variable        pid world 0
include		in.temp
variable        temperature equal 263.45
variable	tempDamp equal 100.0
include		in.pressure
variable        pressure equal 4500.0
variable        pressureDamp equal 1000.0 # This is 1 ps
include		in.seed
variable        seed world 745823

units		real
atom_style	full

read_restart	restart.lmp.${pid}
read_restart	restart.lmp.0
Reading restart file ...
  restart file = 30 Jul 2021, LAMMPS = 30 Jul 2021
  restoring atom style full from restart
  orthogonal box = (-0.063750365 0.017214968 -0.067917476) to (20.063751 19.982786 20.767915)
  4 by 4 by 4 MPI processor grid
  restoring pair style lj/cut/tip4p/long/omp from restart
  restoring bond style harmonic/omp from restart
  restoring angle style harmonic/omp from restart
  972 atoms
  648 bonds
  324 angles
Finding 1-2 1-3 1-4 neighbors ...
  special bond factors lj:    0        0        0       
  special bond factors coul:  0        0        0       
     2 = max # of 1-2 neighbors
     1 = max # of 1-3 neighbors
     1 = max # of 1-4 neighbors
     2 = max # of special neighbors
  special bonds CPU = 2.241 seconds
  read_restart CPU = 2.626 seconds
include 	in.setup
variable	out_freq equal 1000
variable	out_freq2 equal 10000
variable	out_freq3 equal 1000

timestep	2.0

neigh_modify    delay 7 every 1

include		in.tip4p
# This is TIP4P/Ice

# create groups ###
group ox type 2
324 atoms in group ox
group hy type 1
648 atoms in group hy

# set charges - beside manually ###
set group ox charge -1.1794
Setting atom values ...
  324 settings made for charge
set group hy charge 0.5897
Setting atom values ...
  648 settings made for charge

# ### TIP3P Potential Parameters ###
pair_style lj/cut/tip4p/long/omp 2 1 1 1 0.1577 8.5
pair_coeff 1 1*2 0.000 0.000
pair_coeff 2 2 0.21084 3.1668
bond_style  harmonic
bond_coeff  1 450 0.9572
angle_style harmonic
angle_coeff 1 55 104.52
kspace_style pppm/tip4p/omp 1.0e-5
pair_modify tail yes

thermo          ${out_freq}
thermo          1000
thermo_style    custom step temp pe etotal epair emol press lx ly lz vol pxx pyy pzz pxy pxz pyz enthalpy

restart 	${out_freq3} restart.lmp.${pid} restart2.lmp.${pid}
restart 	1000 restart.lmp.${pid} restart2.lmp.${pid}
restart 	1000 restart.lmp.0 restart2.lmp.${pid}
restart 	1000 restart.lmp.0 restart2.lmp.0


include         in.dump
dump            myDump all atom ${out_freq2} dump.water.${pid}
dump            myDump all atom 10000 dump.water.${pid}
dump            myDump all atom 10000 dump.water.0
dump            myDump2 all dcd ${out_freq2} dump.dcd
dump            myDump2 all dcd 10000 dump.dcd
dump_modify     myDump append yes
dump_modify     myDump2 append yes


variable natoms 	equal  "count(all)"                        # NUMBER ATOMS
variable H      	equal  "enthalpy/v_natoms"                 # ENTHALPY-per-atom
variable Vol      	equal  "vol/v_natoms"                 # volume-per-atom
fix AVG all 		ave/time ${out_freq} 1 ${out_freq} v_Vol v_H file vol_enthalpy.dat
fix AVG all 		ave/time 1000 1 ${out_freq} v_Vol v_H file vol_enthalpy.dat
fix AVG all 		ave/time 1000 1 1000 v_Vol v_H file vol_enthalpy.dat


timer           timeout 02:55:00 every 1000
New timer settings: style=normal  mode=nosync  timeout=02:55:00

fix 		1 all shake 1e-6 200 0 b 1 a 1
       0 = # of size 2 clusters
       0 = # of size 3 clusters
       0 = # of size 4 clusters
     324 = # of frozen angles
  find clusters CPU = 1.810 seconds
fix             2 all nph aniso ${pressure} ${pressure} ${pressureDamp}
fix             2 all nph aniso 4500 ${pressure} ${pressureDamp}
fix             2 all nph aniso 4500 4500 ${pressureDamp}
fix             2 all nph aniso 4500 4500 1000
fix             3 all temp/csvr ${temperature} ${temperature} ${tempDamp} ${seed}
fix             3 all temp/csvr 263.45 ${temperature} ${tempDamp} ${seed}
fix             3 all temp/csvr 263.45 263.45 ${tempDamp} ${seed}
fix             3 all temp/csvr 263.45 263.45 100 ${seed}
fix             3 all temp/csvr 263.45 263.45 100 745823


run             250000
PPPM initialization ...
  extracting TIP4P info from pair style
  using 12-bit tables for long-range coulomb (../kspace.cpp:340)
  G vector (1/distance) = 0.37221395
  grid = 24 24 25
  stencil order = 5
  estimated absolute RMS force accuracy = 0.0034316738
  estimated relative force accuracy = 1.0334384e-05
  using double precision FFTW3
  3d grid and FFT values/proc = 2366 288
Last active /omp style is kspace_style pppm/tip4p/omp
Neighbor list info ...
  update every 1 steps, delay 7 steps, check yes
  max neighbors/atom: 2000, page size: 100000
  master list distance cutoff = 10.8154
  ghost atom cutoff = 10.8154
  binsize = 5.4077, bins = 4 4 4
  1 neighbor lists, perpetual/occasional/extra = 1 0 0
  (1) pair lj/cut/tip4p/long/omp, perpetual
      attributes: half, newton on, omp
      pair build: half/bin/newton/omp
      stencil: half/bin/3d
      bin: standard
Per MPI rank memory allocation (min/avg/max) = 9.225 | 9.231 | 9.236 Mbytes
Step Temp PotEng TotEng E_pair E_mol Press Lx Ly Lz Volume Pxx Pyy Pzz Pxy Pxz Pyz Enthalpy 
 2250000    276.10942   -4666.8156   -4134.3153   -4666.8156            0    3949.4853    20.127502    19.965571    20.835833    8373.0267    2610.5764    4486.8259    4751.0535   -373.03105   -734.35281    860.82246   -3652.0358 
 2251000    266.05338   -4692.0419   -4178.9356   -4692.0419            0    5694.7922    19.814965    20.125143    20.804876    8296.5478    4856.9488    5441.1477    6786.2802   -322.11358    -173.9998   -744.20173   -3489.8849 
 2252000    275.70712   -4698.7808   -4167.0564   -4698.7808            0    4198.8087    20.238925    19.881042    20.615669    8295.1455    3736.4901    3325.9095    5534.0267   -988.39503   -838.54818   -780.91184   -3659.1006 
 2253000    256.49025   -4672.0386   -4177.3756   -4672.0386            0    3407.1798    20.350948    20.167106    20.471015    8401.7082    2201.3882    3518.6184    4501.5329   -126.15913    195.56905   -454.48168   -3759.8929 
 2254000    256.42413   -4706.6646   -4212.1291   -4706.6646            0    4510.3811    20.070805    20.009238     20.76482    8339.1832    3900.1557    5000.7664    4630.2213   -650.40672    820.74384    31.905417   -3663.5836 
 2255000    264.06318    -4687.323    -4178.055    -4687.323            0    3086.0927    19.986508     20.08585    21.055907    8452.8099     3160.679    2881.8877    3215.7114   -265.16859    74.255269   -128.15287   -3797.6152 
 2256000     265.4309   -4673.1065   -4161.2006   -4673.1065            0    3852.1863    20.044242    20.140861    20.748886    8376.4975    3628.8011    2965.8404    4961.9174   -413.74427   -109.98156   -489.34625   -3690.6075 
 2257000    270.17991   -4690.7305   -4169.6659   -4690.7305            0    4871.4294    20.192462    20.061783    20.547983    8323.9222     4309.422      5915.83    4389.0363    530.18758   -904.44979   -273.79481   -3578.2945 
 2258000    258.42912   -4665.3588   -4166.9565   -4665.3588            0    4927.5608    19.969161      20.1262    20.748644    8338.9493    4594.0085    5261.3301    4927.3437   -627.45803    76.756871    156.21058   -3567.6911 
 2259000    281.60711   -4685.5137   -4142.4107   -4685.5137            0    4346.8336    19.851059    20.055775    21.009401    8364.4388    5590.4215    5048.1187    2401.9607    651.09031    1868.6872    907.04622   -3612.1546 
 2260000    264.32674   -4661.6487   -4151.8724   -4661.6487            0    3561.3028    20.166899    20.127408    20.791024    8439.2303     3060.726    4904.1697    2719.0127    303.54873     131.7277   -742.55759   -3713.5561 
 2261000    269.07514   -4698.4349   -4179.5009   -4698.4349            0    4443.6172    20.174639    20.005228    20.717371     8361.495    5229.8305    3486.8034    4614.2176    316.28664    491.96661   -450.83103   -3637.6292 
 2262000    282.37474   -4656.1282   -4111.5448   -4656.1282            0    2983.0873    19.877061    20.070616    20.903295    8339.2625    3631.7802    3377.9145    1939.5671    -323.6187   -729.31541   -10.988185   -3748.7429 
 2263000    275.69809   -4658.2395   -4126.5325   -4658.2395            0    5286.5887    19.889911    20.019245    20.954932     8343.856    4831.0085    5992.4981    5036.2594    -540.6921   -907.40929     945.4663   -3483.2256 
 2264000    254.07034   -4668.5776   -4178.5816   -4668.5776            0    4587.4778    20.033873    20.124562     20.75821    8369.1477    4881.5295    5028.1518    3852.7521   -493.05316    1200.1128    897.27624    -3618.655 
 2265000    255.24419   -4664.7329    -4172.473   -4664.7329            0    5767.5664     19.93542      20.3835    20.461564    8314.6313    7360.1588    3340.3262    6602.2143    -203.7251   -408.58469    371.22858   -3473.0958 
 2266000    267.29715   -4679.5031    -4163.998   -4679.5031            0    6585.3529    20.075713    19.931621    20.621362    8251.4625    6564.3614    5311.8969    7879.8003   -303.99237    1590.7919    200.74879   -3371.5225 
 2267000    259.09458   -4677.1281   -4177.4424   -4677.1281            0    4784.7465    19.836926    20.128996    20.963475    8370.6609    3957.8163    6082.0944    4314.3289   -1057.1539    77.561951    1186.2606   -3593.3325 
 2268000    251.97205   -4678.6871   -4192.7378   -4678.6871            0    4719.7586    20.284757    19.787014    20.764681    8334.4195    4368.1751    5229.7062    4561.3943   -256.89075   -540.86847    233.69361    -3619.056 
 2269000    257.46315   -4676.8345   -4180.2952   -4676.8345            0    4554.5641    19.878735    20.279672    20.819793    8393.1707    5802.8283    3657.7973    4203.0666   -569.97425    6.8799693   -345.99853   -3622.7902 
 2270000    266.46911   -4698.8908   -4184.9827   -4698.8908            0    3197.8412    20.158657    19.872081    21.000562    8412.7088    3149.0166    3704.2865    2740.2204    24.203727   -196.88498   -258.62766   -3792.6372 
 2271000    269.27835   -4724.4788   -4205.1529   -4724.4788            0    4773.0601    20.016967     20.28725    20.643304     8383.023    4720.8683    3594.3664    6003.9456   -302.57377   -675.85399    519.74179   -3621.6091 
 2272000    279.03074   -4711.8653   -4173.7311   -4711.8653            0    5586.8154     20.04201    20.072143    20.549997    8266.9779    5110.4015    5298.7246    6351.3203    246.64126    464.62776   -503.45549   -3500.1545 
 2273000    253.85207   -4680.6732   -4191.0982   -4680.6732            0    5532.9037    19.763057    20.231821    20.773599    8306.1708    8002.6504    3761.6672    4834.3935    209.24624    684.28061   -336.07337   -3520.8589 
 2274000    278.24825   -4665.4361   -4128.8109   -4665.4361            0     2831.727    20.236689    20.066922    20.742596    8423.3204    3058.9478    3584.0647    1852.1685   -968.90468    731.28043    458.15655   -3780.9461 
 2275000    261.80319   -4650.8461   -4145.9366   -4650.8461            0    5692.1784    19.886012    20.250799    20.636439    8310.4518    5027.3753    5346.7719     6702.388    754.08264      870.166    418.53541   -3456.0479 
 2276000    271.99399   -4665.3797   -4140.8164   -4665.3797            0    5235.9914    19.850443    20.144923    20.774278    8307.3357    5984.4612    4682.5224    5040.9906    745.14567     -216.589   -1502.9487   -3506.4553 
 2277000    268.31933   -4650.0704    -4132.594   -4650.0704            0    5895.6917     19.92683    19.988459    20.839788    8300.6258    7084.8565    5505.9958    5096.2227    289.77664    854.58238     1728.232   -3418.8844 
 2278000    263.03752   -4697.1209   -4189.8309   -4697.1209            0    2665.7571    19.965173    20.004007    20.963214    8372.3608     1994.867    2617.0313     3385.373    101.48075    590.27367   -1104.6258   -3864.3359 
 2279000    267.18289   -4678.3152   -4163.0305   -4678.3152            0    3825.9458    20.003677    19.900452    20.827114    8290.9041    3241.0676    3731.1618     4505.608    487.54246   -11.787325   -695.60759   -3700.4188 
 2280000    263.27813   -4664.8853   -4157.1313   -4664.8853            0    5184.0984    20.040379     20.19691     20.75993    8402.6587    6200.3696    4726.5529    4625.3728     602.0871    -1530.004   -1666.6441   -3521.8503 
 2281000    274.93054   -4669.6059   -4139.3792   -4669.6059            0    3243.2744    20.224026    20.262192    20.500841     8400.898    4225.1968     1121.345    4383.2815   -1289.2916   -1625.9615    177.44912   -3742.0182 
 2282000    260.58305   -4664.4591   -4161.9027   -4664.4591            0    4653.8355    20.032381    20.042763    20.789966    8347.2603    5085.0867    5119.0784    3757.3414   -4.0660001    722.39356    39.321495   -3595.3623 
 2283000    267.07646   -4677.4697   -4162.3902   -4677.4697            0    5289.7768    19.856052     19.89333    21.091467    8331.1926    6383.1816    4160.5189    5325.6298   -375.19536   -631.24112    1273.8694   -3519.6723 
 2284000    259.72496   -4684.8365   -4183.9351   -4684.8365            0    4948.3281    19.976719     19.88848    20.994467    8341.2397     6120.539    4091.3515    4633.0939    14.675491   -779.16766   -630.39877   -3581.9788 
 2285000    257.62571   -4718.9888   -4222.1359   -4718.9888            0    4100.6709    20.163722    20.053448     20.63715     8344.676    3077.2305    4891.1991    4333.5831    690.19578   -1256.0367    70.464452   -3723.0903 
 2286000    245.82869   -4669.2135   -4195.1122   -4669.2135            0    4825.2545    20.156549    19.905836    20.646564     8284.082    4421.0928    5105.4689    4949.2017   -305.71276    705.68679    327.06904   -3612.1498 
 2287000    263.49397   -4681.2995   -4173.1293   -4681.2995            0    3952.7841    20.081119    20.053607    20.869342    8404.0604    3380.7949     6155.427    2322.1304    160.27477    1079.4306    -2273.989   -3688.6578 
 2288000     262.9464   -4662.0862   -4154.9719   -4662.0862            0      4710.58    20.141842    19.757461    20.937874    8332.2616    4111.0953    5765.8892    4254.7555    155.05719    856.42867    357.04059   -3582.5541 
 2289000    259.47569   -4687.2076   -4186.7869   -4687.2076            0    3593.5848    19.779259    20.294172    20.907625    8392.3974     4924.974    2112.1808    3743.5996   -400.50858    -344.1332    935.08936   -3746.9519 
 2290000    267.68647   -4700.4583   -4184.2024   -4700.4583            0    2977.8467    20.128101     20.04641    20.754209    8374.2436    1633.7649    3971.4005    3328.3749     304.9337   -726.66916     -329.794   -3820.5188 
 2291000     258.9611   -4664.7413   -4165.3131   -4664.7413            0    4011.3916    19.940152    20.109386    20.909434    8384.3531    4256.1699    4758.8443    3019.1605   -556.86892   -729.41015    855.87157   -3674.8114 
 2292000    266.89127    -4697.409   -4182.6867    -4697.409            0    4120.6058    20.072433    20.173231    20.864531    8448.5876    3954.3501    3546.3529    4861.1144   -149.55927   -1073.2631    853.29789   -3674.9705 
 2293000    275.96581   -4678.2296   -4146.0064   -4678.2296            0    3819.7139     20.06309    20.213398    20.741215     8411.459    3186.4398    4487.8782    3784.8236   -470.82283    675.55767     1169.684   -3677.4325 
 2294000    270.43508   -4717.2431   -4195.6863   -4717.2431            0    4645.2519    19.815459    20.155899    20.572487    8216.6183    6386.9288    2956.7819     4592.045   -276.30542    661.61752    1014.0557   -3639.0414 
 2295000    257.70896   -4707.4408   -4210.4274   -4707.4408            0     5060.444    19.944071    20.014684    20.861537    8327.3886    3493.6342    7054.3593    4633.3386    44.563308   -213.05165   -993.38017   -3595.8546 
 2296000     251.4973    -4677.914   -4192.8803    -4677.914            0    5781.4273    19.943209    19.935507    21.052277     8369.922    6876.0333    5830.3741    4637.8745   -135.96524    -15.86346    588.19135   -3487.1604 
 2297000    270.65892   -4690.8417   -4168.8532   -4690.8417            0    5905.6629    20.036288    20.112782    20.546028    8279.7509    6594.1038    4151.4549      6971.43    -841.1858   -151.28115    676.77914   -3455.7345 
 2298000    255.22649   -4692.7731   -4200.5474   -4692.7731            0    4372.5612    20.132563    20.135474    20.629945    8362.9402    4471.5079    4503.8631    4142.3125   -128.59988    493.00564   -689.55651   -3667.2484 
 2299000    267.55782   -4681.9414   -4165.9337   -4681.9414            0    3739.1009    20.114144    19.956143    20.791748    8345.8229    3966.3333    3886.3357    3364.6336    509.70704   -1875.9335   -67.096211    -3710.828 
 2300000     254.9812   -4695.5877    -4203.835   -4695.5877            0    3411.4317    19.906088    20.023976    21.018386    8377.9083    4214.8394    3442.5865    2576.8691   -102.67113    1657.6776   -369.62741   -3787.0154 
 2301000    276.17027   -4633.2842   -4100.6666   -4633.2842            0    5422.0748    19.902825    20.189118    20.712035    8322.5198    6370.0202    3927.5079    5968.6962     862.8496     77.19809   -33.384208   -3442.5601 
 2302000    253.22213   -4683.3076   -4194.9474   -4683.3076            0     4910.005    20.004154     20.30658    20.537461    8342.6443    6660.3113    1930.1321    6139.5715    30.366755    509.25835    -676.7896   -3597.5525 
 2303000    257.61202   -4715.3981   -4218.5717   -4715.3981            0    3422.4437    20.165831    19.911324    20.833522    8365.2506    2422.2454    3169.9014    4675.1842   -309.32652   -100.69897    1319.4942   -3801.0384 
 2304000     267.1107   -4655.0224    -4139.877   -4655.0224            0    4794.6085    19.890683    19.881964    21.116842    8350.9897     4927.299    5788.0756    3668.4509    451.88996   -1019.7053   -564.49778   -3555.9387 
 2305000    259.51338   -4673.6887   -4173.1953   -4673.6887            0    4467.7299    20.229713    19.905224    20.934105     8429.682    4097.0081     5456.514    3849.6676   -8.0621121    668.21763    945.37581   -3623.9404 
 2306000    267.22125   -4640.6623   -4125.3036   -4640.6623            0    6013.3351    19.855064     20.17387    20.703956    8293.0419    6347.1056    5628.6931    6064.2066    115.57752    597.10672    971.86191   -3398.0177 
 2307000    259.79425   -4716.3895   -4215.3544   -4716.3895            0    3069.4171    20.372519    19.930179    20.732627    8418.0261    230.73002    4702.4031    4275.1181    196.71726    496.37781   -590.87699   -3838.5274 
 2308000    259.55732   -4668.2167   -4167.6385   -4668.2167            0    3540.2192    19.889568    20.148483    20.814245    8341.1967     5333.583     1176.511    4110.5636    598.58881    1017.6576    159.93985   -3736.9787 
 2309000    266.01227   -4696.3331    -4183.306   -4696.3331            0    3599.2209    20.195639    19.925927    20.929349    8422.3224    3107.7879    4277.3641    3412.5107   -222.83202   -491.71496   -358.39088   -3741.2104 
 2310000    269.01862   -4691.1812   -4172.3562   -4691.1812            0    3874.4549     20.12325    19.799969    21.038835    8382.7077     5967.833    3101.9515    2553.5801   -425.64776    1166.1677     983.6791   -3698.6917 
 2311000    260.58182   -4670.3746   -4167.8206   -4670.3746            0    4577.4773    20.067636    20.066095    20.793264    8373.0128    3328.0165     4887.543    5516.8725    363.02767      -32.006    903.79568   -3608.8566 
 2312000    269.46632   -4649.8378   -4130.1493   -4649.8378            0    3704.3598    20.172638    20.323176    20.541821    8421.5727    4130.1448    1209.8271    5773.1075   -970.02701   -1260.1411    276.77553   -3675.1799 
 2313000    265.61748   -4660.7406   -4148.4749   -4660.7406            0     2950.945    20.199907    20.051036    20.847576    8443.8742    4016.6879    2562.9943    2273.1529   -9.3924852   -36.598819    289.72695   -3785.0801 
 2314000    255.64795   -4666.4829   -4173.4443   -4666.4829            0    4434.2958    19.878717    20.173752    20.879949    8373.4505    4506.4065    4341.9108      4454.57    442.11093    1827.8448   -344.81682   -3631.9361 
 2315000    265.80791   -4703.9491   -4191.3162   -4703.9491            0    3008.6954    20.173507    19.861497    20.897951    8373.3082     2555.687    3175.6227    3294.7766   -34.905449   -23.964935   -42.039593    -3823.906 
 2316000    275.78298   -4658.1922   -4126.3215   -4658.1922            0    5317.8564    20.105102     20.04149    20.744887    8358.8659    5041.7776    6250.1034    4661.6881   -409.67998   -516.56088    1102.2027   -3478.0456 
 2317000    265.65049   -4698.8315   -4186.5022   -4698.8315            0    3732.4898    20.169606    20.018035    20.531425    8289.6833    2869.4825    3095.9353    5232.0516   -360.73365   -178.85904   -697.82279   -3735.2571 
 2318000    263.13711   -4681.5122   -4174.0302   -4681.5122            0    4167.9189     20.09266    20.186333    20.768287    8423.5574    4011.9407    4757.7187    3734.0974    414.74191   -329.87434   -41.064702   -3662.0057 
 2319000    258.95276   -4709.1976   -4209.7854   -4709.1976            0     7185.655    19.971535    19.878622    20.647214    8197.0801    7733.1228    6591.9053    7231.9369    685.16769    995.27393   -182.75982   -3350.7691 
 2320000    265.25659   -4676.1005   -4164.5308   -4676.1005            0     3522.511    19.803452    20.190501     20.92936    8368.4293    3625.9166    2954.7287    3986.8878    125.86031    439.56474   -266.87688   -3734.6261 
 2321000    260.66913   -4668.5708   -4165.8485   -4668.5708            0    4374.2246    20.129834    20.109462    20.661156    8363.6387    4257.5354    4302.1328    4563.0056    386.80565    397.87187    449.50525    -3632.302 
 2322000    287.40927   -4673.8723   -4119.5793   -4673.8723            0    3163.3242    20.134466    20.225483    20.534218    8362.1357    2611.2956    2206.6386    4672.0385    371.39979    1172.5366    412.73074   -3733.8019 
 2323000    254.50189   -4710.8639   -4220.0356   -4710.8639            0    4144.8849    19.860006    19.984914     21.09061    8370.8741    5270.7945    4210.5156    2953.3446   -401.77434    349.44528    198.59157   -3714.0255 
 2324000    266.26449   -4712.4893   -4198.9758   -4712.4893            0    4598.9856    20.079931    19.784967    20.909736    8307.0364    6244.1361    4028.9467    3523.8739   -49.201132   -72.206477   -27.785956   -3641.8105 
 2325000    253.06455   -4681.8065   -4193.7503   -4681.8065            0    5385.7649    19.938512    20.101204    20.834039    8350.0348    5786.1068    5549.5659     4821.622   -604.94599   -1402.6816   -1659.6453   -3537.8896 
 2326000    264.07045   -4690.3957   -4181.1136   -4690.3957            0    4236.0223    20.165941    20.061221    20.673591    8363.5714    3945.8502    4658.6565    4103.5602   -216.26633   -865.71227    714.88193   -3664.4286 
 2327000    241.87557   -4686.2638   -4219.7864   -4686.2638            0    5162.1563     20.13684    20.031924     20.57492    8299.5042    5107.7813    4355.7696    6022.9181   -1007.5906     66.44314   -266.13936   -3594.9603 
 2328000    275.94806   -4665.1947   -4133.0056   -4665.1947            0    5267.2032    19.940292    20.239115    20.576036    8303.9503    4798.1464    4791.9133      6211.55   -90.761662    -727.9035    538.71194   -3495.1231 
 2329000    267.26597   -4708.1591   -4192.7142   -4708.1591            0    4810.0038    20.044507     19.98238    20.734206    8304.8157    5118.9257    4424.6695    4886.4163    89.686068    748.76434    1388.0014   -3610.1399 
 2330000    260.95556    -4657.778   -4154.5033    -4657.778            0    4027.6338    20.024259    20.218902     20.73171    8393.6166    5077.8603    3682.4257    3322.6155     1037.888    604.96098    973.09082   -3661.4714 
 2331000    266.08081   -4679.9588   -4166.7996   -4679.9588            0    2123.2057    19.974538     20.35348    20.697739    8414.6941    2980.2693    564.63906    2824.7087   -243.16017     340.4133    1767.5904   -3906.2404 
 2332000    259.39483   -4709.1014   -4208.8366   -4709.1014            0    5353.2757    20.091041     19.99555    20.629586    8287.5531    4729.9827    5667.1361    5662.7083    -357.8748   -627.79536    713.00986   -3561.8105 
 2333000    258.28069   -4661.1532   -4163.0372   -4661.1532            0    5851.7012    20.051108    19.984536    20.747952     8313.955    5607.3356    5378.8217    6568.9464   -854.08833   -198.77608    799.72407   -3453.5154 
 2334000    280.31034   -4672.5719   -4131.9698   -4672.5719            0     2729.091    20.142067    19.622543    21.270745    8407.0191    2147.8554    4002.0159    2037.4018   -585.90235    1125.7701   -345.92257   -3797.3621 
 2335000    261.20915   -4697.2398    -4193.476   -4697.2398            0    4304.6102     20.05791    19.927752    20.720556    8282.1939    3902.4401    4589.5551    4421.8355    419.34915    90.967679    208.25285   -3673.5338 
 2336000    266.41359    -4700.172    -4186.371    -4700.172            0    3398.0265    20.219391    20.050194    20.801962    8433.1715    2702.7625    2747.4586    4743.8585    349.07256    -525.9364   -608.97878   -3768.4506 
 2337000    250.31778   -4669.5875   -4186.8286   -4669.5875            0    5541.8861    19.924023    20.109715    20.704137    8295.4529    6863.0986    4369.6354    5392.9242   -429.28047    1687.1137    1420.4816   -3516.3675 
 2338000    264.84942   -4679.1165   -4168.3321   -4679.1165            0     4664.355    20.225763    19.800293     20.74873     8309.369    4694.8997    6123.3368    3174.8286   -50.725681   -1233.9286   -1151.1146   -3603.0887 
 2339000    255.63331   -4718.4882   -4225.4779   -4718.4882            0     4153.744    19.701611    20.149194    20.924961    8306.6151    5834.5014    2616.6514    4010.0791   -12.016268    475.74409   -174.54457    -3722.279 
 2340000    266.95731   -4707.6238   -4192.7742   -4707.6238            0    4045.5011     20.11001    19.955049    20.968859     8414.724    3676.5796     4806.699    3653.2248   -357.83685    -1632.665    1106.4866   -3696.3098 
 2341000    258.02015   -4692.9609   -4195.3473   -4692.9609            0    3761.2986    20.052545    20.008301    20.929502    8397.2798    3512.9071    4284.6027    3486.3859    40.820094    1382.6042   -359.00937   -3734.7172 
 2342000    256.95281   -4671.7956   -4176.2405   -4671.7956            0    6406.9438    19.830635    20.022297    20.854833     8280.513    8666.5607    5619.7409    4934.5299    786.11787    712.25706   -1843.4719   -3402.5201 
 2343000    275.86456   -4690.4908   -4158.4628   -4690.4908            0    3197.5224    20.104288    20.095448    20.705108    8364.9601    3182.2482    2651.7298    3758.5891    539.04184    1184.1389    1397.4443   -3768.3831 
 2344000    259.98863   -4683.0358   -4181.6258   -4683.0358            0    3492.7872    20.072758    20.160637    20.787883    8412.4318    3740.3686    2670.3134    4067.6798    270.39375   -367.04878    766.17602   -3753.1073 
 2345000    254.59008   -4706.6733   -4215.6749   -4706.6733            0    4694.7119    19.924168    19.981942    20.975125     8350.692    4622.1193    6139.8818    3322.1347    711.44746    1006.3716     1448.443   -3643.9234 
 2346000    271.28984   -4688.0263    -4164.821   -4688.0263            0    5331.7105    19.983892    19.909306    20.849271    8295.2043    4506.2057    5365.2862    6123.6395   -239.65906   -1489.8717    629.25418   -3519.8064 
 2347000    267.03626   -4691.5856   -4176.5837   -4691.5856            0    5129.9535    20.195578    20.024612    20.608273    8334.1634    5668.9182    3502.9228    6218.0194    446.96479    972.57462    515.71889   -3553.0624 
 2348000    261.20759   -4681.4778    -4177.717   -4681.4778            0    4653.5394    20.066241    20.122946    20.747541    8377.6885    4743.6563    4531.4987    4685.4632   -542.82815   -273.67119    32.832223   -3609.1476 
 2349000    265.24127   -4691.0286   -4179.4885   -4691.0286            0    4028.3582    20.201759    20.044413     20.55741    8324.3612    2338.5825    4410.2803    5336.2119   -792.39921   -710.92655   -27.433126   -3690.4367 
 2350000    251.60016   -4660.5758   -4175.3437   -4660.5758            0    4282.9888     19.96363    20.055792    20.937658    8383.1537    3988.1786    4723.6801    4137.1076   -184.37362   -1719.6154   -1177.1305   -3651.7068 
 2351000     264.5774   -4734.2481   -4223.9884   -4734.2481            0    3089.7124    20.173101     20.04045    20.880974    8441.7188    2263.2075    3037.3801    3968.5496    273.51556    1147.9783    237.98865   -3843.6021 
 2352000     263.3488   -4675.0887   -4167.1984   -4675.0887            0    4998.9084    20.073103    19.985775    20.731376    8316.9411    3275.6044    4308.1766    7412.9444   -62.397739    828.32673    914.75813   -3560.8605 
 2353000    258.31592   -4652.8959   -4154.7119   -4652.8959            0    6517.0967    19.674529    20.152082    20.905341    8288.6063    9377.5706    5230.9398    4942.7796    323.61499   -688.34832    300.18367     -3366.92 
 2354000    271.39158   -4677.0185    -4153.617   -4677.0185            0     5007.368    20.178806    19.895067    20.676523    8300.7701    3213.4908    5650.3505    6158.2629    844.56336    846.38889    608.96322   -3547.4339 
 2355000    284.07302   -4677.6113   -4129.7526   -4677.6113            0    4715.1524    19.728297    20.194237    20.846762    8305.3065    5646.4373    4477.3006    4021.7192    272.06134    1926.6965   -1027.7178   -3558.6327 
 2356000    247.53984   -4674.0693   -4196.6679   -4674.0693            0    5624.9035    19.969802    20.137574    20.623605    8293.6457     6753.451    4060.0366    6061.2229    -749.4172   -1164.8905    249.01104   -3516.3115 
 2357000    262.00714   -4679.9505   -4174.6477   -4679.9505            0    4308.7719    20.015806    20.184846    20.806235    8406.0508    4485.6938    4490.0122    3950.6098    706.32954   -150.68463   -581.01949   -3646.4197 
 2358000    264.07043   -4662.6447   -4153.3627   -4662.6447            0    3721.5022    20.165737    19.816089    20.999691    8391.6036      4285.04    3288.6364    3590.8303    178.03065     1280.135    1712.5886   -3697.9143 
 2359000    259.22609    -4682.009   -4182.0696    -4682.009            0    3744.5371    20.036761    19.976059    20.999345    8405.1037    1952.5774    5114.1179    4166.9159    -158.1163   -593.20801   -331.88478    -3723.065 
 2360000    281.42246   -4691.8263   -4149.0795   -4691.8263            0    5561.0516     20.15493    19.951498    20.737529    8338.9965    4933.9816    6467.7894    5281.3837   -685.92665    346.56177   -1148.3494   -3472.7682 
 2361000    277.09917     -4669.28   -4134.8709     -4669.28            0    5762.5484    19.834964    20.125778    20.749647    8283.1361    7049.3953    4563.3993    5674.8505   -429.87868    148.71974    -222.1534    -3438.749 
 2362000    276.52155   -4688.5322   -4155.2372   -4688.5322            0    4515.9235    20.305312    19.883382    20.678448    8348.6808    2950.5273    5817.4781    4779.7651   -606.69179   -692.44714    726.92273   -3605.3921 
 2363000    270.02002   -4724.3729   -4203.6166   -4724.3729            0    4348.2521    20.261155    19.698956     20.74757     8280.845    4464.3909    4108.5472    4471.8181   -469.48409    442.37493    592.48541   -3678.4885 
 2364000    269.64812   -4680.4047   -4160.3656   -4680.4047            0    5116.5847     19.79429    20.049255    20.861727    8279.2008     8644.142    3232.8157    3472.7965    563.99091    1474.9894   -981.71803   -3542.5705 
 2365000    270.12524   -4698.6163    -4177.657   -4698.6163            0    3192.9524    20.137064    19.873963    20.923619    8373.7008    2832.4191    4161.2336    2585.2044     102.9642    265.65912    -393.2099   -3787.7278 
 2366000    260.37485   -4704.3082   -4202.1534   -4704.3082            0    4796.6805    19.929907    20.126836    20.723399    8312.6938    6105.4284     3289.627    4994.9861    9.9746181    572.40165   -1198.8132   -3620.6417 
 2367000    248.43982   -4686.4467   -4207.3096   -4686.4467            0    2319.3244    20.112959    20.149597    20.756275    8411.8541    1672.9246    1471.3758    3813.6728   -113.89861     839.7657    550.50807   -3922.7789 
 2368000    258.37047   -4704.9278   -4206.6387   -4704.9278            0    3686.1179     20.02005    20.232356    20.831533    8437.8702    4423.2387    2027.0854    4608.0295    118.79568     -186.657    319.05272   -3753.0335 
 2369000    251.23332    -4701.239   -4216.7144    -4701.239            0    3233.6344       20.279    19.938164    20.767412    8396.8053    2666.6265     4502.927    2531.3495   -93.722472   -219.17422   -122.84359   -3820.7274 
 2370000     274.2076   -4691.5904    -4162.758   -4691.5904            0       4901.5    19.991823    20.254543    20.683162    8375.1342    5941.3121    3647.6871    5115.5008   -563.30476   -692.58442    1232.2359   -3564.0753 
 2371000    251.82662   -4689.4623   -4203.7935   -4689.4623            0    4395.9283     20.27329    19.844053    20.636962    8302.3376    4262.9428     4574.058    4350.7842    425.55194    262.66841   -762.26824   -3671.5297 
 2372000     269.6455    -4664.889    -4144.855    -4664.889            0    4489.8007    19.789012    20.195859    20.896758    8351.5167     4073.945     5436.629    3958.8281    33.256731   -133.45992    624.03766   -3598.0048 
 2373000    257.06281   -4673.2964   -4177.5292   -4673.2964            0    4007.9825    20.041253    19.985902    20.894169    8369.0031    2412.8353    6537.1596    3073.9526    106.33483    66.644364   -558.19514   -3688.3416 
 2374000     281.6685    -4713.778   -4170.5566    -4713.778            0     6902.043    19.970344    20.099134    20.669103    8296.3013    6654.5271    7006.4142    7045.1877    446.30263    1780.3719   -954.08332   -3335.4574 
 2375000    257.64198   -4644.2168   -4147.3326   -4644.2168            0    3135.2919    20.221295    20.127569     20.64512    8402.6777    2481.0212     3929.656    2995.1984   -67.687164    666.12123   -1002.6895     -3763.12 
 2376000    258.77893   -4711.0975   -4212.0206   -4711.0975            0    4946.6156    20.006896    20.193066    20.646811    8341.3234    4352.6801    5362.3385    5124.8283   -197.13742    579.94238     649.1449   -3610.2666 
 2377000    262.47035   -4692.5275   -4186.3313   -4692.5275            0    4102.2569    20.089409    20.021381    20.817362    8373.1117    3291.4189    4981.2603    4034.0916     522.2945      1142.41   -333.54276   -3685.3914 
 2378000    269.05765   -4720.5822   -4201.6819   -4720.5822            0    2972.4768     20.04883     20.02381    20.927376     8401.378    3954.8275    2225.0735    2737.5293    635.67159    600.68566   -1091.0898   -3837.4777 
 2379000    264.79422   -4648.0404   -4137.3625   -4648.0404            0    4260.1534    20.153119    20.185294    20.531784    8352.2605    2482.8997    4654.4125    5643.1479    434.41506    624.42672   -742.48159   -3618.4368 
 2380000    257.15892   -4711.0061   -4215.0535   -4711.0061            0    4967.7118    19.920849    20.058974    20.653214    8252.8548    6370.8993    2317.2407    6214.9953   -51.120943    1067.0769    1134.0012   -3617.1426 
 2381000    251.18218   -4700.9532   -4216.5272   -4700.9532            0      4794.12    20.054722    19.976858    20.754852    8315.0235    2550.5894    6450.2956    5381.4749   -217.26073   -120.63334   -60.512283   -3635.1631 
 2382000    258.74375    -4644.944   -4145.9349    -4644.944            0    3590.4602    19.971599    19.940037    21.133705    8416.1688    5345.7958    2703.0362    2722.5486    128.59956    739.96703  -0.82769556   -3705.2376 
 2383000    290.28454   -4684.6157   -4124.7776   -4684.6157            0    7015.8118    19.872236    19.981892    20.757348    8242.4289    6615.0215     7501.876     6930.538     137.3005    523.39958   -1343.8378   -3281.4253 
 2384000    260.24201   -4693.2936    -4191.395   -4693.2936            0    5133.8401    20.070121    20.151795     20.46994    8279.0459    4031.5404    6708.4217    4661.5582   -133.79559   -233.92829   -694.28908    -3571.528 
 2385000    263.20265   -4689.9452   -4182.3368   -4689.9452            0     6532.858    19.950429    20.138271    20.583587    8269.8088    7579.4837    5815.3441    6203.7461    31.327011    555.74776   -19.022114   -3394.4305 
 2386000    270.36691    -4680.775   -4159.3497    -4680.775            0     5738.284    19.951236    19.979946    20.777943    8282.5994    5952.8057    6228.7668    5033.2793   -461.71687    1196.9094   -593.83091   -3466.2039 
 2387000    258.47998   -4684.9514    -4186.451   -4684.9514            0    5886.8699    20.050597    19.937064    20.636018     8249.249    6293.5033    5427.2183     5939.888   -504.14661    350.70828    506.38341   -3478.2203 
 2388000    262.08973   -4691.7763   -4186.3142   -4691.7763            0    4281.7265    20.006107    20.139141    20.670947     8328.445    4859.0635    3585.1433    4400.9727    375.48034   -181.39082   -627.95373   -3666.2479 
 2389000    250.87805   -4700.8899   -4217.0505   -4700.8899            0    4197.9931    20.038852    20.160188    20.655084    8344.3861    4353.9155    4792.0403    3448.0237   -488.77928    1656.7394   -551.47992   -3706.1786 
 2390000    261.49833   -4673.0586   -4168.7371   -4673.0586            0     4438.202    20.006392    20.207813    20.752782    8390.0472    4986.7976    3734.2488    4593.5595    718.47079    14.889229     1907.316   -3625.6777 
 2391000    272.30823   -4717.3164   -4192.1471   -4717.3164            0    2745.4058     20.12469    20.027236    20.846933    8402.1877    2815.8581    3108.1804    2312.1788    489.83861    471.32705   -1391.0652   -3855.7325 
 2392000    256.95929   -4672.7042   -4177.1366   -4672.7042            0    3108.6892     20.02134    20.141845    21.011637    8473.2942    1933.6388    4527.8001    2864.6287   -264.81681    398.69397   -304.05834   -3792.9825 
 2393000    261.64054   -4695.3004   -4190.7046   -4695.3004            0    3172.2236    20.035912    20.048209    20.926163    8405.7081    2132.4534    3619.7653    3764.4522    377.64897   -391.41924    398.89134   -3801.8261 
 2394000     266.5851   -4682.3571   -4168.2253   -4682.3571            0    6189.3598    19.926884    20.058111    20.745676    8291.9568    6208.6194    5718.3951    6641.0649    -71.52434   -498.00855    -1436.519   -3419.7479 
 2395000    264.57407   -4690.6725   -4180.4192   -4690.6725            0    4007.8677    20.203733    20.045352    20.645856    8361.3849    5254.6828    2683.8804    4085.0398   -13.844953    1143.7845   -1025.5705   -3691.6909 
 2396000    262.71005   -4704.3441   -4197.6857   -4704.3441            0    4394.9049     20.08448    20.206288    20.591941     8356.885    4125.5542    4310.5212    4748.6393   -46.326267   -1349.9813    1247.0274   -3662.0496 
 2397000    261.14899   -4702.4206   -4198.7729   -4702.4206            0     3726.489    20.005373    19.975896    20.942999    8369.3511    2863.7537    5101.5188    3214.1946   -6.7329827    1392.6274    405.20812   -3743.9236 
 2398000     256.4716   -4675.8654   -4181.2384   -4675.8654            0    5408.3914    19.935485    19.767059    21.155781    8336.7719    5301.9977    7246.5135     3676.663    104.11632    174.66681    913.74535   -3523.6685 
 2399000    280.32841   -4687.4488   -4146.8119   -4687.4488            0    4160.7246    20.102512     20.10625    20.656501    8349.0717    2838.5674    5487.2016    4156.4047    462.61188   -1328.9819   -205.38718   -3640.1911 
 2400000    263.71358   -4686.6905   -4178.0966   -4686.6905            0    4607.7954    20.184467    20.048493    20.563324    8321.3221    4523.1047    5741.0758    3559.2058     9.713537   -1189.6022    180.77157    -3618.904 
 2401000    277.16832    -4665.968   -4131.4256    -4665.968            0    3710.6697    20.227868    20.036048    20.757435    8412.7088    1676.0047    3978.1473    5477.8572    36.357621    277.90765    271.36441   -3676.1608 
 2402000    264.45341   -4667.1554   -4157.1348   -4667.1554            0    4815.9145    20.146374    20.000342    20.702735    8341.8434    3246.4989    6040.2289    5161.0156    115.61473    881.43115    733.39514    -3571.244 
 2403000    256.10843   -4675.5247   -4181.5981   -4675.5247            0    5226.1466    19.928689    20.033421    20.825678      8314.44    7448.5615     2906.615    5323.2633    -108.5572   -31.447058    353.75753   -3547.8882 
 2404000    266.32967   -4696.4045   -4182.7654   -4696.4045            0    5013.9765    20.169714    19.774027    20.912927    8340.8383    3277.4034    5496.4612    6268.0649   -60.801891    767.65594   -59.527121   -3572.8524 
 2405000    268.23315   -4702.8613   -4185.5511   -4702.8613            0    3209.2787    20.058942    20.127078    20.817278    8404.5156    3733.1178    2378.4505    3516.2677   -258.59446    973.77265    845.57759   -3792.1858 
 2406000    258.87699   -4702.5757   -4203.3096   -4702.5757            0     4520.291    20.097131    19.977761    20.686983    8305.7338    3579.7176    3842.1571    6138.9983    744.74407    592.91828   -1773.3699    -3655.764 
 2407000    268.36049   -4694.6585   -4177.1027   -4694.6585            0     4309.984    19.882255    20.161849    20.988329     8413.445     4910.889    4144.3635    3874.6995    1341.2284    130.22126    1218.5192   -3648.2613 
 2408000    260.59762   -4717.4783   -4214.8939   -4717.4783            0    3176.3398    20.160638    19.988577    20.854095    8403.8345      2879.42    2874.2058    3775.3937    94.281823    684.92188   -481.19186   -3825.5976 
 2409000    240.62451   -4659.1034   -4195.0388   -4659.1034            0     4293.191     19.97975    20.231319    20.626899    8337.7369    4077.6396    4696.4945    4105.4387   -554.05395    57.111657     688.3891   -3672.9982 
 2410000    253.70175   -4657.8758   -4168.5907   -4657.8758            0    4076.1981    20.080514    20.156097    20.789241    8414.3368    2907.8989    4969.8167    4350.8787   -182.53346    247.48528   -111.15622   -3668.3822 
 2411000    276.01013   -4728.8409   -4196.5321   -4728.8409            0    4068.4008    20.125611    19.852758    20.817169    8317.4764    1993.9854    5933.2814    4277.9356   -707.48693    1501.7561   -705.46473   -3703.0275 
 2412000    264.00376   -4672.8981   -4163.7447   -4672.8981            0    3832.0397     20.06483    20.165509    20.751555    8396.4426    1444.4028    4088.4404    5963.2759   -368.39875    485.48457   -1054.4593    -3694.498 
 2413000    268.08098   -4684.5066   -4167.4899   -4684.5066            0    3482.3663    20.131343    20.006826     20.64011     8313.099    3728.2099    3282.3162    3436.5728   -281.76153   -551.81149    385.77291   -3745.2947 
 2414000     246.8221   -4666.1041   -4190.0869   -4666.1041            0    4711.7941     19.86886    20.263307    20.771806     8362.912    4955.2587    4767.7749    4412.3486   -426.71815    734.17479    279.58509   -3615.4153 
 2415000    266.74424   -4695.9789   -4181.5402   -4695.9789            0     5657.699    19.872258    20.009742    20.835823    8285.1304    6393.7294    5167.3109    5412.0567    608.27908   -471.40792   -1184.7345   -3497.9197 
 2416000    278.63372    -4687.896   -4150.5275    -4687.896            0    3643.9619    20.126154    19.779236     20.95163    8340.4237    2638.8031    3307.3073    4985.7753   -76.603553    440.09689   -333.91678   -3707.2886 
 2417000    258.71414    -4678.054    -4179.102    -4678.054            0    4245.0252    20.024214    20.044189    21.016109    8435.2174     4766.928    4082.3379    3885.8097    -487.4575    123.40735   -205.69945   -3656.8833 
 2418000    273.38671   -4671.0585   -4143.8092   -4671.0585            0    4915.4932    19.863967    20.165733    20.787823     8327.009    3964.9038    5637.0922    5144.4837    310.99042    652.28121   -601.22554   -3546.8673 
 2419000    278.28018   -4679.9609   -4143.2742   -4679.9609            0    5291.7708    20.107431    20.093145    20.655193     8345.143    4876.6157    5985.8117    5012.8848   -211.81553    40.216097   -348.04649   -3499.2374 
 2420000    277.65191   -4688.8409   -4153.3658   -4688.8409            0    3927.1142    19.950921    20.181756    20.733702    8348.3137    3847.8657    3101.0841    4832.3926    571.90449    319.43668   -609.55377   -3675.2334 
 2421000     260.1221   -4656.4473     -4154.78   -4656.4473            0    5073.3257    20.047716    19.843111    20.889049     8309.853    2751.7172    6378.3028    6089.9573   -806.01172   -818.27844   -318.56608   -3539.9402 
 2422000    250.82888   -4674.2764   -4190.5318   -4674.2764            0    3437.9033    19.967545    20.009995      20.9945     8388.362    5335.4773    3246.6556    1731.5771    449.33067    602.85418    331.18016   -3769.9537 
 2423000      253.368   -4691.5228   -4202.8813   -4691.5228            0    5608.4324    20.171008    19.947662    20.617352    8295.6895    4338.4604    6719.7534    5767.0834   -91.437146   -205.12433    648.23357     -3524.35 
 2424000    261.78022   -4685.1761   -4180.3109   -4685.1761            0    7081.5159    20.022937    20.184522    20.677209    8356.7647    7843.7439    5585.3626    7815.4413   -599.30534   -1575.0736   -413.29068   -3317.2523 
 2425000    261.30161    -4699.262   -4195.3199    -4699.262            0    3585.8031    20.156843    20.017513    20.837809    8407.8447    1998.9984    5069.7926    3688.6184    -524.7657   -1108.1108    -975.5444   -3755.6295 
 2426000    258.22008   -4706.8285   -4208.8294   -4706.8285            0    6010.4547    19.821549    20.087136     20.91221    8326.3669    6847.3139    5578.4004    5605.6499    44.767378   -373.79888   -173.00223   -3478.9707 
 2427000    259.25651    -4672.573    -4172.575    -4672.573            0    4373.9007    19.960763    20.100545    20.778899    8336.9554    6757.7866    2339.2297    4024.6859    352.39549     717.5068    357.70095   -3640.7702 
 2428000    250.49279   -4659.7585   -4176.6621   -4659.7585            0    4107.3499    20.172433    20.023401    20.604077    8322.4134    4952.1199    4746.3585    2623.5711   -1266.8659    342.97702    243.55654   -3678.1371 
 2429000    259.90127   -4651.2898   -4150.0483   -4651.2898            0    3782.4278    20.230038    20.199504    20.580522    8409.9572    3497.5431    2286.0859    5563.6543   -413.66472   -1313.9976    318.94087   -3686.1313 
 2430000    263.34837   -4671.7622   -4163.8727   -4671.7622            0     3088.493    20.100778    20.040414    20.810557    8383.0734    2215.7819    3982.3704    3067.3268   -231.17345   -760.64957   -458.73645   -3786.2781 
 2431000    266.56963   -4701.5201   -4187.4182   -4701.5201            0     4073.061    20.103922    20.132744    20.685954      8372.58    4932.2564    3958.0745     3328.852    500.30497    967.70431    715.74711   -3690.0751 
 2432000    259.81095   -4680.3194   -4179.2521   -4680.3194            0    5185.4222    20.046382    19.875382     20.95616    8349.5526    3925.2809     5846.935    5784.0508    307.70368    1103.4382    985.63554    -3547.825 
 2433000    248.94058   -4691.9747   -4211.8719   -4691.9747            0    3620.8807     20.09674    19.914079    21.046443    8422.9562    4452.7364    2973.5496    3436.3562   -151.65115   -638.68682    380.41947   -3767.0823 
 2434000    259.92734   -4710.2245   -4208.9328   -4710.2245            0    3602.6385     20.10728    20.062092    20.816409    8397.2168    2956.5496    3884.4173    3966.9487   -317.99052    1876.4044    1399.6295   -3767.7364 
 2435000    270.21321   -4669.5038   -4148.3749   -4669.5038            0     6652.292    19.759687    20.099575    20.831769    8273.5727    6429.7213    6671.7389    6855.4159   -238.01502    211.18622   -222.34349   -3345.6989 
 2436000    264.19364   -4658.3164   -4148.7967   -4658.3164            0    5912.8476    19.809661    20.127598    20.851449     8313.908    7078.5635    4997.6396    5662.3397   -149.35234       637.57   -1038.2245    -3431.865 
 2437000    255.00429   -4671.7203    -4179.923   -4671.7203            0     5719.776    19.935475    20.094857    20.800315    8332.6173    5896.1863    6830.3852    4432.7564    262.68283    593.83893    107.37081   -3484.8406 
 2438000    257.01741   -4666.4244   -4170.7447   -4666.4244            0    4428.2467    20.075211    20.043426    20.826422    8380.0523    5757.4558    3437.0391    4090.2452    874.57673    1562.1513    921.85255   -3629.5489 
 2439000    258.05736   -4701.9914   -4204.3061   -4701.9914            0    3934.1481    19.878365    20.138988    20.822722    8335.9637    4064.8829    3202.2629    4535.2987     172.1466   -369.24262    1472.5245   -3726.0259 
 2440000    265.74211   -4644.4846   -4131.9785   -4644.4846            0    4776.6558    20.280245    19.929042    20.634426    8339.7307    5098.7635    4431.6033    4799.6007   -6.2262854   -1578.1531   -291.76968    -3551.011 
 2441000    269.22731   -4692.9772   -4173.7497   -4692.9772            0     4447.964    19.990235    20.042811    20.741338    8310.2347    5768.5184    2355.9529    5219.4206    89.121015    -798.0145    585.61071   -3634.6731 
 2442000     268.1252   -4679.7274   -4162.6253   -4679.7274            0    6098.9727    19.960267    19.952429    20.900644    8323.8031    5742.6324    6690.7879    5863.4978   -196.75513   -602.57451   -1350.0729   -3422.2459 
 2443000     259.6863   -4668.3511   -4167.5242   -4668.3511            0     4455.476    20.123521    19.819994     21.00182    8376.5352    3246.1908     5318.089    4802.1483   -526.95391      470.464    88.389747   -3623.2291 
 2444000    271.47823   -4677.3841   -4153.8155   -4677.3841            0    4300.8161    20.076654     20.13038    20.910038    8450.8058    3182.7901    5039.4322     4680.226    379.90931    302.44826    386.05334   -3623.7557 
 2445000    261.58697   -4680.9762   -4176.4837   -4680.9762            0    4475.7081     19.99633    20.114362    20.730008    8337.8871    3920.1739    4473.3039    5033.6464   -43.006629    1559.0013    2052.4327   -3632.2397 
 2446000    255.34827   -4671.7941   -4179.3335   -4671.7941            0    4755.7356    19.927776    20.146748    20.772776    8339.8514    4607.5295    5522.2166    4137.4606   -51.885649    -123.8629    324.75112    -3600.902 
 2447000    247.78504   -4658.1644   -4180.2901   -4658.1644            0    4041.6052    20.185841    19.758461    21.007672     8378.724    3196.7076    5669.0614    3259.0467     534.7483   -106.71508   -952.94202   -3686.4258 
 2448000     264.7004   -4681.2062   -4170.7092   -4681.2062            0    4053.3695    20.065044    20.032014    20.849136    8380.1695    4842.7323     2729.291    4588.0851    346.97749   -872.55198    812.21976   -3675.3219 
 2449000    272.92187   -4675.7198    -4149.367   -4675.7198            0    5249.8471    19.952759     20.10986    20.757055    8328.7099    5632.0977    4458.2311    5659.2125    -231.6404    707.77753   -665.86887   -3511.6907 
 2450000    261.03884   -4687.0934    -4183.658   -4687.0934            0    4248.9853    20.255009    19.996117    20.653382    8365.0644    4034.4341    5129.6066    3582.9153    58.231043    95.566065    1099.9611   -3665.2993 
 2451000    256.84292   -4684.0297   -4188.6865   -4684.0297            0    4680.0558    19.880801    19.957676    20.993377    8329.6385    5309.8992    4555.3567    4174.9116   -510.61698   -556.03725    71.646104   -3620.1569 
 2452000    262.78297   -4681.9817   -4175.1827   -4681.9817            0     3705.419    20.063606    20.040324    20.943627    8421.0377     3548.695    5049.2435    2518.3186   -177.08748    734.79427   -942.41726    -3720.112 
 2453000    255.53199   -4699.7026   -4206.8877   -4699.7026            0    4208.5629    20.167952    20.074699    20.703503    8382.1355    4028.4295    4224.5611     4372.698    -155.8404   -703.50133    832.05016   -3692.4125 
 2454000    258.59856   -4697.8023   -4199.0733   -4697.8023            0     3400.378    20.261752     20.09137    20.607407    8388.9944    2228.3888    3654.1859    4318.5591    751.21197    865.46009   -366.00111   -3783.0545 
 2455000    258.95452   -4710.1085   -4210.6929   -4710.1085            0    4536.7385    19.976504    20.103834     20.71037    8317.3739    3083.0013    5800.1182    4727.0961   -150.86367    217.21943   -25.413702   -3660.3849 
 2456000    256.10348   -4697.4034   -4203.4863   -4697.4034            0    8038.5549    20.168123    19.904689    20.619482    8277.4896    6670.6866    9528.4827    7916.4954    818.45655     409.5083   -405.14784   -3233.0825 
 2457000     264.9763   -4689.6022   -4178.5731   -4689.6022            0    4739.4875    20.103544    19.824342     20.94613    8347.8608     4009.306    5190.5623    5018.5941   -62.687735   -368.95832     -847.943   -3601.5642 
 2458000    258.47972   -4665.8566   -4167.3567   -4665.8566            0    5262.8596     19.90341    20.069645     20.98468    8382.4225    6268.0672    5084.9983    4435.5134    308.14394    186.34627   -621.69489   -3523.9772 
 2459000    267.13436   -4688.2558   -4173.0647   -4688.2558            0    5691.8516     20.04911      20.0092    20.533931    8237.5285    4782.5982    6172.7762    6120.1805     -699.109    -986.7197    -464.6015   -3489.2689 
 2460000    273.93247   -4673.9974   -4145.6956   -4673.9974            0    5316.7005    20.011841    20.146118    20.637056    8320.0547    6008.3724    4493.6369    5448.0923     60.86602    631.32113    894.82097     -3500.57 
 2461000    258.70987   -4670.7213   -4171.7776   -4670.7213            0    4907.4619    19.973077    19.935418     20.86569    8308.1262    5186.0902    5244.0314    4292.2642    19.839195    326.89758    268.66723   -3577.1625 
 2462000    267.80939   -4696.6945   -4180.2015   -4696.6945            0     4717.627    19.816698    19.909998    21.227432    8375.2925    4039.8476    7327.2994    2785.7339    -54.70679    97.071982   -225.98777   -3603.9668 
 2463000     270.3927   -4671.3455   -4149.8704   -4671.3455            0    5300.3862    19.964302    20.121483    20.758717    8339.0126    5703.1338    5609.9545    4588.0704   -650.36191    542.51798    1916.7399    -3505.259 
 2464000    266.72769   -4675.4366   -4161.0298   -4675.4366            0    3928.3848    20.464046    19.870403    20.535742    8350.4252    3675.1627    4310.3917       3799.6   -995.96713    861.21263    97.383366   -3682.6218 
 2465000    248.28948   -4712.3372     -4233.49   -4712.3372            0    3670.1687     19.99785    20.229941    20.706867    8377.0732     6075.596    1346.5711    3588.3389   -328.21068    529.78977    1186.3954   -3785.1018 
 2466000    257.50306   -4683.8242   -4187.2079   -4683.8242            0    5177.6977    20.020715    19.880658    20.824035    8288.4861     3845.663    6526.7418    5160.6884   -123.58583   -684.59055     398.2467   -3561.3326 
 2467000    250.77361   -4699.9709   -4216.3329   -4699.9709            0    3516.0548    19.997603     20.07555    20.947652    8409.7044    2851.4902    5254.0515    2442.6228   -782.67232   -452.07111   -83.719157   -3785.0996 
 2468000     270.8046   -4674.2598   -4151.9904   -4674.2598            0    5129.7331    20.118678    19.716512    21.023465    8339.3814    4126.0822    6930.7017    4332.4154    190.21891    1743.3162   -485.36998   -3528.1054 
 2469000    259.79194   -4659.8825   -4158.8519   -4659.8825            0    3643.4525    19.933559    20.168498    20.919317    8410.1919     3835.232    2440.3532    4654.7721    572.99856   -1550.4476   -1816.7714   -3711.9678 
 2470000    249.16439   -4682.6534   -4202.1189   -4682.6534            0    4951.4584    19.960785    20.104354    20.640468    8282.9926    6940.3341    3670.2475    4243.7934   -868.06343   -937.99948   -336.76415    -3603.988 
 2471000    267.57218   -4700.5812   -4184.5457   -4700.5812            0    3737.1971    19.795464    20.335125     20.69042    8328.7888      5497.95    2013.0639    3700.5776   -887.95843    124.35999   -648.31222   -3730.6002 
 2472000    256.84437   -4694.3671   -4199.0211   -4694.3671            0    4578.7619    19.905612    20.027474    20.908831    8335.4961    5039.0054    4346.1573     4351.123    284.90767   -51.701443     242.0894   -3642.4055 
 2473000    256.79773   -4682.3861   -4187.1301   -4682.3861            0    5077.6893    20.155538    19.997067    20.657783     8326.153     3798.966    6072.2441    5361.8579   -16.159833    141.11639    124.68381   -3570.5544 
 2474000    263.64567   -4692.3843   -4183.9214   -4692.3843            0    4553.7387    20.082188    20.060354    20.689086    8334.7183    5233.1874    5134.4641    3293.5645   -1157.0974   -42.584712   -1086.8009   -3630.3994 
 2475000    254.04433   -4673.1983   -4183.2524   -4673.1983            0    6824.4727    19.898409    19.952166    20.709342    8221.9472    6896.2566    6855.8053    6721.3563    81.330391    816.06146    -85.46839    -3364.939 
 2476000    258.84848   -4673.4053   -4174.1942   -4673.4053            0    5074.4062    20.194864    19.929087     20.68802    8326.2082    4962.0541    5311.6354     4949.529   -444.67826   -91.477655    23.765829   -3558.0131 
 2477000    279.07682   -4641.3375   -4103.1144   -4641.3375            0    5379.3245    20.070339    20.043058    20.692026    8323.8012     2820.318    7617.2665    5700.3889   -35.000258    349.19234    336.21629   -3450.0961 
 2478000    276.86484   -4671.6857   -4137.7286   -4671.6857            0    6385.3792     20.27256    19.822539     20.69141    8314.9176    7729.1383    5035.4255    6391.5739    759.19554    98.394237    1427.4955   -3363.4085 
 2479000     275.4526   -4696.4597   -4165.2262   -4696.4597            0    4848.7487    19.905243    20.134525     20.88438    8370.0967    5066.0694    5857.5665    3622.6103   -1189.9965     680.5028   -86.227767    -3573.343 
 2480000    272.86034   -4663.6361    -4137.402   -4663.6361            0    5054.5796    19.807866    20.033718    21.179796    8404.6768     6144.559    5428.9481    3590.2316    232.36682    2810.8488    139.72419   -3517.8441 
 2481000    271.28153    -4680.311   -4157.1217    -4680.311            0    4528.6447    20.058127    19.952579    20.901528    8365.0289    4270.5299    5536.5503     3778.854   -186.44653    344.31573    248.07915   -3604.6481 
 2482000    267.93025    -4689.789    -4173.063    -4689.789            0    4415.9189    20.145039    20.083591    20.699173    8374.5693    6134.9985    2643.4326    4469.3258   -899.67954   -1672.2233    309.75557   -3633.7269 
 2483000    267.94959    -4702.928   -4186.1647    -4702.928            0    4843.4874    20.300747    20.100095    20.540341    8381.4234    3314.0596    4920.0327    6296.3699    685.63316    912.17285   -265.30726   -3594.1236 
 2484000    275.32991   -4683.2996   -4152.3027   -4683.2996            0    5977.5544     20.03856     19.88362    20.791875    8284.2958     7057.405    4471.2833    6403.9748    226.10814    -266.1752    396.17247   -3430.1068 
 2485000    254.11288   -4682.6849   -4192.6068   -4682.6849            0    6016.1401    20.007952    19.686072    20.998575    8270.8762    6853.8919    6439.3236    4755.2049   -600.09254    1017.2918   -2154.0576   -3466.9265 
 2486000    258.92235    -4700.996   -4201.6425    -4700.996            0    3800.7128    19.736734    20.130549    20.989946    8339.5425    4382.1846    3162.3073    3857.6465    217.58056    96.696424   -1092.6651   -3739.3858 
 2487000    255.25923   -4672.0078   -4179.7189   -4672.0078            0    4116.1959    20.231725    19.950627    20.786767    8390.2792    3134.4755    3857.9946    5356.1175    104.42186    4.8568191   -360.42146   -3676.0463 
 2488000    267.66995   -4678.7738   -4162.5498   -4678.7738            0    5738.8159    19.991079    20.223243    20.645365    8346.6001    6512.5143    4941.6602    5762.2733   -113.14745     94.88728   -342.85515   -3463.9833 
 2489000    259.44836   -4685.1231   -4184.7551   -4685.1231            0    3901.5569    20.069506    19.974558    20.759112    8321.9025    5038.3758    4051.0875    2615.2073     775.0693   -281.23731   -1837.6884   -3711.2371 
 2490000    270.89655   -4688.8137   -4166.3669   -4688.8137            0    3778.5201    20.007647    19.830013    21.200618    8411.3853    2939.7425    4348.8839    4046.9338    854.42721    90.065306    876.23897   -3702.8505 
 2491000      252.617    -4685.334   -4198.1408    -4685.334            0    5154.8217    20.072936    19.891379    20.943287    8362.2019    6719.3705    2931.6675    5813.4271   -87.077026   -410.20317    1166.9136    -3569.489 
 2492000    267.72173   -4689.5676   -4173.2437   -4689.5676            0    4770.0438    19.863674    19.984131    21.044841    8353.9235    4661.6822    4892.3547    4756.0944    137.28145    586.71001    940.41627   -3592.0931 
 2493000    270.74589   -4669.9086   -4147.7524   -4669.9086            0    4314.9744    20.151608    19.962465    20.656413    8309.5739    3046.9629    4417.5328    5480.4274    484.98073    1236.4266    31.687588   -3624.8353 
 2494000    260.45453   -4665.8517   -4163.5433   -4665.8517            0    4179.0226    20.210685    20.028418    20.711304    8383.6884    4282.8807    3655.2667    4598.9203    522.51831    1688.4131     1458.577   -3652.5846 
 2495000    276.98966    -4651.062   -4116.8641    -4651.062            0    4440.5872    19.993693    20.133245    20.754554    8354.4947    4158.0339     4885.262    4278.4657    449.02948    608.95693   -789.71932   -3575.8153 
 2496000    254.24601   -4635.7314   -4145.3966   -4635.7314            0    5875.2811    19.911198    19.876858    20.849505    8251.6514    5943.6329     6318.441    5363.7694    598.84166      1816.34   -201.40832   -3438.3543 
 2497000    253.51719   -4671.6075   -4182.6783   -4671.6075            0    5265.1864    20.192136    19.701694    20.951373    8334.8603    4056.5828      7413.74    4325.2363    845.62467   -323.37216    889.28302   -3542.6665 
 2498000    265.00552   -4673.7602   -4162.6747   -4673.7602            0    3543.2634    19.975287    20.377491    20.712848    8431.0868    4902.6118    2302.8834    3424.2951   -351.65957    1099.6879     171.9826   -3726.9995 
 2499000    255.47939   -4692.7391   -4200.0256   -4692.7391            0    4866.7511    20.039308    19.888422    20.837173    8304.6596    3209.1248    6157.6321    5233.4963   -100.20582    1053.3408   -1190.9089   -3610.5893 
 2500000    270.89035   -4652.7547   -4130.3199   -4652.7547            0    5520.8663    19.965492     20.04514    20.793898    8321.9487    6908.0185    5312.9142    4341.6663   -148.50961    1295.7432    384.35443   -3460.2684 
Loop time of 512.21 on 64 procs for 250000 steps with 972 atoms

Performance: 84.340 ns/day, 0.285 hours/ns, 488.082 timesteps/s
99.1% CPU use with 64 MPI tasks x 1 OpenMP threads

MPI task timing breakdown:
Section |  min time  |  avg time  |  max time  |%varavg| %total
---------------------------------------------------------------
Pair    | 21.04      | 28.257     | 35.906     |  75.8 |  5.52
Bond    | 0.26033    | 0.27981    | 0.29816    |   1.4 |  0.05
Kspace  | 209.11     | 224.49     | 236.15     |  40.9 | 43.83
Neigh   | 3.2786     | 3.8677     | 4.733      |  19.6 |  0.76
Comm    | 109.32     | 122.41     | 135.09     |  57.2 | 23.90
Output  | 1.6915     | 1.6933     | 1.7066     |   0.2 |  0.33
Modify  | 120.21     | 123.8      | 128.56     |  15.8 | 24.17
Other   |            | 7.408      |            |       |  1.45

Nlocal:        15.1875 ave          20 max          10 min
Histogram: 1 2 2 9 11 10 12 6 9 2
Nghost:        2217.45 ave        2269 max        2182 min
Histogram: 2 7 10 16 10 7 4 6 1 1
Neighs:        4730.58 ave        6053 max        3312 min
Histogram: 4 3 10 8 9 3 8 5 5 9

Total # of neighbors = 302757
Ave neighs/atom = 311.47840
Ave special neighs/atom = 2.0000000
Neighbor list builds = 8498
Dangerous builds = 0

unfix		3
unfix		2
unfix		1

write_data	data.final.${pid}
write_data	data.final.0
System init for write_data ...
PPPM initialization ...
  extracting TIP4P info from pair style
  using 12-bit tables for long-range coulomb (../kspace.cpp:340)
  G vector (1/distance) = 0.37238533
  grid = 24 24 25
  stencil order = 5
  estimated absolute RMS force accuracy = 0.0034105418
  estimated relative force accuracy = 1.0270745e-05
  using double precision FFTW3
  3d grid and FFT values/proc = 2366 288
Last active /omp style is kspace_style pppm/tip4p/omp
WARNING: Not all mixed pair coeffs generated from mixing. Use write_data with 'pair ij' option to store all pair coeffs. (../write_data.cpp:312)

write_restart   restart.lmp.${pid}
write_restart   restart.lmp.0
System init for write_restart ...
PPPM initialization ...
  extracting TIP4P info from pair style
  using 12-bit tables for long-range coulomb (../kspace.cpp:340)
  G vector (1/distance) = 0.37238533
  grid = 24 24 25
  stencil order = 5
  estimated absolute RMS force accuracy = 0.0034105418
  estimated relative force accuracy = 1.0270745e-05
  using double precision FFTW3
  3d grid and FFT values/proc = 2366 288
Last active /omp style is kspace_style pppm/tip4p/omp
Total wall time: 0:08:38
