LAMMPS (30 Jul 2021)
  using 1 OpenMP thread(s) per MPI task
package omp 0
using multi-threaded neighbor list subroutines
echo both

include		in.partitions
variable        pid world 0
include		in.temp
variable        temperature equal 256.77
variable	tempDamp equal 100.0
include		in.pressure
variable        pressure equal 9625.0
variable        pressureDamp equal 1000.0 # This is 1 ps
include		in.seed
variable        seed world 745823

units		real
atom_style	full

read_restart	restart.lmp.${pid}
read_restart	restart.lmp.0
Reading restart file ...
  restart file = 30 Jul 2021, LAMMPS = 30 Jul 2021
  restoring atom style full from restart
  orthogonal box = (0.0078306728 0.15519874 0.18740343) to (19.992170 19.844802 20.512595)
  4 by 4 by 4 MPI processor grid
  restoring pair style lj/cut/tip4p/long/omp from restart
  restoring bond style harmonic/omp from restart
  restoring angle style harmonic/omp from restart
  972 atoms
  648 bonds
  324 angles
Finding 1-2 1-3 1-4 neighbors ...
  special bond factors lj:    0        0        0       
  special bond factors coul:  0        0        0       
     2 = max # of 1-2 neighbors
     1 = max # of 1-3 neighbors
     1 = max # of 1-4 neighbors
     2 = max # of special neighbors
  special bonds CPU = 1.685 seconds
  read_restart CPU = 2.085 seconds
include 	in.setup
variable	out_freq equal 1000
variable	out_freq2 equal 10000
variable	out_freq3 equal 1000

timestep	2.0

neigh_modify    delay 7 every 1

include		in.tip4p
# This is TIP4P/Ice

# create groups ###
group ox type 2
324 atoms in group ox
group hy type 1
648 atoms in group hy

# set charges - beside manually ###
set group ox charge -1.1794
Setting atom values ...
  324 settings made for charge
set group hy charge 0.5897
Setting atom values ...
  648 settings made for charge

# ### TIP3P Potential Parameters ###
pair_style lj/cut/tip4p/long/omp 2 1 1 1 0.1577 8.5
pair_coeff 1 1*2 0.000 0.000
pair_coeff 2 2 0.21084 3.1668
bond_style  harmonic
bond_coeff  1 450 0.9572
angle_style harmonic
angle_coeff 1 55 104.52
kspace_style pppm/tip4p/omp 1.0e-5
pair_modify tail yes

thermo          ${out_freq}
thermo          1000
thermo_style    custom step temp pe etotal epair emol press lx ly lz vol pxx pyy pzz pxy pxz pyz enthalpy

restart 	${out_freq3} restart.lmp.${pid} restart2.lmp.${pid}
restart 	1000 restart.lmp.${pid} restart2.lmp.${pid}
restart 	1000 restart.lmp.0 restart2.lmp.${pid}
restart 	1000 restart.lmp.0 restart2.lmp.0


include         in.dump
dump            myDump all atom ${out_freq2} dump.water.${pid}
dump            myDump all atom 10000 dump.water.${pid}
dump            myDump all atom 10000 dump.water.0
dump            myDump2 all dcd ${out_freq2} dump.dcd
dump            myDump2 all dcd 10000 dump.dcd
dump_modify     myDump append yes
dump_modify     myDump2 append yes


variable natoms 	equal  "count(all)"                        # NUMBER ATOMS
variable H      	equal  "enthalpy/v_natoms"                 # ENTHALPY-per-atom
variable Vol      	equal  "vol/v_natoms"                 # volume-per-atom
fix AVG all 		ave/time ${out_freq} 1 ${out_freq} v_Vol v_H file vol_enthalpy.dat
fix AVG all 		ave/time 1000 1 ${out_freq} v_Vol v_H file vol_enthalpy.dat
fix AVG all 		ave/time 1000 1 1000 v_Vol v_H file vol_enthalpy.dat


timer           timeout 02:55:00 every 1000
New timer settings: style=normal  mode=nosync  timeout=02:55:00

fix 		1 all shake 1e-6 200 0 b 1 a 1
       0 = # of size 2 clusters
       0 = # of size 3 clusters
       0 = # of size 4 clusters
     324 = # of frozen angles
  find clusters CPU = 0.014 seconds
fix             2 all nph aniso ${pressure} ${pressure} ${pressureDamp}
fix             2 all nph aniso 9625 ${pressure} ${pressureDamp}
fix             2 all nph aniso 9625 9625 ${pressureDamp}
fix             2 all nph aniso 9625 9625 1000
fix             3 all temp/csvr ${temperature} ${temperature} ${tempDamp} ${seed}
fix             3 all temp/csvr 256.77 ${temperature} ${tempDamp} ${seed}
fix             3 all temp/csvr 256.77 256.77 ${tempDamp} ${seed}
fix             3 all temp/csvr 256.77 256.77 100 ${seed}
fix             3 all temp/csvr 256.77 256.77 100 745823


run             250000
PPPM initialization ...
  extracting TIP4P info from pair style
  using 12-bit tables for long-range coulomb (../kspace.cpp:340)
  G vector (1/distance) = 0.3723261
  grid = 24 24 24
  stencil order = 5
  estimated absolute RMS force accuracy = 0.0034903309
  estimated relative force accuracy = 1.0511028e-05
  using double precision FFTW3
  3d grid and FFT values/proc = 2197 216
Last active /omp style is kspace_style pppm/tip4p/omp
Neighbor list info ...
  update every 1 steps, delay 7 steps, check yes
  max neighbors/atom: 2000, page size: 100000
  master list distance cutoff = 10.8154
  ghost atom cutoff = 10.8154
  binsize = 5.4077, bins = 4 4 4
  1 neighbor lists, perpetual/occasional/extra = 1 0 0
  (1) pair lj/cut/tip4p/long/omp, perpetual
      attributes: half, newton on, omp
      pair build: half/bin/newton/omp
      stencil: half/bin/3d
      bin: standard
Per MPI rank memory allocation (min/avg/max) = 9.224 | 9.226 | 9.228 Mbytes
Step Temp PotEng TotEng E_pair E_mol Press Lx Ly Lz Volume Pxx Pyy Pzz Pxy Pxz Pyz Enthalpy 
22500000    274.96616   -4690.3021   -4160.0067   -4690.3021            0    9572.6345     19.98434    19.689604    20.325191    7997.6319    8118.7071    9942.5786    10656.618    76.807726   -274.90037     306.1045   -3043.4809 
22501000    255.05601   -4708.2638   -4216.3669   -4708.2638            0    9423.7809     19.81703    19.831359    20.372769    8006.4704    10451.808    8318.0543    9501.4804    490.83866   -572.69677    991.18028   -3115.9882 
22502000    252.53645   -4702.2221   -4215.1843   -4702.2221            0    9613.0331    19.896678    19.694963    20.660894    8096.2678    9517.3946     11366.53    7955.1751   -245.46859   -1029.1612    602.65801   -3080.1181 
22503000    261.01988   -4726.7113   -4223.3125   -4726.7113            0    9470.3234    19.855173    19.797256    20.573489     8086.985    7032.9486    10592.178    10785.844    108.32616   -1368.5425    -198.8577   -3106.3789 
22504000    253.86584   -4736.1023   -4246.5007   -4736.1023            0     8809.631    19.837739    19.825449    20.366586    8010.0175    8149.0113    9397.9194    8881.9623   -405.43011    2267.1403   -852.49078   -3217.3782 
22505000    252.09564   -4699.8784   -4213.6908   -4699.8784            0    6994.5255    19.610042    19.938585    20.610476     8058.624    6643.2181    7705.8051    6634.5535    816.60548    35.154262    546.04749   -3391.6468 
22506000    258.40193   -4681.8959    -4183.546   -4681.8959            0    10401.804    19.941053    19.762248    20.325744    8009.9698    9558.4867    10466.942    11179.982   -644.01149    622.37415    1186.7881   -2968.4365 
22507000    255.92103   -4689.2796   -4195.7144   -4689.2796            0    11056.257    19.727943    20.054167    20.186547    7986.3523    12973.732    9577.7061    10617.332    -354.3588    1116.9471   -42.200495   -2907.9618 
22508000    261.06044   -4701.2931   -4197.8161   -4701.2931            0    10997.795    19.714096    19.807747    20.424072    7975.4334    11045.018    10398.396    11549.972    662.66359    1714.9804    667.88305   -2918.6239 
22509000    261.29369   -4685.6813   -4181.7544   -4685.6813            0    10154.398    19.786694    19.725938    20.634069     8053.706    9668.5356    11627.498      9167.16   -188.83031   -621.56045    1086.7377   -2989.0692 
22510000    260.66284   -4700.5144   -4197.8042   -4700.5144            0    7931.4362    20.024443    19.851222    20.311897     8074.175    7155.5994    7230.7644    9407.9448    785.05983    338.39278    100.73407   -3263.8494 
22511000    255.61294   -4705.4806   -4212.5095   -4705.4806            0    10053.159    19.953405    19.636383    20.493433    8029.5878    11020.879    9944.3447    9194.2546   -67.157676   -268.66761   -96.328327   -3035.2514 
22512000    251.29773   -4657.4316   -4172.7828   -4657.4316            0    9643.6508    19.956399    19.774907    20.437651    8065.4313    8938.5031    10341.453    9650.9958    -495.4407    550.01892   -457.25511   -3038.4383 
22513000    259.96823   -4677.2749   -4175.9043   -4677.2749            0    9036.4118     19.96891    19.706795    20.611006    8110.9096     10270.06    10810.335    6028.8402      44.1914    2085.1942   -998.44308   -3106.9935 
22514000    248.36793   -4700.4245   -4221.4261   -4700.4245            0    9521.0214    19.722501    19.889133    20.325329    7972.8837    9888.2249    8820.9118    9853.9275    34.153484    -10.70742   -201.10038   -3114.3567 
22515000    252.71398   -4695.3869   -4208.0067   -4695.3869            0    11255.134    20.026875    19.564781    20.456184    8015.1712    10744.524    12616.757    10404.122   -107.98687    495.82511    1200.2188   -2892.3597 
22516000    260.54697   -4713.0064   -4210.5196   -4713.0064            0    9904.1742    19.739822    19.994135    20.372203    8040.5145    11312.187    8278.0684    10122.267   -636.74015   -716.39197   -508.70195   -3049.1298 
22517000     256.7349      -4701.1   -4205.9652      -4701.1            0    9322.8277     20.07856    19.654061    20.276713    8001.7025    7105.6249     11015.36    9847.4977    106.38593    174.82144   -306.33644   -3118.0226 
22518000    238.96796   -4697.4173   -4236.5475   -4697.4173            0     10052.41    19.864433    19.603731    20.590918    8018.4531    8281.6942    11536.685    10338.849   -552.65438   -122.07231   -460.67766   -3061.0096 
22519000    256.66017   -4715.6614   -4220.6706   -4715.6614            0    8525.1406    19.874261    19.734769    20.626951    8090.1784    7542.0086    9854.1872     8179.226    533.21451    616.44237    854.12893   -3214.8153 
22520000    259.74697   -4712.2486   -4211.3047   -4712.2486            0    9454.8585    19.571907    19.957778    20.395886    7966.8731    9253.0046     8332.753    10778.818   -76.181309    968.10428   -1655.4229   -3112.7573 
22521000    255.29922   -4715.9118   -4223.5458   -4715.9118            0    11292.948    19.735132    19.852643    20.206255    7916.7002    11069.705    11601.794    11207.344   -45.863494     215.0636    106.28045   -2919.6964 
22522000    251.73974   -4702.9852    -4217.484   -4702.9852            0    10184.164    19.710287     19.93224    20.470705    8042.3295    11213.605    9586.9368     9751.949   -398.27635     780.2286   -26.523441   -3022.9923 
22523000    250.29672    -4718.071   -4235.3527    -4718.071            0    9431.5969    19.659057    19.745217    20.585805    7990.8405    9664.1029     8862.848    9767.8398   -731.64775   -108.47865    197.01484   -3136.2112 
22524000     278.0821   -4695.2728   -4158.9681   -4695.2728            0    11476.671    19.511616    19.941598    20.464777    7962.6974    13780.136    9019.3109    11630.566   -359.74784   -263.18825   -247.78017   -2826.2079 
22525000    261.11107   -4686.8867   -4183.3121   -4686.8867            0    8283.2252    19.850281    19.852085    20.526475    8088.8571    8688.6059    8053.0205    8108.0492   -143.10901    697.06489   -127.62123   -3206.1592 
22526000    271.98613    -4717.313   -4192.7648    -4717.313            0    8307.0364    19.736155    19.888745    20.748487    8144.3487    8061.7942    9932.2409    6927.0741    263.23355   -1353.0418     112.5313   -3206.0802 
22527000    276.29959   -4705.5754   -4172.7084   -4705.5754            0    10696.665    19.947123    19.540029    20.436714     7965.564    9841.2514    12200.742    10048.003    455.40795    672.30868    59.852231   -2930.0813 
22528000    245.34739   -4700.1942   -4227.0211   -4700.1942            0    9470.1209    19.769147    19.791052    20.576237    8050.4984    9049.6314    9880.1237    9480.6076   -365.67041   -648.87581    961.76155   -3115.1506 
22529000    271.92822   -4733.5594    -4209.123   -4733.5594            0    8100.7405    19.711846    19.971309    20.475432    8060.5914    8030.5212    8551.8349    7719.8653    996.08906   -1240.2094    142.39741   -3256.8367 
22530000    262.29106   -4687.2448   -4181.3944   -4687.2448            0    10034.516    19.716976    19.640652    20.709254    8019.7468    10445.539    10143.872    9514.1367    250.90309    782.07385    671.43198   -3007.7597 
22531000    262.23541   -4689.8971   -4184.1541   -4689.8971            0    10892.398    19.998144    19.639648    20.463978    8037.3609    10382.364    11200.834    11093.995   -4.1556447     435.0773   -94.552659   -2907.3835 
22532000    267.25935   -4710.1808   -4194.7486   -4710.1808            0    11078.997     19.82021    20.113066    20.121702    8021.4197    11189.984    9826.1044    12220.903     573.4568    519.47339   -485.20823   -2898.6812 
22533000    264.70668   -4718.1696   -4207.6605   -4718.1696            0    11319.952    19.751512    19.807307    20.485757     8014.525    11129.733    12525.777    10304.344    939.86718   -1143.6576    1133.4265   -2884.5435 
22534000    260.02653   -4716.4581   -4214.9751   -4716.4581            0    12269.853    19.702776    19.519401    20.611971    7927.0834    12302.148    14048.107    10459.305   -284.90754    889.80365    1309.6487   -2796.4772 
22535000    255.75937   -4754.4796   -4261.2262   -4754.4796            0    8392.5332    19.773034    19.875491    20.424507    8026.8059    9586.3201    6976.6112    8614.6682    51.113954   -36.101234    25.444348   -3278.7733 
22536000    246.42077   -4720.7785   -4245.5354   -4720.7785            0    8591.4589    19.871697    19.924824    20.328752    8048.9673    7570.2353    9315.0135    8889.1278    2.0161612   -2.6357177   -20.589927    -3237.019 
22537000    261.60625   -4721.6824   -4217.1527   -4721.6824            0    9376.8977    19.884712    19.823155    20.447687    8060.0232    9800.8737    8387.4526    9942.3668    85.966863   -875.43074    1699.4804   -3114.9249 
22538000    256.43913   -4691.8063   -4197.2419   -4691.8063            0    9519.9374    19.924289    19.866379    20.446227    8093.0964    11926.182    8379.0467    8254.5836    409.33751    129.84916   -288.01357   -3073.6083 
22539000    250.37729   -4711.6231   -4228.7494   -4711.6231            0    9384.3302    19.934076    19.775791    20.389073    8037.6192     10214.11    8881.8259    9057.0545     -285.739    829.93052   -542.68429   -3128.7142 
22540000    257.37378   -4709.8127   -4213.4457   -4709.8127            0    9388.7949    19.638599    19.688561    20.759969    8026.9615    9775.9219     10199.87    8190.5932   -328.14933   -955.47467   -1235.2757   -3114.3464 
22541000    242.61358   -4670.5032   -4202.6025   -4670.5032            0    10679.459    19.782913    19.777843    20.523812    8030.2151    7475.5458    14129.909    10432.923    715.26787    1042.4903    141.97951   -2951.9048 
22542000    250.53227   -4696.3153   -4213.1428   -4696.3153            0    10520.174    19.713261    19.661584    20.669969    8011.5549     10708.79    12978.594    7873.1387   -203.16939    177.38601    528.20018   -2983.9623 
22543000    264.68807    -4689.783   -4179.3098    -4689.783            0    11494.333    19.630221    19.952058    20.371289    7978.6867    10303.644     12389.32    11790.036   -838.91277   -248.19962   -363.00074   -2841.8182 
22544000    259.11998   -4724.2539   -4224.5192   -4724.2539            0    12100.944     19.92891    19.574393    20.375333    7948.3425    10019.157    13910.028    12373.647    797.84329   -607.66538    274.54028   -2821.7968 
22545000    247.93437   -4737.4205   -4259.2582   -4737.4205            0    8567.9548    19.861732    19.875653    20.515331    8098.7324    9451.3608     7612.269    8640.2347   -424.79557    159.69855    696.38767   -3247.2825 
22546000     255.1919   -4711.9035   -4219.7445   -4711.9035            0    10767.293    20.115115    19.670736    20.165314    7978.9936    9162.2609     12299.51    10840.107   -190.38174    1135.4793   -1922.1885   -2966.8037 
22547000    251.39308   -4705.9932   -4221.1605   -4705.9932            0    7667.7662    19.708744    19.856641    20.603636    8063.2217    6496.5657    8633.0129    7873.7201     -572.992    2111.5087    309.34661   -3319.4786 
22548000    263.79192   -4753.1221   -4244.3772   -4753.1221            0     11291.02    19.749453    19.611885    20.658458    8001.5165    11262.657    12365.484     10244.92   -492.34964   -159.16231   -500.49817   -2926.7839 
22549000    256.62818   -4686.9133   -4191.9842   -4686.9133            0     10636.42    20.015885    19.847395    20.143481    8002.2635    10983.871    10253.978    10671.412   -430.88387    333.96823    1019.0419   -2950.6629 
22550000    241.92745   -4711.5612   -4244.9838   -4711.5612            0    8158.4896    19.754782     20.01911    20.398597    8067.0977    8352.6304    7951.9996    8170.8387   -564.53798    873.27524    249.99075   -3285.1347 
22551000    273.65376   -4683.5243     -4155.76   -4683.5243            0    8318.2523    19.623633    20.157858    20.536575    8123.6612     9826.931    7547.8719    7579.9538    373.03647   -607.66504   -250.26389   -3170.2529 
22552000    247.22798   -4712.7379    -4235.938   -4712.7379            0    8855.8206    19.955137    19.827015     20.37084    8059.7389    7734.3595    9199.4142     9633.688    467.34116    244.55765    4.4626421    -3194.998 
22553000    246.24557   -4723.3439   -4248.4386   -4723.3439            0     8187.276    19.569741    19.813497    20.756255    8048.1343    9228.8914    8762.8816    6570.0549   -195.59323   -1050.6309   -546.33665    -3287.467 
22554000    259.69852   -4687.6036   -4186.7531   -4687.6036            0    8963.5353    19.809994    19.798501    20.500423    8040.4338    8273.7884    10261.142    8355.6752   -211.39355   -519.81125   -123.32395   -3135.6757 
22555000    247.15073   -4671.0318   -4194.3809   -4671.0318            0    10718.233    19.676005    19.870317    20.415558    7981.8395    10244.697    11158.395    10751.609   -402.58052    240.60963   -802.37129   -2946.7041 
22556000    259.08769   -4659.6484    -4159.976   -4659.6484            0    11568.881    19.864661    19.542501    20.706269    8038.2804    13193.342    10809.992    10703.308   -44.626287    -827.1597    605.94039   -2803.7552 
22557000    248.84704   -4727.2258   -4247.3034   -4727.2258            0    9643.3684    19.905083    19.921889    20.275404    8040.1479    8988.2372    9650.6396    10291.228     868.9731    250.77962    20.928639    -3116.548 
22558000    254.54225   -4703.9224   -4213.0163   -4703.9224            0    9425.8889    19.976876    19.822376    20.291394    8035.1717    9670.4135    9497.6023    9109.6508   -843.80715   -1657.9419    739.58158    -3108.446 
22559000    255.60407   -4701.6772   -4208.7232   -4701.6772            0      12095.6    19.658741     19.78812    20.423329    7944.8694    13285.183    11100.458    11901.159   -36.461808    437.44994    1181.6354    -2807.233 
22560000    267.90841   -4717.0268   -4200.3429   -4717.0268            0    11978.623    19.646946     19.82601    20.376589    7937.0999    13049.636    9961.1764    12925.055    296.49759    225.22113   -215.74316   -2813.7639 
22561000    246.13805   -4671.9881   -4197.2902   -4671.9881            0    10007.278    19.974913    19.716188    20.303757    7996.2109    9147.4025     10106.32    10768.113   -694.91335    955.53542    918.73444   -3030.2761 
22562000    249.35748   -4646.8033   -4165.8965   -4646.8033            0    8794.2668    20.006315    19.993717    20.194443    8077.7895    6145.1383    10760.189    9477.4729    448.63878    965.40454    -43.66381   -3129.8766 
22563000    266.69843   -4691.1084   -4176.7581   -4691.1084            0    9868.6459    19.776132    19.901091    20.378037    8020.1147    9890.4324    9546.4993    10169.006    591.50743    170.50683    2447.3608   -3022.4705 
22564000     256.4384    -4698.444    -4203.881    -4698.444            0    10438.308    19.798068      19.7572    20.539633    8034.1673    9911.2459    11584.764    9818.9134    450.73182    518.22426   -347.83222   -2980.8235 
22565000    266.61353   -4734.3618   -4220.1752   -4734.3618            0    10306.828    19.815961    19.762647    20.471919    8017.1279    11287.135    9305.6507    10327.698    289.49013    458.09971   -656.43221   -3015.0845 
22566000    273.14908   -4706.8961   -4180.1052   -4706.8961            0    7216.3144    19.960545    19.854128    20.528313    8135.3542    5624.0659    8105.0588    7919.8184    1137.2253    42.077853    439.29967   -3323.9198 
22567000    246.12365   -4697.2328   -4222.5627   -4697.2328            0    8290.3173    19.853819    19.892711    20.362925    8042.2615    7926.9771    8570.5819    8373.3928    104.94624   -278.82623   -1500.3622   -3250.2068 
22568000    257.30792   -4704.8594   -4208.6195   -4704.8594            0    8293.3893    20.131775     19.51544    20.458904    8037.9035    7057.3052    8472.6134    9350.2492    172.92405    746.67832   -1045.6898   -3236.4304 
22569000    257.13191   -4741.9655    -4246.065   -4741.9655            0    8804.2656    19.630003    19.853774    20.536526    8003.6928     10708.12    7324.0696     8380.607    396.01476   -94.364547   -85.262906   -3218.3814 
22570000    256.63162   -4708.0729   -4213.1372   -4708.0729            0    8162.8377    19.812638    19.845721    20.734629     8152.775    8710.8502    8413.9622    7363.7007    -196.0595    1089.8115   -784.67859   -3242.5769 
22571000    255.93052   -4692.5463   -4198.9628   -4692.5463            0    11533.242     19.80652    19.870721    20.275976    7980.0126    11578.617      11803.5     11217.61    85.461217    1010.4384   -701.38079   -2856.7206 
22572000    274.73156   -4690.5973   -4160.7543   -4690.5973            0    9128.2201    19.769748    20.008922    20.472937    8098.5074    10703.577    7913.3932    8767.6901    148.41237    1320.4757    166.16922   -3082.6347 
22573000     248.5351   -4722.5574   -4243.2365   -4722.5574            0    9797.8329    19.939301    19.750714    20.363992    8019.6546    8952.1061    9508.1533    10933.239      -434.57    60.578057    1408.6049   -3097.2973 
22574000      257.328   -4736.4134   -4240.1347   -4736.4134            0    8774.7967    19.759334    19.872158    20.505743    8051.7972    9231.2011    7884.2361    9208.9529    371.10568    642.09251   -41.320224   -3209.7349 
22575000    245.45616    -4695.782   -4222.3992    -4695.782            0    10745.156     19.86041    19.816123     20.34049    8005.1283    10920.208    10442.859    10872.402    1286.9676    1561.7335    462.01515   -2967.9388 
22576000    261.62183   -4722.8305   -4218.2708   -4722.8305            0    9396.9325    19.899284    19.787467    20.382403    8025.7023    9173.2787     10088.04    8929.4789   -75.081319    584.62186   -398.21113   -3118.3914 
22577000    248.68319   -4733.0519   -4253.4454   -4733.0519            0    11370.017    19.778352    19.719513    20.499356    7995.1481    12100.691    10774.307    11235.054    290.17918   -474.83848    37.615659   -2927.6896 
22578000    268.62592   -4691.7563   -4173.6886   -4691.7563            0    10624.009    19.923599     19.62138    20.510952    8018.3157    9221.3027    11809.604     10841.12    169.45896   -1257.4309    345.53719   -2931.3286 
22579000    247.85645   -4715.8459   -4237.8339   -4715.8459            0    9318.2078    19.699536    19.852923     20.60523    8058.5686    10302.041    10206.788     7445.795   -312.43276    538.03158    408.24218   -3142.7026 
22580000    258.73259   -4674.2783   -4175.2907   -4674.2783            0    11497.946    19.740047    19.908855    20.289139    7973.6666    11294.674    10912.029    12287.136   -533.60603   -178.08247    326.17148   -2838.2205 
22581000    252.67056   -4689.0092   -4201.7128   -4689.0092            0    9470.0535    19.918629    19.652182    20.526329    8034.9189    8952.2731    10655.819    8802.0685    356.78623    144.73524    -460.5403    -3092.002 
22582000    256.67448    -4731.943   -4236.9246    -4731.943            0    9235.2846    19.645035    19.713564    20.714542    8022.1964    9346.6643     10524.27    7834.9195   -921.09582   -11.642219   -2106.8567   -3156.4378 
22583000    255.42379     -4680.38   -4187.7737     -4680.38            0    9861.4359    19.738786    19.571394    20.704218    7998.3617    8549.7123     11571.61    9462.9855    485.46616    1038.6762   -1553.4687   -3037.4579 
22584000    268.67272   -4689.0707   -4170.9128   -4689.0707            0    9806.5986    19.892885    19.726266    20.455419    8026.9588    8348.1458    9399.4294     11672.22    663.36279   -463.49244   -183.28964   -3022.9037 
22585000    250.32705   -4710.2176   -4227.4408   -4710.2176            0     9893.592    19.820555    19.679484    20.570816    8023.8176    10102.252    9694.6102    9883.9136    -624.5667   -1031.8483    1228.5408   -3069.7011 
22586000    250.67404   -4704.3846   -4220.9386   -4704.3846            0    9782.9433    19.838883    19.763501      20.5022    8038.6212    10243.222    9738.8369     9366.771    232.08956    974.41617   -283.56958   -3074.0348 
22587000    245.97017   -4703.1256   -4228.7514   -4703.1256            0    7594.9665    19.761202    19.898638    20.518639    8068.3601    7993.2146    7377.4568     7414.228    424.68529    1064.3252   -603.10776   -3335.0612 
22588000    254.09557   -4684.0168   -4193.9722   -4684.0168            0    10000.368    19.893622    19.547676    20.364819      7919.35    8988.2341    10451.556    10561.315    243.30382   -1017.6195     259.1213   -3038.9736 
22589000     242.4099   -4737.0127   -4269.5048   -4737.0127            0    9722.4717    19.751192    20.016497    20.427691    8076.0815    8608.0841    9896.2765    10663.054    8.1221944   -308.10333   -217.42001   -3124.3788 
22590000    263.02558   -4730.4328   -4223.1659   -4730.4328            0    10918.164    19.975359    19.713685    20.358118    8016.7812     10834.23    9786.5727    12133.689   -693.13754   -1580.8651   -867.09216    -2946.652 
22591000    246.88778   -4702.3911   -4226.2473   -4702.3911            0    9070.4779    19.737447    19.740725    20.495553    7985.7133    6470.3234    11362.383    9378.7267    630.50677   -1247.2328    51.356302   -3169.8683 
22592000    263.74095   -4733.1507   -4224.5041   -4733.1507            0    9843.5062     19.69032    19.913283    20.515444    8044.0831    11109.211    8846.5767    9574.7309    288.89811     770.4089   -773.85631   -3069.7161 
22593000    258.35036   -4689.3762   -4191.1258   -4689.3762            0    9303.3243    19.936651    19.688934    20.544745    8064.4576     7569.906    9548.0132    10792.054    416.22749    97.245252    1768.0826   -3096.9447 
22594000    256.72591   -4703.9537   -4208.8362   -4703.9537            0    12070.092    19.775306    19.980846    20.260737    8005.5714    12203.544    10400.554    13606.179   -797.23388    1317.9038     1349.219   -2799.6161 
22595000    252.03613   -4743.8238   -4257.7509   -4743.8238            0    8309.4662     19.87832    19.943281    20.306797    8050.4048    6486.9046    10559.131    7882.3631     741.9675   -279.63994    328.59457   -3282.1623 
22596000    255.08844   -4697.9077   -4205.9481   -4697.9077            0    9853.5583    19.834674    19.788288    20.435968    8020.9996    9088.3057    10228.363    10244.006   -540.99742    816.23877   -250.04651   -3053.2981 
22597000      265.685   -4723.2975   -4210.9017   -4723.2975            0    8734.4094    19.878646    19.887395    20.280625    8017.6304    10409.092    6322.0456    9472.0912   -994.14901   -650.41652    628.78616   -3189.5966 
22598000    254.30506    -4714.544   -4224.0953    -4714.544            0    8689.2971    19.907344    19.809569    20.533357    8097.4506    8374.1498    8673.3672    9020.3743    37.543235    1179.5298    662.01417   -3197.9501 
22599000    261.25508   -4725.2924     -4221.44   -4725.2924            0    9294.2018    19.682683    19.871131    20.479932    8010.0532    8398.3441    9727.8028    9756.4584    124.58078    345.86258    845.29857   -3135.7061 
22600000     245.6538   -4683.0826   -4209.3185   -4683.0826            0    9396.9635    19.955102    19.742232    20.385541    8031.0522     8758.736    10229.997    9202.1571    1911.0633    -340.3118    910.95713   -3108.7024 
22601000    242.14406   -4739.4883   -4272.4932   -4739.4883            0    6658.9487    20.027532    19.972268    20.358907    8143.4658    5458.9238    8013.4708    6504.4515    334.13937   -509.59157    146.69527   -3481.6491 
22602000    250.24544   -4694.8919   -4212.2725   -4694.8919            0    8258.7435     19.87508    19.872932     20.49745    8096.0031    8771.7007    8760.5441    7243.9857    692.76691   -1862.4935    299.98854    -3237.147 
22603000    264.23394   -4704.8213   -4195.2239   -4704.8213            0    9172.4527    19.943902    19.940003    20.241003    8049.4718    9522.3678    7871.0116    10123.979    277.55942   -359.48092    519.03188   -3118.4395 
22604000    271.06302   -4716.8332   -4194.0654   -4716.8332            0    9515.9416    19.935661    19.739983    20.310403    7992.7451    11066.078    8185.7533    9295.9938   -254.25113   -696.92308    108.22548   -3084.8303 
22605000    263.82453   -4682.7009   -4173.8932   -4682.7009            0    8447.0195    19.780541     19.90321    20.586407    8104.7917    8244.9919    8512.2062    8583.8604    496.83301   -874.38999    426.16246   -3175.4548 
22606000    247.03773   -4703.2127   -4226.7797   -4703.2127            0    10788.431    19.866654    19.640218    20.423788    7969.0643    11164.157    11927.554    9273.5809   -36.369894    314.45845   -12.883879   -2972.9415 
22607000    258.78644   -4706.5281   -4207.4366   -4706.5281            0    10550.809     19.64932    19.982877    20.339607    7986.3459    11159.752    9880.7616    10611.913    485.43114   -405.40328   -313.72328   -2978.5559 
22608000    251.00015   -4672.3368   -4188.2619   -4672.3368            0    9677.2077    19.982446     19.50325    20.691885    8064.0957    8949.1723    11783.026    8299.4245    803.20123     694.1622    2036.5998   -3050.1587 
22609000    259.88261   -4716.7501   -4215.5446   -4716.7501            0    9647.4202    19.743848    19.819585    20.453573    8003.7874    9181.6428    10053.881    9706.7365   -601.32506    1399.8753   -2102.4338   -3089.4299 
22610000    267.37781   -4702.0443   -4186.3837   -4702.0443            0    11139.156    19.792926    19.996599     20.18561    7989.2867     12341.57    10251.123    10824.774   -612.95685    -756.0722    127.27906   -2888.4988 
22611000    260.10741   -4676.9466   -4175.3075   -4676.9466            0    11007.855    19.759163    19.704691    20.588504    8016.0964    10573.714    11554.297    10895.553    -332.4409    -86.94601   -1414.7506   -2888.4173 
22612000    255.71213   -4702.2758   -4209.1135   -4702.2758            0    7287.6069    19.727577    19.929238    20.537589    8074.4679    7595.5507    7505.1992    6762.0709    208.45375   -701.75441   -1272.6019   -3350.9407 
22613000    260.20447   -4743.1477   -4241.3215   -4743.1477            0    9323.3646    19.625857    20.005223    20.453789    8030.5592    10441.399    8709.5035    8819.1912     114.4383    664.62562   -45.162436   -3149.3927 
22614000    260.72623   -4694.3603   -4191.5278   -4694.3603            0    9425.3569    19.881591    19.496566    20.660678    8008.5489    8144.1024    12268.826    7863.1421    796.13816    577.10018   -829.24912   -3090.6794 
22615000    257.92524   -4719.2384   -4221.8079   -4719.2384            0    7828.8276    19.889887    19.836397    20.566487     8114.378    9134.4047    7036.6502     7315.428    9.5288455    2352.4016    689.16652   -3295.3454 
22616000    248.45582   -4706.5153   -4227.3473   -4706.5153            0    11323.905    19.725702    19.765557    20.374404    7943.7662    11650.392    11347.513    10973.809    380.06022    67.918549    1254.5953   -2915.4539 
22617000    248.77656   -4723.9153   -4244.1288   -4723.9153            0    10101.453    19.623384    19.788951    20.645547    8017.2065    9275.4702    11536.865    9492.0236   -475.28265   -175.21369    67.883243   -3063.0393 
22618000    248.01487   -4700.8166   -4222.4991   -4700.8166            0    10659.384    19.609623    19.853733    20.513917    7986.5648    11536.375    9387.8665    11053.912    575.99691   -1469.9875    -485.9226   -2980.9382 
22619000    255.18193   -4729.4694   -4237.3296   -4729.4694            0    10277.588    19.788145    19.892142     20.31635    7997.0965    9324.8322    11250.539    10257.394   -515.00265    418.17804   -1427.5427   -3038.6601 
22620000    256.11565   -4698.6723   -4204.7317   -4698.6723            0    11202.266    19.940792    19.891281    20.196883     8011.051    8867.7724    12472.921    12266.105   -567.56104    1357.3293    211.75978   -2895.9378 
22621000     241.9509   -4725.1595   -4258.5369   -4725.1595            0    9532.3012    19.780296    19.794348    20.660052    8089.1969    9941.0169    10144.436    8511.4503    612.58164   -1855.4269   -1386.6511   -3133.9861 
22622000    272.01222   -4691.7855   -4167.1871   -4691.7855            0    10070.094    19.906525    19.713646    20.381701    7998.3946     9503.527    11150.825    9555.9301   -627.41934    -443.4446    16.072419   -2992.5269 
22623000    261.05563   -4709.7728   -4206.3051   -4709.7728            0    9964.2246    19.772475    20.014173    20.373298    8062.3197    11432.535    7692.8249    10767.314   -166.08424    2980.8424   -1335.0485   -3034.7049 
22624000    257.67631   -4690.9289   -4193.9785   -4690.9289            0    11532.884    19.941044     19.72587    20.208114    7948.9512    10006.754    11339.717    13252.183   -510.90183    58.813374     340.3354   -2857.0023 
22625000    275.86322   -4710.6941   -4178.6687   -4710.6941            0    9090.4319    19.800905     19.75072     20.62582    8066.3898    9208.9152     9437.061    8625.3195   -216.10948    884.12282    300.39951   -3109.2701 
22626000    250.21992   -4719.3566   -4236.7864   -4719.3566            0    10839.246    19.621731    19.839275    20.525193    7990.0662    9775.3651     10959.84    11782.534   -241.10284    500.01706    382.98774   -2973.7224 
22627000    251.77502   -4700.7254   -4215.1561   -4700.7254            0    10170.792    19.733619    19.883886    20.298541    7964.7623    9143.3001    10327.765     11041.31   -162.42153    371.25999   -539.17286   -3033.7384 
22628000     250.1872   -4712.7119   -4230.2048   -4712.7119            0    8351.2008    19.960266    19.772468    20.420725    8059.3195    8199.6218    8785.6089    8068.3717   -625.21418    872.68221    254.00145   -3248.6305 
22629000    266.06294   -4675.4701   -4162.3453   -4675.4701            0    11936.904    19.676389    19.695558    20.609962    7987.1321    12539.205    12487.642    10783.866    426.89671   -214.54658    287.62845   -2771.8854 
22630000    249.08599   -4735.9349   -4255.5516   -4735.9349            0    9394.8449    19.705855    19.906688    20.429332    8013.9834    8985.5087    9787.3844    9411.6414    428.49557    315.75747    1161.4565   -3157.5222 
22631000    250.49938   -4741.6472   -4258.5381   -4741.6472            0    9465.0744     19.92183    20.072904    20.102065    8038.5946    7253.3137    9911.0756    11230.834   -458.73737   -179.82354    235.25523   -3148.9034 
22632000    260.93777   -4685.7339   -4182.4935   -4685.7339            0    9272.3313    19.754758    19.957249    20.479738    8074.1495    10005.825    8626.5336    9184.6351    311.54141    651.48183    578.64588   -3090.6469 
22633000     261.3299   -4688.1727    -4184.176   -4688.1727            0    10180.826     20.02306    19.695976    20.420322    8053.2381    9645.7876    9709.6223    11187.068    132.37308   -208.65206    -448.3535   -2988.4561 
22634000    250.54878   -4719.4595   -4236.2551   -4719.4595            0    9445.4226    19.948745    19.866237    20.343307    8062.1848    8977.7777    9740.8069    9617.6832    397.14762    50.548172   -108.84363   -3125.6746 
22635000    256.89581     -4702.14   -4206.6948     -4702.14            0    9674.3262    19.728218    19.689147    20.584901    7995.8296    9639.0925    10262.053    9121.8333    5.0099865   -575.38031    -317.6668   -3078.5622 
22636000    261.62279   -4708.1888   -4203.6273   -4708.1888            0    8728.4558    20.011339    19.551858    20.582047    8052.9081    5107.6286    12266.459    8811.2801    -200.4191    774.97538    1739.5147   -3178.5277 
22637000    263.09435   -4732.1934   -4224.7938   -4732.1934            0    8861.4743    19.633822    20.121731    20.319854    8027.6938     9935.558    6921.4235    9727.4415   -436.31263    124.60814    335.06139   -3187.3307 
22638000    256.18337   -4722.0178   -4227.9466   -4722.0178            0    9611.4022    19.990754    19.655581    20.364734    8001.9124    9329.3415    8905.7304    10599.135   -1139.3549   -921.18097   -538.40307    -3106.299 
22639000    237.08289   -4710.6194   -4253.3851   -4710.6194            0    9101.7063    19.779322     19.84392    20.438563     8022.121    10005.034    8353.5543     8946.531   -11.306164    42.430049    722.99277   -3188.5363 
22640000    252.96243   -4683.0039   -4195.1445   -4683.0039            0    7757.0453    19.622568    19.785574    20.760393    8060.0934    8542.7313    7818.1274    6910.2773    51.044202   -633.99144    43.896325   -3283.3179 
22641000    257.29615   -4719.8072   -4223.5899   -4719.8072            0    6170.1077     19.72489    20.010408    20.578209    8122.2828    6909.9941    5488.7303    6111.5987    -234.4111    610.63472    212.48687   -3492.7088 
22642000    255.35719   -4710.4922   -4218.0144   -4710.4922            0    10412.496    19.663723    19.781993    20.573777    8002.9448    12828.732    9518.8192     8889.936   -144.48275    118.84189   -575.12848   -3002.7226 
22643000     261.3088   -4733.1386   -4229.1826   -4733.1386            0     9455.278    19.712367    19.850263    20.555597    8043.3159    8310.5306    10466.802    9588.5016    97.841628     597.5229    18.194944   -3120.0453 
22644000    254.26588   -4703.3853   -4213.0121   -4703.3853            0    11173.449    19.904082    19.932991    20.246186    8032.6318    10767.893    11214.443    11538.012    402.71981    15.277357   -675.76901   -2904.0683 
22645000    257.90919   -4719.8567   -4222.4571   -4719.8567            0    7999.0827    20.000268    19.826569    20.346761    8068.2371    8022.8344    7409.2815    8565.1321   -1202.9032    184.42108   -254.23858   -3281.2294 
22646000    256.25327   -4733.7148   -4239.5088   -4733.7148            0    8407.2794    19.936391    19.666277    20.598465    8076.1346    7190.8762    9936.9823    8093.9798     666.8114   -946.67584   -241.18466   -3249.2815 
22647000    247.86216   -4716.8744   -4238.8514   -4716.8744            0    9615.1673    19.531649     19.61376    20.840285    7983.6856    10261.029    9186.5068    9397.9666    478.79614    1697.6124   -961.39767   -3119.3203 
22648000    248.19954   -4697.5743   -4218.9006   -4697.5743            0    10445.469    19.586228    19.851573    20.487943    7966.0696    10975.393     10414.47    9946.5422   -865.36866    57.644258   -370.63509   -3005.3779 
22649000    263.53558   -4694.9761   -4186.7256   -4694.9761            0    9511.4727    19.817098    19.670997    20.570311    8018.7611    10761.014    10219.398    7554.0068    1382.3424   -200.49749   -228.21996   -3074.4026 
22650000    254.26282   -4719.3774   -4229.0102   -4719.3774            0    9538.1315    19.697002     19.78936    20.660622     8053.326    10178.974    10731.856    7703.5644   -49.676911    1182.8985    319.23093   -3108.7614 
22651000    267.35272   -4697.1767   -4181.5645   -4697.1767            0    9028.4928    19.982544    19.741746    20.439074    8063.0169    8738.0287    10188.377    8159.0727    593.84905     1151.501    -176.0537   -3119.8966 
22652000    260.00256   -4691.4411   -4190.0043   -4691.4411            0    11006.472    19.970209    19.736829     20.33602    8015.4138    10577.746    10767.938    11673.734   -37.769025    125.90211    1306.2611   -2903.3853 
22653000    243.41278   -4689.9033   -4220.4613   -4689.9033            0    9021.3071     19.91702    19.471045    20.637352    8003.2722    7460.9655    10479.954    9123.0019    1044.1817   -186.28059    -172.8748   -3167.4987 
22654000    254.93019   -4712.8779   -4221.2236   -4712.8779            0     9711.389    19.568724     19.91243    20.703837    8067.4745    13498.583    7771.6891    7863.8954   -279.11756   -802.37193   -1538.0873    -3078.622 
22655000    255.28871   -4706.9962   -4214.6505   -4706.9962            0    9376.6205    19.814245    19.828246    20.276673     7966.334    8193.1055    10563.471    9373.2846    98.482181    1417.0495    269.85186   -3125.2671 
22656000    241.35384   -4702.9975   -4237.5263   -4702.9975            0    9248.2433    19.672467    19.965119    20.560032    8075.2231    9116.2296    9485.4934    9143.0069   -747.31737    -892.7577    86.601469   -3148.3714 
22657000    267.48487    -4719.276   -4203.4089    -4719.276            0     8901.035    19.896713    19.600505    20.610612    8037.8427    9953.0178    8616.1395    8133.9478   -506.78236   -609.33123   -378.46675   -3159.9968 
22658000    249.52249   -4715.5843   -4234.3592   -4715.5843            0    11034.219    19.619166    19.750117    20.442131    7920.9338     12861.06    9603.1703    10638.428   -222.80046   -425.86317   -995.07946   -2959.7006 
22659000    239.96604   -4702.4097    -4239.615   -4702.4097            0    9283.7652    19.882349    19.674715     20.57944    8050.2559    8520.7323    11154.653    8175.9102     655.9319    769.92177   -457.63353   -3149.6571 
22660000    264.70222   -4717.0374   -4206.5369   -4717.0374            0    11089.704    19.988559     19.67288    20.357303    8005.1537     10999.92    10787.888    11481.304   -747.73487   -757.93573   -963.99849   -2911.8477 
22661000    245.27237   -4701.9659   -4228.9375   -4701.9659            0     9838.049     19.70962    19.762819    20.592638    8021.1962    10199.673    9385.3991    9929.0754    776.61813    1106.3462    96.676206   -3078.0735 
22662000    253.72485    -4707.784   -4218.4543    -4707.784            0     9451.441    19.795484    19.695639    20.629331    8043.0604    8047.3659    10481.582    9825.3752    299.20315    541.42225    279.59153   -3109.8023 
22663000    265.46856   -4720.9101   -4208.9317   -4720.9101            0      8547.48     19.96219    19.764736    20.455145    8070.5244    6902.8555    10195.416    8544.1681   -276.09385   -186.39932    320.36379   -3202.8906 
22664000    260.43972    -4737.486   -4235.2061    -4737.486            0    9959.0651    19.658953    19.829132    20.591475    8026.9681    10320.521     10659.51    8897.1638    191.30372    614.03793   -1.1247696   -3069.3472 
22665000     247.9661   -4688.0631   -4209.8397   -4688.0631            0     9544.723    19.995223    19.621419     20.41818    8010.7593    8052.2749    10789.866    9792.0284   -84.152408   -1031.7713    -837.0047    -3094.742 
22666000     252.3323   -4683.2512   -4196.6071   -4683.2512            0    9660.2029    19.647967    19.923094    20.462034    8009.8284    8764.9851    11206.211    9009.4127    666.88467    347.48127     335.7927   -3068.1493 
22667000    248.53852   -4687.4425   -4208.1151   -4687.4425            0    10153.411    19.853627    19.630327    20.577898    8019.8896    9504.4169    11465.931    9489.8852    863.96499    544.25998    340.19663   -3020.5532 
22668000    266.21892   -4675.6121   -4162.1865   -4675.6121            0    11602.858    19.833194    19.672421     20.36796    7946.9043    11590.486    11471.849    11746.238    201.95177   -1589.8279   -4.3322336   -2817.4449 
22669000    261.02268   -4679.6313   -4176.2271   -4679.6313            0    10144.006    19.796374    19.607739    20.729914    8046.5676    9886.2036    11261.983    9283.8312   -127.67991   -390.67686   -140.59882   -2985.8185 
22670000    252.15624   -4677.8965    -4191.592   -4677.8965            0    10041.933    19.761562    19.909734    20.447938    8045.1891    9422.4725    10563.346    10139.979     13.55232    33.971329    917.03454   -3013.3637 
22671000    259.62009   -4691.0245   -4190.3253   -4691.0245            0    10887.814    19.850697    19.958373    20.205782    8005.2805    11116.692    9442.0589     12104.69    -679.4683    766.94409   -525.64884    -2919.186 
22672000    261.63865   -4733.9872   -4229.3951   -4733.9872            0    9637.1392    20.028613    19.747142    20.268754    8016.4514      10171.5    9544.7669    9195.1506    520.35503   -96.433012    68.518715   -3102.7005 
22673000    249.76646   -4719.9146    -4238.219   -4719.9146            0    10566.917    19.751733    19.907432    20.381551    8014.1538    10528.225    10057.221    11115.307     97.93544    17.935845   -781.16896   -3003.1766 
22674000    260.90536   -4714.1366   -4210.9586   -4714.1366            0     10310.39    20.018755    19.622247     20.39693    8012.1783    11000.611    9339.4761    10591.083    502.64698    2214.7612   -18.886578   -3006.1957 
22675000    259.26394   -4720.6116   -4220.5993   -4720.6116            0    10048.827    19.526417    20.021659    20.430565     7987.355    10443.752    9633.5569    10069.173   -705.88861    1379.0732    1012.4727   -3050.0377 
22676000    249.98451   -4724.4925   -4242.3763   -4724.4925            0    8547.0115    19.704384    19.665093    20.762383    8045.1851    7030.3038     11280.21    7330.5204    76.907049   -717.37149    252.76228   -3239.5489 
22677000    243.64045    -4678.094   -4208.2129    -4678.094            0    7266.6312     19.68712    19.823582    20.671522    8067.4593    8030.9215    7604.7397    6164.2325   -290.77156    488.98008   -253.99096   -3353.2529 
22678000    255.54067   -4716.9611   -4224.1295   -4716.9611            0    7806.2298    19.745619    20.076893    20.511792    8131.5035     6828.969     8348.645    8241.0753   -321.87013   -1295.8439   -434.43026   -3298.3915 
22679000    262.48226   -4686.9428   -4180.7237   -4686.9428            0    10060.179     19.93831     20.04968    20.126284    8045.6176    9281.9274    10098.202    10800.408    257.16151   -48.359952   -615.60787   -3000.2917 
22680000    262.52159   -4702.4626   -4196.1676   -4702.4626            0    9434.4219    19.844245    19.855375    20.391747    8034.6529    9330.7745    9130.5518    9841.9393     928.2128     1265.608    219.80343   -3090.6687 
22681000    258.02245   -4719.1189   -4221.5009   -4719.1189            0    11113.326    19.750158    19.858424    20.455412    8022.7561    11235.442    11919.479    10185.058    412.69669    432.78081   -1792.9064    -2921.201 
22682000     247.7008   -4690.7387   -4213.0269   -4690.7387            0     10089.45    19.825779    20.112133    20.186874    8049.2879    9241.6083    9347.4312     11679.31    174.37652    766.16597    293.61456   -3028.6202 
22683000    236.87203   -4703.6504   -4246.8228   -4703.6504            0    9396.1281    20.126429    19.641151    20.332252    8037.4657    9059.8231    8219.8579    10908.703   -603.19869   -543.06233    727.61657   -3145.4256 
22684000    238.73174   -4698.6708   -4238.2565   -4698.6708            0    9487.8961    19.864185    19.652077    20.540978    8018.6326    9082.5144    9748.7196    9632.4542    100.54331    1132.7732    234.05611   -3128.7084 
22685000    264.55771   -4694.8147   -4184.5929   -4694.8147            0     11441.72    20.005448    19.540374    20.402259    7975.5271     12050.22    11311.099     10963.84    933.56376   -374.59863    880.10934   -2853.7506 
22686000    266.80697   -4711.2556   -4196.6959   -4711.2556            0    8845.2558    19.718006    19.952858    20.607487    8107.6154    11239.983    7097.7691     8198.015    74.036056   -1008.4487    821.82323   -3150.8218 
22687000    250.65217   -4701.0186   -4217.6148   -4701.0186            0    8770.8262    19.748061    19.733717    20.432919    7962.7624    7858.5155    9011.5527    9442.4103    147.53841   -283.18686   -1334.7241   -3199.0699 
22688000    262.04927   -4701.6495   -4196.2654   -4701.6495            0    11373.838    19.494374    19.872857    20.641448    7996.6808    13655.437    9496.8497    10969.227   -64.673914     638.5793    173.59206   -2869.8099 
22689000    246.84579   -4724.9852   -4248.9223   -4724.9852            0    9671.8803    19.866468    19.801721    20.467752    8051.8143    10616.254    8836.7096    9562.6775    1240.0411    742.71158     307.4808    -3113.178 
22690000    275.18055   -4702.2895   -4171.5807   -4702.2895            0    10326.482    19.607701    20.093089    20.330079    8009.6296    12105.662    8794.0744    10079.709   -427.99172   -1328.4857    692.07338   -2965.3213 
22691000    256.65197   -4703.2205   -4208.2456   -4703.2205            0    8821.5404    19.936916     19.64794    20.545113    8047.9179    8008.7053    8236.2528    10219.663   -183.78739    146.37515    674.65984   -3172.8559 
22692000    256.99414    -4683.947   -4188.3122    -4683.947            0    11091.877    19.773272    19.547656    20.552746    7944.0703    12432.513    11678.616    9164.5035    403.08278    48.317481    -1243.162   -2903.2504 
22693000    250.63822   -4690.0132   -4206.6363   -4690.0132            0    9641.1066    19.992265    19.786993    20.282028    8023.3029      9201.56    9643.9367    10077.823    417.34329    725.00248   -42.061596   -3078.5146 
22694000    258.64753   -4690.8367   -4192.0132   -4690.8367            0    10397.007    20.032978    19.712868    20.410367    8060.2065     10568.32     10296.25    10326.452     156.0338   -419.69123   -1085.6488   -2969.8466 
22695000    257.39022   -4713.2948   -4216.8962   -4713.2948            0    9770.2578    19.756881    19.898984    20.546566    8077.7153    7800.6106    11866.288    9643.8745   -155.68575   -856.49727    635.95877    -3065.909 
22696000    255.36763   -4711.7419    -4219.244   -4711.7419            0    9699.2498    19.869765     20.08519    20.193395    8058.9415    11439.387    6306.2399    11352.123    1298.5147    890.75424    689.26593   -3079.2776 
22697000    257.54542   -4711.6653   -4214.9673   -4711.6653            0    9045.5072    19.968744      19.8583    20.349401    8069.4592    8869.1197    8730.0354    9537.3666   -259.89173   -872.49414    482.85038   -3150.4488 
22698000    255.04308   -4711.0121   -4219.1401   -4711.0121            0     7100.228    19.848696    20.154918    20.389796    8156.9144    5666.0986    6181.0463    9453.5392    -100.0861   -82.827204     221.6424   -3374.4953 
22699000    267.56817   -4694.0891   -4178.0614   -4694.0891            0    11709.762    19.750592    19.678895    20.540004    7983.2803    12836.098    12018.875    10274.313    -159.7559    95.387302   -16.033484   -2814.7178 
22700000    239.00924   -4687.9864   -4227.0369   -4687.9864            0     10039.72    19.734009    19.908649    20.448592    8033.7908    8786.3872    10804.717    10528.055   -606.77596     161.8108    554.54097   -3050.7372 
22701000    256.77031   -4709.4944   -4214.2913   -4709.4944            0    9533.8085     19.78077    20.005416    20.232405    8006.4183    9101.3461    10635.915    8864.1643   -726.31084   -758.21499    945.52023   -3101.0723 
22702000    261.60234   -4712.5037   -4207.9816   -4712.5037            0    8239.5442    19.866216    19.905437    20.362237    8052.1595    8005.6226    8405.2079    8307.8021     377.6807   -647.93747    48.708048   -3240.3914 
22703000    248.97867   -4720.9067   -4240.7303   -4720.9067            0    9952.0681    19.778431    19.851136    20.463946    8034.6431    11668.974    9005.3216     9181.909    249.63879    192.31002    911.72839   -3074.5766 
22704000    244.86322   -4705.4311   -4233.1918   -4705.4311            0    10829.244    19.985146    19.555229    20.582868     8044.075    11096.932    11116.694    10274.105   -606.47503    530.59375    1527.7417   -2962.7636 
22705000     240.7405   -4708.8385   -4244.5502   -4708.8385            0    10223.644    19.785948    19.934571    20.294243    8004.5446    11396.183    8114.9909    11159.757   -290.94972    1632.5612    881.36636   -3051.0617 
22706000    247.05028   -4708.5688   -4232.1116   -4708.5688            0     10203.54    20.025114    19.800356    20.209922    8013.3228    9266.2806    9069.7921    12274.548   -756.59634   -941.84333   -251.10332   -3039.6637 
22707000    265.05058    -4733.696   -4222.5237    -4733.696            0     7601.453    20.019539    19.787906    20.436425    8095.7825    6481.6935     7405.025    8917.6406   -928.20752    255.91998    527.72446   -3325.0301 
22708000    259.10617   -4702.6711    -4202.963   -4702.6711            0    9338.0297    19.671631     19.71742     20.69487    8026.9978    10769.432    9439.3173    7805.3398   -99.082669    555.29696    2562.1176   -3109.8017 
22709000    247.59437    -4694.132   -4216.6255    -4694.132            0    9760.7442    19.643278    19.926016    20.443887     8001.988    10106.534    9529.6205    9646.0783    178.33472   -366.72727   -129.03859   -3077.5389 
22710000    262.61941   -4699.7129   -4193.2292   -4699.7129            0    7126.4879    19.963157    19.982487     20.37073      8126.16    7045.6719    7523.9748    6809.8169    422.07906   -776.23116    279.04551    -3348.657 
22711000    257.52809   -4703.1982   -4206.5337   -4703.1982            0    10350.455    19.961003    19.630755    20.365488    7980.2076     11560.37     9157.728    10333.269    233.33309   -2145.3606     -726.159   -3001.9151 
22712000    253.00501   -4703.5196   -4215.5782   -4703.5196            0    9037.9247    19.724712      19.8252    20.655516    8077.2648    10064.056    8172.3308    8877.3873    357.82843    136.90088   -624.28057   -3150.9231 
22713000    256.15524   -4674.5064   -4180.4895   -4674.5064            0    10228.187    19.592885     19.84414    20.534185    7983.7721    9707.8658    10275.069    10701.628    318.59638    1305.3234    70.989239   -2989.5692 
22714000    257.59313   -4707.0673   -4210.2772   -4707.0673            0    8876.1744    19.717303    19.853335     20.52073    8032.9264    9913.8485    8439.2538     8275.421    140.25145     1989.618      209.244   -3170.4157 
22715000    252.74274   -4730.4079   -4242.9722   -4730.4079            0    12033.566    19.649571    19.823672     20.34934    7926.6101    12088.062    11834.367    12178.268   -266.56276    725.65242    1294.6951   -2851.8743 
22716000    244.52173   -4679.4143   -4207.8336   -4679.4143            0    10962.432     19.71284    20.042658    20.082276    7934.4613    9703.9314    11096.406    12086.958   -721.00054    -140.9927    154.86327    -2939.305 
22717000    242.21437   -4714.9275   -4247.7968   -4714.9275            0    8543.1075    19.648287    19.820232    20.536715     7997.687    9047.1024     8726.108    7856.1122    139.88931    809.10424    -747.8773   -3251.3452 
22718000    259.27335   -4689.5032   -4189.4727   -4689.5032            0    9224.4455    19.655575    19.734835    20.673204    8019.1262    9304.8164    8716.9834    9651.5367    636.01765    953.45874   -1072.7894   -3110.6671 
22719000    262.11035   -4702.7222   -4197.2204   -4702.7222            0    9142.8849    20.020293    19.817933    20.263546    8039.7807    7708.7845    9348.5649    10371.305     160.7036    129.07922   -1137.3543   -3125.1992 
22720000    244.60694   -4722.2233   -4250.4783   -4722.2233            0     7839.981     19.92176    19.806529    20.361049    8034.0811    8166.6805    8138.7109    7214.5515   -331.17812    214.63264    -952.0432   -3331.8769 
22721000    251.62714   -4705.8897   -4220.6056   -4705.8897            0    8987.7723    19.605226    19.757811    20.752503    8038.6138    8624.4292    10202.461    8136.4266   -320.92171    172.98431    855.18237   -3166.9247 
22722000    257.47113   -4739.2085   -4242.6538   -4739.2085            0    8248.4789    19.916089    19.840581    20.450511    8080.9533    8918.0871    7197.2951    8630.0545   -830.63071    793.69717    1168.3322   -3270.5506 
22723000    251.42728   -4712.6735   -4227.7749   -4712.6735            0    9848.4463    19.784069    19.989168    20.314174    8033.5872    10407.783    10207.039    8930.5171   -528.71815   -1309.5015    300.58013   -3073.9149 
22724000    258.57849   -4707.5611   -4208.8708   -4707.5611            0    9886.2359    20.025225    19.765026    20.222959     8004.229    10209.206    10273.822    9175.6793    -315.2754    133.38466    1518.8608   -3054.8162 
22725000    243.42112   -4701.0575   -4231.5994   -4701.0575            0    10307.856    19.885448    19.761516    20.376549    8007.3031    11361.945     9727.366    9834.2581     1364.073    60.243176    1270.8153   -3027.8654 
22726000    269.84465   -4737.7089   -4217.2908   -4737.7089            0    9806.0278    20.027555    19.665458    20.342636    8011.9683    7665.4798    10241.896    11510.707   -727.04472    152.18707    65.846756   -3071.4924 
22727000    271.13648   -4684.4265    -4161.517   -4684.4265            0     9405.345    19.876431    19.947032    20.381603    8080.8125    9251.5925    7864.4363    11100.006    208.43745    92.997632   -1410.4144   -3053.0937 
22728000    264.33684    -4700.341   -4190.5452    -4700.341            0    9037.9109    19.903916    19.936757    20.331172    8067.8062    7488.7412    9699.4386    9925.5527   -1590.2219    492.67697    117.32824   -3127.1384 
22729000    262.89497   -4706.2186   -4199.2035   -4706.2186            0    9641.3687    19.936745    19.821721    20.345266    8040.0542    9229.3541    10806.411    8888.3412    303.14366    53.918122   -914.93604   -3068.6958 
22730000    252.01383   -4664.1161   -4178.0862   -4664.1161            0    9991.2302    19.773414    19.950204    20.489991    8082.9663    8430.3808    12286.059     9257.251   -808.82067    137.20643    735.90422   -3000.3023 
22731000    271.41866   -4716.5527    -4193.099   -4716.5527            0    10218.142    20.006582    19.626417    20.459108    8033.4222    9950.9919    10256.933    10446.501     215.0207   -529.39378    1225.7954   -2995.9494 
22732000    259.80842   -4714.8214    -4213.759   -4714.8214            0    9892.9641    19.873002    19.920945    20.356341    8058.8512    11503.393     7785.128    10390.371    88.883105   -621.90605    502.91168   -3051.0381 
22733000    254.27504   -4718.1922   -4227.8015   -4718.1922            0    8035.7222    20.070444    19.500781    20.565381    8049.0706    7299.7818    8739.0382    8068.3466   -599.15546   -309.25483    -568.8012   -3284.5086 
22734000    266.09039   -4701.5651   -4188.3873   -4701.5651            0    11610.056    19.731053    19.787901    20.408593    7968.2523    13263.023    10891.311    10675.835    205.56741    1326.0691   -1376.2949   -2839.1968 
22735000    249.30951   -4716.2633   -4235.4489   -4716.2633            0    8905.2641    19.906652    19.786883    20.332339    8008.7171     7723.349    8278.9495    10713.494    -1090.763     688.1122   -1150.0215   -3195.3236 
22736000    237.68804   -4692.4869   -4234.0856   -4692.4869            0     9703.984    19.757538    19.831606    20.416254    7999.5724    9254.0078    10923.163     8934.781    1009.5523    405.03917   -341.82057   -3101.9648 
22737000    255.44369   -4713.5653   -4220.9206   -4713.5653            0    7332.6942    19.961288    20.088382    20.306878    8142.8544    6184.3304    5570.5236    10243.228    323.60742    751.13922    911.07313   -3350.1252 
22738000    247.06602   -4674.0321   -4197.5446   -4674.0321            0    10180.004    19.751858    20.011252    20.358643    8046.9449    10071.514    10194.468    10274.031   -43.492498    1554.7338    297.85026   -3002.8555 
22739000    251.73766   -4708.3368   -4222.8395   -4708.3368            0    8769.3844    19.833354    19.777895    20.493372    8038.7714    9892.4453    8482.6106    7933.0973    125.91233    186.68077   -367.79611   -3194.7412 
22740000    252.05141   -4695.6045   -4209.5021   -4695.6045            0    9016.8862    19.947367    19.765402    20.449983    8062.7685      9974.62    8170.6507    8905.3878    1175.4738    143.27612    17.550815   -3149.2317 
22741000    240.11466   -4695.4723    -4232.391   -4695.4723            0    9762.5723    19.670143    19.875473    20.461526    7999.5029    8797.5486    11357.307    9132.8615    353.48002    420.43395   -552.37084   -3093.4449 
22742000    254.48095   -4710.2533   -4219.4653   -4710.2533            0     9217.424     20.13089    19.962557    20.149647    8097.4182    7725.0601    9597.1882    10330.024   -462.05017     234.5474   -100.68046   -3130.9563 
22743000    257.92324   -4686.2966     -4188.87   -4686.2966            0    9758.1847    19.822804    19.677803    20.547479    8014.9394    11761.881    8478.2761    9034.3973   -583.88945    1108.4847   -1470.2936    -3048.239 
22744000    262.38186   -4714.0381   -4208.0126   -4714.0381            0    8661.3784    19.829765     19.79365    20.596238    8084.0938    8020.2572    10039.181    7924.6972   -745.35397   -324.76635    735.00271   -3186.8515 
22745000    285.02801   -4714.2025    -4164.502   -4714.2025            0    8696.6359    19.607547     19.94504    20.513987    8022.4724    9222.3298    7289.9424    9577.6357    -339.2888   -1143.0344   -553.25983   -3146.9997 
22746000    249.20101    -4677.955   -4197.3499    -4677.955            0    9146.7707    19.807982    19.812648    20.565444    8070.8792    10072.027    8250.6086    9117.6767   -149.28215    748.10212   -177.83564   -3120.7247 
22747000    249.54905   -4705.5396   -4224.2633   -4705.5396            0    8091.0504    19.965169    19.415889    20.820618    8070.9358    7861.4789    9442.8108    6968.8615   -75.772293   -199.73006    113.95388   -3271.8955 
22748000    251.84506   -4666.9423    -4181.238   -4666.9423            0    9042.5704    19.900004     19.64369    20.516985    8020.2844    9620.4718    9341.6381    8165.6015    483.26773   -713.01276    295.77003     -3123.55 
22749000    253.38173    -4725.435    -4236.767    -4725.435            0    8239.3699    19.826576    19.867566    20.472861    8064.3789    8595.5747    7634.8533    8487.6817    70.371639    1094.2171   -892.51715    -3267.729 
22750000    265.31371   -4670.0838    -4158.404   -4670.0838            0    11435.843    19.774076    19.645752    20.431102    7937.0052    12302.665    10433.697    11571.167   -572.57909     553.5069   -949.87859     -2834.67 
Loop time of 483.691 on 64 procs for 250000 steps with 972 atoms

Performance: 89.313 ns/day, 0.269 hours/ns, 516.858 timesteps/s
99.0% CPU use with 64 MPI tasks x 1 OpenMP threads

MPI task timing breakdown:
Section |  min time  |  avg time  |  max time  |%varavg| %total
---------------------------------------------------------------
Pair    | 21.328     | 29.082     | 38.462     |  78.1 |  6.01
Bond    | 0.27426    | 0.2808     | 0.29807    |   0.9 |  0.06
Kspace  | 200.68     | 210.65     | 225.42     |  40.2 | 43.55
Neigh   | 3.2111     | 3.7465     | 4.2802     |  16.2 |  0.77
Comm    | 98.208     | 108.65     | 117.76     |  50.0 | 22.46
Output  | 1.3205     | 1.3252     | 1.3356     |   0.4 |  0.27
Modify  | 120.96     | 122.92     | 125.21     |  10.7 | 25.41
Other   |            | 7.036      |            |       |  1.45

Nlocal:        15.1875 ave          19 max          11 min
Histogram: 2 8 4 13 0 5 13 9 6 4
Nghost:        2329.75 ave        2374 max        2304 min
Histogram: 5 13 11 10 7 6 4 4 2 2
Neighs:        4939.20 ave        6223 max        3106 min
Histogram: 2 1 4 7 11 8 10 4 10 7

Total # of neighbors = 316109
Ave neighs/atom = 325.21502
Ave special neighs/atom = 2.0000000
Neighbor list builds = 7494
Dangerous builds = 0

unfix		3
unfix		2
unfix		1

write_data	data.final.${pid}
write_data	data.final.0
System init for write_data ...
PPPM initialization ...
  extracting TIP4P info from pair style
  using 12-bit tables for long-range coulomb (../kspace.cpp:340)
  G vector (1/distance) = 0.37249845
  grid = 24 24 24
  stencil order = 5
  estimated absolute RMS force accuracy = 0.0034712494
  estimated relative force accuracy = 1.0453565e-05
  using double precision FFTW3
  3d grid and FFT values/proc = 2197 216
Last active /omp style is kspace_style pppm/tip4p/omp
WARNING: Not all mixed pair coeffs generated from mixing. Use write_data with 'pair ij' option to store all pair coeffs. (../write_data.cpp:312)

write_restart   restart.lmp.${pid}
write_restart   restart.lmp.0
System init for write_restart ...
PPPM initialization ...
  extracting TIP4P info from pair style
  using 12-bit tables for long-range coulomb (../kspace.cpp:340)
  G vector (1/distance) = 0.37249845
  grid = 24 24 24
  stencil order = 5
  estimated absolute RMS force accuracy = 0.0034712494
  estimated relative force accuracy = 1.0453565e-05
  using double precision FFTW3
  3d grid and FFT values/proc = 2197 216
Last active /omp style is kspace_style pppm/tip4p/omp
Total wall time: 0:08:07
