LAMMPS data file via write_data, version 30 Jul 2021, timestep = 8500000

864 atoms
2 atom types
576 bonds
1 bond types
288 angles
1 angle types

0.6762979003383478 17.53127449966844 xlo xhi
1.8881208649598484 21.741056935044824 ylo yhi
0.8250818587659623 21.388113941246726 zlo zhi

Masses

1 1.00794
2 15.9994

Pair Coeffs # lj/cut/tip4p/long/omp

1 0 0
2 0.21084 3.1668

Bond Coeffs # harmonic/omp

1 450 0.9572

Angle Coeffs # harmonic/omp

1 55 104.52

Atoms # full

564 1 1 0.5897 7.164926301702883 5.817105729623103 3.870747574231333 1 2 4
584 1 1 0.5897 1.1204711998789225 5.7460972941574155 1.908810687384949 3 -3 2
734 1 1 0.5897 3.7323640350843097 3.7326098233411136 2.372330487294117 -5 4 -3
189 1 1 0.5897 6.032799464733482 2.586622956055848 2.4745155506045404 -1 1 6
621 1 1 0.5897 2.0860332460431756 2.4351868964818584 5.780541296576276 5 -4 1
826 1 2 -1.1794 4.247295452362749 5.7303671822208475 4.698642211473982 -2 -1 2
735 1 1 0.5897 2.940183251541033 3.337742047995451 3.60053131066188 -5 4 -3
423 1 1 0.5897 5.857733547104599 3.132469596359998 4.7821545869779065 -3 -1 4
279 1 1 0.5897 1.4822948062134982 3.1794340937081342 1.6150924931473325 -2 0 5
733 1 2 -1.1794 2.9289396520041002 3.934269690467098 2.8520119449749926 -5 4 -3
626 1 1 0.5897 6.810588422939508 5.597364058797348 1.2625127804148533 -6 -1 2
828 1 1 0.5897 3.8360231435291086 5.034496464571003 4.1858973032601865 -2 -1 2
827 1 1 0.5897 4.44685689334313 6.4138919914762464 4.058937660860498 -2 -1 2
188 1 1 0.5897 6.369619064671878 3.878404819081542 3.188546746647177 -1 1 6
619 1 2 -1.1794 2.909535157523444 2.2315839373638773 5.337084757919446 5 -4 1
187 1 2 -1.1794 5.663332742226027 3.2445405409358283 3.063517909862336 -1 1 6
562 1 2 -1.1794 7.387476809313294 5.523813293076341 2.987165936061823 1 2 4
563 1 1 0.5897 8.204275180502755 5.036366671406395 3.0947427021413962 1 2 4
277 1 2 -1.1794 1.1998978171587829 2.418861445576295 1.1071105730096926 -2 0 5
535 1 2 -1.1794 1.2894108694146516 6.730712062251509 4.04356527227085 8 5 2
9 1 1 0.5897 8.556771927026723 3.9321581134307033 5.621991403131407 0 4 2
7 1 2 -1.1794 8.98577057417617 3.737179084736212 4.78879754048751 0 4 2
421 1 2 -1.1794 6.2617738210276634 3.1958083077809203 5.647630119446528 -3 -1 4
697 1 2 -1.1794 7.107459814153833 5.874930039039706 5.7887885846330365 0 4 -5
753 1 1 0.5897 3.6629196665483255 4.705113524667688 7.921924222156523 3 6 -1
5 1 1 0.5897 2.9960524345982606 6.724911127036395 10.819681258395745 4 1 -2
108 1 1 0.5897 5.86441793646629 5.0145286335465515 8.445487488758141 0 1 4
751 1 2 -1.1794 4.420401927824855 5.099454125614283 7.489527107228553 3 6 -1
422 1 1 0.5897 5.523809699663279 3.280402618264512 6.251476091373539 -3 -1 4
4 1 2 -1.1794 2.224498993315224 6.19551929648655 11.02148756980683 4 1 -2
106 1 2 -1.1794 6.749384773819978 5.199979159816815 8.759835547857989 0 1 4
633 1 1 0.5897 5.899206556407818 1.9955703864471137 10.691597042498117 7 7 6
97 1 2 -1.1794 7.808591590369058 2.853361879073187 8.516678452453663 3 -5 3
494 1 1 0.5897 8.960065694139802 5.517301988762968 10.25222852802076 -4 -4 -1
52 1 2 -1.1794 2.193847807124218 4.384348461724625 8.859171562904745 -1 -1 1
538 1 2 -1.1794 4.14159620025459 2.3699691266186598 10.012807139232908 -1 -5 2
53 1 1 0.5897 1.475151593099969 4.557123509827431 8.250996075547475 -1 -1 1
539 1 1 0.5897 4.478439286421133 2.3201601608422684 9.118204295208692 -1 -5 2
107 1 1 0.5897 6.702352525926636 6.095499149006018 9.09474186903531 0 1 4
54 1 1 0.5897 2.036802001091563 4.98012305656737 9.59172998819759 -1 -1 1
752 1 1 0.5897 4.142753481340918 5.219510979727152 6.581359517695649 3 6 -1
540 1 1 0.5897 4.338709594611396 3.2634405137864486 10.294065785890483 -1 -5 2
98 1 1 0.5897 7.654230043120024 3.754058209385901 8.801675950357389 3 -5 3
6 1 1 0.5897 1.4878267423194536 6.799543080375259 10.927699297907434 4 1 -2
699 1 1 0.5897 7.769328394463232 5.909863116197755 6.479422326170917 0 4 -5
99 1 1 0.5897 7.511261532603647 2.3152197498086218 9.250334111921 3 -5 3
610 1 2 -1.1794 0.7007565151867584 1.945343151825348 7.0583235486672775 0 3 -1
698 1 1 0.5897 6.554540486953499 5.129727287810573 6.02374950862985 0 4 -5
534 1 1 0.5897 0.8658776156552261 5.4836184229380285 6.727209681722836 -6 -4 -2
631 1 2 -1.1794 6.791808494505454 1.8901719986768848 11.020872593102714 7 7 6
425 1 1 0.5897 2.2605790836912747 2.755478697906422 10.834077045119114 7 -4 -1
571 1 2 -1.1794 7.749242151113191 4.323068909536486 11.761874387405848 4 -3 2
546 1 1 0.5897 3.898992667855569 5.124652171735747 11.748294249488302 -6 0 3
632 1 1 0.5897 7.065462962354318 2.7756755210147976 11.260151761874173 7 7 6
247 1 2 -1.1794 5.460438636726442 3.464349430642003 13.894603441175464 0 4 -8
79 1 2 -1.1794 2.192159193670561 4.713062566559212 13.563155629713199 2 2 -2
81 1 1 0.5897 2.1434793636819967 5.627581639596265 13.28469648435408 2 2 -2
276 1 1 0.5897 7.735077558242362 3.7766848184799278 15.897498320674275 -2 5 -4
515 1 1 0.5897 3.261130302799978 4.37273551349353 15.05306179206823 -2 -3 -5
80 1 1 0.5897 2.1385160130163783 4.211339232301247 12.749720606241674 2 2 -2
165 1 1 0.5897 1.4820012000073643 3.20353205570568 14.726093710527316 -4 2 -4
545 1 1 0.5897 5.118286225245862 4.290334426013164 12.079131719643307 -6 0 3
514 1 2 -1.1794 3.388244737326379 4.513035245829512 15.991364855612535 -2 -3 -5
231 1 1 0.5897 5.44614930361893 6.803714844583413 14.905360263773971 2 7 0
248 1 1 0.5897 5.5927011594211775 4.2495141416115825 14.42590615330299 0 4 -8
230 1 1 0.5897 4.834925450177378 5.68746449846083 15.725326624652148 2 7 0
229 1 2 -1.1794 5.639743565936272 5.941723834156097 15.273796103039219 2 7 0
249 1 1 0.5897 6.327211444630652 3.0616633588206086 13.841545215197403 0 4 -8
424 1 2 -1.1794 1.8243722879911817 2.7572889892944747 11.686125566725062 7 -4 -1
163 1 2 -1.1794 0.840523880945343 2.759292433597749 15.28054118920083 -4 2 -4
572 1 1 0.5897 7.969194739558368 4.44348665698343 12.685656981160893 4 -3 2
573 1 1 0.5897 7.126693856969144 5.024454144880533 11.570013983222774 4 -3 2
638 1 1 0.5897 7.226936942535239 6.305189548431096 15.997568735564142 -2 -8 3
256 1 2 -1.1794 8.373983299513815 4.664664539688474 14.410853867764073 -4 -4 0
544 1 2 -1.1794 4.7048595962616275 4.777135337042042 11.366061261631106 -6 0 3
258 1 1 0.5897 8.489561445771386 5.58454634965668 14.172713816202272 -4 -4 0
164 1 1 0.5897 1.2641505081255353 1.9367492623459168 15.525940402750573 -4 2 -4
274 1 2 -1.1794 7.5336556249458475 3.3978035708338474 16.753148304646153 -2 5 -4
674 1 1 0.5897 8.246790957478487 4.01397095819898 20.158452192808742 -1 -1 -2
32 1 1 0.5897 3.1318635038748943 5.995444671589307 16.550223279566673 -3 6 0
217 1 2 -1.1794 6.68904598097448 2.8522924510168246 19.693295734980136 5 -2 -1
218 1 1 0.5897 5.893855629326481 3.1043486997831096 20.162754158551493 5 -2 -1
634 1 2 -1.1794 1.1243996017174784 6.442359650926951 18.940723864390463 -7 4 0
404 1 1 0.5897 5.2874251219696875 6.839737442445916 18.470641678335465 12 -3 1
675 1 1 0.5897 9.039141922672547 4.794049328233452 19.131026726354122 -1 -1 -2
263 1 1 0.5897 4.759123324893175 4.685221245712 20.95534047482196 4 -1 2
673 1 2 -1.1794 8.783142435047722 4.79980431955543 20.053353730508043 -1 -1 -2
678 1 1 0.5897 1.7126608842105207 4.599612696140388 19.167831003946198 0 0 -4
275 1 1 0.5897 8.386691368920513 3.2851384867149225 17.17254396268153 -2 5 -4
766 1 2 -1.1794 5.878036042580619 5.177217959040251 18.184917527371336 -2 0 -4
677 1 1 0.5897 1.704785720858071 3.3862327945598785 20.073146853058766 0 0 -4
364 1 2 -1.1794 2.895201073545702 2.2110167855044898 17.231014336535566 6 3 -1
262 1 2 -1.1794 4.331303782856138 3.8331012733551475 20.8709426199686 4 -1 2
767 1 1 0.5897 6.057273581506742 4.884780252599279 17.291259348927248 -2 0 -4
365 1 1 0.5897 2.7580488118739277 2.774055335496679 17.992874498610778 6 3 -1
264 1 1 0.5897 3.693818506106048 3.9532882727800787 20.167055214309148 4 -1 2
627 1 1 0.5897 7.032409706911147 5.698222572513622 20.331365271612935 -6 -1 1
768 1 1 0.5897 6.3066187976231225 4.526466470512947 18.740888259505137 -2 0 -4
219 1 1 0.5897 6.383149271985711 2.5967823219296813 18.823010328878695 5 -2 -1
676 1 2 -1.1794 2.23351459532749 3.8349470292704066 19.413326094073238 0 0 -4
625 1 2 -1.1794 6.355639785424807 5.779822317239006 21.003363813563627 -6 -1 1
47 1 1 0.5897 6.280972270807412 2.1494890357244336 16.7097151758542 2 -5 -2
516 1 1 0.5897 3.1077349340441476 3.6925875297711426 16.396870215899426 -2 -3 -5
366 1 1 0.5897 3.8414083849752467 2.0683809660265444 17.20525849026536 6 3 -1
637 1 2 -1.1794 7.923306186118919 6.765962309621769 16.46555305852574 -2 -8 3
635 1 1 0.5897 1.657672378186736 6.626700094448484 18.167475804898853 -7 4 0
13 1 2 -1.1794 2.680877389108043 9.192603146116458 3.5637626329116125 1 -2 -3
704 1 1 0.5897 5.758387501840576 8.320597918800992 3.657020329232128 9 1 -4
15 1 1 0.5897 3.2063724122835975 9.971480016562595 3.380822078241328 1 -2 -3
10 1 2 -1.1794 4.560859923476146 10.907189280647817 2.991458527915079 -1 -1 7
11 1 1 0.5897 4.031335595413493 11.313165628833229 2.305096874275015 -1 -1 7
466 1 2 -1.1794 8.061612435632254 8.185900459040624 1.6219114371334769 6 -2 2
705 1 1 0.5897 4.299543423389308 8.39054809071348 3.2584601065956535 9 1 -4
703 1 2 -1.1794 5.071527559875901 7.826750492599624 3.2091353233643596 9 1 -4
14 1 1 0.5897 2.818184644419462 9.023969704538342 4.495943847695406 1 -2 -3
665 1 1 0.5897 7.3683355780950155 9.850000421976755 2.4589339794199394 5 0 2
664 1 2 -1.1794 7.090682636343748 10.764312396999426 2.4019513778143944 5 0 2
694 1 2 -1.1794 7.030575680635051 8.983542774248685 4.642388719979128 -2 -2 2
492 1 1 0.5897 0.7915357230853625 11.156664858183673 4.774184408448091 -2 -1 4
491 1 1 0.5897 1.4329624122494709 10.33603303142883 3.6754965591223647 -2 -1 4
666 1 1 0.5897 7.4547769184579655 11.175050822739992 3.186180609857103 5 0 2
12 1 1 0.5897 5.459040938559327 11.167652953469364 2.7872623183819574 -1 -1 7
695 1 1 0.5897 7.269739010208172 9.646939919472082 5.289684323700477 -2 -2 2
537 1 1 0.5897 1.8121913072078382 7.357861104966632 3.5439203027196666 8 5 2
696 1 1 0.5897 7.794717186359876 8.409079915566334 4.593900760011511 -2 -2 2
468 1 1 0.5897 7.953393235110355 7.5120510227804695 2.29315039783539 6 -2 2
444 1 1 0.5897 4.953458892581188 7.675617295031207 1.091348512808295 8 4 -7
796 1 2 -1.1794 2.781649280391949 11.785453785987578 0.9843031865690371 -4 -2 -5
194 1 1 0.5897 1.7546603879334832 7.029637096542777 5.904539008308091 2 -2 0
490 1 2 -1.1794 0.8480075075890654 11.079466728067453 3.8217541994041784 -2 -1 4
73 1 2 -1.1794 1.873194010079747 7.530866349533639 0.8549280800390981 5 0 4
443 1 1 0.5897 4.79209099130703 9.163577597493491 0.8634920974394831 8 4 -7
74 1 1 0.5897 1.579386521097439 8.43849216126825 0.9333878541119311 5 0 4
463 1 2 -1.1794 4.3862249419542145 11.170430065183185 7.225662869192456 9 0 0
737 1 1 0.5897 1.278374406280518 11.158496975893526 7.262830494709966 4 -1 1
90 1 1 0.5897 3.7323261523202813 9.16909786318709 9.8444188183303 4 0 3
838 1 2 -1.1794 6.088609395788768 8.276199841073712 7.431664941985482 -3 -3 -3
840 1 1 0.5897 6.855334627774256 8.700668657064984 7.816657708261937 -3 -3 -3
688 1 2 -1.1794 7.891634324930387 8.921060368114091 9.447510859889624 0 1 5
195 1 1 0.5897 0.9793419068278137 7.5222549976299495 7.107944366638692 2 -2 0
503 1 1 0.5897 4.424529593464105 8.274465837025085 6.118371002791851 -6 -3 5
729 1 1 0.5897 8.29572240160011 11.583462153417322 6.734751041544823 -2 2 0
88 1 2 -1.1794 3.796090032958414 10.02887348137019 10.26036978437872 4 0 3
137 1 1 0.5897 7.025925447688765 10.427773182177466 9.282314029597469 12 -10 -1
689 1 1 0.5897 7.63046767900686 8.2761415591346 10.10488371745215 0 1 5
89 1 1 0.5897 4.663720248881065 10.350387463760793 10.015151712597811 4 0 3
504 1 1 0.5897 2.9907405966605882 8.244834621525161 6.603566331423998 -6 -3 5
552 1 1 0.5897 3.4471420123933014 6.914082955401467 8.609652854863171 1 8 -1
42 1 1 0.5897 1.2564100987082354 9.432921091249312 9.14201117652971 -2 0 5
736 1 2 -1.1794 1.1497900986638172 11.74626582234579 6.518345650528608 4 -1 1
40 1 2 -1.1794 1.5915123101898387 10.119300811200564 8.565054093749115 -2 0 5
550 1 2 -1.1794 3.948419691295701 7.619228596022641 9.019226792247169 1 8 -1
41 1 1 0.5897 2.5283516184353862 10.158483135625008 8.757626351476915 -2 0 5
502 1 2 -1.1794 3.5925604870064407 8.742936340326509 6.050383546328504 -6 -3 5
193 1 2 -1.1794 1.715829118705296 6.963929226601681 6.858704606928282 2 -2 0
551 1 1 0.5897 4.664861433172804 7.790698713866163 8.408005369325977 1 8 -1
136 1 2 -1.1794 6.44377593271786 11.176088325783466 9.15045441429204 12 -10 -1
464 1 1 0.5897 4.434730370206712 10.27893008733839 6.880515649594714 9 0 0
727 1 2 -1.1794 8.387040558143543 10.699201511362503 6.379732598371237 -2 2 0
690 1 1 0.5897 8.842993275966972 8.832763041967716 9.389380304002684 0 1 5
138 1 1 0.5897 6.007139339785026 10.996663555656673 8.317742479289022 12 -10 -1
839 1 1 0.5897 6.430108192646538 7.81057403685194 6.668236803981701 -3 -3 -3
728 1 1 0.5897 8.960050695483906 10.249308648251986 7.000628728133508 -2 2 0
713 1 1 0.5897 8.222803742878797 10.404831279329642 10.998857939448913 -9 -2 5
465 1 1 0.5897 3.949590393673638 11.671146877541226 6.536543513850254 9 0 0
763 1 2 -1.1794 1.9498966306014933 11.636890400953586 12.303787258938383 -7 4 -1
447 1 1 0.5897 4.705975048113705 10.201656793445338 11.902063063891678 4 1 -1
714 1 1 0.5897 7.059636822277595 10.932829385807462 11.811424335284304 -9 -2 5
446 1 1 0.5897 5.426513920812045 10.24832988152763 13.2326997758723 3 1 -1
241 1 2 -1.1794 1.8960160856162576 7.8326331148590596 13.678604225238377 2 -2 0
243 1 1 0.5897 2.2901488301104065 8.495952111784039 14.245120646207326 2 -2 0
283 1 2 -1.1794 5.6550170216305125 8.691710274878375 14.7864226479883 8 4 -5
284 1 1 0.5897 5.176266413287905 9.165795596777398 15.466353721316164 8 4 -5
790 1 2 -1.1794 2.639147370649871 10.233567357813998 14.513478487200112 1 8 2
650 1 1 0.5897 4.923697312181715 8.335963186595219 13.2413139157713 5 2 2
428 1 1 0.5897 8.692285141070066 10.172937788734606 15.083996751543696 6 -2 -3
651 1 1 0.5897 3.5425472810420864 7.920345865198935 12.781229955990256 5 2 2
792 1 1 0.5897 2.633540641132405 10.541251425622718 13.607079864756207 1 8 2
285 1 1 0.5897 6.562195571385899 8.980504647012891 14.885938691262414 8 4 -5
445 1 2 -1.1794 5.249170443913407 10.768913531297152 12.449246602007507 3 1 -1
242 1 1 0.5897 0.9580614045950032 8.02199203099963 13.703961946242396 2 -2 0
765 1 1 0.5897 2.5212391682686977 11.515746980502582 11.54537258852515 -7 4 -1
649 1 2 -1.1794 4.465549484916782 7.889138876417516 12.529484146973667 5 2 2
429 1 1 0.5897 8.28466206681474 9.93592289507021 13.645360640900071 6 -2 -3
791 1 1 0.5897 1.7581202834173741 10.422611627608383 14.83652130815374 1 8 2
427 1 2 -1.1794 8.220459801082804 9.55787143399525 14.522421776274559 6 -2 -3
401 1 1 0.5897 8.786826742309849 7.967438966664471 13.685411833525405 -1 -6 3
712 1 2 -1.1794 7.977468188209084 10.671174495765584 11.884938909168467 -9 -2 5
400 1 2 -1.1794 8.81711409201188 7.076822476789904 13.335910956416333 -1 -6 3
783 1 1 0.5897 7.414198853345493 7.16310289643026 12.138245293622866 0 2 1
781 1 2 -1.1794 6.832211023515525 7.036932635972626 11.388792739714633 0 2 1
782 1 1 0.5897 5.996405785683253 7.4104580127083235 11.668535663861649 0 2 1
224 1 1 0.5897 2.4385157562198225 11.307008004156716 18.458078373590343 1 -4 -10
645 1 1 0.5897 1.572516686649677 8.230899399029155 16.50372907487592 5 -4 -1
474 1 1 0.5897 7.382544712586773 10.465869974629552 21.13622889400807 -1 1 -1
405 1 1 0.5897 4.661702470921345 7.836519725508414 19.42293858931448 12 -3 1
75 1 1 0.5897 2.8262019819344557 7.591941193779043 21.35226352706131 5 0 3
750 1 1 0.5897 8.016999895206236 8.89861177604325 19.544598775203703 1 5 0
472 1 2 -1.1794 7.516299436065728 10.396578224336887 20.19093223719015 -1 1 -1
653 1 1 0.5897 5.447576586244479 10.75140748595525 17.00709528190617 -1 1 -2
403 1 2 -1.1794 4.813764418799564 7.6712562056220595 18.49243724560545 12 -3 1
33 1 1 0.5897 3.5064544532450426 7.147687889293415 17.457991862256566 -3 6 0
823 1 2 -1.1794 7.204102103531995 11.42887823088068 17.09518997430363 -5 3 2
825 1 1 0.5897 7.955414241536512 10.890410197238968 17.34387318929547 -5 3 2
748 1 2 -1.1794 8.223172342090106 8.043560790588245 19.166873768858196 1 5 0
223 1 2 -1.1794 2.4584812759562613 10.36052397789317 18.599704528445933 1 -4 -10
442 1 2 -1.1794 4.442088089282309 8.314236297439333 21.15746325436744 8 4 -8
636 1 1 0.5897 1.4157683659274596 7.081404828100462 19.59110882268547 -7 4 0
652 1 2 -1.1794 4.683024369376446 10.176858752330165 16.966935926800367 -1 1 -2
654 1 1 0.5897 4.999733584786684 9.333039076852694 17.289309794305943 -1 1 -2
225 1 1 0.5897 3.181521508611583 10.051370506002007 18.05387313949161 1 -4 -10
473 1 1 0.5897 6.713367731176271 10.750457709275187 19.80837375047413 -1 1 -1
467 1 1 0.5897 7.799281925276127 7.757290418522943 21.370220954736755 6 -2 1
639 1 1 0.5897 7.51837428035435 7.0409910872893 17.288183688781167 -2 -8 3
644 1 1 0.5897 1.2927740098777032 9.348991279734403 17.485412773197144 5 -4 -1
643 1 2 -1.1794 0.8858401778766912 8.833831398553937 16.788765283090626 5 -4 -1
797 1 1 0.5897 3.167052748070785 11.645771333910162 20.6823222790597 -4 -2 -6
388 1 2 -1.1794 5.265530105459005 11.708249653685188 19.950558644259104 3 5 3
31 1 2 -1.1794 2.9999015226408954 6.935411713127826 16.674015478490844 -3 6 0
483 1 1 0.5897 9.021720730753946 9.005158100393354 18.081966980406868 1 3 -4
818 1 1 0.5897 1.3614824750090404 10.58038024110411 21.179974142009645 6 3 0
343 1 2 -1.1794 9.022719009526137 12.932792580978775 2.7192079711333914 -2 -1 1
788 1 1 0.5897 7.6702437445736145 14.893722376628212 4.7345141306369225 7 1 4
821 1 1 0.5897 1.415231739653049 12.889215372493355 3.5380608363907435 2 5 3
418 1 2 -1.1794 3.8596221579466836 12.778523323762247 4.911413738698299 -8 2 6
294 1 1 0.5897 4.537739358734607 16.245126464110683 4.171348451218292 -3 4 2
357 1 1 0.5897 6.237356188058815 13.847514750308525 3.3215981692354952 -2 -4 10
820 1 2 -1.1794 1.709584731326259 13.797899707519843 3.4753651548120565 2 5 3
355 1 2 -1.1794 6.632709719817099 13.521526393555295 4.130103826523623 -2 -4 10
344 1 1 0.5897 8.161419032779879 13.226814030344581 3.0158038783365817 -2 -1 1
419 1 1 0.5897 4.2058671183579275 12.245837342474543 4.195422489936467 -8 2 6
356 1 1 0.5897 5.906188805316604 13.477603955053667 4.751789946872467 -2 -4 10
787 1 2 -1.1794 7.994715556078609 15.784228307508824 4.868705870166497 7 1 4
29 1 1 0.5897 2.2971174062253694 16.159421820393717 4.237070934482997 -5 -1 3
292 1 2 -1.1794 4.253311081901966 15.98216854889217 3.2960155075289985 -3 4 2
420 1 1 0.5897 3.1379130242074402 13.26921129316669 4.518198780612963 -8 2 6
711 1 1 0.5897 2.6322629799236266 14.809596486706537 1.588457753516064 -6 -9 -1
822 1 1 0.5897 1.0542552888422225 14.296651849533104 3.963259411470384 2 5 3
66 1 1 0.5897 4.724275199768179 14.006370496428497 1.7162562750779 1 0 -2
64 1 2 -1.1794 5.58864584621985 13.63814399779911 1.5331440490812605 1 0 -2
65 1 1 0.5897 6.057217627709139 14.339415263674093 1.0803702094212462 1 0 -2
28 1 2 -1.1794 1.9722673558769637 16.069355143920546 5.132958228856243 -5 -1 3
293 1 1 0.5897 4.547177306783179 16.691897450483747 2.724885230744081 -3 4 2
789 1 1 0.5897 8.88484157339308 15.770865164253928 4.51692509778232 7 1 4
345 1 1 0.5897 9.035117116575789 13.132137085806372 1.7830652013300472 -2 -1 1
798 1 1 0.5897 2.607848596408155 12.726055933598571 1.0205481586467557 -4 -2 -5
513 1 1 0.5897 4.138814443143933 13.543560514545806 10.045200033905473 -3 0 -6
786 1 1 0.5897 4.094047402344507 16.575262129460917 10.466707530386891 2 2 -3
351 1 1 0.5897 5.2651650006238295 13.587079413347594 7.74899990934503 -10 6 -1
512 1 1 0.5897 3.5081288999733564 14.778440975415954 9.437540511955541 -3 0 -6
780 1 1 0.5897 8.33737332718757 13.89902071586165 6.649180970847176 0 3 -2
58 1 2 -1.1794 1.2805934600353017 13.945751998272362 10.828007524907848 2 -1 -5
288 1 1 0.5897 7.353901187676776 15.110828205574022 9.404121916860452 5 -1 3
511 1 2 -1.1794 3.5939633615298656 13.833201029193715 9.313423388047278 -3 0 -6
349 1 2 -1.1794 6.060185015066292 13.930786832623276 7.341490985939268 -10 6 -1
745 1 2 -1.1794 5.20246012266213 16.504492937030808 6.016364573088334 5 5 -7
132 1 1 0.5897 7.602488730736225 12.978742406150568 9.37582587726502 -3 2 0
131 1 1 0.5897 9.077095529711116 12.795403880407251 9.665439482104205 -3 2 0
286 1 2 -1.1794 6.840820349757895 15.898627125101488 9.58409723912972 5 -1 3
321 1 1 0.5897 2.131562593076551 14.985183063060212 6.583327907800219 4 2 2
784 1 2 -1.1794 3.209156062680686 16.434977625107503 10.12974653262821 2 2 -3
60 1 1 0.5897 2.079262392187518 13.893315077049499 10.302985570471007 2 -1 -5
319 1 2 -1.1794 1.8256255458942026 14.329930641265504 7.210470249746578 4 2 2
350 1 1 0.5897 5.8136773568962745 14.802397342112137 7.032005325804072 -10 6 -1
320 1 1 0.5897 2.4578253806608243 14.37094238284426 7.928043144167422 4 2 2
287 1 1 0.5897 6.997831096800748 16.46508331894897 8.828615776292256 5 -1 3
130 1 2 -1.1794 8.345702924068267 13.39522758709843 9.812212799344755 -3 2 0
738 1 1 0.5897 1.254273960888328 12.624306158801039 6.884940975697928 4 -1 1
747 1 1 0.5897 4.429718236707371 16.74798507635357 6.526114401084122 5 5 -7
162 1 1 0.5897 7.976413255290484 16.584048562284206 6.419080442490396 1 8 2
186 1 1 0.5897 5.941206257172913 16.41146773936235 10.92505304799294 1 4 -3
59 1 1 0.5897 1.1892105920969165 14.876159509984188 11.033579560507302 2 -1 -5
764 1 1 0.5897 1.5965147336686043 12.520361575339633 12.19936295081618 -7 4 -1
359 1 1 0.5897 3.5151104364000743 14.123874843940746 12.947354308340415 5 -3 -7
476 1 1 0.5897 8.04400921945183 13.144007736966751 14.787154627599966 3 -3 3
484 1 2 -1.1794 6.507427453918973 16.00073306055014 14.827437190229979 -2 4 1
358 1 2 -1.1794 2.939541279093794 14.451421351168479 13.638510022682636 5 -3 -7
485 1 1 0.5897 6.6869195765432705 15.35690612653101 14.14220990692851 -2 4 1
802 1 2 -1.1794 7.301820865873829 14.120217040805143 12.28480467930193 6 2 -4
486 1 1 0.5897 6.079976538118104 15.49935374746066 15.521833733054251 -2 4 1
260 1 1 0.5897 1.317918068547499 14.033426619689635 13.867105817004465 2 -3 8
315 1 1 0.5897 5.579677808630958 13.902444460774216 11.877234173286766 -5 1 0
208 1 2 -1.1794 1.714748529462274 16.700019022050746 12.589888356486588 7 -2 2
475 1 2 -1.1794 7.411482812296465 12.479114312817472 14.514977486313162 3 -3 3
314 1 1 0.5897 4.92229130304554 12.580802725646839 12.213498364061891 -5 1 0
803 1 1 0.5897 7.3890834083174965 13.398210685652282 12.907176916349005 6 2 -4
313 1 2 -1.1794 4.739329470038013 13.445205590884713 11.845275213191325 -5 1 0
804 1 1 0.5897 7.787733490954563 13.831264568680153 11.512368899766306 6 2 -4
360 1 1 0.5897 2.420350116821063 15.13482759105044 13.214647540194811 5 -3 -7
582 1 1 0.5897 3.5498130248993407 13.262292969838352 14.686683159068892 5 1 -1
580 1 2 -1.1794 3.74715742291243 12.689357600224687 15.427669581671461 5 1 -1
375 1 1 0.5897 7.6980790064451305 16.628433456358586 11.820209902798897 6 3 1
581 1 1 0.5897 3.448128735992886 11.824043010898974 15.148246765727574 5 1 -1
477 1 1 0.5897 7.307222217691814 11.918161778875415 15.283578079090093 3 -3 3
184 1 2 -1.1794 5.491384199021613 16.70718498886941 11.716581836147085 1 4 -3
197 1 1 0.5897 4.945217427772185 13.961817350866879 16.22357396425415 1 -6 -1
450 1 1 0.5897 2.4436129362310286 13.510485859057386 18.39151352798197 3 -5 -3
449 1 1 0.5897 3.381718353601924 12.892874848031925 17.376346625741515 3 -5 -3
196 1 2 -1.1794 5.104932403426738 14.782349301610742 16.689932743034696 1 -6 -1
448 1 2 -1.1794 3.280909960452112 13.052967495129788 18.314696487167947 3 -5 -3
710 1 1 0.5897 3.411761126086597 15.226710681772404 20.92251504255165 -6 -9 -2
615 1 1 0.5897 7.336521633001481 16.10641345846436 20.51209242978287 -1 2 4
399 1 1 0.5897 4.105501740643362 15.614488191633338 18.550183632226783 10 3 -6
397 1 2 -1.1794 4.2154613744325555 16.18262554911957 19.31267505862043 10 3 -6
824 1 1 0.5897 7.34143534825553 12.258412490170986 17.552671230596378 -5 3 2
630 1 1 0.5897 3.857087007825717 16.213312067636533 16.258683666429157 2 -3 2
430 1 2 -1.1794 8.592205861011848 13.219021838176 20.72696850397565 -10 -3 -4
858 1 1 0.5897 7.629562054346063 14.759798734346065 18.387149863634356 1 -2 -4
398 1 1 0.5897 5.1625599016833705 16.29579422984846 19.39303213363912 10 3 -6
389 1 1 0.5897 5.130600536387306 12.266261243294606 20.716510368981083 3 5 2
613 1 2 -1.1794 6.757935459844995 15.35207534830693 20.400409775794397 -1 2 4
614 1 1 0.5897 7.351036239773235 14.60744389742825 20.30032326754269 -1 2 3
775 1 2 -1.1794 1.0201758317996692 14.514571404723068 19.016666128798185 5 -6 -3
265 1 2 -1.1794 0.9409265618723852 16.77713316189633 17.59509362531279 1 -5 0
390 1 1 0.5897 4.726810258325611 12.105554227487017 19.2662957439296 3 5 3
856 1 2 -1.1794 7.590843042658677 13.93861453222355 17.896829643398473 1 -2 -4
776 1 1 0.5897 1.493414765540046 14.58172818169697 19.846006715327423 5 -6 -3
814 1 2 -1.1794 7.741103674194297 16.67203358976034 17.754758272493394 -4 4 -3
431 1 1 0.5897 8.183046922960742 12.369299773265126 20.890759784343466 -10 -3 -4
198 1 1 0.5897 5.894654394012259 14.616047765791587 17.204683466728227 1 -6 -1
857 1 1 0.5897 8.135276725136016 14.094037229523696 17.125021776688065 1 -2 -4
777 1 1 0.5897 0.7148079210673297 15.404771415413121 18.841830060531336 5 -6 -3
478 1 2 -1.1794 9.073874762011439 16.552906571361106 21.044671670864375 0 0 -4
709 1 2 -1.1794 2.725403429522885 14.627606560878496 21.216346882085798 -6 -9 -2
340 1 2 -1.1794 4.94862941960529 17.830883526062603 1.2528433168617732 6 5 1
85 1 2 -1.1794 2.921569331063143 19.62740963818391 4.2879762858620705 2 8 3
555 1 1 0.5897 6.151153901010071 20.766518200187686 1.556533630248833 -5 -3 3
24 1 1 0.5897 6.997941611224416 18.308989556335153 3.029010272584508 -9 5 5
586 1 2 -1.1794 2.259757506483876 19.680510050098984 1.6446172496122036 -5 1 4
30 1 1 0.5897 1.5229962436880067 16.895933070099062 5.3095680498644695 -5 -1 3
87 1 1 0.5897 3.8578501524214937 19.437630576119513 4.227854656198144 2 8 3
342 1 1 0.5897 4.191400644323174 18.357022337668592 0.995858192062132 6 5 1
434 1 1 0.5897 8.76156891339857 18.82994587349312 3.7298778393537093 -1 0 -2
849 1 1 0.5897 1.307588743136907 19.169731030544476 5.181658752637924 4 -3 4
23 1 1 0.5897 7.817630537801688 17.109463581394316 3.4547081601243845 -9 5 5
670 1 2 -1.1794 5.619674510606233 18.927399168979395 4.321080528956367 5 3 1
553 1 2 -1.1794 6.86087401249395 20.718295596655366 2.1970416844130707 -5 -3 3
847 1 2 -1.1794 0.7050965029154388 18.535206833174296 5.569816317129143 4 -3 4
554 1 1 0.5897 6.446841956207237 20.374271043473367 2.988578460600617 -5 -3 3
435 1 1 0.5897 8.707251998555822 19.284945051150814 5.172799467603703 -1 0 -2
480 1 1 0.5897 8.623151309790467 17.082954653898096 1.139035499761357 0 0 -3
671 1 1 0.5897 6.064222318103009 19.374513055654848 5.041307756117246 5 3 1
672 1 1 0.5897 5.518462141414009 18.025255790445883 4.624644578721748 5 3 1
587 1 1 0.5897 2.053762064777273 20.597957391905073 1.4653993823015048 -5 1 4
86 1 1 0.5897 2.5974311214137615 19.522092184203427 3.393496085304887 2 8 3
22 1 2 -1.1794 7.809835896752319 17.84002181621561 2.8362542886875795 -9 5 5
620 1 1 0.5897 2.7287704354111715 21.27848195019973 4.8534676098953975 5 -5 1
306 1 1 0.5897 8.583013898160996 21.210465828165265 2.469298896053877 7 -3 -7
103 1 2 -1.1794 6.869434806868031 20.33045944520165 6.302384997768201 4 0 8
411 1 1 0.5897 9.057475581284603 19.37212459329784 8.541769624202281 2 4 -5
142 1 2 -1.1794 4.56343697931681 21.47309584608244 7.255822788200395 -3 1 6
844 1 2 -1.1794 5.3009765998264715 19.070465296558968 8.967828391981088 -1 -2 8
859 1 2 -1.1794 1.7101380344969586 20.52461934922179 9.188660740126357 -1 -4 0
845 1 1 0.5897 4.993528989279519 19.78242929676079 8.406706800427063 -1 -2 8
846 1 1 0.5897 4.71645783610858 19.092566601267222 9.725530660125255 -1 -2 8
850 1 2 -1.1794 8.12390076723203 19.264538873923566 10.043614588359707 -8 1 -3
743 1 1 0.5897 2.0481478129509774 17.680628324592178 7.330590001609931 0 -4 3
146 1 1 0.5897 1.2523358650891376 18.749131786929524 9.829084725903018 -2 -1 -6
742 1 2 -1.1794 2.9956504580165326 17.612445871572554 7.448324712595944 0 -4 3
860 1 1 0.5897 1.7355524132926716 20.8827754686114 8.301317579118324 -1 -4 0
852 1 1 0.5897 7.78385281675418 19.898860109210407 10.674744374596429 -8 1 -3
145 1 2 -1.1794 0.8193991352894766 18.01307262594412 10.261570356769678 -2 -1 -6
744 1 1 0.5897 3.3080624727705157 18.51638154902962 7.408770606421448 0 -4 3
861 1 1 0.5897 2.5788378192808756 20.70806850525247 9.54642745267959 -1 -4 0
105 1 1 0.5897 7.368277057689411 20.24180361471011 7.114516006176308 4 0 8
161 1 1 0.5897 8.261661596652312 17.872115431073315 7.161685802776353 1 8 2
160 1 2 -1.1794 7.634008180446968 17.15125701803571 7.109942725571289 1 8 2
851 1 1 0.5897 7.345864282059108 18.926502555783358 9.600170809726796 -8 1 -3
104 1 1 0.5897 7.02478479211859 21.23258752324734 6.022574972939493 4 0 8
143 1 1 0.5897 5.288052874914061 20.99325149815668 6.854655913980612 -3 1 6
785 1 1 0.5897 3.1756155701572473 16.948216834235787 9.322440950241608 2 2 -3
144 1 1 0.5897 3.9737865288114667 21.669934701153633 6.52793413868894 -3 1 6
746 1 1 0.5897 5.9361290989584115 16.894629216127683 6.491535395562797 5 5 -7
680 1 1 0.5897 3.9665627202409297 19.04993236683856 11.847476302153625 -8 -4 1
168 1 1 0.5897 6.759319694074562 18.844287559813846 13.695899591225887 -3 0 -1
679 1 2 -1.1794 3.4919332165839534 19.432860765811004 11.10965264408433 -8 -4 1
681 1 1 0.5897 2.5786555616023863 19.45190271569457 11.395688306753717 -8 -4 1
171 1 1 0.5897 2.4967047430078573 19.950585648362125 14.641804211327749 -1 1 0
121 1 2 -1.1794 7.6111119163952115 21.47347903189897 14.055859022477279 4 -1 1
167 1 1 0.5897 5.497041460439424 19.58503164836918 13.308679885024937 -3 0 -1