LAMMPS (30 Jul 2021)
  using 1 OpenMP thread(s) per MPI task
package omp 0
using multi-threaded neighbor list subroutines
echo both

include		in.partitions
variable        pid world 0
include		in.temp
variable        temperature equal 269.27
variable	tempDamp equal 100.0
include		in.pressure
variable        pressure equal 11250.0
variable        pressureDamp equal 1000.0 # This is 1 ps
include		in.seed
variable        seed world 745823

units		real
atom_style	full
read_restart	restart.lmp.${pid}
read_restart	restart.lmp.0
Reading restart file ...
  restart file = 30 Jul 2021, LAMMPS = 30 Jul 2021
  restoring atom style full from restart
  orthogonal box = (0.68605900 1.8996181 0.83699038) to (17.521513 21.729560 21.376205)
  4 by 4 by 4 MPI processor grid
  restoring pair style lj/cut/tip4p/long/omp from restart
  restoring bond style harmonic/omp from restart
  restoring angle style harmonic/omp from restart
  864 atoms
  576 bonds
  288 angles
Finding 1-2 1-3 1-4 neighbors ...
  special bond factors lj:    0        0        0       
  special bond factors coul:  0        0        0       
     2 = max # of 1-2 neighbors
     1 = max # of 1-3 neighbors
     1 = max # of 1-4 neighbors
     2 = max # of special neighbors
  special bonds CPU = 2.060 seconds
  read_restart CPU = 2.499 seconds
include 	in.setup
variable	out_freq equal 1000
variable	out_freq2 equal 10000
variable	out_freq3 equal 1000

timestep	2.0

neigh_modify    delay 7 every 1

include		in.tip4p
# This is TIP4P/Ice

# create groups ###
group ox type 2
288 atoms in group ox
group hy type 1
576 atoms in group hy

# set charges - beside manually ###
set group ox charge -1.1794
Setting atom values ...
  288 settings made for charge
set group hy charge 0.5897
Setting atom values ...
  576 settings made for charge

# ### TIP3P Potential Parameters ###
pair_style lj/cut/tip4p/long/omp 2 1 1 1 0.1577 8.5
pair_coeff 1 1*2 0.000 0.000
pair_coeff 2 2 0.21084 3.1668
bond_style  harmonic
bond_coeff  1 450 0.9572
angle_style harmonic
angle_coeff 1 55 104.52
kspace_style pppm/tip4p/omp 1.0e-5
pair_modify tail yes

thermo          ${out_freq}
thermo          1000
thermo_style    custom step temp pe etotal epair emol press lx ly lz vol pxx pyy pzz pxy pxz pyz enthalpy

restart 	${out_freq3} restart.lmp.${pid} restart2.lmp.${pid}
restart 	1000 restart.lmp.${pid} restart2.lmp.${pid}
restart 	1000 restart.lmp.0 restart2.lmp.${pid}
restart 	1000 restart.lmp.0 restart2.lmp.0


include         in.dump
dump            myDump all atom ${out_freq2} dump.water.${pid}
dump            myDump all atom 10000 dump.water.${pid}
dump            myDump all atom 10000 dump.water.0
dump            myDump2 all dcd ${out_freq2} dump.dcd
dump            myDump2 all dcd 10000 dump.dcd
dump_modify     myDump append yes
dump_modify     myDump2 append yes


variable natoms 	equal  "count(all)"                        # NUMBER ATOMS
variable H      	equal  "enthalpy/v_natoms"                 # ENTHALPY-per-atom
variable Vol      	equal  "vol/v_natoms"                 # volume-per-atom
fix AVG all 		ave/time ${out_freq} 1 ${out_freq} v_Vol v_H file vol_enthalpy.dat
fix AVG all 		ave/time 1000 1 ${out_freq} v_Vol v_H file vol_enthalpy.dat
fix AVG all 		ave/time 1000 1 1000 v_Vol v_H file vol_enthalpy.dat


timer           timeout 23:50:00 every 1000
New timer settings: style=normal  mode=nosync  timeout=23:50:00

fix 		1 all shake 1e-6 200 0 b 1 a 1
       0 = # of size 2 clusters
       0 = # of size 3 clusters
       0 = # of size 4 clusters
     288 = # of frozen angles
  find clusters CPU = 0.544 seconds
fix             2 all nph iso ${pressure} ${pressure} ${pressureDamp}
fix             2 all nph iso 11250 ${pressure} ${pressureDamp}
fix             2 all nph iso 11250 11250 ${pressureDamp}
fix             2 all nph iso 11250 11250 1000
fix             3 all temp/csvr ${temperature} ${temperature} ${tempDamp} ${seed}
fix             3 all temp/csvr 269.27 ${temperature} ${tempDamp} ${seed}
fix             3 all temp/csvr 269.27 269.27 ${tempDamp} ${seed}
fix             3 all temp/csvr 269.27 269.27 100 ${seed}
fix             3 all temp/csvr 269.27 269.27 100 745823

run             250000
PPPM initialization ...
  extracting TIP4P info from pair style
  using 12-bit tables for long-range coulomb (../kspace.cpp:340)
  G vector (1/distance) = 0.37494118
  grid = 24 24 24
  stencil order = 5
  estimated absolute RMS force accuracy = 0.0030843254
  estimated relative force accuracy = 9.2883544e-06
  using double precision FFTW3
  3d grid and FFT values/proc = 2535 216
Last active /omp style is kspace_style pppm/tip4p/omp
Neighbor list info ...
  update every 1 steps, delay 7 steps, check yes
  max neighbors/atom: 2000, page size: 100000
  master list distance cutoff = 10.8154
  ghost atom cutoff = 10.8154
  binsize = 5.4077, bins = 4 4 4
  1 neighbor lists, perpetual/occasional/extra = 1 0 0
  (1) pair lj/cut/tip4p/long/omp, perpetual
      attributes: half, newton on, omp
      pair build: half/bin/newton/omp
      stencil: half/bin/3d
      bin: standard
Per MPI rank memory allocation (min/avg/max) = 9.239 | 9.241 | 9.243 Mbytes
Step Temp PotEng TotEng E_pair E_mol Press Lx Ly Lz Volume Pxx Pyy Pzz Pxy Pxz Pyz Enthalpy 
17250000    277.31168   -3836.2618    -3360.959   -3836.2618            0    8711.1756    16.835454    19.829942    20.539215    6856.9363    10466.934    8329.2022    7337.3909    175.24985    528.31275    550.21265   -2489.8294 
17251000    262.58607   -3845.4693   -3395.4058   -3845.4693            0    9187.2557    16.832246    19.826162    20.535301    6853.0168    9673.3277    9839.8268    8048.6124    199.67687   -64.751785    1880.2927   -2477.1926 
17252000    270.30674   -3853.7466   -3390.4501   -3853.7466            0    11089.319    16.833257    19.827353    20.536534    6854.2512    13150.288    9459.4352    10658.233   -330.54898    995.09912   -1720.5658   -2281.9372 
17253000    267.78501   -3836.4475   -3377.4732   -3836.4475            0    11294.746    16.820666    19.812523    20.521173    6838.8824    10454.226    12334.077    11095.934   -2009.4264    641.23924   -1226.1969   -2250.9568 
17254000    243.00594   -3839.8622   -3423.3583   -3839.8622            0     10598.33    16.804913    19.793967    20.501954    6819.6858    8598.9403    12290.218    10905.831     1356.827    790.49783   -464.03359   -2369.2683 
17255000    273.30387   -3826.6359   -3358.2024   -3826.6359            0     11367.97    16.779703    19.764273    20.471198    6789.0401    11990.452    11176.566     10936.89   -980.71727   -855.97374   -328.65947   -2232.6462 
17256000    280.86539   -3837.5313   -3356.1376   -3837.5313            0    10277.797    16.755047    19.735233    20.441119    6759.1574    9510.6197    10507.175    10815.596    629.68106    864.75647   -1896.6931   -2342.9999 
17257000    268.85864   -3840.2925    -3379.478   -3840.2925            0    9927.8041    16.811072    19.801222    20.509468    6827.1868    9363.4159    10593.831     9826.166   -973.91448   -8.2307233   -1130.5215   -2390.9912 
17258000    267.49054    -3818.891   -3360.4213    -3818.891            0    10390.879     16.81164    19.801891    20.510162    6827.8795    11425.106    10203.814    9543.7172    1629.0619    1127.4474   -1374.5712   -2325.7224 
17259000    275.86399   -3799.4479   -3326.6265   -3799.4479            0    14597.645    16.814472    19.805227    20.513616    6831.3299    15139.783    14032.595    14620.558   -973.15485    -98.36854    1530.8104   -1872.2932 
17260000    279.62489   -3854.8233   -3375.5558   -3854.8233            0    10251.321    16.840075    19.835384    20.544852    6862.5835    10242.372     9654.287    10857.303   -620.96957    3971.2747    2061.2168   -2349.5653 
17261000    275.49871   -3835.2251   -3363.0297   -3835.2251            0    12029.871    16.770092    19.752953    20.459473    6777.3811     11863.25    11725.226    12501.137   -491.14666   -890.59769   -776.93247   -2173.9834 
17262000    264.32177   -3763.3998   -3310.3613   -3763.3998            0    11568.039    16.845309    19.841549    20.551238    6868.9851    14104.685    11156.598    9442.8346    1169.6859    1602.4733   -849.77626   -2151.5087 
17263000    273.59118    -3784.462   -3315.5361    -3784.462            0    11633.807     16.78535    19.770925    20.478088     6795.897    12083.196    12263.981    10554.244    1077.9976    226.44637   -87.772759   -2162.4957 
17264000    258.83814   -3847.8332   -3404.1935   -3847.8332            0    10496.403    16.855435    19.853476    20.563591    6881.3789    11066.301    9012.0304    11410.879     102.1909    -1755.256    435.44872    -2350.797 
17265000    281.91962   -3856.7686    -3373.568   -3856.7686            0     11166.43    16.776744    19.760788    20.467588     6785.449    8996.2809    10570.744    13932.266    688.95722    129.08107    766.36594   -2268.5513 
17266000    279.71614   -3849.2869    -3369.863   -3849.2869            0    12677.269    16.731375    19.707349    20.412238    6730.5488    11350.828    14443.636    12237.342    894.24517    149.41832    772.21291   -2125.4858 
17267000    281.56956   -3831.8678   -3349.2672   -3831.8678            0    11605.108    16.803041    19.791763    20.499671    6817.4079    11983.938    10226.398    12604.989     918.7971     727.6028   -450.63072   -2195.4305 
17268000    251.80793   -3824.2147   -3392.6246   -3824.2147            0    11078.396    16.803222    19.791976    20.499892    6817.6281    10187.675    11340.767    11706.748    56.577899   -1463.2402    431.25061   -2291.1205 
17269000    274.64031   -3859.0638   -3388.3397   -3859.0638            0    9785.2195    16.836162    19.830774    20.540078    6857.8005    9305.8951    9790.5144    10259.249    1004.4455    1497.9484    456.64831   -2409.6809 
17270000    271.66604   -3876.2173   -3410.5911   -3876.2173            0    10681.807    16.786079    19.771783    20.478977     6796.782    8699.4861    11577.862    11768.074   -481.90643    978.89499    619.29008   -2351.7666 
17271000    266.53983   -3867.2729   -3410.4327   -3867.2729            0    11359.723    16.799395    19.787469    20.495223    6812.9709     8573.624    12889.196    12616.349   -1934.6919   -1102.9519   -322.05559   -2281.7285 
17272000    263.47354   -3813.8347   -3362.2501   -3813.8347            0    9589.4962      16.8092    19.799017    20.507185    6824.9069    10317.575    9400.5045     9050.409   -66.997175    842.15739   -135.69495   -2407.7666 
17273000    267.96451   -3867.7313   -3408.4493   -3867.7313            0    10947.624    16.805295    19.794417     20.50242    6820.1511    12733.078    8777.7787    11332.015   -2176.4827   -638.73355   -373.65535   -2319.5449 
17274000     276.7285   -3815.8501   -3341.5469   -3815.8501            0    12386.201    16.831194    19.824924    20.534018    6851.7323    11564.213    13189.442    12404.947    1827.3582    587.59142    304.68134   -2103.8497 
17275000    256.56263   -3778.8327   -3339.0932   -3778.8327            0    10488.633     16.80533    19.794459    20.502464    6820.1941    9838.6726    10722.063    10905.164    513.55173   -523.43713    1007.6397   -2295.8356 
17276000    270.46188   -3801.7093   -3338.1469   -3801.7093            0    10322.595    16.881141    19.883754    20.594953    6912.9112     12500.45    8528.8429    9938.4909    1010.9209    315.29802   -81.475279   -2297.4465 
17277000    273.00773     -3799.23   -3331.3041     -3799.23            0    13749.493    16.780363    19.765051    20.472004    6789.8417    13395.623    15187.871    12664.985    612.90069   -587.55413   -1329.8685   -1969.7898 
17278000    268.12041   -3834.4168   -3374.8676   -3834.4168            0    11186.656    16.840052    19.835357    20.544824    6862.5558    11002.517    10816.589    11740.862    535.02433    232.98363    1904.8008   -2255.2697 
17279000     261.4573   -3871.1647   -3423.0358   -3871.1647            0    8699.4792    16.848666    19.845503    20.555334    6873.0924    6729.3887    10504.249    8864.8002    1640.8465   -59.277776    1130.7489   -2551.0261 
17280000     282.6974   -3820.2253   -3335.6916   -3820.2253            0    12367.547    16.773563    19.757042    20.463708    6781.5909    12453.936    11389.846    13258.861    22.699367   -696.74069    632.25765   -2112.5096 
17281000    272.14549   -3813.9277   -3347.4796   -3813.9277            0    10177.965    16.898573    19.904286    20.616219    6934.3484    9255.2084    10887.054    10391.632   -19.491347   -842.25121   -870.25656   -2318.1784 
17282000    283.53836   -3823.5245   -3337.5494   -3823.5245            0    12134.741     16.76021    19.741313    20.447417    6765.4072     11461.14    12631.616    12311.468   -54.204862   -248.65981    502.12798   -2140.2566 
17283000    261.51112   -3810.4277   -3362.2066   -3810.4277            0     9174.009    16.829586     19.82303    20.532056    6849.7687    9264.5181    8828.3475    9429.1615    1812.0351   -79.137882   -484.83009    -2445.752 
17284000    261.61562   -3869.7549   -3421.3546   -3869.7549            0    13426.293    16.768583    19.751176    20.457632    6775.5523    13411.566    14050.304    12817.008   -304.68742   -1132.2206    56.021666   -2094.6425 
17285000    280.85331   -3914.6908   -3433.3179   -3914.6908            0    12129.498    16.776484    19.760482    20.467271    6785.1341    11953.198    11117.757     13317.54   -491.94627   -681.87683    207.27791   -2233.0528 
17286000    253.97014   -3841.0775   -3405.7814   -3841.0775            0    11330.339    16.837775    19.832675    20.542046    6859.7725    12463.443    11401.894    10125.679   -669.31203    1304.4696    2407.2194   -2272.2632 
17287000    278.61194   -3837.9676   -3360.4363   -3837.9676            0    11965.708    16.807092    19.796535    20.504613    6822.3398    12134.175    11736.106    12026.842    -1128.012    1285.5087   -464.37052   -2169.8863 
17288000    266.65198   -3825.9741   -3368.9417   -3825.9741            0    10599.631    16.815775    19.806762    20.515206    6832.9189    10746.702    9321.8914    11730.299    217.05468   -571.77924   -2021.8729   -2312.6768 
17289000    265.46706   -3835.3282   -3380.3268   -3835.3282            0    10476.864    16.855301    19.853318    20.563428    6881.2148     9579.713    10936.215    10914.665     345.1549   -449.11508    1123.3263   -2328.9162 
17290000    271.84228   -3859.4236   -3393.4952   -3859.4236            0    9685.2201    16.818792    19.810315    20.518887    6836.5967    9241.4252     10932.35    8881.8849    949.51869   -1532.4126    989.59256   -2427.8327 
17291000      269.735   -3860.8557   -3398.5391   -3860.8557            0    12133.755    16.800202    19.788418    20.496207    6813.9521    10210.066     12934.33    13256.868   -611.99507   -1394.2576    244.55426   -2192.7533 
17292000    269.63057     -3865.96   -3403.8225     -3865.96            0    11207.752    16.797583    19.785334    20.493012     6810.766    11248.068    10587.602    11787.586    2025.0072   -404.17251   -917.45775   -2290.5785 
17293000    279.46334   -3846.3172   -3367.3266   -3846.3172            0     12321.42    16.806482    19.795816    20.503869     6821.597    12329.906    12822.318    11812.037   -607.11557    1488.0834   -1.9958119   -2141.5178 
17294000    259.27049   -3821.8061   -3377.4254   -3821.8061            0    12993.243    16.759087    19.739991    20.446047    6764.0479    15575.441    12653.739    10750.547   -252.45074    185.79181   -232.21857   -2095.6849 
17295000    260.55573   -3893.6495   -3447.0659   -3893.6495            0    10612.005    16.823749    19.816154    20.524935    6842.6439    9379.1108    11889.189    10567.716   -342.11155    1482.6763    1659.8406   -2388.0627 
17296000    273.32248   -3864.6796   -3396.2142   -3864.6796            0     9978.911    16.830982    19.824674    20.533759    6851.4737    10262.776    10743.437    8930.5205   -693.23163   -2101.5379     198.1295   -2399.1043 
17297000    266.40634   -3867.6461   -3411.0348   -3867.6461            0    12162.246    16.795562    19.782953    20.490546    6808.3077    12834.058    11875.588    11777.092   -426.50652   -1355.0147     120.8875   -2203.4188 
17298000    276.66624   -3867.2125    -3393.016   -3867.2125            0    9483.0296    16.907488    19.914787    20.627096    6945.3291    10077.543    9278.9002    9092.6457   -1898.1201     1324.232    1881.9114   -2432.4752 
17299000    261.55411   -3819.2075   -3370.9127   -3819.2075            0    12883.877    16.819638    19.811312    20.519919    6837.6287    11418.295    12011.631    15221.705   -1348.3509    707.54442    1728.0742    -2086.135 
17300000    267.35149   -3837.3189   -3379.0876   -3837.3189            0    12512.321    16.777042    19.761139    20.467952     6785.811    14774.686    11329.579    11432.698   -2392.1312    694.81105    699.87013   -2140.8171 
17301000    276.04111   -3835.0717   -3361.9467   -3835.0717            0    12658.369    16.854532    19.852412     20.56249    6880.2731    11404.549    13401.682    13168.875   -814.91304   -710.12208   -1465.6497   -2091.7841 
17302000    275.17349   -3874.7379      -3403.1   -3874.7379            0    12529.418    16.810895    19.801013    20.509252     6826.971     13063.63    12226.479    12298.144     372.0205    1063.8453    382.10095   -2155.6164 
17303000    259.95199   -3885.0258    -3439.477   -3885.0258            0    9821.3431    16.864395    19.864029    20.574522    6892.3585    10214.418    10936.349    8313.2626    786.64561    198.52876    421.87335   -2452.2554 
17304000    282.68683   -3867.0186   -3382.5031   -3867.0186            0    9679.1482    16.872073    19.873073    20.583889    6901.7764    10587.063    8784.1671     9666.214   -185.69048   -594.38838   -36.446063   -2408.2452 
17305000    252.46237    -3817.328   -3384.6161    -3817.328            0    11005.877    16.793377     19.78038    20.487881    6805.6517    13721.728     11346.56    7949.3436    883.56282    913.22623   -1329.6266   -2292.2448 
17306000    284.87222   -3823.6148   -3335.3535   -3823.6148            0    9975.2158    16.841552    19.837123    20.546654    6864.3891    11623.558    9461.0102    8841.0792   -31.220201   -132.71441    2277.7629   -2336.7339 
17307000    274.06394   -3843.5202    -3373.784   -3843.5202            0    11587.756    16.801879    19.790394    20.498253    6815.9935        10490    13356.387     10916.88   -606.88198    500.40289   -268.45041   -2221.9116 
17308000    265.20387   -3864.0487   -3409.4984   -3864.0487            0    8865.9939    16.857977     19.85647    20.566692    6884.4926    9467.2154    7791.4785    9339.2878   -23.434051    1094.9303   -93.457146   -2519.3237 
17309000    260.91414   -3819.1461   -3371.9482   -3819.1461            0    11942.596     16.81871    19.810219    20.518787    6836.4976    11933.742     13110.81    10783.237   -1563.9815    491.60608   -555.73845   -2181.2319 
17310000    265.90955   -3884.0497   -3428.2898   -3884.0497            0     12101.01    16.782484     19.76755    20.474591    6792.4168    12723.767    11043.916    12535.346    110.52592   -1400.2016   -153.80775   -2229.5586 
17311000    259.40613   -3850.4284   -3405.8151   -3850.4284            0    11189.897    16.835389    19.829865    20.539136    6856.8567    10122.455    12458.824    10988.411   -1650.3844   -308.99437   -183.57155   -2286.8229 
17312000    262.09539    -3824.878   -3375.6555    -3824.878            0    10809.632    16.863735    19.863252    20.573717    6891.5497    11329.523    11235.223    9864.1495    55.186812   -628.24397   -1698.8067   -2289.2207 
17313000    296.82862    -3856.997   -3348.2429    -3856.997            0    9758.5693    16.847154    19.843722    20.553489    6871.2419     9457.696    8492.2648    11325.747     1338.111   -680.27999   -864.11589   -2370.3365 
17314000    268.43367   -3834.0212   -3373.9351   -3834.0212            0    13001.833    16.809807    19.799732    20.507925    6825.6463    12528.886    13189.152     13287.46    1118.1155    1464.8378   -913.86468    -2079.667 
17315000    253.97161   -3877.2092   -3441.9105   -3877.2092            0    10355.852    16.831952    19.825817    20.534943    6852.6583    10187.848    9763.0276    11116.681    517.31844    -887.6176   -545.64023   -2406.9571 
17316000    280.58796   -3836.4504   -3355.5323   -3836.4504            0    11756.897    16.818552    19.810032    20.518594    6836.3041    11796.336        13448    10026.357   -522.37074   -2000.3077    698.63377   -2183.3639 
17317000    260.56689   -3881.4733   -3434.8705   -3881.4733            0    8641.8345    16.881061     19.88366    20.594855    6912.8133    9459.9842     9048.104    7417.4153   -213.91398   -1381.9905    271.91494   -2563.6328 
17318000     268.0959   -3842.8874   -3383.3802   -3842.8874            0    11269.643    16.807877    19.797459    20.505571    6823.2956    10934.912    11819.962    11054.055    1791.4082    937.96481    2412.6133   -2261.9294 
17319000    255.24329   -3868.8887   -3431.4104   -3868.8887            0     9108.549    16.831039     19.82474    20.533828    6851.5422    8876.0858    9245.2826    9204.2787    909.76007   -1532.4705    84.465994   -2521.2595 
17320000    263.38337   -3831.8713   -3380.4412   -3831.8713            0    9773.0932    16.848487    19.845292    20.555114    6872.8726    9683.5799    11338.054     8297.646   -1504.5381   -67.685921    378.07599    -2400.847 
17321000    271.39413   -3845.4669   -3380.3066   -3845.4669            0    10976.095    16.766254    19.748432     20.45479     6772.729    11701.006    13143.181    8084.0968   -149.03209    346.77574   -2989.5808   -2296.1615 
17322000    283.91722    -3794.375   -3307.7506    -3794.375            0     12708.59     16.81921    19.810807    20.519397    6837.1065    12682.212    12907.983    12535.575     60.94277    304.45063    -51.87148   -2040.5493 
17323000    264.37084   -3832.7834   -3379.6609   -3832.7834            0    11073.224     16.80358    19.792398    20.500328    6818.0635    10710.202     11004.64     11504.83    1266.9972   -1683.3595    243.96354   -2278.6008 
17324000      274.909   -3859.4601   -3388.2755   -3859.4601            0    13428.901    16.753035    19.732863    20.438664    6756.7227    13374.866    12693.778    14218.058   -357.19245    13.058521   -443.42925   -2064.9933 
17325000    275.80747   -3877.3353   -3404.6107   -3877.3353            0      10565.9    16.781995    19.766973    20.473995    6791.8228    11970.456     9401.245        10326    1162.6185   -479.78699    -1034.823   -2358.0396 
17326000    267.67568   -3846.9872   -3388.2002   -3846.9872            0    11527.175    16.818183    19.809599    20.518144     6835.855    10586.315    12058.645    11936.565    -1880.451    162.73656   -2275.2304   -2239.0108 
17327000    261.91579   -3846.8842   -3397.9695   -3846.8842            0    12964.268    16.715607    19.688777    20.393001    6711.5378    13469.279    12064.846     13358.68   -808.91344    1176.7983   -274.84079   -2129.0154 
17328000    278.70575   -3802.4874   -3324.7952   -3802.4874            0    11645.876    16.790734    19.777266    20.484656    6802.4383    10618.995    12383.846    11934.787   -652.68628    944.47338    1272.4302   -2169.4477 
17329000    279.61666   -3848.8127   -3369.5593   -3848.8127            0    11025.112    16.829666    19.823123    20.532153    6849.8655    13285.509    9050.5677     10739.26    1254.3499   -1221.4112    519.40488   -2268.1697 
17330000    288.95341   -3814.9507   -3319.6945   -3814.9507            0    11374.044    16.849425    19.846398     20.55626    6874.0214    11369.757    11485.077      11267.3   -1127.5397   -1053.9058    659.78746   -2179.4403 
17331000    274.60204   -3821.5002   -3350.8417   -3821.5002            0    10910.002    16.820944     19.81285    20.521512    6839.2213    12479.059    10753.066    9497.8812    1034.0527    489.86824   -131.07415   -2262.6451 
17332000    270.11579   -3866.8696   -3403.9004   -3866.8696            0    10449.023    16.865362    19.865169    20.575703    6893.5452    11108.071    11664.672    8574.3261    559.32318    2796.0205   -545.93405   -2353.4049 
17333000    256.55394   -3836.5053   -3396.7806   -3836.5053            0    12766.517    16.823645    19.816031    20.524807    6842.5165     13178.62    14136.748    10984.184    728.84792   -837.82738   -1557.2062    -2122.796 
17334000    278.70959   -3823.8979   -3346.1992   -3823.8979            0     10080.28    16.872821    19.873954    20.584802     6902.695     11549.04    8922.6461    9769.1523    485.01594   -662.10663    837.22984   -2331.4303 
17335000     270.5761   -3866.3784   -3402.6202   -3866.3784            0    13149.602    16.777054    19.761153    20.467967    6785.8255     13819.61    15818.143    9811.0529   -3146.5395    1482.3794   -458.06079    -2101.279 
17336000    265.17967   -3859.2485   -3404.7397   -3859.2485            0    11811.162    16.799697    19.787824    20.495592    6813.3384    10680.869     12208.54    12544.077   -244.18113    732.44813   -623.69548    -2231.117 
17337000    256.42882   -3864.1422    -3424.632   -3864.1422            0    11518.715    16.834331    19.828618    20.537845    6855.5638    11007.531    13927.735     9620.878    569.21002   -8.3040462    136.69976   -2272.9752 
17338000    272.59173   -3786.9116   -3319.6987   -3786.9116            0    14136.345    16.781375    19.766243    20.473238      6791.07    11919.014    14893.302    15596.718   -723.74384    717.35763   -778.31953    -1919.624 
17339000    258.55202   -3855.6881   -3412.5388   -3855.6881            0    11473.241    16.796181    19.783683    20.491302    6809.0615    9724.5427    11959.396    12735.783    1494.0454   -838.97325 -0.096962967   -2273.2095 
17340000    281.19388   -3846.1879   -3364.2312   -3846.1879            0    12880.947      16.7578    19.738475    20.444477      6762.49    12307.996     12527.48    13807.364    911.21746   -1028.7592   -384.52996    -2093.861 
17341000     256.2216   -3847.9609   -3408.8059   -3847.9609            0    12130.217     16.83186    19.825708     20.53483    6852.5452    11555.846    13751.495    11083.311   -1503.0958    1067.0326   -1169.8457   -2196.5442 
17342000     279.9682   -3836.1879    -3356.332   -3836.1879            0    10322.271    16.825596     19.81833    20.527188    6844.8982     11118.59    9570.2173    10278.005   -497.48256    272.59547   -275.93924   -2325.9029 
17343000    256.75599   -3846.5027   -3406.4317   -3846.5027            0    9874.0757    16.852021    19.849455    20.559427    6877.1988    10172.722    11103.558    8345.9473   -1194.6141    325.35863   -2482.3121   -2416.0926 
17344000    261.81541     -3861.53   -3412.7873     -3861.53            0    8873.1273    16.926088    19.936696    20.649788    6968.2765    8167.4395    7351.4807    11100.462   -354.04756    116.35209    1713.5954   -2511.0543 
17345000    269.55841   -3856.4827   -3394.4688   -3856.4827            0     9652.798       16.865    19.864742    20.575261    6893.1009    10943.386     8936.525    9078.4831   -243.23245   -15.541363    314.54208   -2424.0845 
17346000    277.64957   -3842.3826   -3366.5007   -3842.3826            0    11531.584    16.841349    19.836884    20.546406    6864.1413     10679.59    12334.523    11580.637    1318.6175   -923.62814    -425.8623   -2212.1147 
17347000    275.14214   -3849.8143   -3378.2301   -3849.8143            0    12103.602      16.8343    19.828582    20.537807    6855.5262    12202.141    12930.753    11177.913    2016.0211   -712.91274   -53.364939   -2168.1021 
17348000    256.01558    -3860.084    -3421.282    -3860.084            0    9744.7331    16.858112     19.85663    20.566858    6884.6588    11726.843    9624.9166    7882.4397      -387.83    -2365.388   -368.60005   -2442.8554 
17349000    264.27507   -3848.8132   -3395.8547   -3848.8132            0    11187.004      16.8169    19.808086    20.516578    6834.2896    9547.4893    12011.216    12002.307    388.01454   -635.21742    630.37924   -2280.8337 
17350000    270.77525   -3877.9882   -3413.8887   -3877.9882            0    11988.316    16.823819    19.816236    20.525019    6842.7286    12097.069    12997.581    10870.298    1105.1528    1313.9008    43.784014   -2217.5246 
17351000    260.43225   -3840.0775   -3393.7056   -3840.0775            0    13188.062     16.73614    19.712963    20.418052    6736.3013    13528.031    14929.291    11106.865    863.47179    1676.8385    1213.6784   -2098.0833 
17352000    269.86557     -3826.49   -3363.9496     -3826.49            0    11028.652    16.822122    19.814237    20.522949    6840.6585    10737.714    10704.043    11644.198    2038.6244    615.77915    31.409164   -2263.6873 
17353000    271.02196   -3827.0901   -3362.5677   -3827.0901            0    10834.565    16.798677    19.786623    20.494347    6812.0972    12215.047    8814.3874     11474.26   -77.679169    1128.8633    1258.4777   -2286.1813 
17354000    277.99535   -3860.0047   -3383.5302   -3860.0047            0    11496.032    16.805183    19.794285    20.502284    6820.0147    11359.036    12680.942    10448.117    1778.0619    1802.9787    486.66164   -2240.1014 
17355000    269.96441   -3822.9761   -3360.2664   -3822.9761            0    11837.115    16.796855    19.784476    20.492123    6809.8802    11191.431    10163.165    14156.748   -1013.0082    601.73908    469.04599   -2184.6619 
17356000    254.79554   -3860.3336   -3423.6228   -3860.3336            0    10138.904    16.790018    19.776423    20.483782     6801.568    8475.8478     11780.38    10160.484    227.50456   -1426.7501   -268.94001   -2417.9055 
17357000    259.81737   -3861.4539   -3416.1358   -3861.4539            0    11342.299    16.780783    19.765546    20.472517     6790.352    12963.065    10964.959    10098.872   -265.02911   -349.97485   -2278.3208   -2292.9044 
17358000    270.10336   -3844.2389   -3381.2909   -3844.2389            0    12586.968    16.775864    19.759752    20.466515    6784.3822    12450.083    12085.548    13225.274   -180.94062    1325.5269    1190.0917   -2135.8953 
17359000    262.58379    -3842.492   -3392.4324    -3842.492            0    12099.591    16.750089    19.729392    20.435069     6753.158    11812.132    11769.915    12716.727    1892.7858   -57.146077    -1325.088   -2200.7693 
17360000    265.62099    -3839.083   -3383.8177    -3839.083            0    8820.0784    16.859573     19.85835    20.568639    6886.4481    9881.4515    6818.4154    9760.3684   -1268.8052    1345.8592   -530.59207   -2498.0015 
17361000    271.20644   -3852.1869   -3387.3483   -3852.1869            0    9293.5504    16.913242    19.921565    20.634116    6952.4228     10014.71    8416.4142    9449.5264    129.14043   -1344.5716    897.18144   -2445.0385 
17362000    276.50696   -3846.9067   -3372.9832   -3846.9067            0    10817.849    16.812957    19.803442    20.511768     6829.484    8449.7412     11718.67    12285.136   -1358.7619    2883.6442   -1367.0351   -2295.5144 
17363000    271.87151   -3848.5951   -3382.6166   -3848.5951            0     11130.86    16.772782    19.756121    20.462755    6780.6431    9201.6235    10698.869    13492.089    474.84797    -36.26407   -1396.1271   -2281.9001 
17364000    284.41081    -3836.595   -3349.1246    -3836.595            0    13028.273    16.773134    19.756537    20.463185    6781.0707    12393.315    14413.494    12278.009    1065.2816   -492.88784   -50.103839   -2060.6941 
17365000    286.64023   -3843.1584   -3351.8668   -3843.1584            0    11420.985     16.77591    19.759807    20.466572    6784.4382    13564.969    10649.604    10048.381    1319.0742   -66.553402   -3664.3289   -2221.8281 
17366000     267.9068   -3836.3428   -3377.1597   -3836.3428            0    10914.044    16.787312    19.773237    20.480482    6798.2809    10677.183    10771.869    11293.078   -340.71116   -145.62505   -148.15944   -2295.0765 
17367000    250.87713   -3830.9019   -3400.9071   -3830.9019            0    8260.1406    16.877581    19.879561     20.59061     6908.539    6521.6153     10235.46    8023.3459    54.307559    2006.9679   -1918.6609   -2568.6652 
17368000    270.60267   -3827.3482   -3363.5445   -3827.3482            0    11741.863    16.739583    19.717018    20.422253    6740.4598    12424.147    10361.521     12439.92    400.43441   -2073.1718    375.05549   -2209.2878 
17369000    272.86922   -3815.3867   -3347.6982   -3815.3867            0    11578.454    16.900819    19.906932    20.618959    6937.1139    12600.279    12203.185     9931.898    1913.9953     13.99147    661.99779    -2176.298 
17370000    270.33828   -3855.2673   -3391.9167   -3855.2673            0    10677.532    16.867703    19.867927    20.578559    6896.4161    8707.3953    11386.134    11939.066   -724.66842    -181.3913    1107.9044    -2318.001 
17371000    265.73544   -3842.1466   -3386.6852   -3842.1466            0    11861.964    16.828758    19.822054    20.531045    6848.7573    11640.262     13065.09    10880.541   -747.13423    96.894671    598.07539   -2201.8873 
17372000    281.56456    -3835.479   -3352.8869    -3835.479            0    9064.8051    16.848503    19.845311    20.555134    6872.8925    8846.0851    9620.6938    8727.6364   -835.54679   -297.26418   -546.64403   -2444.2845 
17373000    258.14767   -3840.6367   -3398.1804   -3840.6367            0    12458.797    16.789257    19.775527    20.482854    6800.6433    11253.147    14385.305    11737.939    1101.4314   -974.19307   -156.30021   -2162.5119 
17374000    280.71617   -3848.4597   -3367.3218   -3848.4597            0     10110.55    16.860491    19.859431     20.56976    6887.5735    9816.8937    9965.9227    10548.832   -1808.1523    348.35271    1480.3019   -2351.7354 
17375000     280.6788   -3813.9789   -3332.9051   -3813.9789            0    13809.882    16.783155     19.76834     20.47541    6793.2319    14390.771    14733.162    12305.714   -126.08667    1388.5897    77.507738    -1964.728 
17376000    272.98058   -3829.2878   -3361.4084   -3829.2878            0    11327.307    16.822165    19.814289    20.523003    6840.7117    10018.643    12089.395    11873.882    -2168.362    802.40362   -368.80927   -2231.3423 
17377000    271.73757   -3822.2059    -3356.457   -3822.2059            0     11313.92    16.842247    19.837942    20.547502    6865.2394    12256.008    12050.836     9634.916    422.57106   -97.515926    105.27425   -2223.6794 
17378000     270.4497   -3815.0799   -3351.5384   -3815.0799            0     11128.84    16.755392    19.735639    20.441539    6759.5746    9387.7527    11228.343    12770.426    539.62835    66.992206    -1526.927    -2254.441 
17379000    277.17231   -3823.7505   -3348.6866   -3823.7505            0    8642.2367    16.835099    19.829523    20.538781    6856.5018     8538.281    6610.0758    10778.353    1609.6566    1195.7713   -370.23998   -2484.5058 
17380000    260.98784   -3838.3631   -3391.0389   -3838.3631            0    12566.401    16.713397    19.686175    20.390306    6708.8767     13509.21     12164.84    12025.154    1058.6694   -156.18512   -453.58597    -2161.516 
17381000    264.59322   -3845.5677   -3392.0639   -3845.5677            0    11084.266    16.763326    19.744984    20.451219     6769.182    11844.274    9602.2405    11806.284   -154.81763     -377.048    1876.7116   -2297.8077 
17382000    262.09951   -3787.8263   -3338.5967   -3787.8263            0    12398.228    16.769284    19.752002    20.458488     6776.402    12265.535    12266.892    12662.256    775.65211   -1009.8007    -277.1052   -2113.3187 
17383000       253.89   -3818.7324   -3383.5736   -3818.7324            0    8364.7066     16.87441    19.875826    20.586741    6904.6454    5709.9389    11170.135    8214.0462   -2387.2396   -872.08406    244.03855   -2541.2713 
17384000    251.95803   -3835.1291   -3403.2816   -3835.1291            0     10897.74    16.868583    19.868963    20.579632    6897.4954    12378.308     11187.16    9127.7531    1149.3807   -552.67345    370.93188   -2307.0464 
17385000    247.93964   -3831.9432   -3406.9832   -3831.9432            0    10652.715    16.795746     19.78317    20.490771     6808.532    10530.455    11046.451    10381.238   -1629.8931    545.33883    241.33988    -2349.217 
17386000    265.42419   -3814.1641   -3359.2362   -3814.1641            0    10194.414    16.870319    19.871007    20.581749    6899.6242    7347.2825    12103.359    11132.602   -1619.6199   -292.85172   -377.42649    -2333.434 
17387000    267.64738   -3867.2733   -3408.5349   -3867.2733            0    11297.923    16.829779    19.823257    20.532292    6850.0046     12966.23    9591.3009    11336.237   -968.01325    754.81181    1353.7622   -2279.8691 
17388000    270.20338   -3838.9115   -3375.7921   -3838.9115            0    11268.708    16.827281    19.820314    20.529243    6846.9542    10976.577    10335.872    12493.675   -638.67716    1299.9772    -4.497441   -2250.5462 
17389000    242.92287    -3818.191   -3401.8295    -3818.191            0    13178.843     16.79506    19.782362    20.489934    6807.6978    14313.696    11991.271    13231.562   -495.73013   -469.28073    222.92307   -2093.3906 
17390000    275.26465   -3827.0207   -3355.2266   -3827.0207            0    12120.892    16.812313    19.802684    20.510983    6828.6994    12030.968     12541.12    11790.587    391.68217    285.71435   -1545.6981   -2148.1121 
17391000    268.97784     -3872.69   -3411.6712     -3872.69            0    10651.427    16.870477    19.871194    20.581943    6899.8191    10017.728    11216.361    10720.191   -550.80386    206.31664   -1040.5916   -2339.8523 
17392000    253.21943   -3825.1843   -3391.1749   -3825.1843            0    11298.904    16.865944    19.865855    20.576413    6894.2587    12029.953    9246.5565    12620.202    453.83359   -521.26356    385.06186   -2255.1188 
17393000    259.50885   -3834.6573    -3389.868   -3834.6573            0    12773.154    16.873466    19.874714    20.585589    6903.4867    12945.338    10616.702    14757.422   -753.04134    1077.7326    422.49868   -2103.8634 
17394000    271.25806    -3830.507     -3365.58    -3830.507            0    11708.709    16.796249    19.783763    20.491385    6809.1441    9874.6144    12383.431    12868.081   -1158.1948   -79.355433    687.95025   -2202.8539 
17395000    268.86998   -3816.8287   -3355.9947   -3816.8287            0    10075.534     16.86479    19.864495    20.575004    6892.8433    11916.581    9181.2008    9128.8211    586.36868    1202.9789   -2194.0194   -2343.1511 
17396000    271.63289   -3868.8669   -3403.2974   -3868.8669            0    8231.4189    16.860705    19.859683     20.57002    6887.8354    8250.4723    10880.307    5563.4776   -287.23112    508.75612   -127.07833   -2576.4348 
17397000    248.43025   -3864.3719    -3438.571   -3864.3719            0    12843.321    16.854996    19.852959    20.563056    6880.8417    14971.533    14398.164    9160.2649   -442.60145    407.13597    125.72376   -2149.7435 
17398000    266.77744   -3858.7152   -3401.4678   -3858.7152            0    13867.214    16.751373    19.730905    20.436636    6754.7118    14363.935    14313.527    12924.178   -39.093943   -417.58537    -1676.843    -2035.401 
17399000    269.33941   -3780.7818   -3319.1433   -3780.7818            0    10796.349    16.807257    19.796729    20.504815    6822.5409    9674.2359    11189.751     11525.06   -920.75448    1290.5966     182.7792   -2244.9092 
17400000    271.12357   -3828.9402   -3364.2437   -3828.9402            0        12492    16.797357    19.785068    20.492736    6810.4915    14433.502      13081.4    9961.0992    271.50484    281.60199    1135.4154   -2123.4878 
17401000    273.39544   -3818.2321   -3349.6416   -3818.2321            0    10360.549    16.847942    19.844651     20.55445    6872.2063    10473.945    11188.273     9419.431   -831.86692     325.8838   -107.68453   -2311.2651 
17402000    269.23789   -3871.6168   -3410.1523   -3871.6168            0    12167.106    16.828801    19.822104    20.531097    6848.8095    12757.498    13010.409     10733.41   -691.91482   -1242.2141   -80.207407   -2194.8669 
17403000    265.81453   -3833.0884   -3377.4914   -3833.0884            0     11361.31     16.88058    19.883093    20.594268     6912.222    11513.221    11034.871    11535.839    668.12506   -1165.8521    1208.8989   -2232.1842 
17404000    262.34307   -3847.0214   -3397.3743   -3847.0214            0    10083.338    16.874369    19.875778    20.586691    6904.5952    11096.522    10316.679    8836.8141   -1287.4189   -223.79927    556.64731   -2382.0181 
17405000    262.66335   -3845.9725   -3395.7766   -3845.9725            0    11133.893    16.853729    19.851466     20.56151    6879.2894    11607.204    10129.535    11664.941   -722.94462     611.6293   -937.76101   -2278.7422 
17406000    250.89055   -3875.5637   -3445.5459   -3875.5637            0    9424.2438    16.891317     19.89574    20.607367    6925.4201    7507.5087    11681.195    9084.0273    -931.4931   -1829.6657    118.97144   -2493.6959 
17407000    265.44867   -3838.2616   -3383.2917   -3838.2616            0    13024.024    16.739409    19.716813     20.42204    6740.2493    12707.243      13041.8    13323.029   -242.40261   -1032.5288    1221.3745    -2103.035 
17408000    271.38793   -3855.0329   -3389.8832   -3855.0329            0    12287.889    16.789336     19.77562    20.482951      6800.74     14286.14    10513.103    12064.423    514.53568    381.90985    296.06461   -2171.1481 
17409000    260.72965    -3833.758   -3386.8763    -3833.758            0    10726.514    16.814925    19.805761    20.514169    6831.8826    10886.046    9865.6966    11427.799    -341.8004   -687.36183   -1625.9321   -2318.1294 
17410000    278.88542   -3813.3435   -3335.3434   -3813.3435            0    11817.602    16.816251    19.807323    20.515788    6833.4996    13431.231    10359.088    11662.487   -1654.8773    888.35595   -2603.7507   -2157.6061 
17411000    268.47332   -3856.7473   -3396.5932   -3856.7473            0    11043.666    16.784438    19.769851    20.476975    6794.7894    12179.406    9492.7176    11458.875   -80.726191    307.06463   -503.75829   -2302.2208 
17412000    262.40807   -3839.4595    -3389.701   -3839.4595            0    10296.596    16.866634    19.866666    20.577254    6895.1039    12187.558    10199.126    8503.1046    397.87551   -1843.0808   -280.16436   -2354.2957 
17413000    253.10818   -3827.9927    -3394.174   -3827.9927            0    10879.431     16.89844     19.90413    20.616058    6934.1853    11183.377    10207.358    11247.557     377.3228   -671.38238    370.50395   -2293.9591 
17414000    273.60179   -3850.5997   -3381.6556   -3850.5997            0    12155.633    16.752334    19.732037    20.437809    6755.8745    13622.782    13400.431     9443.687   -234.71287   -655.98107   -629.31975   -2183.9915 
17415000     260.0168   -3837.0844   -3391.4245   -3837.0844            0    10833.484    16.857444    19.855842    20.566042    6883.8394    10875.661    10722.278    10902.512   -1916.7346   -1097.0342   -732.28185   -2303.8105 
17416000    268.02433   -3826.6613   -3367.2767   -3826.6613            0    9749.0511    16.875024     19.87655     20.58749    6905.3996    12923.664    7820.7384    8502.7508   -1225.7401   -529.05066    1994.1787   -2385.4676 
17417000    260.47638   -3853.8303   -3407.3827   -3853.8303            0    14120.016    16.732128    19.708237    20.413157    6731.4579    13341.874    13969.119    15049.056    722.97227   -1360.8527    902.41065   -2021.2008 
17418000    280.54043   -3828.8414   -3348.0047   -3828.8414            0    10389.665    16.797567    19.785315    20.492993    6810.7471     11738.31    8812.1814    10618.502    530.68936    1726.3095   -218.90922   -2316.0225 
17419000    283.58429   -3851.5587   -3365.5049   -3851.5587            0    9896.7824    16.887172    19.890858    20.602311    6920.3236    10297.723     9241.994     10150.63   -460.15225   -36.129571    2005.4126    -2366.664 
17420000    267.85598   -3850.6552   -3391.5592   -3850.6552            0    9176.1885    16.905351     19.91227    20.624488    6942.6957    11089.381    7147.3717    9291.8123     225.5304    797.66538       1620.1   -2462.4509 
17421000    276.34562    -3861.898   -3388.2511    -3861.898            0    11587.172    16.845028    19.841218    20.550895    6868.6405    10479.524    11995.266    12286.726   -193.45353   -470.86792    1140.8796     -2227.54 
17422000    271.82706   -3852.0636   -3386.1613   -3852.0636            0    11555.975    16.829909     19.82341     20.53245    6850.1628    12403.595     13474.76    8789.5694    1115.5588    573.99112   -1526.2523   -2231.6894 
17423000    262.87806   -3821.5824   -3371.0184   -3821.5824            0    11097.904    16.780622    19.765356     20.47232    6790.1559    9724.7535    10649.797    12919.162    1426.4063   -997.28254   -621.58686   -2272.0211 
17424000    255.68927   -3824.6553   -3386.4126   -3824.6553            0    11413.634    16.814422    19.805168    20.513556    6831.2695     9775.227    11407.597    13058.078   -955.19999   -1638.6353    205.28453   -2249.3058 
17425000    287.06139   -3867.0614    -3375.048   -3867.0614            0    11406.881    16.818673    19.810175    20.518741    6836.4516    10581.462    10610.156    13029.026   -2189.0963   -1897.7718       1373.6   -2237.7519 
17426000    267.77984   -3858.6974   -3399.7319   -3858.6974            0    11063.443    16.768798    19.751429    20.457894    6775.8121    13115.818    9664.1225    10410.389    342.32637    946.75146    976.38634   -2306.4616 
17427000    279.20778   -3848.8706    -3370.318   -3848.8706            0    11381.624    16.788845    19.775042    20.482352     6800.143    10557.705    9682.1689    13904.999    1096.9753    142.66283    412.58088   -2241.5669 
17428000    266.36523    -3812.927   -3356.3861    -3812.927            0    11091.027    16.849398    19.846366    20.556227    6873.9883    13310.297    9933.4177    10029.367    1585.1589   -465.30857   -564.54489   -2244.5099 
17429000    275.20469   -3847.7871   -3376.0957   -3847.7871            0    9801.3858    16.836114    19.830719     20.54002    6857.7428    8324.1429    8761.8343     12318.18   -586.92158   -140.50026   -569.23597   -2395.8283 
17430000    256.37859   -3818.6438   -3379.2197   -3818.6438            0    10904.219    16.868007    19.868284    20.578929    6896.7883    10498.899    11821.041    10392.718    1867.5038    261.21238    2202.3104   -2282.4452 
17431000    277.45386   -3845.2904    -3369.744   -3845.2904            0    14790.393    16.770313    19.753214    20.459743    6777.6497    15578.226    13772.788    15020.164    203.55609   -1027.4363    1860.6476   -1907.7866 
17432000    280.60568   -3834.5382   -3353.5897   -3834.5382            0    12768.582    16.784703    19.770163    20.477298    6795.1108    13526.091     12351.62    12428.036   -1662.3248    804.37553     1115.283   -2088.2267 
17433000    257.39475   -3853.5019   -3412.3361   -3853.5019            0    11324.543    16.795501    19.782882    20.490472    6808.2342    10440.009     12557.82      10975.8    511.25271    876.21707   -1693.3791   -2287.9096 
17434000    265.08205   -3859.5322   -3405.1907   -3859.5322            0    9248.9741    16.822436    19.814607    20.523332    6841.0414    9374.1839    9367.4315     9005.307    875.73741    1.6189566   -370.95663   -2482.4245 
17435000    276.64504    -3812.634   -3338.4739    -3812.634            0    11004.233    16.772158    19.755387    20.461994    6779.8868    10190.369    12774.779    10047.551    446.87596    1020.0481    739.77817   -2250.4007 
17436000    269.08189   -3832.8161    -3371.619   -3832.8161            0    9959.7066    16.834016    19.828247     20.53746    6855.1788    10981.183    9453.7804    9444.1566    590.74107   -1331.5743   -985.19888   -2375.8898 
17437000    262.52518   -3847.4139   -3397.4547   -3847.4139            0    11312.641     16.79067    19.777191    20.484578    6802.3607    11576.102    11950.309    10411.511    1850.2959    124.83851    2008.8106   -2275.1791 
17438000    278.59343   -3846.8052   -3369.3056   -3846.8052            0    13240.175    16.786594     19.77239    20.479605    6797.4077    11599.067    13826.722    14294.736   -402.19782    485.47259     184.9689   -2056.7645 
17439000    266.11516   -3900.0335   -3443.9212   -3900.0335            0    10517.571    16.813755    19.804383    20.512742    6830.4568    8940.7221    11409.006    11202.985   -1734.9041   -2416.0588   -229.20745   -2396.2112 
17440000    277.13484   -3834.1233   -3359.1237   -3834.1233            0    10905.146    16.806894    19.796302    20.504372    6822.0988    10742.376    12107.819    9865.2426   -830.16358   -127.96488   -776.05581   -2274.1346 
17441000    274.48963   -3862.3064   -3391.8406   -3862.3064            0    9208.9398     16.82445    19.816979    20.525789    6843.4988    8664.1374     10771.67    8191.0116     81.80722    545.92633   -858.58217   -2472.7386 
17442000    270.68611   -3859.4394   -3395.4926   -3859.4394            0    9433.5889    16.876037    19.877742    20.588725    6906.6424     9458.591    9629.0526    9213.1232    1652.8495    301.34943    259.48531   -2445.2822 
17443000    254.64449   -3820.2541   -3383.8022   -3820.2541            0    9370.5542    16.883369    19.886378    20.597671    6915.6487     10338.76    9381.5192    8391.3834    123.99534     636.8974    1289.8671   -2438.7101 
17444000    275.58263   -3808.2091   -3335.8699   -3808.2091            0    12591.253    16.802517    19.791146    20.499032    6816.7702    12952.057    13299.243    11522.459   -2028.1866    -515.7407    714.08209    -2084.103 
17445000    272.14217   -3856.7268   -3390.2844   -3856.7268            0    11872.215    16.813636    19.804242    20.512596    6830.3112    12072.089    13265.771    10278.784   -1129.9289   -174.70407    1230.9195   -2207.6565 
17446000    263.28003   -3829.0794   -3377.8264   -3829.0794            0     10186.54    16.853627    19.851347    20.561386    6879.1654    10200.553    9859.3288    10499.739   -496.78066   -122.96768    289.52001   -2355.8559 
17447000      269.991   -3841.9008   -3379.1455   -3841.9008            0    10557.223    16.799615    19.787727    20.495491    6813.2381    9705.7623    12128.199    9837.7094   -392.43335    -208.0755    1343.4083   -2330.1366 
17448000    281.99815    -3867.125   -3383.7898    -3867.125            0    9893.3491    16.832566    19.826539    20.535691    6853.4073    11696.374    7840.6087    10143.064    988.99085    31.861438   -749.30656   -2394.9504 
17449000    280.81368   -3823.5879   -3342.2828   -3823.5879            0    11392.187    16.821237    19.813195     20.52187    6839.5791    12749.723    8997.8222    12429.015     442.0904   -710.85819   -709.40723   -2205.9322 
17450000    272.95212   -3851.0451   -3383.2145   -3851.0451            0    11408.041    16.846573    19.843038     20.55278     6870.531    12190.738    9308.2835    12725.102    50.329237   -10.953996    124.93459   -2240.1328 
17451000     266.8777   -3806.3626   -3348.9434   -3806.3626            0    12055.072    16.798155    19.786008     20.49371     6811.462    11927.721    12396.392    11841.104    727.39455   -59.587241    -139.3176   -2151.4144 
17452000    275.64846   -3834.1234   -3361.6713   -3834.1234            0    10237.035     16.87125    19.872103    20.582885    6900.7666    10576.151    9173.6026    10961.351   -278.53043   -1560.6143    387.39935     -2331.41 
17453000    257.49316   -3842.3435   -3401.0091   -3842.3435            0    10100.552    16.819809    19.811514    20.520128    6837.8379    9789.1738    9987.3426    10525.141   -611.19858    193.08341    21.166611   -2393.7532 
17454000    261.24474   -3856.8586    -3409.094   -3856.8586            0    10190.306    16.815575    19.806526    20.514962    6832.6744    9163.9249    12111.431    9295.5615   -962.34797   -1053.2757    267.82223    -2393.655 
17455000    258.82032   -3867.5529   -3423.9437   -3867.5529            0    9839.1815    16.829096    19.822452    20.531458    6849.1704    9040.9353    9839.5852    10637.024   -2106.9724    161.44206   -1727.5672   -2441.1264 
17456000    268.00006    -3867.893   -3408.5501    -3867.893            0    10474.519    16.856552    19.854792    20.564954    6882.7475    8201.0228    10644.672    12577.863    475.41329    791.92163    564.63087   -2357.1407 
17457000    267.94102   -3826.8056   -3367.5639   -3826.8056            0    12289.715    16.739854    19.717337    20.422583    6740.7866    12627.862    12219.183    12022.099    1876.1006    1927.2597   -345.16992   -2159.3932 
17458000    274.42713   -3829.6145   -3359.2558   -3829.6145            0    10629.319     16.80153    19.789983    20.497827    6815.5683    10807.054    9779.2428    11301.661    37.892485   -842.78564   -1607.3151   -2302.7219 
17459000    265.16258   -3843.6725   -3389.1929   -3843.6725            0    11380.765    16.836706    19.831416    20.540742    6858.4658      12209.3    12714.695    9218.2987    34.685069    -1836.099    1081.1813   -2250.8469 
17460000    278.38393   -3831.8307   -3354.6902   -3831.8307            0    11190.238    16.833282    19.827383    20.536565    6854.2827     12024.08    10539.605     11007.03   -286.80349    1430.3777   -158.27829   -2236.0839 
17461000    266.24627   -3844.3679   -3388.0309   -3844.3679            0    12294.805    16.827815    19.820943    20.529895    6847.6063    12062.786    12728.482    12093.148   -189.39071   -428.74197    2238.7103   -2160.2063 
17462000    261.22776   -3820.3625    -3372.627   -3820.3625            0    12497.663    16.820294    19.812084    20.520719    6838.4284    12979.002    11131.535    13382.451    1790.3917    2085.1828   -1529.2235   -2126.2168 
17463000    264.25938   -3809.5525    -3356.621   -3809.5525            0    10615.577    16.846231    19.842635    20.552363    6870.1129    11406.469     9004.083     11436.18   -227.75952   -90.666928    256.47023   -2293.0086 
17464000    258.08511   -3829.9866   -3387.6376   -3829.9866            0    11293.836     16.81861    19.810101    20.518664    6836.3747    12190.388    10563.479     11127.64     660.3447   -428.93121   -1434.2192   -2261.6251 
17465000    258.65945   -3912.0595   -3468.7261   -3912.0595            0    10767.913    16.793033    19.779975    20.487461    6805.2331    9626.2857    10602.288    12075.166   -340.25334    538.36941    -65.68905   -2400.0393 
17466000    261.14198   -3837.9562   -3390.3677   -3837.9562            0     14055.02    16.721061    19.695201    20.399656    6718.1099    13067.902    15425.855    13671.302   -1236.2548   -938.37406   -1276.8383   -2013.3027 
17467000    262.94465   -3868.7369   -3418.0588   -3868.7369            0    12318.077    16.747869    19.726777    20.432361    6750.4733    12360.417    12269.274     12324.54   -1360.5643   -737.00493    721.95951   -2205.3597 
17468000    271.99194   -3859.3809    -3393.196   -3859.3809            0     10258.72    16.794529    19.781737    20.489286    6807.0524    10162.487    10385.241    10228.432    778.35852   -1661.7354   -996.01265   -2374.7731 
17469000    269.22978   -3839.6097   -3378.1591   -3839.6097            0     11687.58    16.822924    19.815182    20.523927    6841.6366    11573.603    11568.015    11921.123   -663.37526   -301.82095   -769.42597   -2211.9927 
17470000    255.25162   -3846.5001   -3409.0075   -3846.5001            0    10563.004    16.833746    19.827929     20.53713    6854.8485    9989.5256    11937.371    9762.1157   -714.99009   -1266.2699   -323.03176   -2353.0141 
17471000    266.94874   -3865.7903   -3408.2493   -3865.7903            0    9710.7817    16.876853    19.878704    20.589721    6907.6447    12317.251    6725.8785    10089.215    434.61826    831.34986   -185.69594   -2429.9763 
17472000    272.89785   -3882.7803   -3415.0427   -3882.7803            0    12502.268    16.746251    19.724872    20.430387    6748.5175    11964.816    12492.947    13049.042   -1284.4431    535.14459   -30.129113   -2184.5669 
17473000    262.60747   -3855.1767   -3405.0764   -3855.1767            0    10348.807    16.777434    19.761602    20.468431    6786.2873    7550.9432    11732.211    11763.267    286.55855    1148.4614    472.60748   -2380.8442 
17474000    264.20108   -3813.4437   -3360.6121   -3813.4437            0    12559.272    16.749255     19.72841    20.434052    6752.1502    12664.999    13332.712    11680.107   -169.26239    981.83934    231.62044   -2123.8605 
17475000    261.82306   -3845.0921   -3396.3363   -3845.0921            0    10451.633    16.825104    19.817751    20.526588    6844.2977    9726.9656        10642    10985.932   -462.54169    154.94121   -32.433546    -2353.085 
17476000     274.5559   -3837.2146   -3366.6352   -3837.2146            0    10659.206    16.875744    19.877397    20.588368    6906.2826    11409.465    11357.947    9210.2049   -263.91018    -18.13423    38.595662   -2293.0288 
17477000    284.80976   -3802.1817   -3314.0275   -3802.1817            0    11067.859    16.811803    19.802083     20.51036    6828.0776    12446.911     12197.09    8559.5757    461.84831    1464.5455   -752.26735   -2211.8845 
17478000     274.5889   -3810.1454   -3339.5095   -3810.1454            0    13156.341    16.787509    19.773468    20.480722    6798.5196    13789.528     12166.08    13513.416    417.69871   -217.49324    645.98364   -2035.0656 
17479000    268.67897   -3783.7458   -3323.2393   -3783.7458            0    12662.637    16.798467    19.786376    20.494091    6811.8421    12772.193    13191.378    12024.341   -197.55148   -282.17201    544.18991   -2065.2857 
17480000    271.36014   -3809.2385   -3344.1365   -3809.2385            0    10698.047    16.879963    19.882367    20.593516    6911.4647    7284.0248    12710.714    12099.403    343.30567   -15.983938   -1017.0196   -2265.8095 
17481000    283.36448   -3858.2335   -3372.5564   -3858.2335            0    11381.857    16.815944    19.806961    20.515412    6833.1246    9418.8556    12282.124     12444.59    1243.4157   -54.583684   -284.03864   -2238.3076 
17482000    273.13998    -3835.952   -3367.7994    -3835.952            0    12561.414    16.724856    19.699671    20.404285    6722.6843     13619.31    11507.303    12557.629    1391.5952    533.62888   -9.4568667    -2136.235 
17483000    264.36111   -3815.0251   -3361.9192   -3815.0251            0     11955.75    16.791111     19.77771    20.485116    6802.8963    11599.348    11036.056    13231.846    542.11728    3462.7146   -1025.6912   -2175.7503 
17484000     275.9021   -3801.1371   -3328.2503   -3801.1371            0    12207.748    16.765062    19.747028    20.453336    6771.2842    13229.533    11944.038    11449.672    168.19105      516.845    543.01133   -2122.7079 
17485000    271.60773   -3841.4103    -3375.884   -3841.4103            0    10732.341    16.823921    19.816357    20.525144    6842.8535    10937.579     9877.602    11381.842    229.61429    1394.0604    656.16448   -2304.8393 
17486000    269.71553   -3803.4274   -3341.1442   -3803.4274            0    12063.387    16.806722    19.796099    20.504162    6821.8894    13468.138    11764.899    10957.124    1027.2389    681.04859    1036.2351   -2140.9547 
17487000    268.89642   -3840.9826   -3380.1033   -3840.9826            0     11308.02    16.853795    19.851545    20.561591    6879.3713    12765.632    10953.067    10205.361    759.91927    448.39093   -2364.6346   -2245.5858 
17488000    284.38591     -3846.36   -3358.9323     -3846.36            0    10485.928    16.898283    19.903946    20.615866    6933.9921    10479.515    11993.822    8984.4475    79.379656    1361.8755   -1212.1122   -2298.5411 
17489000    269.54359   -3834.0023   -3372.0138   -3834.0023            0    12968.657    16.788856    19.775055    20.482365    6800.1565    14316.248    12600.468    11989.256   -928.01706   -610.59414    265.74178   -2085.8692 
17490000    272.92167   -3828.1935   -3360.4151   -3828.1935            0    10088.626    16.808644    19.798362    20.506506    6824.2295     11941.81    8872.0165    9452.0499   -291.10916   -399.14959   -278.36813   -2356.3508 
17491000     274.5036   -3848.5937   -3378.1039   -3848.5937            0    11389.794    16.788842    19.775038    20.482348    6800.1391    11966.087    11754.741    10448.555   -2145.1745   -673.32987   -1290.2741   -2248.5433 
17492000    270.86008   -3841.5635   -3377.3186   -3841.5635            0    11949.293    16.837596    19.832464    20.541828    6859.5534    11321.116    12474.131    12052.633   -663.67447    2097.1503    585.61092   -2181.9167 
17493000    269.21737   -3792.6643    -3331.235   -3792.6643            0    13136.862    16.825956    19.818753    20.527627    6845.3366    12121.694    13054.706    14234.187   -477.35486    31.091643    2320.1755    -2019.753 
17494000     275.6168   -3831.4246   -3359.0269   -3831.4246            0    10435.053    16.822283    19.814428    20.523146    6840.8553    11444.641    10026.502     9834.016   -2578.4273   -285.89334    604.15499   -2317.9544 
17495000    278.17555   -3819.3485   -3342.5651   -3819.3485            0    10610.332    16.913518     19.92189    20.634452    6952.7631    10184.416    11967.372    9679.2067    1203.4666   -1166.7463   -69.404711    -2266.689 
17496000    266.86503    -3839.855   -3382.4575    -3839.855            0    9479.6741    16.892957    19.897671    20.609368     6927.437    9014.5107    9275.5691    10148.943     218.7403    1029.1574    229.44942   -2424.7301 
17497000    267.69331   -3831.3004   -3372.4832   -3831.3004            0    9613.6647    16.884263    19.887431    20.598761    6916.7468    9457.9614    8945.9243    10437.109   -1918.0627    104.48647   -430.66663   -2402.7177 
17498000    275.58213    -3836.716   -3364.3777    -3836.716            0    11677.198    16.847943    19.844651    20.554451    6872.2066    11229.819    10307.591    13494.184   -465.86078   -785.14854    655.90868   -2194.0412 
17499000     260.3298   -3863.0412   -3416.8449   -3863.0412            0    11726.935    16.796697    19.784291    20.491931    6809.6888    12413.798    10429.106      12337.9    531.28716    440.95553   -346.92506   -2252.2157 
17500000    278.80947   -3842.5958    -3364.726   -3842.5958            0    10381.032    16.902906     19.90939    20.621506    6939.6843    9580.6172    13673.088    7889.3922   -1000.4923   -922.15383    647.65885   -2314.0806 
Loop time of 549.767 on 64 procs for 250000 steps with 864 atoms

Performance: 78.579 ns/day, 0.305 hours/ns, 454.738 timesteps/s
99.1% CPU use with 64 MPI tasks x 1 OpenMP threads

MPI task timing breakdown:
Section |  min time  |  avg time  |  max time  |%varavg| %total
---------------------------------------------------------------
Pair    | 22.277     | 27.788     | 32.157     |  47.4 |  5.05
Bond    | 0.2811     | 0.29777    | 0.31803    |   1.2 |  0.05
Kspace  | 232.2      | 247.09     | 266.82     |  56.3 | 44.94
Neigh   | 5.7788     | 7.588      | 10.284     |  43.0 |  1.38
Comm    | 107.64     | 130.38     | 147.18     |  84.5 | 23.72
Output  | 1.7595     | 1.7648     | 1.7704     |   0.3 |  0.32
Modify  | 126.68     | 130.05     | 135.05     |  21.2 | 23.66
Other   |            | 4.799      |            |       |  0.87

Nlocal:        13.5000 ave          18 max          10 min
Histogram: 5 7 13 9 0 8 7 10 3 2
Nghost:        2284.55 ave        2320 max        2249 min
Histogram: 3 4 6 6 16 6 8 8 1 6
Neighs:        4439.30 ave        6184 max        2845 min
Histogram: 2 7 8 9 11 9 5 4 5 4

Total # of neighbors = 284115
Ave neighs/atom = 328.83681
Ave special neighs/atom = 2.0000000
Neighbor list builds = 14823
Dangerous builds = 0

unfix		3
unfix		2
unfix		1

write_data	data.final.${pid}
write_data	data.final.0
System init for write_data ...
PPPM initialization ...
  extracting TIP4P info from pair style
  using 12-bit tables for long-range coulomb (../kspace.cpp:340)
  G vector (1/distance) = 0.37461224
  grid = 24 24 24
  stencil order = 5
  estimated absolute RMS force accuracy = 0.0031212256
  estimated relative force accuracy = 9.399478e-06
  using double precision FFTW3
  3d grid and FFT values/proc = 2535 216
Last active /omp style is kspace_style pppm/tip4p/omp
WARNING: Not all mixed pair coeffs generated from mixing. Use write_data with 'pair ij' option to store all pair coeffs. (../write_data.cpp:312)

write_restart   restart.lmp.${pid}
write_restart   restart.lmp.0
System init for write_restart ...
PPPM initialization ...
  extracting TIP4P info from pair style
  using 12-bit tables for long-range coulomb (../kspace.cpp:340)
  G vector (1/distance) = 0.37461224
  grid = 24 24 24
  stencil order = 5
  estimated absolute RMS force accuracy = 0.0031212256
  estimated relative force accuracy = 9.399478e-06
  using double precision FFTW3
  3d grid and FFT values/proc = 2535 216
Last active /omp style is kspace_style pppm/tip4p/omp
Total wall time: 0:09:14
