LAMMPS data file via write_data, version 30 Jul 2021, timestep = 4500000

1008 atoms
2 atom types
672 bonds
1 bond types
336 angles
1 angle types

-3.0827352951622 14.692734294718884 xlo xhi
-0.07830946421440643 22.658308464218585 ylo yhi
0.0722610493500273 19.157736950644697 zlo zhi
-0.11204180415543327 -6.634461050868357 0.19622671942328396 xy xz yz

Masses

1 1.008
2 15.999

Pair Coeffs # lj/cut/tip4p/long/omp

1 0 0
2 0.21084 3.1668

Bond Coeffs # harmonic/omp

1 450 0.9572

Angle Coeffs # harmonic/omp

1 55 104.52

Atoms # full

21 7 1 0.5897 1.1027518701041714 2.5433027980561698 0.9079348875879848 0 0 0
31 11 2 -1.1794 1.3115936578523568 1.2507305715888972 2.33147485000264 0 0 0
32 11 1 0.5897 1.1887405950135017 1.6677776275106617 3.18421813277623 0 0 0
33 11 1 0.5897 0.6126996194304857 0.5986338141624021 2.280365665908531 0 0 0
46 16 2 -1.1794 1.8151529117745397 4.774124785752352 2.4849279094355334 0 0 0
55 19 2 -1.1794 -0.7544594045559014 4.381843597264833 3.4106751686523586 0 0 0
56 19 1 0.5897 -1.293618471739033 3.7729437065823768 2.905915814291118 0 0 0
57 19 1 0.5897 0.05907315294978677 4.452883296318184 2.911225979738108 0 0 0
86 29 1 0.5897 -2.256161417885263 1.5777466912130824 3.982567979066598 1 0 0
78 26 1 0.5897 -0.027368104282510686 3.006003020890517 4.504364386066419 0 0 0
121 41 2 -1.1794 -2.411102114822396 2.4454777138197077 2.3889347121744677 1 0 0
122 41 1 0.5897 -2.3696980684629443 2.052585668570732 1.5170909777256882 1 0 0
123 41 1 0.5897 -3.3261575743424303 2.707437965079143 2.4909643631202987 1 0 0
48 16 1 0.5897 1.8943501703608643 5.474731520473615 3.1322951689465186 0 0 0
53 18 1 0.5897 4.482650549588226 2.872758590729768 3.0051176994750652 0 0 0
158 53 1 0.5897 -4.340743557396758 4.547797314340876 4.353253951984729 1 0 0
47 16 1 0.5897 1.988879968029937 5.2015797496711444 1.6462995476363549 0 0 0
527 176 1 0.5897 3.9437447876996776 2.008381299122574 0.5523886197120847 0 0 1
482 161 1 0.5897 -1.1660852850264516 0.14492660376424926 1.195342859241475 1 1 0
70 24 2 -1.1794 3.813370205596347 0.5274654364852465 1.5513620565382815 0 0 0
54 18 1 0.5897 3.116545438396458 3.5177780885201066 2.9057492846370647 0 0 0
71 24 1 0.5897 2.996693233301656 0.644223821539525 2.0368983659888293 0 0 0
52 18 2 -1.1794 3.6728554084746756 3.010295694034269 3.4967007001426738 0 0 0
6 2 1 0.5897 3.8136178850820315 1.6414666243548026 4.6024135749385335 0 0 0
602 201 1 0.5897 -0.5350492460697724 5.3425128462986615 0.5872934948098303 1 0 1
16 6 2 -1.1794 5.399738035676917 5.028718373394337 0.3073911889618025 0 0 0
101 34 1 0.5897 -2.5764906345978247 4.623969517686708 0.3140059432208362 1 0 0
18 6 1 0.5897 5.06334450979862 4.134606045813248 0.2467253810800586 0 0 0
157 53 2 -1.1794 -3.876180822882341 5.236006618621029 4.829476506892607 1 0 0
76 26 2 -1.1794 0.6024634641613109 2.312757404225172 4.701894960891966 0 0 0
4 2 2 -1.1794 3.98117923589891 0.9085547989474236 5.194870170838969 0 0 0
126 42 1 0.5897 -4.211924336562122 2.9393880307107927 7.100056403995548 1 0 0
44 15 1 0.5897 -0.11697837850089687 5.1903553569061165 8.169157714299068 0 0 0
34 12 2 -1.1794 0.15709858973444968 1.4856303323807656 7.278503833549135 0 0 0
35 12 1 0.5897 0.3085075962345494 2.170579594011622 7.929760797071796 0 0 0
36 12 1 0.5897 -0.7252738740414353 1.1659628584823973 7.467115794742326 0 0 0
43 15 2 -1.1794 -0.23899935422435892 4.990787695701938 7.241021540145562 0 0 0
402 134 1 0.5897 1.283002475714973 0.062002912551398975 7.975829025047685 0 1 0
45 15 1 0.5897 0.6059974108145014 4.64159247445429 6.957502634785403 0 0 0
58 20 2 -1.1794 2.130950446370054 4.090012520627671 6.193470635275712 0 0 0
59 20 1 0.5897 1.7015007723912952 3.4437928668360387 5.632939135611618 0 0 0
60 20 1 0.5897 2.8401121713902597 3.6065430797609044 6.617292550021099 0 0 0
67 23 2 -1.1794 -2.240474483670169 0.5785760488717817 8.075919661084551 0 0 0
159 53 1 0.5897 -3.2671730065799585 4.76504317608001 5.398290343171051 1 0 0
69 23 1 0.5897 -2.6214867546565266 1.2723893971223856 8.614188863308742 0 0 0
134 45 1 0.5897 -2.241456272631786 2.7141459816658355 6.137851864092435 1 0 0
77 26 1 0.5897 0.3024435286903291 1.945843302357058 5.533508867638666 0 0 0
135 45 1 0.5897 -1.6547344220430782 3.923659959045853 6.8340983958974855 1 0 0
98 33 1 0.5897 -4.206674750908174 5.044196407701312 8.806043031540334 1 0 0
669 223 1 0.5897 -5.146835324398112 1.733727658757759 8.883038771077993 1 0 0
401 134 1 0.5897 2.479205379130754 0.25048217298316605 8.884396305673791 0 1 0
124 42 2 -1.1794 -5.0763459433740845 2.5362456388383925 7.181077989469819 1 0 0
133 45 2 -1.1794 -2.4868574742806446 3.536012753566469 6.5628128047696626 1 0 0
5 2 1 0.5897 3.274215156086207 0.2885764353812916 5.015653878316276 0 0 0
68 23 1 0.5897 -2.9838026611062856 0.024929798758666494 7.836701697997756 0 0 0
87 29 1 0.5897 -3.264583239438456 1.0777599207600037 4.9950618627044445 1 0 0
522 174 1 0.5897 2.0247709103747704 5.674930987743835 9.183559240911178 0 0 0
85 29 2 -1.1794 -2.344753546381126 1.325826575229469 4.901738635744368 1 0 0
22 8 2 -1.1794 0.3007477121636466 3.1199115604378806 9.501030511815074 0 0 0
11 4 1 0.5897 2.3336978558115273 5.618061032060061 5.260025434988508 0 0 0
606 202 1 0.5897 -5.993403904906759 4.661302210153401 10.044081834062974 1 0 0
523 175 2 -1.1794 -2.389183214839238 2.652821003347078 10.065311820323297 0 0 0
668 223 1 0.5897 -5.466117268092434 1.716453329755619 10.36275580262101 1 0 0
23 8 1 0.5897 0.5374760589921297 2.4186218491261386 10.107980830638155 0 0 0
627 209 1 0.5897 -6.582727267290087 2.934286108800194 12.206575669371352 1 0 0
525 175 1 0.5897 -1.544886879624805 3.0739918073468355 9.903711360128943 0 0 0
625 209 2 -1.1794 -5.718399870813087 2.594070112471063 11.975169045541955 1 0 0
520 174 2 -1.1794 2.271671611794986 5.00544775517801 9.821574881573415 0 0 0
535 179 2 -1.1794 -1.929093422035698 1.152727627172251 12.272212860004705 0 0 0
536 179 1 0.5897 -2.156464786194003 1.619906761093836 13.07611889817581 0 0 0
537 179 1 0.5897 -2.150500666553531 1.763315702447994 11.569094827434581 0 0 0
550 184 2 -1.1794 -1.5458378772737813 5.044933182684416 11.984618162024859 0 0 0
626 209 1 0.5897 -5.546446918827055 1.91320661813041 12.625595344947993 1 0 0
552 184 1 0.5897 -2.456711421059791 4.818149058091376 12.172311161607391 0 0 0
556 186 2 -1.1794 0.6506799125321807 3.511658333630413 12.971121438768854 0 0 0
557 186 1 0.5897 0.38672795290733486 2.663524914423444 13.327872538715898 0 0 0
558 186 1 0.5897 -0.11052550281425155 3.8099890828556515 12.473295052119132 0 0 0
559 187 2 -1.1794 -3.9937499116798167 4.304186144502373 13.154777820676523 0 0 0
560 187 1 0.5897 -4.586112498689275 3.7959564055403363 12.600667167927401 0 0 0
561 187 1 0.5897 -3.6007375518565663 3.6581649993836556 13.741667838840641 0 0 0
574 192 2 -1.1794 0.5729538567419699 0.8005044318782676 11.26138745145621 0 0 0
576 192 1 0.5897 -0.23308997271977638 0.8371843513591428 11.776441609043536 0 0 0
587 196 1 0.5897 -0.9677604231626713 5.681137165558129 10.488093865817852 0 0 0
667 223 2 -1.1794 -5.298489234380218 1.1392739019120839 9.617785569138764 1 0 0
99 33 1 0.5897 -3.9568812447892237 5.418389221378741 10.251487248047129 1 0 0
589 197 2 -1.1794 -5.619922930716392 0.952976292020508 14.192623625245378 1 0 0
551 184 1 0.5897 -1.3071687311694085 5.66760306128361 12.671295416205496 0 0 0
662 221 1 0.5897 -7.478814128467219 4.534351755835679 14.041904721840373 1 0 0
524 175 1 0.5897 -3.034704175182319 3.343306074051679 9.914160908992375 0 0 0
986 329 1 0.5897 -4.344259099790948 0.06643008709946352 10.608583941123612 1 1 0
593 198 1 0.5897 -7.526238721058582 0.7837297491332158 14.363915843457569 1 0 0
575 192 1 0.5897 1.1938898590006293 0.3332389428991712 11.820259403257374 0 0 0
24 8 1 0.5897 0.8682876462594944 3.850867445566642 9.74571066638846 0 0 0
591 197 1 0.5897 -4.935370630953871 0.2950464514348309 14.314370941612438 1 0 0
97 33 2 -1.1794 -4.153937745873373 4.671554101707618 9.686124823722425 1 0 0
20 7 1 0.5897 -5.65563834097556 2.2242366258629787 18.575362148928185 0 0 -1
628 210 2 -1.1794 -8.086474187857863 2.689466177688567 16.730068975770834 1 0 0
164 55 1 0.5897 -8.335277052990916 1.7799914720961805 18.201051567046164 1 0 -1
629 210 1 0.5897 -8.697492866119088 3.4209181416300347 16.640913287094733 1 0 0
638 213 1 0.5897 -6.214398723645675 3.1501709139066487 16.427142841783457 1 0 0
639 213 1 0.5897 -5.85457717960438 3.8845636290843255 15.153162898061163 1 0 0
528 176 1 0.5897 -3.670857355911468 3.186124268674378 19.031251461123595 0 0 0
637 213 2 -1.1794 -5.48728906998873 3.310938325447527 15.82567249907289 1 0 0
538 180 2 -1.1794 -3.211332929595912 1.2941552462085926 16.957607291410177 0 0 0
539 180 1 0.5897 -2.9541147666497602 1.962328955771825 17.59289811460878 0 0 0
540 180 1 0.5897 -4.1276669718293535 1.1080863887936143 17.16270127662648 0 0 0
547 183 2 -1.1794 -3.5889337190101616 5.01392879688889 16.75993956267898 0 0 0
630 210 1 0.5897 -8.252435003936498 2.1430879537988394 15.961874828750839 1 0 0
549 183 1 0.5897 -4.244041846452514 4.409746501824564 16.410568578181817 0 0 0
562 188 2 -1.1794 -0.979921995983382 4.172142759952149 15.899802462419256 0 0 0
563 188 1 0.5897 -0.8862144638654739 4.932901044196743 15.32646785193639 0 0 0
564 188 1 0.5897 -1.676156746210764 4.41575777077462 16.50990507153203 0 0 0
571 191 2 -1.1794 -5.75494256013201 0.6036817324524777 17.617563679496406 0 0 0
508 170 2 -1.1794 0.6170365214441409 1.078472512199389 14.411883576349869 0 0 0
581 194 1 0.5897 -3.016270322207262 2.021764639869358 15.322619026003146 0 0 0
582 194 1 0.5897 -1.9522511056645016 3.0310666728551947 14.946794581401393 0 0 0
548 183 1 0.5897 -3.5715574838968944 5.737562421027025 16.133618840945772 0 0 0
590 197 1 0.5897 -5.428259504251356 1.6230145487485408 14.848768517370642 1 0 0
165 55 1 0.5897 -9.36980335632645 0.8220991381820076 18.752670095767172 1 0 -1
572 191 1 0.5897 -6.463052464230209 0.16882836920531596 17.14246182595987 0 0 0
526 176 2 -1.1794 -2.739621320552775 2.966331680804829 19.060255643872942 0 0 0
580 194 2 -1.1794 -2.5917429094151068 2.428394868822568 14.567198052334499 0 0 0
163 55 2 -1.1794 -8.63053210212972 1.3709076619550413 19.014503842784016 1 0 -1
603 201 1 0.5897 -6.718992569211684 4.2385451599403545 19.04147435915182 1 0 0
601 201 2 -1.1794 -7.415581098676933 4.894325477362272 19.00915831824512 1 0 0
510 170 1 0.5897 0.46679102967246067 1.4303217205288865 15.289281511447907 0 0 0
19 7 2 -1.1794 -5.5131478540271655 3.0250347191512277 19.079997269587345 0 0 -1
661 221 2 -1.1794 -6.965289211204201 5.17842193758488 14.529453081245691 1 0 0
112 38 2 -1.1794 -2.9527902905557313 6.509109629329049 2.613735611597128 1 0 0
145 49 2 -1.1794 -0.4246792809325646 6.914669424394549 1.567475868577115 1 0 0
146 49 1 0.5897 -1.1472609701384453 6.5981738403793235 2.1097138283362074 1 0 0
147 49 1 0.5897 -0.8247885124667076 7.56517751716271 0.9904171939035479 1 0 0
255 85 1 0.5897 -2.339354611262033 8.893524596341974 3.933075492424691 1 0 0
289 97 2 -1.1794 -2.566747661206816 9.958166062958046 2.4162450278829932 1 0 0
290 97 1 0.5897 -2.0465228433999334 10.72592401469767 2.6532820336882734 1 0 0
291 97 1 0.5897 -3.474447609633952 10.23548444345641 2.5408710599673148 1 0 0
332 111 1 0.5897 -2.14854352931992 9.159762566797932 0.9074223485502185 1 0 0
188 63 1 0.5897 0.9389542171510765 9.849199369538232 1.098614466981857 0 0 0
200 67 1 0.5897 0.6466369389448681 8.040682398651938 2.3076771217954857 0 0 0
82 28 2 -1.1794 2.404193077715104 6.144652915736087 0.14013902198259054 0 0 0
9 3 1 0.5897 -0.9288771333026649 5.787038575264765 4.538969743102898 0 0 0
199 67 2 -1.1794 1.1653460481300026 8.786482201694064 2.6093092530275985 0 0 0
331 111 2 -1.1794 -1.8225062970080688 8.70721150279743 0.12951632329772048 1 0 0
113 38 1 0.5897 -3.1505716605487954 6.090233951302564 3.4513752361802474 1 0 0
201 67 1 0.5897 2.0723961054776465 8.532981676819265 2.4379644229505795 0 0 0
10 4 2 -1.1794 2.14289683346146 6.369667462915261 4.6988446786608025 0 0 0
239 80 1 0.5897 3.76140220469642 8.747551835986913 1.3511369900549086 0 0 0
245 82 1 0.5897 0.9055913144433942 9.63868758113344 4.1198573732101895 0 0 0
189 63 1 0.5897 1.976728203494634 10.427937454042942 0.16044589174109136 0 0 0
238 80 2 -1.1794 3.646236859654967 7.8961764791678375 1.773232357576189 0 0 0
240 80 1 0.5897 3.19957781122395 7.361363166985506 1.1169768099349766 0 0 0
220 74 2 -1.1794 3.48901808501717 10.753588868726151 3.495631562122105 0 0 0
174 58 1 0.5897 3.614983232236666 9.25986750967445 4.508235608965538 0 0 0
221 74 1 0.5897 4.243048046109469 10.59506034949713 2.927623934391849 0 0 0
187 63 2 -1.1794 1.0313429786925594 10.33759124112387 0.28059959564001935 0 0 0
696 232 1 0.5897 4.3375314177579645 11.04769871266583 0.30149119597238716 0 0 1
114 38 1 0.5897 -3.218815962607796 5.866965684301848 1.9556399824413886 1 0 0
694 232 2 -1.1794 3.828828613835487 10.239647249878136 0.2339749120597474 0 0 1
222 74 1 0.5897 2.9139821403897628 11.318321583084877 2.979229417620205 0 0 0
224 75 1 0.5897 -0.3592582591850082 11.243615100923305 3.9052597452115236 0 0 0
244 82 2 -1.1794 0.7106176698097597 10.220542009887756 4.854470338884222 0 0 0
173 58 1 0.5897 3.2016120969754613 7.8712155980203296 4.94730015432052 0 0 0
302 101 1 0.5897 -2.074078534079601 9.827335154035973 6.2710972585780995 1 0 0
64 22 2 -1.1794 2.2244271148529897 7.094561004799646 8.007364137442838 0 0 0
172 58 2 -1.1794 3.7379125756730636 8.619621691800399 5.209087709734118 0 0 0
293 98 1 0.5897 -4.131664770385818 10.28716225219683 7.2050572984594385 1 0 0
109 37 2 -1.1794 -4.306038040321461 6.186243268416217 7.435828409503491 1 0 0
110 37 1 0.5897 -4.332843732745524 5.925585458391918 6.515227385405903 1 0 0
111 37 1 0.5897 -5.196188860218604 6.481479346371579 7.627721421428808 1 0 0
301 101 2 -1.1794 -2.3195249362475425 10.600632500648763 6.779040648712712 1 0 0
294 98 1 0.5897 -5.05221160231041 9.82846644821006 8.31600790464271 1 0 0
191 64 1 0.5897 0.6670570190799605 9.837427298469324 8.71901693372736 0 0 0
66 22 1 0.5897 2.987380595503751 6.829805767244755 7.493417828557679 0 0 0
202 68 2 -1.1794 0.37915767561211133 8.729606662765242 7.148189077090567 0 0 0
203 68 1 0.5897 -0.48877898260065766 8.392210162401788 7.3699665816243884 0 0 0
204 68 1 0.5897 0.9825607055022427 8.039387111626414 7.423508742012942 0 0 0
588 196 1 0.5897 -1.304051727829783 6.581523860159727 9.318457131355652 0 0 0
235 79 2 -1.1794 -2.0838870814767514 7.718976052099558 8.008452844974787 0 0 0
236 79 1 0.5897 -2.8885688258792555 7.258535512549476 7.770173677036106 0 0 0
237 79 1 0.5897 -2.3806790041132104 8.472059125230583 8.519389574500792 0 0 0
292 98 2 -1.1794 -5.056783483564747 10.173361616184668 7.4231422579236535 1 0 0
246 82 1 0.5897 0.5552148230145244 9.631273168434117 5.59260397508454 0 0 0
8 3 1 0.5897 -0.6261581932217943 6.224722561083983 5.956191984644804 0 0 0
7 3 2 -1.1794 -0.6948408620242446 6.554878816133314 5.060391361143536 0 0 0
837 279 1 0.5897 -5.907152312208343 8.287703060703182 9.276542911032022 1 0 0
65 22 1 0.5897 2.5769038331245726 7.684580577124325 8.673578065517201 0 0 0
257 86 1 0.5897 -4.270758515970877 8.477388297654185 5.067851808551058 1 0 0
303 101 1 0.5897 -1.4874627455686302 11.027488056740362 6.983416591069222 1 0 0
228 76 1 0.5897 1.902726480103044 11.123182324591923 5.891757973469494 0 0 0
692 231 1 0.5897 -1.3283453489935186 10.179408726199606 9.54954277693324 0 0 0
190 64 2 -1.1794 0.5415541316945056 10.173161415228998 9.606554346194523 0 0 0
254 85 1 0.5897 -1.8498969409651629 7.8612356951217786 4.926392711177775 1 0 0
12 4 1 0.5897 1.2155663418754301 6.552825511347261 4.850066501584652 0 0 0
253 85 2 -1.1794 -2.4306699033072094 8.617812557160866 4.845113943925809 1 0 0
617 206 1 0.5897 -7.055739764289138 7.3280819056932565 12.052359025633566 1 0 0
725 242 1 0.5897 0.6971341393622259 11.358041803456706 13.472822101864201 0 0 0
836 279 1 0.5897 -4.690155502826351 8.316385479033357 10.176555792238156 1 0 0
513 171 1 0.5897 -3.970220574724019 6.0060891955657265 13.949511307651242 0 0 0
691 231 2 -1.1794 -2.2366381859768563 9.894309221298302 9.649848440399463 0 0 0
616 206 2 -1.1794 -6.415663720646773 6.637553220775073 12.224938617187917 1 0 0
795 265 1 0.5897 -5.704623181442452 9.622505773652257 11.265139557562412 1 0 0
793 265 2 -1.1794 -5.951538634757396 9.972025255751145 12.121343731213686 1 0 0
649 217 2 -1.1794 -3.9109534397214394 6.924685286703592 11.204208694126043 1 0 0
650 217 1 0.5897 -3.3182215952980347 7.498169360530384 11.689999018571713 1 0 0
651 217 1 0.5897 -4.710913658240408 6.905767257520177 11.729585414313759 1 0 0
759 253 1 0.5897 -5.72210215243884 9.056202164439208 13.543060176208405 1 0 0
678 226 1 0.5897 0.3143727850137532 9.213242885133019 13.927128665867508 0 0 0
744 248 1 0.5897 0.1159860317195931 7.424953142191282 10.832937889688553 0 0 0
794 265 1 0.5897 -5.399906717710076 10.746367590805018 12.23258097828862 1 0 0
693 231 1 0.5897 -2.2932897371281964 9.587266306828884 10.554666037247678 0 0 0
703 235 2 -1.1794 -2.1338822450694224 8.701828266588944 12.15870833614154 0 0 0
704 235 1 0.5897 -1.198349451477024 8.510963358860542 12.227207185598973 0 0 0
705 235 1 0.5897 -2.3097926219772758 9.303196780946589 12.882334411260034 0 0 0
724 242 2 -1.1794 0.34552337443733006 10.744424356328391 12.827799881052886 0 0 0
742 248 2 -1.1794 0.4585531560872984 8.074044207673325 11.44737843158217 0 0 0
743 248 1 0.5897 0.5095534836424305 8.883036011460268 10.938278604973872 0 0 0
750 250 1 0.5897 -3.201592071985093 10.7524789081203 13.868660071359116 0 0 0
618 206 1 0.5897 -6.661949457935382 5.928181480115833 11.631348941711888 1 0 0
586 196 2 -1.1794 -0.5780748303907179 6.108691125815336 9.725472498308433 0 0 0
835 279 2 -1.1794 -5.336612431519658 8.885796252285774 9.759253255904866 1 0 0
726 242 1 0.5897 -0.3565275845317233 11.228952818834372 12.393483927934794 0 0 0
663 221 1 0.5897 -6.654060255800737 5.791303140611866 13.863301214390411 1 0 0
192 64 1 0.5897 1.044676166364619 10.987208715885643 9.628569296436448 0 0 0
514 172 2 -1.1794 -1.0062073698985374 6.429248708760498 14.239752937342702 0 0 0
748 250 2 -1.1794 -2.4838584478583723 10.254106533305926 14.259497928352939 0 0 0
516 172 1 0.5897 -0.4638787192262841 7.208945285930613 14.359074464033485 0 0 0
762 254 1 0.5897 -7.50083826012963 8.644227030417538 14.674366587835427 1 0 0
333 111 1 0.5897 -8.357707043111976 9.593987706370049 18.559614230684936 1 0 -1
749 250 1 0.5897 -2.86403268763197 9.862446759138471 15.045827086098015 0 0 0
615 205 1 0.5897 -7.362660747919971 6.118013354696884 15.903101456910052 1 0 0
757 253 2 -1.1794 -5.614642032226369 8.703656513387498 14.42642352452113 1 0 0
796 266 2 -1.1794 -8.014493469432558 10.48769583544173 17.03748001823918 1 0 0
568 190 2 -1.1794 -1.137180768857026 7.432570627288979 17.77390429209055 0 0 0
569 190 1 0.5897 -1.3715800755398293 6.662048403169178 18.291222859553315 0 0 0
512 171 1 0.5897 -4.450979101186788 7.3299043892746205 14.50487082062899 0 0 0
613 205 2 -1.1794 -7.501600493864053 6.555522014460671 16.743035340084894 1 0 0
84 28 1 0.5897 -3.8815005823443043 5.81046609946977 18.509181057487886 0 0 -1
805 269 2 -1.1794 -5.519584206188559 11.017921103834693 16.038799007127675 1 0 0
797 266 1 0.5897 -7.093324899417067 10.716720781441984 16.913611635513213 1 0 0
695 232 1 0.5897 -2.7723703855146455 10.208308381893492 18.39032484209511 0 0 0
758 253 1 0.5897 -5.458916076847084 9.47284568563713 14.97444245593463 1 0 0
706 236 2 -1.1794 -3.052031697687216 9.207141693472323 16.742833010112662 0 0 0
707 236 1 0.5897 -3.8948801703076175 8.870241338157905 17.046882210989224 0 0 0
708 236 1 0.5897 -2.4203839062446946 8.531487631474477 16.989428108766717 0 0 0
798 266 1 0.5897 -8.232198979487626 9.948939530816292 16.27686246286038 1 0 0
741 247 1 0.5897 -5.900696408646578 8.979274597691257 18.181839960607924 0 0 0
739 247 2 -1.1794 -5.507456423061049 8.249196190735324 17.70367820703366 0 0 0
740 247 1 0.5897 -6.251701327433602 7.7838136415804575 17.32186670852579 0 0 0
83 28 1 0.5897 -4.864307253709681 6.922970454287243 18.80676550659821 0 0 -1
676 226 2 -1.1794 0.4843411508184925 8.636413279259266 14.671835825932046 0 0 0
511 171 2 -1.1794 -3.765371037264348 6.669884680286835 14.608011065750738 0 0 0
570 190 1 0.5897 -0.4046570959948248 7.142754418370441 17.2300830324209 0 0 0
731 244 1 0.5897 -1.5100763783529905 11.303906566887825 15.429939648228522 0 0 0
614 205 1 0.5897 -7.35118335497647 5.872860193169837 17.396925323163934 1 0 0
515 172 1 0.5897 -1.8984061867171897 6.7282331436716 14.415656493083608 0 0 0
280 94 2 -1.1794 -3.311233550033047 13.940765306426705 2.800224503914878 1 0 0
281 94 1 0.5897 -3.2676159213583453 13.554187656417177 3.674772156704643 1 0 0
282 94 1 0.5897 -2.40104829889908 14.139075850199845 2.5797979497136114 1 0 0
500 167 1 0.5897 -1.4823346159937527 15.860787440069442 0.840278524654801 1 0 0
313 105 2 -1.1794 -0.8297935118140152 14.648552408383159 2.009071235814921 1 0 0
423 141 1 0.5897 -2.457535493629649 16.384627814843515 4.204596004053381 1 0 0
315 105 1 0.5897 -0.4264545180350452 13.973622288615447 1.4631163622056398 1 0 0
369 123 1 0.5897 0.9632248968249133 16.61179013320902 3.441912515578967 0 0 0
223 75 2 -1.1794 -0.748459475337655 11.89430938331879 3.3210030935501584 0 0 0
225 75 1 0.5897 -0.944799152230476 12.639652954706031 3.888594200896782 0 0 0
499 167 2 -1.1794 -2.09767746754553 16.493170991032436 0.4691575153428669 1 0 0
368 123 1 0.5897 2.07695070294318 16.21690280317998 2.4954526108615114 0 0 0
408 136 1 0.5897 3.9435290218785832 16.194808721125828 1.489804994434132 0 0 0
252 84 1 0.5897 2.8383103422433846 14.498357868822428 0.8396409940698584 0 0 0
407 136 1 0.5897 4.496142114526481 15.008626978176506 2.2510852183348233 0 0 0
314 105 1 0.5897 -0.11506985874054187 15.252310670234547 2.2113911077635815 1 0 0
406 136 2 -1.1794 3.6879064224873046 15.496371759837533 2.092380826255419 0 0 0
180 60 1 0.5897 1.9146289420496672 13.80739752759849 3.9757844502567283 0 0 0
367 123 2 -1.1794 1.1395178929556389 16.40873764476848 2.523280746609558 0 0 0
215 72 1 0.5897 1.8253089948721808 12.893897551799595 1.6042919436674659 0 0 0
216 72 1 0.5897 0.8425657644686653 12.409064682192422 2.648894958468718 0 0 0
214 72 2 -1.1794 1.764857074372185 12.632425600732915 2.523075826058917 0 0 0
184 62 2 -1.1794 5.304812047141624 12.428985274236785 0.43422840386286177 0 0 0
268 90 2 -1.1794 -3.2566254097767144 12.434799615470848 0.4412139133309256 1 0 0
770 257 1 0.5897 -1.3261502293337015 12.344562960147416 0.39225849474447216 1 0 1
250 84 2 -1.1794 2.424966484829188 13.925371151384692 0.19385316023834454 0 0 0
769 257 2 -1.1794 -0.44979038957130335 12.632872125713462 0.13688152397873715 1 0 1
771 257 1 0.5897 0.061765068685023294 11.825692644833318 0.08132614275533352 1 0 1
306 102 1 0.5897 -4.502307143119283 11.332317499591415 3.9980313626010053 1 0 0
269 90 1 0.5897 -3.4185934626964727 12.7904312073725 1.3149938995968338 1 0 0
425 142 1 0.5897 -4.194380137830935 16.014468181659787 5.079235370907356 1 0 0
372 124 1 0.5897 2.8054827093892953e-05 16.69524737367207 6.5048173116272485 0 0 0
422 141 1 0.5897 -2.19391897485079 16.800477501516912 5.63613333037926 1 0 0
1004 335 1 0.5897 -5.140491748692648 16.849319946791738 9.146478355909334 1 0 0
179 60 1 0.5897 2.164157120880631 13.315071319933088 5.385429006033451 0 0 0
211 71 2 -1.1794 -0.2740634995880802 12.284347729766667 7.432798750987584 0 0 0
212 71 1 0.5897 -0.5168688283937155 12.828269833234874 8.182083424781512 0 0 0
213 71 1 0.5897 -0.4434823448095466 12.837251200340324 6.670037700151661 0 0 0
226 76 2 -1.1794 2.3241913833594925 11.788026232856433 6.436345222052793 0 0 0
227 76 1 0.5897 1.6162190599462818 12.140569146150325 6.97561448861058 0 0 0
232 78 2 -1.1794 2.0140628508022793 14.607556972998747 8.210194837380387 0 0 0
279 93 1 0.5897 -5.400490779046621 14.067528460344107 7.547004203237302 1 0 0
234 78 1 0.5897 1.433962794538294 15.085565125395256 7.617543776732446 0 0 0
756 252 1 0.5897 -1.7099131486799988 14.488220215860304 9.178219829120321 0 0 0
267 89 1 0.5897 -3.9443746305560503 12.51591637814784 8.687649135593936 1 0 0
277 93 2 -1.1794 -4.5032366023453205 13.757471407677045 7.42388363159608 1 0 0
278 93 1 0.5897 -3.955818703348365 14.504458182556762 7.665991845534401 1 0 0
325 109 2 -1.1794 -3.5569061893405536 12.486743895167718 5.1330395589393865 1 0 0
233 78 1 0.5897 2.7973303443811632 14.431110661600734 7.688955006738582 0 0 0
326 109 1 0.5897 -2.9814495378189205 11.895339842770648 5.61816756963903 1 0 0
327 109 1 0.5897 -4.022072714778179 12.978118652622591 5.810124921068922 1 0 0
176 59 1 0.5897 -1.295029356456503 14.589201458046666 5.060384380363723 0 0 0
403 135 2 -1.1794 -2.5688328403209693 15.607582715000834 8.20149518643009 0 0 0
370 124 2 -1.1794 -0.05499111538724444 16.22419089779177 7.336247198813921 0 0 0
404 135 1 0.5897 -1.7586720825575597 15.728754588854834 7.706224247875154 0 0 0
405 135 1 0.5897 -2.5902027872346713 16.345427287967258 8.81089015237701 0 0 0
690 230 1 0.5897 1.771275735686423 13.201453584216457 9.420916507303238 0 0 0
340 114 2 -1.1794 3.665829272031102 16.33275865624052 5.241726728210174 0 0 0
341 114 1 0.5897 3.182578707023489 15.510369844009412 5.16153188033664 0 0 0
175 59 2 -1.1794 -0.7076402159474795 13.852961772705557 5.231330608343559 0 0 0
371 124 1 0.5897 0.19707300185930254 16.870780792117213 7.995480653222792 0 0 0
177 59 1 0.5897 0.17123028892497638 14.225805052846567 5.161292990802972 0 0 0
178 60 2 -1.1794 2.0147692114715223 14.112513176622256 4.877471474270613 0 0 0
421 141 2 -1.1794 -2.385358518895133 16.035865761197638 5.093043286397957 1 0 0
462 154 1 0.5897 -5.035978932649219 17.035933873913184 6.699443508651594 1 0 0
774 258 1 0.5897 -5.7027813463777415 12.137684589948742 9.59152394506245 1 0 0
266 89 1 0.5897 -3.243592241300935 11.407858764937117 9.444660681353188 1 0 0
265 89 2 -1.1794 -3.8426133836287386 12.144892558537151 9.564101746448058 1 0 0
1003 335 2 -1.1794 -5.569417784544837 16.38400048700876 9.864641344833705 1 0 0
917 306 1 0.5897 -2.3364198878618154 17.09456315044717 13.833598746544382 0 0 0
754 252 2 -1.1794 -1.0664878127148025 13.949021573343229 9.638156464946524 0 0 0
718 240 2 -1.1794 -1.578112646907182 12.579728541166016 11.982957838973203 0 0 0
719 240 1 0.5897 -1.345076344487254 13.042741823985503 11.178260685663705 0 0 0
720 240 1 0.5897 -1.2698197828448485 13.151036603526832 12.686349170315363 0 0 0
846 282 1 0.5897 0.2842369279544741 16.93923595337339 14.130952853139414 0 0 0
1005 335 1 0.5897 -4.864661006649604 15.893126056147397 10.287298042892782 1 0 0
912 304 1 0.5897 1.1163796409768594 15.251342685513047 11.432614332873953 0 0 0
728 243 1 0.5897 -3.341736557694505 12.112637872966006 12.338776260978978 0 0 0
729 243 1 0.5897 -4.196788166135855 12.756576429112311 13.40941194782746 0 0 0
755 252 1 0.5897 -0.38769192561326715 14.566111461726116 9.911462549237987 0 0 0
727 243 2 -1.1794 -4.123338853196017 11.967803057196303 12.872111003516974 0 0 0
873 291 1 0.5897 -2.5329689057750304 15.50117226710468 12.066818366752134 0 0 0
784 262 2 -1.1794 -6.313579208786294 13.981371026693774 11.983133684194017 1 0 0
911 304 1 0.5897 -0.26632110545578147 15.85560158127079 11.555917848367047 0 0 0
786 262 1 0.5897 -6.421982149003017 13.61988674084426 12.862775940508513 1 0 0
817 273 2 -1.1794 -3.8526697366433638 14.64414482464107 11.017995236650993 1 0 0
818 273 1 0.5897 -4.675089891619628 14.39966228510274 11.442483013082638 1 0 0
819 273 1 0.5897 -3.592160114839194 13.862239561807518 10.531136856342187 1 0 0
831 277 1 0.5897 -7.5978407083711215 12.299684163332268 14.02128217658305 1 0 0
910 304 2 -1.1794 0.48428844527383186 15.79707887931833 10.964754581426261 0 0 0
871 291 2 -1.1794 -1.944718698849412 16.249598021289756 12.167366606992688 0 0 0
682 228 2 -1.1794 -1.1828729596790009 14.03399693077924 14.297799945922783 0 0 0
688 230 2 -1.1794 2.014327652246328 12.48308023112264 10.004960785120167 0 0 0
785 262 1 0.5897 -7.051476134879863 14.581999216919789 11.877918060328096 1 0 0
925 309 2 -1.1794 -5.780634187240432 16.267883552877908 14.345848026956546 1 0 0
773 258 1 0.5897 -6.677855444306594 12.739822315482463 10.580834103380353 1 0 0
872 291 1 0.5897 -2.196175145488559 16.848649604585447 11.46443063380534 0 0 0
680 227 1 0.5897 -3.0056105456248075 14.315702693103258 14.38310246588503 0 0 0
875 292 1 0.5897 -3.000855291571219 16.729733103560744 16.129939662317447 0 0 0
874 292 2 -1.1794 -3.2050834021554877 16.26846516702027 16.943414382686797 0 0 0
738 246 1 0.5897 -0.5073895077280834 14.386786489806546 17.182009286368753 0 0 0
876 292 1 0.5897 -2.477826778386495 15.657403097977307 17.061853602103852 0 0 0
907 303 2 -1.1794 -5.680539586393536 15.813876692896342 17.84305324958798 0 0 0
681 227 1 0.5897 -3.970590017209279 13.881612740995916 15.465883178618427 0 0 0
732 244 1 0.5897 -0.4743738138627194 11.523260042385449 16.512087251050644 0 0 0
830 277 1 0.5897 -7.288542704313079 13.337983422406248 15.078687229253752 1 0 0
715 239 2 -1.1794 -3.681847935597193 12.668925619891239 16.972704993537903 0 0 0
716 239 1 0.5897 -3.592862060099586 13.139379488249578 17.801519735084185 0 0 0
717 239 1 0.5897 -2.803692209626857 12.333731061443629 16.791492507050904 0 0 0
730 244 2 -1.1794 -1.1933763304291514 11.957703665328731 16.053209605326696 0 0 0
736 246 2 -1.1794 -1.1921923069648628 14.672728439485375 17.786656177170627 0 0 0
909 303 1 0.5897 -4.943679202127534 15.997347827421141 17.260222173714084 0 0 0
683 228 1 0.5897 -1.0393508443592436 13.343155904781739 14.944617510002438 0 0 0
737 246 1 0.5897 -0.7739882313606641 15.348023144473077 18.3207997007541 0 0 0
781 261 2 -1.1794 -7.546318915476659 14.066863724211288 16.75821601803868 1 0 0
782 261 1 0.5897 -7.375185872914506 13.605400110836426 17.579166233738306 1 0 0
783 261 1 0.5897 -8.390558413235084 14.496575533288205 16.895909345114042 1 0 0
679 227 2 -1.1794 -3.9391855327247125 14.214653978742787 14.569063032425174 0 0 0