LAMMPS data file via write_data, version 30 Jul 2021, timestep = 27500000

864 atoms
2 atom types
576 bonds
1 bond types
288 angles
1 angle types

0.11182036072843182 18.095752039271353 xlo xhi
0.191505209595503 23.437672590413907 ylo yhi
0.09784612135734072 22.115349678637738 zlo zhi

Masses

1 1.00794
2 15.9994

Atoms # full

707 1 1 0.5897 2.8937846642287504 1.7721071271756608 3.7147990235034336 0 0 0
706 1 2 -1.1794 2.9970979597684897 1.9069845258229299 2.7728476009177188 0 0 0
30 1 1 0.5897 5.223866501815435 4.0099999663103105 2.364025251061161 0 0 0
708 1 1 0.5897 2.2271051260030417 2.4149310807808333 2.51726618418858 0 0 0
29 1 1 0.5897 4.509702511427135 2.6752424696297403 2.341021252179625 0 0 0
28 1 2 -1.1794 5.312906277004506 3.1090313181289693 2.0530922959324904 0 0 0
495 1 1 0.5897 8.360500516448264 2.2488802857770844 2.8953036752903314 0 0 0
1 1 2 -1.1794 0.8560496273911767 3.3158513693848217 2.05445136329583 0 0 0
494 1 1 0.5897 6.889680228531142 2.183801172147354 2.5428321558567264 0 0 0
493 1 2 -1.1794 7.560481039064165 1.7545896516315573 3.0738748381871828 0 0 0
846 1 1 0.5897 7.475766418550226 2.1081556928262057 4.8528762781034445 0 0 0
3 1 1 0.5897 0.927960104243104 4.156188920198935 2.5071946932158333 0 0 0
136 1 2 -1.1794 5.2025654466621845 5.708546288042307 2.782774499792688 0 0 0
137 1 1 0.5897 5.162478787118842 5.723269160027073 3.7389846607906096 0 0 0
595 1 2 -1.1794 0.8611168777894058 5.867552217443082 3.0899392473767784 0 0 0
20 1 1 0.5897 0.7088681682622415 3.2567564424921835 0.27114651564169157 0 0 0
487 1 2 -1.1794 2.8302051675384634 1.9909467375262895 5.507567749648794 0 0 0
685 1 2 -1.1794 5.230414590359718 5.673654408968611 5.4813934421624095 0 0 0
597 1 1 0.5897 0.9124337617687904 5.879619461929 4.045633831577524 0 0 0
668 1 1 0.5897 5.3385552946949675 2.996561107948953 0.37094893610649654 0 0 0
188 1 1 0.5897 2.968381408575057 0.2142463921925493 2.544591105600315 0 1 0
176 1 1 0.5897 8.841305048573846 2.644980695220533 9.61254961081912 0 0 0
275 1 1 0.5897 4.974545423401499 3.3236425306553063 8.480058621208196 0 0 0
276 1 1 0.5897 5.744691147916823 2.8416795638474377 9.690983180614934 0 0 0
844 1 2 -1.1794 7.448797422188066 2.2355337099279833 5.801128953391612 0 0 0
112 1 2 -1.1794 0.8062402618653131 5.879761966978507 10.328444701150818 0 0 0
183 1 1 0.5897 0.8375912892320434 5.1423553821957695 6.280567946451574 0 0 0
35 1 1 0.5897 0.5589373873752725 4.176096046804824 9.685531933635344 0 0 0
356 1 1 0.5897 7.18251744477777 1.0600774766369336 9.727134289113959 0 0 0
181 1 2 -1.1794 0.9258355923537223 5.995948686302629 5.8563984844897705 0 0 0
419 1 1 0.5897 9.097628165314907 2.9095593461747313 6.391412799346215 0 0 0
785 1 1 0.5897 0.6962959756329915 3.3561318675834477 7.604402904451859 0 0 0
784 1 2 -1.1794 0.7625196401696357 3.3580068436904593 6.6495391924274765 0 0 0
686 1 1 0.5897 5.166001395188889 4.813902034274683 5.897319610560101 0 0 0
673 1 2 -1.1794 2.83929798381126 1.738847042354937 10.527151748891583 0 0 0
489 1 1 0.5897 2.8054735679801697 1.2241205949363032 6.079978583951668 0 0 0
274 1 2 -1.1794 4.944193058137906 3.300624819737537 9.43645797873021 0 0 0
845 1 1 0.5897 7.535497040326339 1.354060575093543 6.164199474062561 0 0 0
488 1 1 0.5897 2.1091033506962553 2.5415839687804356 5.812601175224863 0 0 0
83 1 1 0.5897 4.306062388967722 2.78481179700211 6.220591579895247 0 0 0
84 1 1 0.5897 5.817486104794043 2.8254625711091608 6.296153214935818 0 0 0
674 1 1 0.5897 3.5547986113773993 2.1589381366194975 10.049885831107648 0 0 0
36 1 1 0.5897 1.2946897525646208 2.8669270754540452 9.877527193196888 0 0 0
678 1 1 0.5897 5.447317686633551 5.009394247740333 10.080271209448565 0 0 0
355 1 2 -1.1794 7.32246921916613 1.9675200336031422 9.997884092725863 0 0 0
34 1 2 -1.1794 0.5723594289882928 3.2651027733328304 9.391839458945318 0 0 0
82 1 2 -1.1794 5.030188864545303 3.227936970774651 6.6627368202483925 0 0 0
675 1 1 0.5897 2.808635570795045 0.8478971042235663 10.178437420009686 0 0 0
676 1 2 -1.1794 5.577162064601404 5.8047189523542615 10.5969106312153 0 0 0
357 1 1 0.5897 7.303922972416149 1.9380945357476056 10.95440079603339 0 0 0
166 1 2 -1.1794 3.123886265278555 1.9000339057411038 13.371643249397982 0 0 0
167 1 1 0.5897 3.0180899353376556 1.8512677682234038 12.421600804468405 0 0 0
457 1 2 -1.1794 5.3482411135716195 3.348062969310327 14.113763784567796 0 0 0
458 1 1 0.5897 6.094929717972897 2.9196824131784833 13.695257158910692 0 0 0
459 1 1 0.5897 4.586639633932011 2.8555071540944197 13.80787368988477 0 0 0
762 1 1 0.5897 5.401378177876546 5.009704351798919 13.599158391195267 0 0 0
594 1 1 0.5897 8.32035061121476 2.403714837720958 13.170529679918047 0 0 0
168 1 1 0.5897 2.3386502873710384 2.3539399657211355 13.677553503385063 0 0 0
71 1 1 0.5897 5.176253439313195 3.321447028483258 15.950243687438121 0 0 0
592 1 2 -1.1794 7.450467025897083 2.117910739416331 12.89157663786612 0 0 0
466 1 2 -1.1794 0.7392871721397564 3.3459648020164776 13.913967191794146 0 0 0
593 1 1 0.5897 7.309508960536287 1.2917006735121646 13.35398376624805 0 0 0
468 1 1 0.5897 0.7184493546617253 3.298212179545267 14.869702463489462 0 0 0
365 1 1 0.5897 0.6172194198966489 5.052891313616197 13.39981221353662 0 0 0
133 1 2 -1.1794 0.97719832562946 3.0858103997209834 16.559226518863696 0 0 0
364 1 2 -1.1794 0.6071191333100276 5.967418556441207 13.11717747906395 0 0 0
113 1 1 0.5897 0.789269573580546 5.942395955462547 11.283390567579668 0 0 0
761 1 1 0.5897 5.512505087295912 5.884440160507241 12.368578646403156 0 0 0
760 1 2 -1.1794 5.3349672438463305 5.919337928654245 13.308470405834782 0 0 0
142 1 2 -1.1794 5.314420252816244 5.675645827858666 20.500191318743134 0 0 0
599 1 1 0.5897 9.048980049681859 2.754780900566759 17.19493975263581 0 0 0
360 1 1 0.5897 8.906201300117393 2.687239703636322 21.259552652837804 0 0 0
755 1 1 0.5897 7.50186070597724 1.8050155047558845 18.659281946489656 0 0 0
667 1 2 -1.1794 5.368922613462308 3.079401839089433 21.435378392443646 0 0 0
571 1 2 -1.1794 0.6814831917093762 5.572717528123017 17.55344585622845 0 0 0
570 1 1 0.5897 2.8625165302711406 1.6650845850826992 19.663203114397007 0 0 0
144 1 1 0.5897 5.397815090982833 5.631266930727972 19.5477090844486 0 0 0
134 1 1 0.5897 0.9013256026647092 3.9682401953695745 16.922397085758618 0 0 0
572 1 1 0.5897 1.4802219209189587 5.982301283915969 17.221093461296135 0 0 0
41 1 1 0.5897 6.7258945425867145 2.1311389618435372 20.78266523523343 0 0 0
646 1 2 -1.1794 0.7297698181517236 5.796843878300002 20.39986121956941 0 0 0
669 1 1 0.5897 4.542407558342115 2.7013081357315634 21.135188373325754 0 0 0
648 1 1 0.5897 0.7853452735248887 5.787504241124937 19.44437108349431 0 0 0
290 1 1 0.5897 2.9351508320842346 0.9499587315621882 17.467245551962264 0 0 0
277 1 2 -1.1794 5.46378163912181 5.883071286074341 17.64251604498004 0 0 0
289 1 2 -1.1794 3.0939644437008624 1.8461921843918212 17.76369489705197 0 0 0
42 1 1 0.5897 7.524212023180402 0.8459718418644852 20.838625216487046 0 0 0
40 1 2 -1.1794 7.550481094304034 1.739141166782758 20.495266718930388 0 0 0
569 1 1 0.5897 2.1605488049042174 2.3017964199466787 20.843715596486703 0 0 0
291 1 1 0.5897 2.3879330581777043 2.3581924766967806 17.36923436271975 0 0 0
72 1 1 0.5897 4.542228402999902 2.7462042553266848 17.19878550691528 0 0 0
70 1 2 -1.1794 5.295534328219301 3.254145412851021 16.89754452024409 0 0 0
21 1 1 0.5897 0.8461927443862596 4.0500384022720475 21.006588132715272 0 0 0
19 1 2 -1.1794 0.7497897515950106 3.157015203271848 21.33758102419565 0 0 0
754 1 2 -1.1794 7.578017942697189 1.847594808217992 17.706119317451815 0 0 0
568 1 2 -1.1794 2.9052737737700043 1.7452191633674916 20.616034839157614 0 0 0
143 1 1 0.5897 5.244341642532041 4.762190561332851 20.77774576456703 0 0 0
278 1 1 0.5897 5.544177739970858 4.942759687704029 17.482153823639976 0 0 0
756 1 1 0.5897 6.770001079650274 2.273287712471464 17.419595966289336 0 0 0
323 1 1 0.5897 7.48331780821936 0.21414473623049124 17.037979582002976 0 1 0
135 1 1 0.5897 0.16442680712881794 2.6500266659872693 16.81559176865042 0 0 0
123 1 1 0.5897 3.2203514008360514 8.773639155963293 2.557250506602767 0 0 0
121 1 2 -1.1794 3.2623175334285452 9.672995419054223 2.882457564176568 0 0 0
122 1 1 0.5897 3.213141426254809 9.58642618501028 3.8344153371527803 0 0 0
44 1 1 0.5897 1.7157769131636855 10.349481938973431 2.2727348891348913 0 0 0
218 1 1 0.5897 6.217603337567491 10.787222126271887 2.081715910056305 0 0 0
417 1 1 0.5897 8.066510138473378 6.649394663793008 2.361241058501509 0 0 0
219 1 1 0.5897 4.7249025379918725 10.602784157819084 2.253679885789308 0 0 0
254 1 1 0.5897 2.9827617101727286 7.013687890074216 1.042120198713847 0 0 0
415 1 2 -1.1794 7.322692084165063 7.147859321947159 2.0228840824642633 0 0 0
217 1 2 -1.1794 5.377361013026576 11.210472270796537 1.905462406886049 0 0 0
66 1 1 0.5897 7.513696708230311 9.80499682136275 3.7021700381212326 0 0 0
65 1 1 0.5897 7.489816668831602 8.860073480149383 2.5196153518822664 0 0 0
64 1 2 -1.1794 7.572774200922437 9.78622305312628 2.747027257467808 0 0 0
253 1 2 -1.1794 3.012316302725191 7.161865863967225 1.9872761902232503 0 0 0
255 1 1 0.5897 2.267171417264709 6.668974378150563 2.3308390484864674 0 0 0
416 1 1 0.5897 6.553635258223261 6.653918025988231 2.3071254901224822 0 0 0
43 1 2 -1.1794 0.9310072192157982 10.826709498484854 2.0032775159337572 0 0 0
138 1 1 0.5897 4.476047279194529 6.265722209734331 2.5035402891998406 0 0 0
396 1 1 0.5897 0.961030608999863 10.879075614001437 0.10167090892232421 0 0 0
162 1 1 0.5897 7.244636126183351 7.276331326549076 0.3083920676698607 0 0 1
712 1 2 -1.1794 7.498520298096896 9.730704336511444 5.411719517457434 0 0 0
793 1 2 -1.1794 3.1334095532529336 9.544745826051003 5.565107422878041 0 0 0
773 1 1 0.5897 9.091328393175791 10.469119466196874 2.292422066802575 0 0 0
363 1 1 0.5897 5.219031216722228 11.166277299504229 0.11602997763881098 0 0 1
45 1 1 0.5897 1.0207744844484599 11.68717638152004 2.4129817927559487 0 0 0
582 1 1 0.5897 5.231004821676553 11.034263053613103 8.29773792882368 0 0 0
822 1 1 0.5897 8.24958005155022 10.003963017197632 9.877659418947967 0 0 0
649 1 2 -1.1794 3.3914030631121674 7.082491923146334 9.544258266805938 0 0 0
146 1 1 0.5897 6.675914111203021 6.538320748577349 6.103771870059085 0 0 0
527 1 1 0.5897 7.650251181129764 8.012618733237733 9.585315082596383 0 0 0
114 1 1 0.5897 1.6097925178223393 6.3325395820076915 10.072506395323797 0 0 0
687 1 1 0.5897 4.5203521323560985 6.183072534152511 5.8719334467606625 0 0 0
528 1 1 0.5897 8.342584354421492 6.667837668400218 9.651328400715837 0 0 0
650 1 1 0.5897 3.416668450466564 6.954830923669818 8.595989894746422 0 0 0
578 1 1 0.5897 6.064064115896492 10.49233629927904 6.078906254963166 0 0 0
577 1 2 -1.1794 5.322009691498348 10.902136854367837 6.523449532950167 0 0 0
147 1 1 0.5897 7.37636083337947 6.994362857170203 7.365962832169282 0 0 0
795 1 1 0.5897 3.8457649470649717 9.969410432071452 6.043067539449659 0 0 0
256 1 2 -1.1794 2.699467722475979 9.688384020634395 10.026869520238161 0 0 0
551 1 1 0.5897 0.8627250175057033 10.790396808942397 7.332251460231655 0 0 0
820 1 2 -1.1794 7.385627139054256 9.708838786829897 10.165186978358197 0 0 0
713 1 1 0.5897 8.205815321353152 10.170388780690258 5.8835355762219725 0 0 0
145 1 2 -1.1794 7.374306423457214 7.113507738484657 6.416259154426593 0 0 0
258 1 1 0.5897 3.527664115670513 10.130904448353181 9.841188429670337 0 0 0
581 1 1 0.5897 5.9141169007593115 10.525969340917712 9.549427379815231 0 0 0
15 1 1 0.5897 1.1983052323186367 10.272263248685693 9.250369219724998 0 0 0
714 1 1 0.5897 7.507031226378311 8.834249360148458 5.747333483716944 0 0 0
651 1 1 0.5897 4.137834151763524 6.581977611840583 9.873726456390283 0 0 0
11 1 1 0.5897 2.3651042293767155 6.745929349479029 6.503436076088163 0 0 0
526 1 2 -1.1794 7.624627668261321 7.12911056173383 9.21777352319241 0 0 0
12 1 1 0.5897 3.2827614556331404 7.931229775339241 6.291194406174477 0 0 0
13 1 2 -1.1794 0.4526749441801437 10.829647346433257 9.02767322808608 0 0 0
794 1 1 0.5897 2.346022562240483 10.013629886034124 5.841491730766854 0 0 0
580 1 2 -1.1794 5.155362225084462 11.027934773382757 9.251871535025682 0 0 0
257 1 1 0.5897 2.8744308423613347 8.765105097402003 9.844406865843652 0 0 0
10 1 2 -1.1794 3.212432502823065 7.104094475669901 6.767905193403923 0 0 0
550 1 2 -1.1794 0.9081129058235783 10.93972950909507 6.387910908281109 0 0 0
165 1 1 0.5897 8.972582369974328 6.27421023097288 6.088828236342231 0 0 0
677 1 1 0.5897 6.3354322832776555 6.229983959692741 10.196442160568768 0 0 0
182 1 1 0.5897 0.15518045960602955 6.48668415024265 6.141857023803458 1 0 0
14 1 1 0.5897 0.6913799072504654 11.694550247404136 9.361267551530457 0 0 0
579 1 1 0.5897 5.279212087728136 11.784723467918694 6.155295508402101 0 0 0
828 1 1 0.5897 7.725219958273177 7.348899030688566 14.985247373220643 0 0 0
261 1 1 0.5897 0.8753241229432568 11.12117158519666 14.761435296820396 0 0 0
332 1 1 0.5897 2.8832159763552 7.935306766705788 13.486670825763516 0 0 0
797 1 1 0.5897 2.8619424192023213 9.525523330116567 11.771494868990507 0 0 0
796 1 2 -1.1794 2.9187676997866516 9.52608577886677 12.726954707774057 0 0 0
798 1 1 0.5897 2.129791545518026 9.985826139439595 13.014004871067089 0 0 0
722 1 1 0.5897 4.510775873472115 10.211085407379572 13.526003255589641 0 0 0
333 1 1 0.5897 3.6945197963292284 6.662662299492341 13.606021335177722 0 0 0
259 1 2 -1.1794 0.8645687297169895 11.096636156626372 13.804660284294243 0 0 0
721 1 2 -1.1794 5.224239110651476 10.778605264694127 13.817785779507945 0 0 0
723 1 1 0.5897 5.121788021483983 10.823388001315715 14.768381896711329 0 0 0
331 1 2 -1.1794 2.898315918189972 7.08570108995069 13.927420846537798 0 0 0
225 1 1 0.5897 3.1579608323236563 6.562394225339127 15.749060863296078 0 0 0
826 1 2 -1.1794 7.666688658585178 7.247768202120472 14.035253243666855 0 0 0
475 1 2 -1.1794 7.666518031008248 9.727621698759263 12.976421790889823 0 0 0
476 1 1 0.5897 6.885738137199657 10.107577927367084 13.379175996592974 0 0 0
477 1 1 0.5897 7.714939871893359 8.841631046387478 13.335604026621402 0 0 0
827 1 1 0.5897 6.87428403031004 6.728777954294986 13.897528372125558 0 0 0
366 1 1 0.5897 1.4498365461793068 6.317324505613978 13.406295696514025 0 0 0
821 1 1 0.5897 7.429896201563935 9.7322179829577 11.121025436283386 0 0 0
851 1 1 0.5897 9.064501216061963 6.311861074558206 13.31390588407247 0 0 0
445 1 2 -1.1794 0.7354822122019777 10.949991357334845 16.579731834195847 0 0 0
462 1 1 0.5897 9.03358629881198 6.316830290092535 21.022393986688996 0 0 0
395 1 1 0.5897 0.14499340360465976 10.325059703035013 20.970736210616757 0 0 0
690 1 1 0.5897 2.4425029684762785 9.956830018797678 20.454731643667955 0 0 0
224 1 1 0.5897 3.0129215416864055 7.561502114987397 16.877180176439303 0 0 0
521 1 1 0.5897 6.895573423642672 6.878764337885622 16.9684521753854 0 0 0
287 1 1 0.5897 9.099605507220609 10.542673475591979 20.89120076586373 0 0 0
7 1 2 -1.1794 7.568555050926037 9.839306156203616 17.490961023591353 0 0 0
246 1 1 0.5897 8.93391028478408 10.732728765614672 17.088666091012477 0 0 0
520 1 2 -1.1794 7.769496440616056 7.208441984058725 16.75926145172493 0 0 0
160 1 2 -1.1794 7.3864370587963215 7.242903067130651 21.379897834235592 0 0 0
223 1 2 -1.1794 3.072420800681677 6.622570459246321 16.70047883683283 0 0 0
139 1 2 -1.1794 7.526374648399086 9.807244845046405 20.28143542165511 0 0 0
279 1 1 0.5897 4.604488021397927 6.114088202664424 17.289786800932852 0 0 0
9 1 1 0.5897 6.722223578943582 10.26257411863368 17.34680810485571 0 0 0
625 1 2 -1.1794 2.9433231854758444 9.355829876781257 17.255401578555116 0 0 0
680 1 1 0.5897 4.331673348175381 10.577349791872196 16.977403829790482 0 0 0
522 1 1 0.5897 7.74855809926191 8.128358495010504 17.023206907693826 0 0 0
679 1 2 -1.1794 5.15632146822037 11.01238161157725 16.76081456483142 0 0 0
161 1 1 0.5897 6.714997486801369 6.641572861509916 21.057697575711586 0 0 0
141 1 1 0.5897 7.518578875242252 8.896217649716549 20.575236122869647 0 0 0
8 1 1 0.5897 7.650010057070687 9.783734571838911 18.44302021505252 0 0 0
688 1 2 -1.1794 3.2149773922877523 9.54843922854311 20.06396578795757 0 0 0
361 1 2 -1.1794 5.164078060242168 11.10250745619389 21.18009384684575 0 0 0
6 1 1 0.5897 3.0112431634092793 7.836494897613246 20.783471404515275 0 0 0
626 1 1 0.5897 2.9647205270383754 9.39955061985496 18.211323016761014 0 0 0
4 1 2 -1.1794 2.9928542373407763 6.990579811583135 21.231132951327126 0 0 0
5 1 1 0.5897 3.7908558647487265 6.548346774161891 20.94155331920522 0 0 0
140 1 1 0.5897 6.716340834088095 10.178973632158323 20.630531905486365 0 0 0
689 1 1 0.5897 3.9530393858211195 10.04796422857741 20.413198161992142 0 0 0
394 1 2 -1.1794 0.943041189417955 10.816901319374596 21.164213499323694 0 0 0
627 1 1 0.5897 2.1292280701256763 9.797210082481145 17.013172050339115 0 0 0
647 1 1 0.5897 1.5418161671417487 6.216842828526432 20.683379108863576 0 0 0
200 1 1 0.5897 5.140720579462811 13.491473444954954 4.732548365650422 0 0 0
173 1 1 0.5897 4.668411714985883 14.140099884831047 2.6783585480767664 0 0 0
172 1 2 -1.1794 5.495974601165713 13.708620148241245 2.8909167657086194 0 0 0
293 1 1 0.5897 2.9929490378661603 16.62037606419993 2.7126141181570653 0 0 0
558 1 1 0.5897 2.8538167385804534 14.718281999400602 1.4256035451444762 0 0 0
556 1 2 -1.1794 3.0005298466075088 14.904069810499571 2.3530203394205618 0 0 0
557 1 1 0.5897 2.324254220498189 14.402351550821429 2.8081513209485087 0 0 0
478 1 2 -1.1794 7.699336446276259 15.047974250330316 1.9588129040063462 0 0 0
174 1 1 0.5897 5.420511061540511 12.838406025588737 2.499305670316698 0 0 0
479 1 1 0.5897 8.419783870160366 14.54765199463497 2.3420242983876043 0 0 0
449 1 1 0.5897 7.671252543143345 16.631488709199154 2.636277287070976 0 0 0
480 1 1 0.5897 6.908830906807697 14.633454944245972 2.3044770170254303 0 0 0
373 1 2 -1.1794 0.9087178328129168 13.360421188442144 3.164270295925254 0 0 0
374 1 1 0.5897 0.6840771159319816 13.490376355655949 4.085565844024369 0 0 0
294 1 1 0.5897 2.8381107615505514 17.507375252188005 3.9296224255713073 0 0 0
292 1 2 -1.1794 2.8840094220635257 17.53479969081885 2.9739658690795805 0 0 0
448 1 2 -1.1794 7.591228170326683 17.479160788741765 3.0737386310570516 0 0 0
308 1 1 0.5897 7.290067262164052 17.470739260756545 4.806361462589845 0 0 0
375 1 1 0.5897 0.20241251319439993 13.790368214847009 2.682113128264906 0 0 0
317 1 1 0.5897 7.715959144505817 14.90461207730101 0.1760732032685305 0 0 0
184 1 2 -1.1794 7.256925546295002 17.438848570112725 10.47211702809691 0 0 0
307 1 2 -1.1794 7.283832066786105 17.482197036697848 5.763425552999303 0 0 0
199 1 2 -1.1794 4.988819447929305 13.521322461409659 5.677097315567054 0 0 0
655 1 2 -1.1794 0.8774417598625976 13.615371241630278 5.917083518535945 0 0 0
812 1 1 0.5897 3.796968687965982 14.468423347820885 9.830155388120634 0 0 0
813 1 1 0.5897 2.3065598607631856 14.209681094839244 9.771081929767021 0 0 0
17 1 1 0.5897 3.0130836859976435 14.994683581159414 7.67909146072551 0 0 0
59 1 1 0.5897 8.891955560689885 13.930655886323681 9.810164140290947 0 0 0
377 1 1 0.5897 6.744832361881186 14.465189876337037 9.675244725227538 0 0 0
656 1 1 0.5897 1.4985413681899282 14.25446309654312 6.2664389206846405 0 0 0
811 1 2 -1.1794 2.977883503376213 14.834232576742595 9.496277150308288 0 0 0
766 1 2 -1.1794 0.7648372080706539 13.295308860973226 10.094419545497466 0 0 0
456 1 1 0.5897 5.258873454884039 12.715327369745042 9.957866401317204 0 0 0
517 1 2 -1.1794 7.217114541144087 14.838202872502126 6.621289110814286 0 0 0
518 1 1 0.5897 7.27895824316423 15.767259009843208 6.399073027558509 0 0 0
18 1 1 0.5897 3.6471806453200317 14.55867983257091 6.375424421281523 0 0 0
16 1 2 -1.1794 2.968394186461437 15.131203179297717 6.7327752530047 0 0 0
382 1 2 -1.1794 2.8902461871242227 17.36961889823015 10.292572041548802 0 0 0
239 1 1 0.5897 3.0045438688084642 16.822384244921658 6.1169556288769265 0 0 0
384 1 1 0.5897 2.978023443505836 16.443250699567315 10.067867250360209 0 0 0
519 1 1 0.5897 8.073658994757029 14.478667800796444 6.390499400918773 0 0 0
376 1 2 -1.1794 7.492332177920522 14.964516539422638 9.346386554737435 0 0 0
378 1 1 0.5897 7.373567226352959 14.976852179726546 8.396712733665435 0 0 0
454 1 2 -1.1794 5.2740354232263655 13.618811140064727 10.273819591739004 0 0 0
201 1 1 0.5897 5.786924966139778 13.908805341885595 6.036383291077975 0 0 0
186 1 1 0.5897 7.345167991252642 16.570547725358807 10.078928455506178 0 0 0
552 1 1 0.5897 0.8483457222897705 11.890313194727803 6.292087693094898 0 0 0
767 1 1 0.5897 0.7758346215557733 13.381735959502333 11.047596372451993 0 0 0
429 1 1 0.5897 5.996712580142988 13.91895075854797 13.216363413159794 0 0 0
232 1 2 -1.1794 3.0552896047990967 14.918970683619019 13.637316696139912 0 0 0
234 1 1 0.5897 3.061699311807601 14.954791915115553 14.59377459742069 0 0 0
606 1 1 0.5897 2.836472050136857 16.662294280612606 13.361935860981502 0 0 0
427 1 2 -1.1794 5.192938134078505 13.478027809628745 12.94113596199343 0 0 0
233 1 1 0.5897 3.8256065056344797 14.39757094297762 13.41152466150504 0 0 0
639 1 1 0.5897 1.60429062225735 14.017842770342252 13.04299797972582 0 0 0
428 1 1 0.5897 5.265912358826858 12.596066248848206 13.306053336074617 0 0 0
297 1 1 0.5897 8.378172412618085 14.421892325172886 13.563606094805701 0 0 0
296 1 1 0.5897 7.429741252047415 14.786231545481398 14.685867457198928 0 0 0
295 1 2 -1.1794 7.499140880519462 14.761442178259319 13.731555198852783 0 0 0
270 1 1 0.5897 7.323592664242268 16.500981524399172 13.519560855152683 0 0 0
638 1 1 0.5897 0.8115093894304496 12.736724924523983 13.192448541067607 0 0 0
637 1 2 -1.1794 0.758121661849068 13.622496768931557 12.833429250068221 0 0 0
605 1 1 0.5897 2.913606959817418 17.519195076277214 12.116303441841417 0 0 0
604 1 2 -1.1794 2.7376958533303384 17.56397785320255 13.056081265059623 0 0 0
269 1 1 0.5897 7.190797712153909 17.430983136502576 12.332402962537872 0 0 0
455 1 1 0.5897 5.282942629506944 13.539317444960611 11.227620777011207 0 0 0
49 1 2 -1.1794 7.141978946616223 14.957538961551682 16.49899608115053 0 0 0
823 1 2 -1.1794 3.0049806981325697 14.74515927814468 16.437489272434867 0 0 0
268 1 2 -1.1794 7.2787480427395 17.428108102880984 13.285497097498867 0 0 0
446 1 1 0.5897 0.6573121475835595 11.831827687695917 16.943849473936282 0 0 0
681 1 1 0.5897 5.063591211190999 11.894990998702111 17.11960645500526 0 0 0
125 1 1 0.5897 5.214454139756571 13.714162149434358 18.678488570982374 0 0 0
52 1 2 -1.1794 0.782748985353916 13.619207584881744 17.54311510685261 0 0 0
715 1 2 -1.1794 2.893195016617139 17.244204169906112 20.6239660958151 0 0 0
716 1 1 0.5897 2.9257840306543264 17.106978987054802 19.67726509475382 0 0 0
684 1 1 0.5897 4.698050077831671 14.131366236580924 20.999638916190108 0 0 0
682 1 2 -1.1794 5.428621756406673 13.719507237121938 20.53830241521812 0 0 0
159 1 1 0.5897 7.238571644499295 17.247960019739523 19.55576286526199 0 0 0
157 1 2 -1.1794 7.265574933627605 17.279899525793034 20.511999507361296 0 0 0
664 1 2 -1.1794 3.032720371301294 14.617542063651694 21.594589888106192 0 0 0
53 1 1 0.5897 0.7809954514406595 13.562599191622775 18.498588854471414 0 0 0
610 1 2 -1.1794 7.384034307792397 17.46337073055812 17.6213434433946 0 0 0
452 1 1 0.5897 0.8920443688880215 12.505392236454018 20.514410239779927 0 0 0
683 1 1 0.5897 6.209277463647137 14.129549612917717 20.910646615227876 0 0 0
51 1 1 0.5897 7.900960729618471 14.469756799970781 16.818764749608818 0 0 0
318 1 1 0.5897 7.6766283288635355 15.640283069276247 20.871070779827228 0 0 0
665 1 1 0.5897 2.2790512760578117 14.177939588366028 21.20095569347182 0 0 0
584 1 1 0.5897 2.8752746824779694 16.34914649740177 17.260578907872834 0 0 0
126 1 1 0.5897 5.796887449532036 14.17091452960611 17.357927828530165 0 0 0
124 1 2 -1.1794 5.087642406775111 13.64821111761673 17.73206982915081 0 0 0
50 1 1 0.5897 7.23056011039883 15.825160913812692 16.89359449036384 0 0 0
825 1 1 0.5897 2.2252906417335674 14.330522932983921 16.80676016166487 0 0 0
451 1 2 -1.1794 0.8969121764989133 13.42206152613153 20.238652692964322 0 0 0
824 1 1 0.5897 3.7374422346167435 14.259579198391084 16.816868035602347 0 0 0
666 1 1 0.5897 2.929260275575449 15.537092794780968 21.34950053367887 0 0 0
316 1 2 -1.1794 7.751239890630748 14.76334943585103 21.247565857104668 0 0 0
583 1 2 -1.1794 2.871327519507264 17.16242492589351 17.765416214453047 0 0 0
362 1 1 0.5897 5.24019517915804 12.00643545802135 20.874353798142778 0 0 0
585 1 1 0.5897 3.6663604236264957 17.61928592077085 17.490808526560926 0 0 0
267 1 1 0.5897 5.905322760791662 21.749820127693198 2.728754688773061 0 0 0
696 1 1 0.5897 1.325998216368879 21.837444903709162 2.8896806228890286 0 0 0
266 1 1 0.5897 4.391629528484649 21.74073235931327 2.709135939041751 0 0 0
265 1 2 -1.1794 5.149070467781834 21.197432020319475 2.9267039470747696 0 0 0
228 1 1 0.5897 5.323650084066053 19.449657202903488 2.329658305979637 0 0 0
343 1 2 -1.1794 0.5995994455553184 18.750825305883424 2.239366147726254 0 0 0
249 1 1 0.5897 5.11090218509141 21.558617340000602 4.733377471468392 0 0 0
226 1 2 -1.1794 5.293587827599732 18.53967678504516 2.0340697547976467 0 0 0
187 1 2 -1.1794 2.877606660460096 22.53468349000692 2.3184391047728594 0 0 0
818 1 1 0.5897 8.302320140722685 21.83460085660105 2.5991326835589734 0 0 0
189 1 1 0.5897 2.9845411734691125 22.508340068025724 1.3676450859587963 0 0 0
344 1 1 0.5897 1.414745508558882 18.312527474221504 2.4836059763945575 0 0 0
817 1 2 -1.1794 7.509104885584989 22.2726228177887 2.2906667770987355 0 0 0
345 1 1 0.5897 0.666130632614464 18.870780262829122 1.292090432603295 0 0 0
694 1 2 -1.1794 0.5277296857595208 21.372634159938507 3.140552105735549 0 0 0
413 1 1 0.5897 0.4851810662562493 21.545135526523133 4.873555118721276 0 0 0
695 1 1 0.5897 0.6570373697870091 20.48125180551113 2.8164373704237526 0 0 0
227 1 1 0.5897 4.476000175827632 18.196944262344573 2.3950017961194723 0 0 0
602 1 1 0.5897 5.143531022747196 18.605456213236295 0.2782526890667725 0 0 0
498 1 1 0.5897 7.495034617296215 22.360039973028492 0.4692855638965115 0 0 0
321 1 1 0.5897 9.043619430415678 18.303320660035588 2.3509515422078597 0 0 0
450 1 1 0.5897 6.808417827348214 17.874356186355932 2.6900225698005924 0 0 0
819 1 1 0.5897 7.630783772126119 23.19000629334849 2.5355227925060273 0 -1 0
412 1 2 -1.1794 0.5266722137038041 21.679382539914577 5.820340301347937 0 0 0
247 1 2 -1.1794 5.1602195783162275 21.747148267552816 5.67048312937011 0 0 0
32 1 1 0.5897 8.22289755662019 22.275498373723735 6.293930830823078 0 0 0
309 1 1 0.5897 8.130791545973473 17.857393821205598 6.0044427275761105 0 0 0
87 1 1 0.5897 8.028664825273566 22.04007727181684 9.64253616108409 0 0 0
700 1 2 -1.1794 2.7898110656613424 22.788375422289718 6.8008614343920115 0 0 0
85 1 2 -1.1794 7.200526202610382 22.4281686263515 9.36009584883854 0 0 0
94 1 2 -1.1794 0.5259579615928531 20.897041751489745 10.251327065550617 0 0 0
185 1 1 0.5897 8.052837283761754 17.902368799877756 10.211564204465674 0 0 0
405 1 1 0.5897 0.45630399672780675 19.222647103600977 9.676680211029042 0 0 0
39 1 1 0.5897 3.388986465314757 22.00142748735322 9.956143896503729 0 0 0
386 1 1 0.5897 6.064671406016098 18.734021853205604 6.305894502656447 0 0 0
555 1 1 0.5897 4.882262120643838 20.586613690056204 10.21401007476401 0 0 0
340 1 2 -1.1794 0.6388681432485961 18.893788366165893 6.569768487577392 0 0 0
37 1 2 -1.1794 2.6737698332816904 22.47894759326946 9.535849202248102 0 0 0
554 1 1 0.5897 5.749018922359346 21.82385192955398 10.314175345372018 0 0 0
38 1 1 0.5897 1.8982713208019817 21.9421741489408 9.699263993345891 0 0 0
31 1 2 -1.1794 7.519550828651026 22.872867784285788 6.548283295975256 0 0 0
248 1 1 0.5897 4.324333592518931 22.166134542462665 5.8753093753162675 0 0 0
701 1 1 0.5897 2.681994366345191 22.668978871166303 7.744394604516597 0 0 0
33 1 1 0.5897 6.72193678276524 22.458098379629604 6.219685342856236 0 0 0
100 1 2 -1.1794 5.091052096451854 18.898698738834753 9.507968360467673 0 0 0
86 1 1 0.5897 7.284066733391617 22.506728098444725 8.409838804337227 0 0 0
702 1 1 0.5897 2.039599322003595 22.336552636333643 6.414541704144013 0 0 0
383 1 1 0.5897 3.6560822321475204 17.78611515365651 9.897316711837401 0 0 0
342 1 1 0.5897 0.6927504318410974 18.696807316350807 7.5048816428515055 0 0 0
387 1 1 0.5897 5.240498140971418 20.002502174585565 6.367301091673295 0 0 0
403 1 2 -1.1794 0.452106788686622 18.344340640995426 9.2960375284911 0 0 0
404 1 1 0.5897 1.1978622336039293 17.902971949372237 9.702548512799407 0 0 0
553 1 2 -1.1794 4.913422293931977 21.45938760540134 10.60595671416264 0 0 0
101 1 1 0.5897 5.896855306156115 18.43146564431367 9.728422105111518 0 0 0
341 1 1 0.5897 1.4676719980392927 18.577966204794556 6.209873602107286 0 0 0
102 1 1 0.5897 5.089628725316865 18.93659492208048 8.551565923474879 0 0 0
414 1 1 0.5897 0.5086285020953363 20.796124186306052 6.18893499968064 0 0 0
385 1 2 -1.1794 5.242236884610498 19.08662102119615 6.645692945340115 0 0 0
240 1 1 0.5897 3.77393292371841 18.11813053634293 5.97139950492737 0 0 0
238 1 2 -1.1794 2.9713174929453063 17.678708664368813 5.690430151572178 0 0 0
88 1 2 -1.1794 5.351382746715139 21.3636401015794 13.237258891126963 0 0 0
381 1 1 0.5897 1.5835215208151143 21.672795565481202 13.358238928349119 0 0 0
90 1 1 0.5897 5.352717873473168 20.486534506823148 13.620681906234642 0 0 0
763 1 2 -1.1794 5.01248237385767 18.810717110519917 14.12225790652682 0 0 0
738 1 1 0.5897 3.9077515101204168 22.1403055505304 13.737198546048191 0 0 0
89 1 1 0.5897 5.1712301363067255 21.219142233050917 12.308383229169396 0 0 0
736 1 2 -1.1794 3.063516688080404 22.473185271018266 14.041587120867295 0 0 0
789 1 1 0.5897 6.88089689621041 22.22545035271782 13.619331063320512 0 0 0
765 1 1 0.5897 5.759372871103798 18.305158282794707 13.801657253897467 0 0 0
787 1 2 -1.1794 7.609348066420016 22.745678098382413 13.958371175331967 0 0 0
503 1 1 0.5897 1.2679127792712719 18.339818054159643 13.578596641441298 0 0 0
764 1 1 0.5897 4.249672973484681 18.388694597715947 13.727010078223241 0 0 0