LAMMPS data file via write_data, version 30 Jul 2021, timestep = 1500000

1920 atoms
2 atom types
1280 bonds
1 bond types
640 angles
1 angle types

-0.11084253359728713 24.840843533599546 xlo xhi
-0.20657712802954364 24.93657812802699 ylo yhi
-0.07797031756807726 22.887970317569724 zlo zhi

Masses

1 1.008
2 15.999

Pair Coeffs # lj/cut/tip4p/long/omp

1 0 0
2 0.21084 3.1668

Bond Coeffs # harmonic/omp

1 450 0.9572

Angle Coeffs # harmonic/omp

1 55 104.52

Atoms # full

1 1 2 -1.1794 4.587220569148799 1.3699831581996527 3.9161588870137267 0 0 0
2 1 1 0.5897 4.536279830387859 2.178187752273307 4.426476697131169 0 0 0
3 1 1 0.5897 5.411578975678629 1.4415211464344153 3.434978755795141 0 0 0
4 2 2 -1.1794 3.033312871194106 1.3141720508780745 1.7395669133480112 0 0 0
5 2 1 0.5897 3.52947737706306 1.2716987432436033 2.5570508809321035 0 0 0
6 2 1 0.5897 2.119712640494529 1.2168749261413245 2.0080411885222533 0 0 0
9 3 1 0.5897 5.165956364369933 4.177611074801826 3.2655823704486666 0 0 0
10 4 2 -1.1794 3.284954720529812 4.276457470578144 3.4830341773296074 0 0 0
11 4 1 0.5897 3.0118098248090655 4.987296408826684 4.062965430482855 0 0 0
12 4 1 0.5897 2.720244218267023 4.362865820816082 2.7149867389131255 0 0 0
13 5 2 -1.1794 1.613242685192468 2.818645951963027 4.988357924565761 0 0 0
14 5 1 0.5897 2.239422856020741 3.136894222860171 4.338087877130208 0 0 0
15 5 1 0.5897 1.6236580351903935 1.8670325116489188 4.885887869014693 0 0 0
20 7 1 0.5897 3.989459000389327 2.858889134415742 0.8081411006040159 0 0 0
22 8 2 -1.1794 1.6209551941824625 4.401370463980193 1.4160827345519889 0 0 0
21 7 1 0.5897 5.478455480904048 2.6817502815577217 0.5999769132971008 0 0 0
24 8 1 0.5897 1.5124567614284425 5.199214811810895 0.8985095762261519 0 0 0
19 7 2 -1.1794 4.712142911228084 3.12988579885513 0.24199999576404974 0 0 0
23 8 1 0.5897 0.8946369842252238 4.418938408041156 2.0392884440872057 0 0 0
28 10 2 -1.1794 1.7479748993180801 0.13497111970657838 4.823644947093608 0 0 0
16 6 2 -1.1794 0.27206667463992096 1.4695867341212787 2.0079792743698515 0 0 0
1455 485 1 0.5897 1.4923469815743575 3.1968971417306644 0.19025079250583604 0 0 1
387 129 1 0.5897 4.000225200695319 0.3282028117452578 0.7991563976380073 0 1 0
99 33 1 0.5897 0.2164911441845786 3.741355540561683 3.898881274316301 1 0 0
150 50 1 0.5897 1.4517807046726685 5.8848194843287365 5.640977477492105 0 0 0
98 33 1 0.5897 0.048722327260439596 5.245344009780771 3.8585495698761916 1 0 0
25 9 2 -1.1794 4.301460099250692 5.820856869003576 0.7897775474034141 0 0 0
27 9 1 0.5897 4.448324969677084 4.904561363334836 0.5552245528134855 0 0 0
7 3 2 -1.1794 6.0122875973638825 4.434746707306416 2.8997708664995034 0 0 0
867 289 1 0.5897 4.82823670590979 -0.1296294999996519 5.441842558731681 0 1 0
495 165 1 0.5897 1.6279172954635261 3.5349388758322084 11.299032007989926 0 0 0
579 193 1 0.5897 0.07119402618528853 5.387131047093629 9.502586503331344 1 0 0
508 170 2 -1.1794 1.2527950459186545 0.28668578215058194 10.730732652941176 0 0 0
528 176 1 0.5897 5.916569218689141 2.1472040398342886 7.015935224918043 0 0 0
484 162 2 -1.1794 3.0505660698499093 1.5117632717362934 7.70472635160169 0 0 0
527 176 1 0.5897 5.778727257015937 0.6481143564691064 7.175590169931499 0 0 0
493 165 2 -1.1794 1.6249154145799156 3.106998397169408 10.44280824789304 0 0 0
483 161 1 0.5897 4.690494081939079 2.0234043919153355 10.659089720503054 0 0 0
494 165 1 0.5897 1.4655870520744936 2.1833223411059204 10.636767894461574 0 0 0
492 164 1 0.5897 2.9266448592175394 3.976601537613911 9.628116371100353 0 0 0
490 164 2 -1.1794 3.4187205067998043 4.561207450756414 9.05163715492945 0 0 0
502 168 2 -1.1794 1.5626273638664903 4.591052240056832 7.068703478629734 0 0 0
496 166 2 -1.1794 0.02087079904003533 1.6604045530074985 7.861255624991705 0 0 0
499 167 2 -1.1794 4.75019430944824 3.18030522891443 5.984508584450885 0 0 0
481 161 2 -1.1794 4.730637020066759 1.3888200929715346 9.943598964910892 0 0 0
498 166 1 0.5897 0.9703838646504646 1.6286634952503105 7.744500905517247 0 0 0
503 168 1 0.5897 0.7708902692708202 4.48571125518279 7.596232460957348 0 0 0
482 161 1 0.5897 5.50834352552223 1.6385999731128 9.444598826445556 0 0 0
489 163 1 0.5897 5.3162860502223515 4.455477195812896 9.082776268186048 0 0 0
486 162 1 0.5897 3.4296001308319886 0.8573676700693176 7.117938980286731 0 0 0
501 167 1 0.5897 4.744329332761389 4.1272014313669505 6.124324050907926 0 0 0
485 162 1 0.5897 3.6312292619708777 1.516836481738223 8.465683308588398 0 0 0
491 164 1 0.5897 2.8935192902756923 4.608513902618611 8.252773382173695 0 0 0
500 167 1 0.5897 4.053338053903547 2.8497159619137706 6.5513659511849305 0 0 0
504 168 1 0.5897 1.6020467658638002 3.798099094860204 6.5340252561265295 0 0 0
578 193 1 0.5897 0.006012918677809342 3.874708349950007 9.513987660091232 1 0 0
505 169 2 -1.1794 4.869290123229697 5.772082316916261 6.2736885651304775 0 0 0
510 170 1 0.5897 2.0946934839342872 0.0251364878968435 10.357892369762338 0 0 0
506 169 1 0.5897 4.084737695241209 6.030662316489451 6.757248834469286 0 0 0
961 321 2 -1.1794 4.379873170795278 1.4825331264396222 15.708330920936161 0 0 0
962 321 1 0.5897 5.141079308200871 1.4676004274300272 15.128180870641742 0 0 0
963 321 1 0.5897 4.50643621549245 0.7327218174060807 16.28969022181677 0 0 0
964 322 2 -1.1794 2.7528811751096045 1.0008264251821524 13.51934454279514 0 0 0
965 322 1 0.5897 3.228658375799964 1.0312018672458778 14.349390639335766 0 0 0
966 322 1 0.5897 1.844240058683063 1.1859176376854013 13.75667043803322 0 0 0
970 324 2 -1.1794 2.9700724588250482 4.610417777989066 14.789216425124183 0 0 0
971 324 1 0.5897 3.900947459820043 4.518735470906785 14.586065278897413 0 0 0
972 324 1 0.5897 2.5345937080342105 4.581956102745757 13.937271444863027 0 0 0
973 325 2 -1.1794 1.347801626285118 2.8125385464475334 16.323285235842892 0 0 0
980 327 1 0.5897 3.623731800467598 2.2713135932972026 12.843156346126392 0 0 0
982 328 2 -1.1794 1.356895099093553 4.51344707285497 12.689633447224931 0 0 0
983 328 1 0.5897 1.0645800846399396 5.2425166493436635 12.142621516424361 0 0 0
984 328 1 0.5897 0.6731945798734446 4.4221537982221975 13.3533010855242 0 0 0
990 330 1 0.5897 1.5791214875756463 1.0070142582086112 16.415825073492346 0 0 0
979 327 2 -1.1794 4.312130873093319 2.844084156871358 12.505160603082603 0 0 0
974 325 1 0.5897 1.9624041978726932 3.3529454778389653 15.826854438138735 0 0 0
987 329 1 0.5897 4.358057368479746 4.846271676247762 12.14805190599966 0 0 0
981 327 1 0.5897 5.126943446274531 2.448386596314644 12.814534657932159 0 0 0
1460 487 1 0.5897 4.316560602081465 3.0448945351701386 17.047588537630286 0 0 0
988 330 2 -1.1794 1.3214658837516513 0.08876479907637169 16.334479432533197 0 0 0
985 329 2 -1.1794 4.326685455828617 5.7987699647298205 12.0589435011702 0 0 0
1110 370 1 0.5897 1.9690124091573624 5.781098205088775 15.844382945644774 0 0 0
1346 449 1 0.5897 4.15626717784537 -0.12693509084581941 12.800813381608057 0 1 0
1058 353 1 0.5897 -0.0812321596529273 3.772421485004846 15.438777952747678 1 0 0
1347 449 1 0.5897 4.996250206283006 0.11480948891445131 11.564707070497711 0 1 0
967 323 2 -1.1794 5.867869052596715 4.384202374661516 15.115824239346665 0 0 0
1109 370 1 0.5897 0.46874348100285557 5.632748902279543 15.982242147296848 0 0 0
976 326 2 -1.1794 0.06312717848326865 1.3759333325975103 13.828310100688904 0 0 0
986 329 1 0.5897 3.5955928068995444 6.067872144215492 12.61510055686325 0 0 0
1447 483 2 -1.1794 6.025986281375749 4.769211868181074 20.697572000529984 0 0 0
1590 530 1 0.5897 2.054187141502314 5.899970073177126 21.817529771804505 0 0 0
1462 488 2 -1.1794 1.2654030938389595 4.482360352437695 18.682303255157816 0 0 0
1488 496 1 0.5897 6.019696471253769 0.47882610856102004 18.214603723414058 0 0 0
1456 486 2 -1.1794 -0.013465098876155296 1.3634001025090745 19.30237809757551 0 0 0
1468 490 2 -1.1794 1.1923001828225308 -0.0261185167107022 22.009926759080372 0 0 0
1538 513 1 0.5897 0.1248417580339998 3.794237533652006 21.487268979774214 1 0 0
1487 496 1 0.5897 5.822975044328032 1.3448506086144352 19.440668446904247 0 0 0
1459 487 2 -1.1794 4.346035786107127 3.348340404483589 17.954960754325093 0 0 0
386 129 1 0.5897 4.972381236961521 0.33935960850454927 22.604590899830715 0 1 -1
975 325 1 0.5897 1.254938217083384 3.263779869763588 17.1623405429473 0 0 0
1445 482 1 0.5897 1.7853279846566585 1.4936085910426606 18.974135164195868 0 0 0
1450 484 2 -1.1794 3.0701481957423766 4.091783405272966 20.885861056313374 0 0 0
1451 484 1 0.5897 3.9874481370172488 4.3362403677690695 20.76336413499573 0 0 0
1452 484 1 0.5897 2.66718072134964 4.235138008559677 20.029511077055496 0 0 0
1441 481 2 -1.1794 4.900167278644831 1.4214466320422814 20.970413109838116 0 0 0
1446 482 1 0.5897 3.0701032545340996 2.162738790221953 18.534317607369374 0 0 0
1442 481 1 0.5897 4.09790810079628 1.555158063366655 20.465714441075143 0 0 0
1454 485 1 0.5897 1.977986446017685 3.0855101355546513 21.726596916835785 0 0 0
1466 489 1 0.5897 4.3695891262079805 5.1957897366560735 17.840442266048967 0 0 0
1444 482 2 -1.1794 2.7232551278045545 1.3351432442171587 18.867445220170094 0 0 0
1453 485 2 -1.1794 1.3991411107064187 2.667532871139394 22.364146934146163 0 0 0
1464 488 1 0.5897 0.669728782481113 4.538153384922419 19.429501976932492 0 0 0
1443 481 1 0.5897 4.8722842625289875 2.0962535293929165 21.64871451853076 0 0 0
1463 488 1 0.5897 1.1871144543173318 5.332237344683486 18.24896826136953 0 0 0
1461 487 1 0.5897 5.164810617391286 2.992758753221626 18.30046665826854 0 0 0
1469 490 1 0.5897 1.4335259463732994 0.8634656472012279 22.268071572354554 0 0 0
1539 513 1 0.5897 -0.05897089459578898 5.290800130740996 21.35210563468102 1 0 0
121 41 2 -1.1794 4.857591083865597 7.635599813295523 4.196495393580502 0 0 0
122 41 1 0.5897 4.065795570455477 7.700858988596331 3.6626130286280123 0 0 0
123 41 1 0.5897 5.576756743081242 7.706891324844155 3.568836345185275 0 0 0
124 42 2 -1.1794 2.8959399352233697 7.78194657616677 2.07276217304155 0 0 0
125 42 1 0.5897 3.1827885727917025 6.933843268281281 1.7341773872803259 0 0 0
126 42 1 0.5897 3.2710368898984283 8.421365051623262 1.4672315558515474 0 0 0
129 43 1 0.5897 4.835077586724569 10.750761643115299 3.603066649722965 0 0 0
130 44 2 -1.1794 3.0939585864486983 10.454778679654773 3.561808541161126 0 0 0
132 44 1 0.5897 2.713361552574122 9.628908088237933 3.8605931474392796 0 0 0
133 45 2 -1.1794 1.1877897092523537 8.8377778005117 4.886223263984861 0 0 0
135 45 1 0.5897 0.6158197751490874 9.420517698310604 4.3867440689312165 0 0 0
137 46 1 0.5897 0.8763913232193067 7.560457477634521 2.3404936367743896 0 0 0
139 47 2 -1.1794 4.669482512660469 9.299352204393912 0.44616444149250545 0 0 0
142 48 2 -1.1794 1.6121155315747397 10.95611143521919 1.0959192659929413 0 0 0
143 48 1 0.5897 2.112749074226911 11.209719073213469 1.8713535292338856 0 0 0
144 48 1 0.5897 1.465404702417111 11.77695356244129 0.6258959802396625 0 0 0
149 50 1 0.5897 1.5536930918712146 7.144298437425957 4.807216324041068 0 0 0
131 44 1 0.5897 2.718808646228771 11.116131807607367 4.143268995698817 0 0 0
140 47 1 0.5897 4.532651656570667 10.228102253421708 0.2593998572981143 0 0 0
621 207 1 0.5897 4.807071249712316 8.92102827030879 5.506742421010553 0 0 0
168 56 1 0.5897 6.039921579178857 8.13910028077917 1.4092883172095516 0 0 0
136 46 2 -1.1794 -0.01921049894698859 7.697624502593981 2.0318001667293015 0 0 0
127 43 2 -1.1794 5.788490558770285 10.757535567012523 3.518466694234204 0 0 0
270 90 1 0.5897 0.8277984023248807 12.024892298542628 4.404802807431728 0 0 0
148 50 2 -1.1794 1.6088473635243012 6.19057888868473 4.7476087925916275 0 0 0
145 49 2 -1.1794 4.692549397700076 12.01319890024711 0.3772883822664422 0 0 0
507 169 1 0.5897 4.956134657058944 6.432539090236177 5.586313477420385 0 0 0
218 73 1 0.5897 0.16817389896746082 10.764838700458178 2.5430930564005716 1 0 0
1574 525 1 0.5897 1.2221036466007429 9.27623604833261 0.1568427201344182 0 0 1
128 43 1 0.5897 6.052984681201233 11.614590866442933 3.8526650041305435 0 0 0
146 49 1 0.5897 5.55972625136047 11.950855148698567 0.7777161721136621 0 0 0
26 9 1 0.5897 5.136787739978017 6.1118075550292055 1.1555440677200626 0 0 0
608 203 1 0.5897 6.056924255469358 11.414459172669842 9.469514425452278 0 0 0
605 202 1 0.5897 3.5794543509234114 7.979980438362867 7.203034366305173 0 0 0
601 201 2 -1.1794 4.55037484837961 7.803854338577889 9.898635630253239 0 0 0
629 210 1 0.5897 2.1019505213339102 6.238796166220949 10.030274297556023 0 0 0
624 208 1 0.5897 1.5314900598461962 11.457162980028654 6.838079889019387 0 0 0
618 206 1 0.5897 0.09484972920471862 6.9502341957626435 7.187242161942249 0 0 0
1101 367 1 0.5897 4.097738312438858 9.02000634855428 11.28727530085167 0 0 0
607 203 2 -1.1794 5.857353618124182 10.51143143000393 9.222734081964044 0 0 0
615 205 1 0.5897 0.7035629767196814 9.499333112494394 10.403215775507443 0 0 0
625 209 2 -1.1794 4.539496852190858 11.943568231341825 6.238364665210496 0 0 0
134 45 1 0.5897 1.1264593583100233 9.155474419628053 5.787100443347753 0 0 0
611 204 1 0.5897 4.065079941691277 10.717426641489718 9.251323726298272 0 0 0
619 207 2 -1.1794 4.7437693481892556 9.219952055960709 6.413884595991781 0 0 0
622 208 2 -1.1794 1.3116995035548822 10.647686225953617 7.299209638793447 0 0 0
626 209 1 0.5897 4.696678901481377 11.00988037372498 6.378719818562536 0 0 0
606 202 1 0.5897 2.238113842070256 7.41530018660786 7.619881527596666 0 0 0
613 205 2 -1.1794 1.5145403737784877 9.155049972644985 10.777370419023413 0 0 0
603 201 1 0.5897 4.106230488605006 7.560210984041935 9.086460429640411 0 0 0
602 201 1 0.5897 4.616059659165424 6.985669878077051 10.391039516844078 0 0 0
612 204 1 0.5897 2.9637310632775105 11.615402917270456 9.77332966345591 0 0 0
604 202 2 -1.1794 3.1798960354515238 7.302130950994926 7.748093880018371 0 0 0
620 207 1 0.5897 5.4606769837285825 8.773439792060245 6.864313613368849 0 0 0
623 208 1 0.5897 2.0634278120466254 10.484252036004087 7.868790540643909 0 0 0
614 205 1 0.5897 2.2098738627998875 9.619401179128442 10.311427640329214 0 0 0
630 210 1 0.5897 1.4231986906456757 7.422945990017109 10.685186240024112 0 0 0
610 204 2 -1.1794 3.1248159719610205 10.73676333405305 9.429464358231645 0 0 0
647 216 1 0.5897 5.734872118126602 7.712225041093677 8.688998972209845 0 0 0
616 206 2 -1.1794 0.47235563028685534 7.702942503614249 7.642350322107521 0 0 0
699 233 1 0.5897 0.18260319793197533 10.655829507975803 8.513032494410128 1 0 0
617 206 1 0.5897 0.18100607473548108 7.606106469631476 8.548997478303518 0 0 0
628 210 2 -1.1794 1.2895104254623206 6.50159918054049 10.462814967980353 0 0 0
750 250 1 0.5897 1.1825710248336077 12.135513592505884 11.303207013906663 0 0 0
648 216 1 0.5897 5.956668321233725 6.849730828988271 7.4647283214774935 0 0 0
1081 361 2 -1.1794 4.445300991982329 7.660796314065149 15.493616489588591 0 0 0
1082 361 1 0.5897 4.369348674628207 8.42010278071461 16.071454817983266 0 0 0
1083 361 1 0.5897 4.267949325558138 6.909693267888775 16.059834740334285 0 0 0
1084 362 2 -1.1794 2.734978261017707 7.547148443060804 13.44877961117479 0 0 0
1085 362 1 0.5897 3.2908478100887524 7.555255838555543 14.228007103204968 0 0 0
1086 362 1 0.5897 3.1476936181405404 8.172414427081417 12.853015407803273 0 0 0
1089 363 1 0.5897 5.017963847807056 10.56191496252648 14.577874217907807 0 0 0
1090 364 2 -1.1794 3.1842384858568336 10.746873496108675 14.87305483900322 0 0 0
1091 364 1 0.5897 2.973832809343811 11.575401672091978 15.303716473969281 0 0 0
1092 364 1 0.5897 2.5546719976148715 10.122422763395074 15.233492006536073 0 0 0
1094 365 1 0.5897 1.315078715329499 8.077168889441804 16.516617709851023 0 0 0
1095 365 1 0.5897 0.6233069615890809 9.408255073037799 16.31305285542527 0 0 0
1097 366 1 0.5897 1.0538907681201413 8.024941321074813 13.925532402069011 0 0 0
1099 367 2 -1.1794 4.2630834529304416 9.427291555979641 12.137594127014248 0 0 0
1100 367 1 0.5897 5.00718464645775 8.942837071241346 12.495120328558869 0 0 0
1102 368 2 -1.1794 1.7385561849014841 11.110795130245744 12.623499715221527 0 0 0
1103 368 1 0.5897 1.6325713796262513 10.388150191369425 12.00481277106288 0 0 0
1104 368 1 0.5897 2.5148116798006446 10.878553258134678 13.13312066800546 0 0 0
1093 365 2 -1.1794 1.4831789737733916 9.018340726242435 16.470552266385678 0 0 0
1107 369 1 0.5897 4.533337009851046 11.296697164844794 12.226592564450188 0 0 0
1128 376 1 0.5897 5.546609402768967 6.984210290144653 12.91860636677419 0 0 0
1127 376 1 0.5897 5.648387652688214 7.851715400895495 14.155135138377405 0 0 0
1105 369 2 -1.1794 4.641774603918216 12.234389922277177 12.385186417970605 0 0 0
1179 393 1 0.5897 0.3567052128569279 10.860135848367603 14.170199817399542 1 0 0
1178 393 1 0.5897 0.5139163214824448 11.514576028369374 15.526279725047086 1 0 0
1096 366 2 -1.1794 0.1265931482164858 7.915387615890104 13.714985593959781 0 0 0
1087 363 2 -1.1794 5.879520141823001 10.27359655533979 14.879229307548432 0 0 0
1177 393 2 -1.1794 -0.064493949550673 10.938787013848055 15.026159978372247 1 0 0
1108 370 2 -1.1794 1.2108371278255476 6.147264273022549 16.299692340222236 0 0 0
1126 376 2 -1.1794 5.9643974067058005 7.777122482561453 13.254666007504959 0 0 0
1567 523 2 -1.1794 6.0442554471739625 10.515255578421236 20.735501299163953 0 0 0
1709 570 1 0.5897 1.0850744140797761 12.216305333716349 20.900328456372108 0 0 0
1467 489 1 0.5897 5.098343115239874 6.484702431327201 18.155718515875353 0 0 0
141 47 1 0.5897 4.618957827308511 8.872601954407132 22.556773122462616 0 0 -1
1576 526 2 -1.1794 -0.031103478566129522 7.349300043821233 19.28755949112794 0 0 0
1588 530 2 -1.1794 1.3110110347565953 6.243323574845299 22.313529688208053 0 0 0
1658 553 1 0.5897 0.2948957935634158 10.259902476065786 21.094828122811112 1 0 0
1585 529 2 -1.1794 4.6938638304486195 12.241987611436809 17.924764159343507 0 0 0
1571 524 1 0.5897 2.9702233626945733 10.513502693400635 20.186460266504085 0 0 0
1570 524 2 -1.1794 3.2774231498413116 10.291068717828388 21.06533330581964 0 0 0
1563 521 1 0.5897 4.08003596740245 7.161203046780041 20.73350535676899 0 0 0
1565 522 1 0.5897 1.8165441275295637 7.448876742742818 19.36691169957801 0 0 0
1581 527 1 0.5897 5.240831631992534 8.944374344923736 18.41597729755047 0 0 0
1575 525 1 0.5897 1.9531928958474776 9.136542151779754 21.804466862063855 0 0 0
1587 529 1 0.5897 4.712991279468601 11.286277519032291 17.87547418581517 0 0 0
1564 522 2 -1.1794 2.7599673894030015 7.545094109948824 19.496888743473793 0 0 0
1583 528 1 0.5897 1.043676029404122 10.992739487815642 19.093470204304197 0 0 0
1562 521 1 0.5897 4.521058843247558 6.831371115767352 22.143718198182917 0 0 0
1566 522 1 0.5897 3.152945118066421 6.999338763669061 18.81574964667966 0 0 0
1584 528 1 0.5897 1.992979195391114 10.231955011271372 18.19241677895022 0 0 0
1582 528 2 -1.1794 1.9017934040822548 11.054206376345448 18.67386098112134 0 0 0
1580 527 1 0.5897 3.733875677046562 9.088923805942763 18.417074204037 0 0 0
1579 527 2 -1.1794 4.5290036744440885 9.453788422217457 18.028675093827736 0 0 0
1589 530 1 0.5897 1.359641934192656 7.191634663154388 22.193022956550276 0 0 0
1573 525 2 -1.1794 1.113890317215801 8.955315158120342 22.227480766193608 0 0 0
1572 524 1 0.5897 4.19537849104455 10.562132076787362 21.074445228816845 0 0 0
1561 521 2 -1.1794 4.716322868945417 7.40766556383573 21.404802930323584 0 0 0
1710 570 1 0.5897 2.321435001055141 11.756147948195329 21.64297353650623 0 0 0
1230 410 1 0.5897 1.6212307682185034 12.273777644736239 17.218092760981698 0 0 0
1465 489 2 -1.1794 4.280631323396182 6.1474757133959175 17.7898878055742 0 0 0
1608 536 1 0.5897 6.099221952920649 7.403047050576663 19.927610934331828 0 0 0
241 81 2 -1.1794 4.456904067873119 13.781281995618906 4.177855365938727 0 0 0
242 81 1 0.5897 4.256605120689885 13.068912132051864 4.785006143329092 0 0 0
243 81 1 0.5897 3.844424954479264 13.657928068939707 3.45266781128327 0 0 0
244 82 2 -1.1794 2.889766315458523 13.880193391672574 1.8695026434986046 0 0 0
245 82 1 0.5897 1.9503812503733373 14.028464194249405 1.7610119555307429 0 0 0
246 82 1 0.5897 3.2974717431334004 14.69062985766925 1.5642493626680603 0 0 0
250 84 2 -1.1794 3.133289367052057 17.14428883426102 3.596169324093188 0 0 0
251 84 1 0.5897 2.753251217535091 17.323265776262158 2.7360516656431972 0 0 0
252 84 1 0.5897 4.049672251827362 16.935538832232925 3.4148797243091713 0 0 0
253 85 2 -1.1794 1.7467017135701848 15.286869974927773 5.003746258443216 0 0 0
255 85 1 0.5897 2.546172501389623 15.553348803695485 4.549807229666779 0 0 0
259 87 2 -1.1794 4.405737061761388 15.746384742393769 0.5743333774185444 0 0 0
262 88 2 -1.1794 1.4049499273797517 16.883403914196716 1.244846083568473 0 0 0
263 88 1 0.5897 1.8662187364679348 16.24234964222048 0.7040160820712759 0 0 0
269 90 1 0.5897 1.4334112217702921 13.368108408961879 4.752338642090943 0 0 0
254 85 1 0.5897 1.0371995566711703 15.64622133727447 4.471115018188313 0 0 0
264 88 1 0.5897 1.2274228201361608 17.613861885340278 0.6522770805724565 0 0 0
260 87 1 0.5897 4.621111335094276 16.679001359261616 0.5786731968951024 0 0 0
147 49 1 0.5897 4.27079778439474 12.743132064791999 0.8306489753877033 0 0 0
339 113 1 0.5897 0.18161904011979252 17.659793807568008 4.08829832798778 1 0 0
247 83 2 -1.1794 5.919819175803574 16.932565591653706 3.6757276560461296 0 0 0
288 96 1 0.5897 5.735913764045375 14.617351665161 1.5790643690280879 0 0 0
287 96 1 0.5897 5.860560060847828 13.936278650277869 2.9253782448736136 0 0 0
338 113 1 0.5897 0.1390141751842467 16.817866704428585 2.8308034839950325 1 0 0
268 90 2 -1.1794 1.5830922361458704 12.42628731478728 4.834481487726249 0 0 0
256 86 2 -1.1794 -0.10017522114522033 13.729067719394555 2.158648022056718 0 0 0
389 130 1 0.5897 2.158292815398528 18.35395394313935 4.52320908271412 0 0 0
265 89 2 -1.1794 4.12613462577173 18.53101631444661 0.836440855311422 0 0 0
818 273 1 0.5897 -0.08631481523518951 17.101217481223323 8.513426166320718 1 0 0
738 246 1 0.5897 0.11540435332287971 13.64018205101798 8.843715025274548 0 0 0
732 244 1 0.5897 2.871292811862808 16.344187603063865 9.810315387521488 0 0 0
733 245 2 -1.1794 1.310333439451645 15.242259065885133 10.576818069031564 0 0 0
736 246 2 -1.1794 0.23214859942229404 13.67224356979432 7.894178226436793 0 0 0
724 242 2 -1.1794 2.9953884346228588 13.70934052041796 7.712639627837567 0 0 0
768 256 1 0.5897 5.963467434267276 14.364197473371396 7.500621811235161 0 0 0
743 248 1 0.5897 1.3351681807354228 17.833351515951968 6.544298795005335 0 0 0
739 247 2 -1.1794 4.767805245525222 15.594442649565773 6.6326168296169055 0 0 0
742 248 2 -1.1794 1.3717880004020546 16.989372408685252 6.99436390328254 0 0 0
627 209 1 0.5897 5.16968660831295 12.381643609777942 6.810354577158894 0 0 0
740 247 1 0.5897 4.662673368921451 15.362359213165297 5.709926592401552 0 0 0
737 246 1 0.5897 1.1700751019708275 13.819549724971907 7.772545054642025 0 0 0
721 241 2 -1.1794 4.531797820038899 13.597155845053463 9.92608202344455 0 0 0
723 241 1 0.5897 5.365706054547748 13.509524709806378 9.464417184209898 0 0 0
735 245 1 0.5897 0.612733515189925 15.75150454964213 10.164227902976554 0 0 0
870 290 1 0.5897 2.189155221600948 18.392396576283748 10.155490562935782 0 0 0
748 250 2 -1.1794 0.940596981294691 12.524787859453141 10.462859847152236 0 0 0
749 250 1 0.5897 1.102270330271222 13.461304792642915 10.5767917246959 0 0 0
726 242 1 0.5897 3.379317120130163 13.03389739274041 7.153532797012986 0 0 0
728 243 1 0.5897 5.179822872392075 16.826681827127825 9.420780278563866 0 0 0
722 241 1 0.5897 3.8706562601902665 13.570658355173377 9.234393481582618 0 0 0
731 244 1 0.5897 2.589466749668169 17.016146238233304 8.483289521722178 0 0 0
744 248 1 0.5897 1.5080642118571608 16.350208950605246 6.294984548192885 0 0 0
741 247 1 0.5897 4.887552124450554 16.544087971092175 6.62905463395454 0 0 0
725 242 1 0.5897 3.5073316815059594 14.49597106556565 7.5246971825536475 0 0 0
730 244 2 -1.1794 3.124082175474418 17.095192491959985 9.273361153975745 0 0 0
745 249 2 -1.1794 4.664314157183417 18.34082285753527 6.639945077864543 0 0 0
869 290 1 0.5897 0.7266009625557615 18.420167318054805 10.545348834593977 0 0 0
1221 407 1 0.5897 4.625219605598648 15.24948606246661 11.353411392221055 0 0 0
1201 401 2 -1.1794 4.619380536003863 14.01627616679623 15.783116218319286 0 0 0
1202 401 1 0.5897 5.353406528674021 13.869572813384778 15.186527448557731 0 0 0
1203 401 1 0.5897 4.765930070989793 13.399410956174476 16.50021887595314 0 0 0
1204 402 2 -1.1794 2.8473100219127057 14.003139308991706 13.691033114166876 0 0 0
1205 402 1 0.5897 3.334303964920667 13.944809102804923 14.513037324817597 0 0 0
1206 402 1 0.5897 3.289132950073057 13.38762064728378 13.106099005687767 0 0 0
1210 404 2 -1.1794 3.3184377662047124 17.043072562526365 14.978602298790367 0 0 0
1212 404 1 0.5897 4.263499933445731 17.094105266931194 15.121626851472541 0 0 0
1213 405 2 -1.1794 1.5204099240600208 15.543713080368615 16.343594364608087 0 0 0
1215 405 1 0.5897 2.2837965440074957 15.88112784349952 15.874966569543774 0 0 0
1218 406 1 0.5897 0.9844108914205267 14.232730359117468 13.688874349677514 0 0 0
1219 407 2 -1.1794 4.543909943889427 15.68217403769055 12.203378797251375 0 0 0
1220 407 1 0.5897 3.825811763486351 15.222838221594273 12.638789045939106 0 0 0
1222 408 2 -1.1794 1.5311698938054679 16.94384137125953 12.731953312004364 0 0 0
1223 408 1 0.5897 1.731657724640233 17.58917776219218 12.054034226019638 0 0 0
1224 408 1 0.5897 2.141282746106984 17.144004002323914 13.441841658105453 0 0 0
1229 410 1 0.5897 1.5760420176403518 13.55500803425295 16.41295284623503 0 0 0
1211 404 1 0.5897 2.969118148133945 17.827926888426415 15.400712669428998 0 0 0
1214 405 1 0.5897 0.7868388792084179 16.061032452284504 16.011245093464606 0 0 0
1227 409 1 0.5897 4.642489225675943 17.458908819104504 12.016246021788982 0 0 0
1228 410 2 -1.1794 1.6425617808479664 12.60467336902238 16.320130670928776 0 0 0
1298 433 1 0.5897 0.08459639331306285 16.981354117427756 13.933539246114838 1 0 0
1248 416 1 0.5897 5.911087995430007 13.189621273406315 13.335099269798675 0 0 0
1106 369 1 0.5897 4.726803121130596 12.617194492047016 11.511977108163393 0 0 0
1207 403 2 -1.1794 5.943711198906434 16.997890566450277 15.117748912181945 0 0 0
734 245 1 0.5897 1.2712267349473638 15.486700515508415 11.501477668890656 0 0 0
1700 567 1 0.5897 4.448733890736 15.282898860841478 16.869969116083947 0 0 0
1225 409 2 -1.1794 4.55286361435659 18.3675421429743 11.728952220839355 0 0 0
1247 416 1 0.5897 5.953682175532629 14.702877175710027 13.335115468808677 0 0 0
1350 450 1 0.5897 0.9053429235810404 18.356981401517594 15.601917765444208 0 0 0
1216 406 2 -1.1794 0.06022355586159375 14.046821584189347 13.522988657078347 0 0 0
1778 593 1 0.5897 0.06302932961949129 17.076288426186732 20.010161230002645 1 0 0
1705 569 2 -1.1794 4.840634475841083 18.470764806904665 17.962651955645082 0 0 0
1697 566 1 0.5897 0.8811639991813444 14.230230507360261 19.219175363703556 0 0 0
1696 566 2 -1.1794 -0.035496637508403386 14.211405106840536 19.49410006968832 0 0 0
1779 593 1 0.5897 0.1306636652010304 17.690114705390872 21.392409992312174 1 0 0
1681 561 2 -1.1794 4.519945599584212 14.03020553726192 21.181587915492813 0 0 0
1693 565 2 -1.1794 1.5713920734664168 15.12008876733088 21.951429275522347 0 0 0
1690 564 2 -1.1794 3.14611812516192 16.93325887748398 20.497643057021307 0 0 0
1702 568 2 -1.1794 1.1490643505956153 17.199140947305107 18.614242685869527 0 0 0
261 87 1 0.5897 4.450794780643714 15.493974443193412 22.61802993342323 0 0 -1
1684 562 2 -1.1794 2.643132145381669 14.234413013341241 19.11486728513312 0 0 0
1695 565 1 0.5897 1.4304597106477004 14.197869642138006 21.73733064772026 0 0 0
1691 564 1 0.5897 2.7807452250747597 16.261129494497908 21.07293616497234 0 0 0
1689 563 1 0.5897 4.961881237551405 17.136186129796158 20.563015604366203 0 0 0
1685 562 1 0.5897 3.109595444439606 13.458227276750417 18.80479073827095 0 0 0
1707 569 1 0.5897 4.618747513861389 17.566325714627673 17.741418438652786 0 0 0
1682 561 1 0.5897 5.359167886674968 14.038762244290767 20.721317022488112 0 0 0
1694 565 1 0.5897 0.7225812671051015 15.534703150307296 21.797101743237263 0 0 0
1683 561 1 0.5897 4.549170195437761 13.238850055095332 21.719278473096498 0 0 0
1699 567 2 -1.1794 4.430093331580396 15.875701579679383 17.62129265663356 0 0 0
1701 567 1 0.5897 3.7631970095096907 15.507638147500739 18.200950961612207 0 0 0
1703 568 1 0.5897 1.245070799156397 16.400499255599918 18.09542106414278 0 0 0
1692 564 1 0.5897 2.4923322211727066 17.038921272585625 19.806527071254276 0 0 0
1704 568 1 0.5897 0.9551361044788451 17.88113486699219 17.97120116588436 0 0 0
1686 562 1 0.5897 3.0641926324308084 14.451104225363066 19.946739150500907 0 0 0
1708 570 2 -1.1794 1.629322228183085 12.417068798087202 21.661732888925574 0 0 0
1687 563 2 -1.1794 5.894744592270853 17.128814660902727 20.777297665720315 0 0 0
1586 529 1 0.5897 5.443570499674267 12.468970479660753 18.474896305896547 0 0 0
361 121 2 -1.1794 4.870211448070531 20.217772665866473 4.191953658576049 0 0 0
362 121 1 0.5897 4.0380806257394335 20.13255557460339 3.7266410712685403 0 0 0
364 122 2 -1.1794 2.7628965371157004 20.35205753275696 2.2060727792448525 0 0 0
365 122 1 0.5897 2.8894834955843103 21.137928681823553 1.6744701780265292 0 0 0
366 122 1 0.5897 1.8136539238695022 20.23260624774578 2.235555495991755 0 0 0
370 124 2 -1.1794 3.0614062447327846 23.223666469336326 3.3192162698175935 0 0 0
371 124 1 0.5897 4.003294228610091 23.05364446091404 3.3315196616599625 0 0 0
372 124 1 0.5897 2.675083252637366 22.466375224749786 3.7590657694808938 0 0 0
373 125 2 -1.1794 1.5603032113661202 21.55439938417495 4.9978544007653865 0 0 0
381 127 1 0.5897 4.960431995127807 21.948104135447675 0.7349164701423139 0 0 0
382 128 2 -1.1794 1.0884910836834882 23.232528022227186 1.2170158455684021 0 0 0
383 128 1 0.5897 1.9231995426530388 23.493636347029366 1.6059867615904193 0 0 0
384 128 1 0.5897 1.322825863499569 22.56667362002604 0.5705241815303363 0 0 0