LAMMPS data file via write_data, version 30 Jul 2021, timestep = 1750000

864 atoms
2 atom types
576 bonds
1 bond types
288 angles
1 angle types

-0.07859311159534244 18.286165511598185 xlo xhi
0.9989589660096421 22.630218833987676 ylo yhi
-0.09588341257236799 22.30907921257107 zlo zhi

Masses

1 1.00794
2 15.9994

Pair Coeffs # lj/cut/tip4p/long/omp

1 0 0
2 0.21084 3.1668

Bond Coeffs # harmonic/omp

1 450 0.9572

Angle Coeffs # harmonic/omp

1 55 104.52

Atoms # full

750 1 1 0.5897 4.831008974959102 3.2985870119263723 3.2473844920737407 1 5 0
748 1 2 -1.1794 5.540662705621209 2.657856782585222 3.2940802474697035 1 5 0
749 1 1 0.5897 5.642947365870403 2.347026537855778 2.3944774291047564 1 5 0
147 1 1 0.5897 8.794426976087493 4.161805450861568 3.605145700322608 0 1 -3
576 1 1 0.5897 7.718098433827215 5.986114117336257 4.101595354855618 2 2 -1
546 1 1 0.5897 8.150169230773445 6.360474939553273 1.6874221208279154 -4 3 4
421 1 2 -1.1794 8.24656841328904 2.320842936492128 3.844350602257529 -5 1 5
594 1 1 0.5897 3.8946645347771596 1.2452914255246683 0.8411850013852347 -2 1 -1
524 1 1 0.5897 0.36744363811638053 3.9879365482954308 2.4249464879266425 2 0 3
574 1 2 -1.1794 7.035313122846698 6.206371513966881 4.735316925905144 2 2 -1
423 1 1 0.5897 7.303514937072363 2.4839615612504957 3.8632147576902556 -5 1 5
145 1 2 -1.1794 8.911075379045384 5.014390588854856 3.1858334619574427 0 1 -3
523 1 2 -1.1794 0.8915699340146569 3.873222455595759 3.2176895386455815 2 0 3
525 1 1 0.5897 0.5950217397932218 4.569145710147616 3.8042556251447524 2 0 3
768 1 1 0.5897 3.721063589202096 4.998568462389048 3.82189055121989 -2 -1 2
766 1 2 -1.1794 3.538967450653146 4.479692760360415 3.038359938871772 -2 -1 2
767 1 1 0.5897 2.6369479119700387 4.1804592162211645 3.1529516762789247 -2 -1 2
422 1 1 0.5897 8.357194836917136 1.6272330982071743 3.1939815502283446 -5 1 5
417 1 1 0.5897 4.431997157901277 5.457908859458329 1.3448887938691232 -1 -2 -1
415 1 2 -1.1794 4.913032817002615 6.180899847782248 0.9421304564796291 -1 -2 -1
696 1 1 0.5897 4.657461731544887 1.3544823576389529 4.397968563404637 3 -1 0
593 1 1 0.5897 5.025588424577933 1.8849038957047242 0.06400460971993494 -2 1 -1
575 1 1 0.5897 7.185803275363003 5.608656339610966 5.467723085418958 2 2 -1
231 1 1 0.5897 5.21025752257655 5.751428575786306 5.098060802175819 3 3 1
592 1 2 -1.1794 4.848226074962427 1.2491412977984915 0.7573002900698778 -2 1 -1
756 1 1 0.5897 1.3848481052774093 1.3694972954016293 0.25248739453833147 -3 0 -4
176 1 1 0.5897 0.35222777481829315 2.3495585200771734 4.607733115055597 -2 -1 5
695 1 1 0.5897 3.6201522766558583 1.4427339595268127 5.497193169342769 3 -1 0
324 1 1 0.5897 0.15664882352598494 6.1064108195064435 5.4287346054822825 5 -1 -2
240 1 1 0.5897 0.3709171905826818 7.670875723922434 4.362086703674845 -7 -4 0
545 1 1 0.5897 6.8714368506881245 6.492644957266748 0.8877532888069365 -4 3 4
544 1 2 -1.1794 7.806583474014269 6.695094379319479 0.8589955059123643 -4 3 4
312 1 1 0.5897 6.218699697154664 11.702054820845758 3.1046206131797818 -1 2 2
173 1 1 0.5897 7.542006859927107 8.459145310711381 0.44028449663952995 3 2 -1
81 1 1 0.5897 6.278463478573914 10.125856075015713 1.1963897517572921 2 0 -3
569 1 1 0.5897 0.4676907461550752 11.729013940485268 5.156631972516409 2 -1 0
114 1 1 0.5897 2.627857209430362 8.1510811392769 5.192289285598259 -3 -1 3
362 1 1 0.5897 2.985636083262331 8.835759092321409 0.5489434089902973 5 -2 -2
112 1 2 -1.1794 3.5696587102857245 8.316739603614423 5.235696154490223 -3 -1 3
802 1 2 -1.1794 8.534421840538247 10.130816041211842 4.262341597357116 4 2 -2
79 1 2 -1.1794 5.7186400377353035 10.811943064986071 1.5599871513955355 2 0 -3
238 1 2 -1.1794 0.7900120543386423 7.733409129515235 5.220439363825736 -7 -4 0
195 1 1 0.5897 3.810452726634777 8.751056828602618 3.0524994980398943 2 -4 0
174 1 1 0.5897 8.32548054621521 9.751987162319816 0.357510120944269 3 2 -1
194 1 1 0.5897 4.632930100840298 9.406168564189537 1.9632453568089336 2 -4 0
804 1 1 0.5897 7.739119084385644 10.663510617691689 4.25602390084844 4 2 -2
416 1 1 0.5897 4.452204377473323 6.967654879168864 1.233624162033556 -1 -2 -1
650 1 1 0.5897 8.960124265583575 10.321265043243335 2.390073426230275 1 -2 0
193 1 2 -1.1794 3.9589059964709614 8.741762155460869 2.106880999264794 2 -4 0
80 1 1 0.5897 5.341436429224593 11.24489767745375 0.7940984256086301 2 0 -3
568 1 2 -1.1794 1.3530205080812643 11.372339355836077 5.083872854539235 2 -1 0
378 1 1 0.5897 0.5375226650645997 9.484155326815474 0.19230705131078607 3 4 3
570 1 1 0.5897 1.562930926255321 11.439294808782309 4.152333295521679 2 -1 0
456 1 1 0.5897 8.621699108695356 8.709442508304782 5.387967488645641 1 -1 0
172 1 2 -1.1794 7.611119414837974 9.271620722034916 -0.06113855877061525 3 2 -1
17 1 1 0.5897 6.4310865595996045 3.974732933997555 6.657115990706931 -3 4 3
801 1 1 0.5897 4.0647316586497855 3.0289604880647505 7.417223755477566 1 0 1
16 1 2 -1.1794 7.292388218808066 4.3906279260975865 6.695908547908498 -3 4 3
832 1 2 -1.1794 8.907718055384976 4.3327105271489526 10.441058668149884 1 -1 0
18 1 1 0.5897 7.22577849198497 5.013405502048896 7.419826973639373 -3 4 3
560 1 1 0.5897 4.345100035053017 5.017852776728274 9.02935567499551 5 1 1
559 1 2 -1.1794 4.639854894009282 5.826017117415686 9.449263896709843 5 1 1
499 1 2 -1.1794 2.2329074179750332 2.0258118388360358 6.997706618133305 -1 0 -2
300 1 1 0.5897 2.188192435190274 3.5788850298915666 9.438647880958273 -4 0 1
818 1 1 0.5897 6.317702611539511 5.7596916416355 9.073769917494719 2 -1 0
298 1 2 -1.1794 1.7781038721308966 4.312976402911637 8.981180027350252 -4 0 1
833 1 1 0.5897 8.466946449381249 3.483146045604715 10.457552925885697 1 -1 0
63 1 1 0.5897 8.635892889285765 1.689300427713519 7.057479015339613 -3 1 3
800 1 1 0.5897 4.320549414370201 4.482518208435447 7.079815144354836 1 0 1
817 1 2 -1.1794 7.224752817096129 5.984576705516896 8.866390835006344 2 -1 0
299 1 1 0.5897 1.8439642270238736 5.0449377753873526 9.594563389016862 -4 0 1
561 1 1 0.5897 4.45614239638432 5.6940268175385444 10.379401403490018 5 1 1
500 1 1 0.5897 2.0496759561925413 2.2184563874684153 7.917285404752336 -1 0 -2
799 1 2 -1.1794 4.66927602349014 3.750935383628182 7.5892551036762645 1 0 1
501 1 1 0.5897 1.3824926327867861 2.0955047769354955 6.563828486994068 -1 0 -2
856 1 2 -1.1794 2.9114645576080913 2.1345127546188913 10.181641536349629 1 -1 -3
834 1 1 0.5897 8.449071869861926 4.827894617616317 9.76226186604067 1 -1 0
7 1 2 -1.1794 7.454271199439755 1.9273688134688802 10.298898945317669 2 -1 -1
857 1 1 0.5897 2.4568732197356433 1.7708814351163737 10.941539252815527 1 -1 -3
726 1 1 0.5897 8.646906873354832 3.6891573397423802 7.514530106000792 1 -3 4
62 1 1 0.5897 8.309451442931483 1.3460419115996556 5.619510199699725 -3 1 3
9 1 1 0.5897 6.542757150535768 1.8763791821120657 10.011042762160853 2 -1 -1
372 1 1 0.5897 0.2677468394119354 3.9813942299809404 8.252898018367025 3 7 -1
858 1 1 0.5897 3.5509579792748776 1.464072664160772 9.941058307608778 1 -1 -3
8 1 1 0.5897 7.872002795226773 1.1586514805986847 9.91041227191928 2 -1 -1
229 1 2 -1.1794 4.345895218268866 5.717004142152329 5.507942313782135 3 3 1
192 1 1 0.5897 1.2713132008843433 10.307924662855413 6.57646027008145 5 5 -5
472 1 2 -1.1794 5.128000103688715 11.406010457038493 9.958853536807746 1 1 -3
191 1 1 0.5897 1.2887599635915168 10.72747699612348 8.031035684786206 5 5 -5
454 1 2 -1.1794 8.633455261832973 7.956353046628085 5.978774104215795 1 -1 0
338 1 1 0.5897 3.1710394582472463 11.2761335902106 6.513239499567654 -3 1 3
353 1 1 0.5897 8.842251556893155 8.085394972887894 10.36103621420652 5 3 -2
489 1 1 0.5897 2.6691857785303403 9.657321618933254 8.933922009546995 0 -7 2
819 1 1 0.5897 7.323470473041098 6.887269060021391 9.169244206308061 2 -2 0
259 1 2 -1.1794 1.2638430220751302 6.578570361843496 10.634186457776286 3 -3 7
488 1 1 0.5897 3.6056358772604864 8.497783993565983 9.199802748462847 0 -7 2
429 1 1 0.5897 0.2429500259571009 8.923817069317067 8.268811628540325 2 0 -2
339 1 1 0.5897 4.666826166496368 11.488035474691305 6.612336360572717 -3 1 3
337 1 2 -1.1794 3.997986299734584 10.803241925307905 6.607296345115291 -3 1 3
190 1 2 -1.1794 1.237626150954852 9.956355219079017 7.466167179872111 5 5 -5
473 1 1 0.5897 4.525639486355604 10.739972109482729 9.62738045065563 1 1 -3
487 1 2 -1.1794 3.305403643519201 9.328421267717944 9.56903402743513 0 -7 2
261 1 1 0.5897 0.725382726534988 7.113158980587212 10.05057652687405 3 -3 7
455 1 1 0.5897 8.06179552210839 7.313276128297422 5.559288300310687 1 -1 0
352 1 2 -1.1794 7.939788507988419 8.028817571472683 10.675181483195988 5 3 -2
474 1 1 0.5897 5.85861535239561 11.397969749105267 9.340412350580939 1 1 -3
692 1 1 0.5897 8.404905535059736 11.61449426337013 8.749834323251202 2 1 3
354 1 1 0.5897 7.7256997779666525 8.91982646102699 10.951939478014245 5 3 -2
230 1 1 0.5897 4.048706496977444 6.626889143077485 5.518131282622023 3 3 1
113 1 1 0.5897 3.6451256215685675 9.155060983331405 5.6916034190117415 -3 -1 3
845 1 1 0.5897 6.455363827492284 10.751014142993021 11.076850994888828 0 0 3
260 1 1 0.5897 1.8199753701015042 7.208910077124532 11.092114500214644 3 -3 7
239 1 1 0.5897 0.1587185942024865 8.207505797083053 5.761776428539146 -7 -4 0
350 1 1 0.5897 6.980442695390225 2.8825819951018437 13.341739505388464 -9 2 -3
807 1 1 0.5897 2.045423712729717 3.084031503943381 14.232137019591923 3 -1 -4
411 1 1 0.5897 3.981832627601742 5.451516797513209 13.008033553313018 3 3 -5
409 1 2 -1.1794 4.254406899034002 5.114278667319741 12.154632286689257 3 3 -5
805 1 2 -1.1794 2.6277056236389753 2.3387875809076974 14.084115715164794 3 -1 -4
349 1 2 -1.1794 7.667657209646904 3.5070950080652046 13.574184914680304 -9 2 -3
351 1 1 0.5897 7.419445333710758 4.315224857995932 13.12515000085293 -9 2 -3
806 1 1 0.5897 3.295128822164014 2.416553373417837 14.76592162076481 3 -1 -4
479 1 1 0.5897 1.2950618210370755 4.335652165384571 15.97073953511295 -4 2 -3
478 1 2 -1.1794 1.3086293366693664 4.816912994427366 15.143364348715654 -4 2 -3
443 1 1 0.5897 7.397353259915896 3.4260877454177563 15.750577185975146 5 5 -2
410 1 1 0.5897 4.16939079250371 4.164104199829442 12.23375062596265 3 3 -5
287 1 1 0.5897 0.15703652916032182 1.3243411978115722 15.027955248145599 4 1 2
825 1 1 0.5897 5.950844768957645 5.691500379035191 12.288493062723711 1 4 2
824 1 1 0.5897 7.258204377425095 6.3400922399953625 11.885681280035403 1 4 2
823 1 2 -1.1794 6.814441209116816 5.928010222672615 12.62702782705429 1 4 2
779 1 1 0.5897 1.8755244916250364 1.0741093564471886 12.813005725383082 -2 1 -1
734 1 1 0.5897 5.133057451654276 2.706178707913681 16.398797677567224 -3 2 -3
262 1 2 -1.1794 5.947056865699408 1.550271951519063 12.516611696738561 4 -2 5
402 1 1 0.5897 2.6253681095463737 5.978795118339539 14.673319047519618 -1 -3 3
480 1 1 0.5897 0.6741434169990788 5.5230917836310525 15.266079618701346 -4 2 -3
264 1 1 0.5897 6.57419771094233 1.491974331760912 11.795772628282142 4 -2 5
437 1 1 0.5897 -0.04647472574432113 3.698480131336468 14.526157696076377 -1 3 1
442 1 2 -1.1794 6.883072873752303 3.179806609626363 16.519486426170886 5 5 -2
733 1 2 -1.1794 4.183608847771653 2.6400812267354805 16.501246990498885 -3 2 -3
844 1 2 -1.1794 7.189742148332429 10.563894329619046 11.661649742412475 0 0 3
144 1 1 0.5897 3.484928098356121 10.559563970296871 15.957428387102906 -1 3 3
758 1 1 0.5897 -0.031246888885604562 10.034278847832248 13.6744825537032 -1 2 2
506 1 1 0.5897 5.84690327571437 7.6492357502719495 15.848997651136592 2 2 -3
132 1 1 0.5897 9.00261369304865 7.73173112645631 15.506611160651673 -5 2 1
541 1 2 -1.1794 6.573533183677976 10.520276988947694 14.417968503664808 -5 0 2
142 1 2 -1.1794 4.200414960842953 11.194466527796267 15.993399035188313 -1 3 3
495 1 1 0.5897 7.138598771765681 7.347655006195543 13.822688210496576 -2 -1 -1
494 1 1 0.5897 7.117200636558871 8.775986375098672 14.32419078740286 -2 -1 -1
757 1 2 -1.1794 0.1874065050238845 9.114288836927894 13.823230759295583 -1 2 2
615 1 1 0.5897 3.078508375402153 8.56546109916286 12.694290872585022 -5 1 3
759 1 1 0.5897 0.8206813278627607 8.904117501418664 13.136855169654373 -1 2 2
542 1 1 0.5897 5.8239864517028055 10.613349555509757 15.006041169619914 -5 0 2
171 1 1 0.5897 1.3334703647315649 9.122107035937923 15.589905674097967 -2 3 -2
614 1 1 0.5897 2.7894543924717454 9.07871318569682 11.299608721277577 -5 1 2
401 1 1 0.5897 3.7613015500974023 6.939936017035673 14.952610146583798 -1 -3 3
505 1 2 -1.1794 4.996947215217208 7.474260139978276 16.253067434005075 2 2 -3
400 1 2 -1.1794 3.3101841698650034 6.4878995810539015 14.239536651557792 -1 -3 3
846 1 1 0.5897 6.831507093370246 10.680428050402583 12.5416482750709 0 0 3
493 1 2 -1.1794 7.322968843891354 7.881396457931361 14.595630093938455 -2 -1 -1
613 1 2 -1.1794 2.3595934058732384 8.811416463393062 12.112072172951425 -5 1 3
543 1 1 0.5897 7.277941329902964 11.004852201315108 14.848449225004963 -5 0 2
169 1 2 -1.1794 1.9067481275884008 9.566124589523696 16.214862935402714 -2 3 -2
848 1 1 0.5897 4.343580961664727 1.8839767904957285 19.62221748795912 5 -2 5
256 1 2 -1.1794 5.546306617549909 2.8018046398109924 20.929553647522077 -2 -1 0
617 1 1 0.5897 2.298003309926996 4.355303475535183 19.202598115841013 -2 3 -1
258 1 1 0.5897 5.691089520540598 3.7283638146265634 20.737602556435796 -2 -1 0
359 1 1 0.5897 0.9933047248930982 3.718823443291479 18.00566045023099 3 -1 -4
314 1 1 0.5897 1.0543692831659206 2.0744228175487605 19.740548307507623 -1 -1 -1
775 1 2 -1.1794 5.29711819833453 5.569544963849313 20.71228602477975 4 -3 1
616 1 2 -1.1794 1.5967491190270835 4.077345381387064 19.791913046756292 -2 3 -1
43 1 2 -1.1794 8.592864475210638 5.799463286018208 20.800386662802033 2 5 -3
313 1 2 -1.1794 1.1148099640502545 1.1719822873087935 19.427086115229834 -1 -1 -1
257 1 1 0.5897 6.39097889981626 2.386015997862362 20.756467263411196 -2 -1 0
735 1 1 0.5897 4.063235953168435 2.1858795427988262 17.335247031252408 -3 2 -3
444 1 1 0.5897 7.267467012393747 3.6837865593645978 17.236816099326738 5 5 -2
685 1 2 -1.1794 3.196872615115624 5.162025954904819 18.045857775786544 9 -6 -3
687 1 1 0.5897 3.5864225342281917 4.6092431357722665 17.36835712663064 9 -6 -3
618 1 1 0.5897 1.6540591327866223 4.67939965073578 20.533910029010713 -2 3 -1
26 1 1 0.5897 7.352971780785013 1.4865575627110081 17.00282967639839 -1 6 6
715 1 2 -1.1794 8.519986117815494 3.749059350690426 18.903828135767988 4 -7 -3
52 1 2 -1.1794 1.3477936595367115 6.207951878623671 21.499483218560798 -4 -2 3
686 1 1 0.5897 3.931878882743966 5.406003551013783 18.608496764418277 9 -6 -3
717 1 1 0.5897 8.429702505076795 4.4776894102793285 19.518049009797487 4 -7 -3
776 1 1 0.5897 5.127447919738876 5.770996391846985 21.632579946468226 4 -3 1
44 1 1 0.5897 8.228554731603465 6.167196532271702 21.605616788840308 2 5 -3
716 1 1 0.5897 8.937228271109408 3.055095207949832 19.414354315703953 4 -7 -3
777 1 1 0.5897 5.618830701913659 6.391575721251578 20.342020395117167 4 -3 1
358 1 2 -1.1794 0.549947047469097 3.2905396135768514 17.27332423216282 3 -1 -4
849 1 1 0.5897 2.968004459666475 1.272034723481692 19.46273669616636 5 -2 5
847 1 2 -1.1794 3.809190792545784 1.3702460297974959 19.016556472730834 5 -2 5
315 1 1 0.5897 0.4817094689266046 1.1238363606763426 18.71072152660085 -1 -1 -1
521 1 1 0.5897 -0.033258068893470494 11.810004691300833 22.1107451745891 -4 0 -2
529 1 2 -1.1794 8.556640679848762 7.497631828167153 18.593898285419222 -3 -2 -6
530 1 1 0.5897 8.665079753809664 8.347181655282947 19.021491376300247 -3 -2 -6
531 1 1 0.5897 8.641428118827568 6.859709116957906 19.302548996082635 -3 -2 -6
23 1 1 0.5897 0.5203220428836711 10.42932144597292 17.43375270874948 -4 2 1
170 1 1 0.5897 2.0112122543379676 8.940062946850368 16.931416757802268 -2 3 -2
361 1 2 -1.1794 2.458814070429171 8.606639677757592 22.18822023855715 5 -2 -3
507 1 1 0.5897 5.136478730108542 7.637650594462731 17.18588738013694 2 2 -3
53 1 1 0.5897 0.626621602191682 6.587479024117177 20.99725774146306 -4 -2 3
662 1 1 0.5897 6.7591672770918585 7.647962524533557 18.924533358370255 -2 -4 2
363 1 1 0.5897 3.0156342324066188 8.823120274689568 21.44028839381955 5 -2 -3
37 1 2 -1.1794 3.6981631974948597 9.401923597682783 19.725107127106526 0 2 -4
136 1 2 -1.1794 1.9450670014961338 7.79052423389463 18.128439788215154 7 -6 1
138 1 1 0.5897 2.460402074020983 6.99564316409463 17.99084297791726 7 -6 1
38 1 1 0.5897 3.165935745154461 8.931326082091452 19.083552292102155 0 2 -4
663 1 1 0.5897 5.6833036340498655 8.68936970572228 19.148460071286756 -2 -4 2
535 1 2 -1.1794 8.269204487823465 10.004074654447502 19.53292234178153 7 5 3
536 1 1 0.5897 8.0213186863356 10.084099920496914 20.45406478795637 7 5 3
137 1 1 0.5897 1.0874233890511282 7.474344346962617 18.412854667620856 7 -6 1
537 1 1 0.5897 7.752356532230668 10.674593964770294 19.086138555218398 7 5 3
39 1 1 0.5897 3.737184017013121 10.298834345369672 19.392925682756662 0 2 -4
661 1 2 -1.1794 5.810910704565984 7.775377351288924 18.894199240344527 -2 -4 2
671 1 1 0.5897 1.4679197689929053 11.38817375442803 19.85058366853181 5 3 1
54 1 1 0.5897 1.7715419338675469 6.958615379465163 21.915718806110476 -4 -2 3
670 1 2 -1.1794 0.9974583931458962 11.705401374936486 20.621553329721145 5 3 1
165 1 1 0.5897 5.7351879039073586 11.58940875486904 18.088635501139173 -3 2 -1
310 1 2 -1.1794 6.655234086981512 12.107948293301265 3.8536183418465524 -1 2 2
105 1 1 0.5897 2.7683493932330414 13.257608452851462 2.6940509151643193 3 0 5
368 1 1 0.5897 8.50187188312098 14.906653665937851 5.0990994639644756 3 5 -2
595 1 2 -1.1794 4.013529591331479 15.006385188748581 3.1574459285113834 0 -4 2
311 1 1 0.5897 6.739628422090665 13.030193365060947 3.611376601518654 -1 2 2
597 1 1 0.5897 3.2803843043899366 15.107120150661379 2.550251233820328 0 -4 2
329 1 1 0.5897 7.259215525499761 14.344215097744993 0.9197305032437029 3 5 0
697 1 2 -1.1794 1.756642622225342 15.544304426636344 1.3270566484324602 -2 2 -4
36 1 1 0.5897 5.731875295197855 14.829754626862643 2.7217013288011773 -6 1 0
35 1 1 0.5897 7.0239186045152 15.449731454741192 3.209965836676112 -6 1 0
34 1 2 -1.1794 6.680075230505657 14.698517415754491 2.7264649405386105 -6 1 0
698 1 1 0.5897 0.9055945548730022 15.169908925875252 1.0992847528375687 -2 2 -4
103 1 2 -1.1794 2.342547839421845 12.40416164283225 2.612570598894528 3 0 5
104 1 1 0.5897 2.1811588448860455 12.305075416746119 1.6742492650569987 3 0 5
596 1 1 0.5897 4.080592516382627 15.854819061817896 3.5956042642109476 1 -4 2
178 1 2 -1.1794 7.164527320113658 17.15800027481209 4.53727391487592 -7 0 0
380 1 1 0.5897 1.0632023110273765 16.870849381150116 4.876520235091968 9 3 1
220 1 2 -1.1794 0.5110856831241849 17.001418293541487 3.255394142932507 2 -3 4
699 1 1 0.5897 1.5505172521904402 16.262199110491796 1.9257792120898505 -2 2 -4
476 1 1 0.5897 6.057831577457401 12.420034728580301 5.486100442599241 5 -3 -1
328 1 2 -1.1794 7.266317108235712 14.119978610202597 -0.010855403343854264 3 5 0
405 1 1 0.5897 2.074258741629189 13.38604073857836 5.157402378633709 6 -2 1
482 1 1 0.5897 9.037179101819737 20.619410591687735 2.914105029152507 -1 3 -1
587 1 1 0.5897 8.610710287074102 21.38831017025981 0.8182756901630143 -1 1 5
755 1 1 0.5897 2.3410628390966153 21.827161077668926 0.2733962049117554 -3 -1 -4
383 1 1 0.5897 2.7412792241601025 21.662313235206124 3.77552842778238 -10 -2 0
694 1 2 -1.1794 3.951573594404117 22.490949057929416 4.814162273740876 3 -2 0
98 1 1 0.5897 3.09832863166066 19.775673918280887 2.652042064127516 4 -7 4
179 1 1 0.5897 6.271772713070705 17.253250470889284 4.205216124613806 -7 0 0
481 1 2 -1.1794 8.42184463730981 21.280453013455094 2.596703299385279 -1 3 -1
464 1 1 0.5897 3.1106359591043473 19.620033226472394 0.4991997341481381 7 1 -1
635 1 1 0.5897 0.5215388474543668 20.365512104585694 3.641411666308369 -9 0 1
518 1 1 0.5897 3.9858026885058537 18.07400231313628 3.60760062289051 -2 -2 -4
384 1 1 0.5897 2.1848441432612895 21.706693111449983 2.368193192082292 -10 -2 0
519 1 1 0.5897 3.494036902431531 17.407198851729632 4.87475571576187 -2 -2 -4
813 1 1 0.5897 6.104231900000611 19.756789848667307 0.6459505867900507 -5 7 -3
180 1 1 0.5897 7.361610557179804 18.00296950348275 4.941664985982363 -7 0 0
812 1 1 0.5897 5.596236312701826 21.129541691827725 1.0328900434734634 -5 7 -3
382 1 2 -1.1794 2.104507248441466 21.239052740656227 3.199576760277454 -10 -2 0
811 1 2 -1.1794 5.921968862709406 20.31011135034498 1.4055127170175037 -5 7 -3
99 1 1 0.5897 4.50487848876624 19.717136361643302 2.0950098554803853 4 -7 4
517 1 2 -1.1794 4.2569704407378675 17.471400458951226 4.300183889045692 -2 -2 -4
97 1 2 -1.1794 3.71541612654491 19.18912808521751 2.2144616413776017 4 -7 4
754 1 2 -1.1794 2.0556323333665327 22.58034887093538 0.7906546104152254 -3 -1 -4
221 1 1 0.5897 0.04589592267937777 17.837619241557395 3.282490958754046 2 -3 4
483 1 1 0.5897 7.5858810408677515 20.81865331405429 2.531773335073658 -1 3 -1
242 1 1 0.5897 0.4173531402190815 19.19732505321212 0.126589935455384 1 -3 3
100 1 2 -1.1794 3.397864984668589 15.568032899693831 10.134601138989098 5 -6 -1
435 1 1 0.5897 2.3033257734827624 12.420026174723962 9.67070464640101 2 3 -2
101 1 1 0.5897 3.5200908119684278 15.530281313633509 9.185936734205475 5 -6 -1
289 1 2 -1.1794 3.9777121378015563 15.487568016727995 7.484567884983077 -6 -5 -7
185 1 1 0.5897 6.930276024797511 16.08692313899807 5.879960439391966 0 6 4
404 1 1 0.5897 1.3825998908052617 13.936814958450334 6.38638817508863 6 -2 1
102 1 1 0.5897 4.253200472174321 15.828328695507613 10.476616857504 5 -6 -1
379 1 2 -1.1794 1.5094055613906274 16.67488795140236 5.700431049326394 9 3 1
290 1 1 0.5897 3.563700003649985 14.895377390683825 6.8566956282798035 -6 -5 -7
434 1 1 0.5897 1.490405584956882 12.836981594201761 8.463475144442867 2 3 -2
477 1 1 0.5897 5.965081328986063 13.695692044716633 6.296287803154062 5 -3 -1
294 1 1 0.5897 8.995713670091737 16.772666641805564 8.178203192873768 -2 -1 2
227 1 1 0.5897 8.07843445051754 13.691992363569694 9.910752204948828 3 -3 -1
291 1 1 0.5897 4.889944738590651 15.540201773351612 7.199308685258681 -6 -5 -7
475 1 2 -1.1794 5.844390772165505 12.748178203088148 6.359697615098233 5 -3 -1
403 1 2 -1.1794 2.168066312429882 14.040947524559478 5.849257969298009 6 -2 1
433 1 2 -1.1794 1.9057796250714838 12.076637262888122 8.870483057768782 2 3 -2
228 1 1 0.5897 7.4246882775204535 14.77408438715528 10.74368819715472 3 -3 -1
226 1 2 -1.1794 8.237447192053994 14.276820521045511 10.651697721047935 3 -3 -1
186 1 1 0.5897 7.257710546391226 15.720326804174793 7.311913913611411 0 6 4
184 1 2 -1.1794 6.718163384234656 15.455066919863894 6.56704073911494 0 6 4
293 1 1 0.5897 8.55555484818982 15.827876426091207 9.276262508653028 -2 -1 2
32 1 1 0.5897 0.2362336194688442 14.982436664320312 8.068160370459482 3 5 0
627 1 1 0.5897 0.4708710925205116 16.915929789744016 8.943204264678878 -4 -3 2
285 1 1 0.5897 2.4454111532312552 17.02318420265477 10.062849893103111 5 0 -2
693 1 1 0.5897 7.451157809660705 12.25344677808017 7.762809593873878 2 1 3
292 1 2 -1.1794 8.233563536256558 16.294280620842507 8.504780245301331 -2 -1 2
381 1 1 0.5897 1.8504102975683137 15.788099600130456 5.583663299429614 9 3 1
691 1 2 -1.1794 7.5774801678276775 12.093030222192796 8.698026555949816 2 1 3
528 1 1 0.5897 3.1140051372668345 14.01744054247983 11.024912714191846 -3 -6 1
503 1 1 0.5897 5.944714456463196 16.722634901254658 10.402148683967907 -4 0 1
31 1 2 -1.1794 0.3004483472695687 14.070851913568104 7.783196214255829 3 5 0
502 1 2 -1.1794 6.030704444907697 15.967475138021118 10.984114044380595 -4 0 1
527 1 1 0.5897 3.7483176900114477 12.65415466254949 10.848067033447427 -3 -6 1
91 1 2 -1.1794 4.254779974423999 20.79462533833522 6.88688448402581 -1 -6 0
603 1 1 0.5897 6.1272704235692865 18.747425581991283 11.063988110835675 3 4 -2
92 1 1 0.5897 3.4658348056530337 20.253582999100146 6.921348795340816 -1 -6 0
765 1 1 0.5897 0.05238535970874647 21.45875835749506 6.0360395680562355 -3 1 -3
157 1 2 -1.1794 7.33541958082345 18.54358232935558 9.763785483994377 3 1 -2
364 1 2 -1.1794 1.926655183755552 19.09754869927172 7.202488528312285 2 3 2
284 1 1 0.5897 1.9134146742194504 18.349164880129724 10.563695846492946 5 0 -2
283 1 2 -1.1794 1.9250937882714667 17.780315448473704 9.793900865526043 5 0 -2
158 1 1 0.5897 8.018793780904366 19.209593844717105 9.839543434920596 3 1 -2
681 1 1 0.5897 6.1990960772880435 20.09646725957517 6.635617127829058 -6 -5 2
61 1 2 -1.1794 8.34377620206549 22.600282570401646 6.498746098544288 -3 0 3
366 1 1 0.5897 2.0836832378820067 18.887835775432784 8.123204849277975 2 3 2
237 1 1 0.5897 4.723832646245554 21.707503140211273 8.422421641180451 -1 -2 -3
272 1 1 0.5897 8.782965739234738 18.981198683036503 7.334169000218031 -2 3 3
159 1 1 0.5897 7.771563005068834 17.798066610216306 9.351116236694546 3 1 -2
93 1 1 0.5897 4.101111581020976 21.396964969644127 6.158927207793442 -1 -6 0
236 1 1 0.5897 4.782878947557756 21.09805506761249 9.80705156632734 -1 -2 -3
365 1 1 0.5897 1.8532762629926935 18.245945281845902 6.771505867146099 2 3 2
764 1 1 0.5897 0.6015868910231132 20.54062960136779 7.107288437529993 -3 1 -3
235 1 2 -1.1794 4.837960950107685 21.9347397068143 9.345272752170796 -1 -2 -3
680 1 1 0.5897 7.585666523601662 20.70125238366261 6.574347276172938 -6 -5 2
679 1 2 -1.1794 7.1263451348830475 19.861740151638283 6.597868949976486 -6 -5 2
85 1 2 -1.1794 6.314065471022982 16.274673692032902 13.671322001455483 0 6 0
678 1 1 0.5897 2.766174068468873 12.80633764143869 13.461481948785774 5 1 -2
386 1 1 0.5897 3.3435980778331236 16.409653223888668 14.188326079105103 -3 1 0
385 1 2 -1.1794 3.9002652607549346 15.831740352452252 14.710305777722938 -3 1 0
387 1 1 0.5897 3.6370519880882024 15.998250756494349 15.615465409059059 -3 1 0
153 1 1 0.5897 1.2719283852072638 12.93627059608859 15.38460195481939 3 0 0
676 1 2 -1.1794 2.970232850103598 12.981098038414672 14.380249740345272 5 1 -2
526 1 2 -1.1794 2.9863294727511573 13.090897276365693 11.228788044498145 -3 -6 1
87 1 1 0.5897 5.423893536273944 16.300177039993905 14.022399973119105 0 6 0
677 1 1 0.5897 3.3523016279291924 13.85878517736988 14.378492104487242 5 1 -2
573 1 1 0.5897 7.3453187854769135 12.796215967078375 13.876949389411001 2 -2 -4
86 1 1 0.5897 6.559822459543873 15.350192614675072 13.70720738146281 0 6 0
1 1 2 -1.1794 8.370304106136674 17.067906028931557 15.27745306956985 -1 -7 4
572 1 1 0.5897 7.175889491667692 13.412611542732764 12.504545836441611 2 -2 -4
143 1 1 0.5897 3.975721482690303 11.847089765726157 15.33013382643843 -1 3 3
504 1 1 0.5897 6.133342732269998 16.34748791965664 11.85672135265171 -4 0 1
2 1 1 0.5897 7.636138355983541 16.93992847007151 14.676649282266096 -1 -7 4
571 1 2 -1.1794 6.831361812322992 13.445721165810705 13.39702676071894 2 -2 -4
152 1 1 0.5897 0.2759040423608803 13.81409883099781 16.112251852163993 3 0 -1
511 1 2 -1.1794 -0.03452649132045593 12.640874220270664 11.6139600603557 1 2 -5
151 1 2 -1.1794 0.5342915535706537 12.900050298905832 15.993615109736458 3 0 0
513 1 1 0.5897 0.8470238736912119 12.304791701714807 11.452003670129676 1 2 -5
548 1 1 0.5897 8.980494294456584 11.991580813808996 16.36769376881275 4 -1 6
547 1 2 -1.1794 8.552665465801553 12.180935218410777 15.532548884498654 4 -1 6
629 1 1 0.5897 9.06462247820877 13.951826525222561 15.952568331510554 0 -4 2
630 1 1 0.5897 8.989373596074456 15.459600118589654 15.838215266168296 0 -4 2
601 1 2 -1.1794 5.404602944615551 18.892238846288954 11.674808870785135 3 4 -2
425 1 1 0.5897 6.16486442784543 20.714340855311082 14.282517136136995 6 -4 1
223 1 2 -1.1794 2.5535236775683883 19.173853370357094 12.121170035741924 1 -1 -8
738 1 1 0.5897 4.341561623206235 20.73182715472824 16.357213814101968 2 -2 0
225 1 1 0.5897 2.400478865987196 20.112925395873663 12.226221440194832 1 -1 -8
778 1 2 -1.1794 1.766529611267224 22.13485539746806 12.05212049807745 -2 0 -1
288 1 1 0.5897 1.2792699567906665 22.084229324709813 15.55089438949259 4 0 2
286 1 2 -1.1794 0.3753500069238387 22.047540692005782 15.237967280568654 4 0 2
736 1 2 -1.1794 5.292336526136496 20.636780066834607 16.29960539582619 2 -2 0
424 1 2 -1.1794 6.722408430287731 20.514274617097488 13.530566252844405 6 -4 1
602 1 1 0.5897 5.770545796869499 19.46627362422206 12.347780679127352 3 4 -3
224 1 1 0.5897 3.4848395291470156 19.104498687073814 11.911050202344331 1 -1 -8
51 1 1 0.5897 0.6652495784395928 18.9196432009835 12.499962933161694 7 0 -1
426 1 1 0.5897 7.6141542257300685 20.54993265282981 13.876755645531805 6 -5 1
780 1 1 0.5897 0.8837640085661708 22.32468323900813 11.734303258380136 -2 0 -1
3 1 1 0.5897 8.977397736860933 17.631612617622434 14.79785679387771 -1 -7 4
263 1 1 0.5897 6.035305293641828 22.34830026008338 12.979482903031757 4 -3 5
246 1 1 0.5897 2.5955841024893838 14.947531784726749 19.370008782721527 -4 3 -2
245 1 1 0.5897 1.4061698257082498 14.418669686441577 18.59686954243834 -4 3 -2
244 1 2 -1.1794 2.3633782203749933 14.419612484300337 18.606002500674734 -4 3 -2
684 1 1 0.5897 7.055964771153171 15.202479582818677 18.188485573270185 6 -1 -7
657 1 1 0.5897 4.880039280253756 15.889818752995085 21.316928234053734 1 2 -1
701 1 1 0.5897 5.667511953259459 16.162562893315098 19.36432580073437 4 1 1
297 1 1 0.5897 2.8282222055814854 15.709169182663596 17.475730018948838 0 3 0
430 1 2 -1.1794 3.0638326389489943 15.060674137009583 21.299328625965167 -5 -1 -3
682 1 2 -1.1794 7.67202233662294 14.470074050419258 18.207949109643117 6 -1 -7
656 1 1 0.5897 6.312965226412484 15.597868728892124 21.708866592165556 0 2 -1
700 1 2 -1.1794 5.690959423442934 16.239839169175156 18.410495839353885 4 1 1
655 1 2 -1.1794 5.779869934954995 16.18014688631308 21.167487681356548 0 2 -1
164 1 1 0.5897 6.858655138398536 12.591792161252323 17.929898494679065 -3 2 -1
375 1 1 0.5897 3.06779063199614 12.746857378370253 18.68785495224123 2 4 0
702 1 1 0.5897 6.184184172957183 17.043751288024986 18.246892463011513 4 1 1
373 1 2 -1.1794 3.639067749748965 11.986054828590628 18.582182866893007 2 4 0
683 1 1 0.5897 8.361716577507817 14.720184488215924 17.59305368464966 6 -1 -7