LAMMPS data file via write_data, version 30 Jul 2021, timestep = 10500000

1920 atoms
2 atom types
1280 bonds
1 bond types
640 angles
1 angle types

-0.03293379116510664 24.762934791164284 xlo xhi
-0.02825967772451321 24.758260677715633 ylo yhi
-0.14959266470927446 22.959592664715224 zlo zhi

Masses

1 1.008
2 15.999

Pair Coeffs # lj/cut/tip4p/long/omp

1 0 0
2 0.21084 3.1668

Bond Coeffs # harmonic/omp

1 450 0.9572

Angle Coeffs # harmonic/omp

1 55 104.52

Atoms # full

1 1 2 -1.1794 4.695392282228385 1.3434333065126804 3.852332270047393 0 0 0
2 1 1 0.5897 4.714123620768293 2.0389150850950286 4.509673452960901 0 0 0
3 1 1 0.5897 5.433543052587719 1.538876922531457 3.2751328289322927 0 0 0
4 2 2 -1.1794 2.801996853280185 1.4544643462495892 1.7561597631026198 0 0 0
5 2 1 0.5897 3.1942368409835353 1.6310333313994372 2.611206543681876 0 0 0
6 2 1 0.5897 1.8680442241796773 1.3490850855422716 1.9376318968873427 0 0 0
10 4 2 -1.1794 2.9956155692501136 4.7377484023430485 3.5826070263111287 0 0 0
11 4 1 0.5897 2.5394597403481707 5.339802880593502 4.17051569154443 0 0 0
12 4 1 0.5897 2.546658116563595 4.836047097591882 2.743013237312451 0 0 0
13 5 2 -1.1794 1.4630231674256728 2.938223670154132 4.990245281170529 0 0 0
14 5 1 0.5897 2.113601485304095 3.3658252753218827 4.43336331318275 0 0 0
15 5 1 0.5897 1.6824068622816102 2.0076482257775052 4.944457949179203 0 0 0
22 8 2 -1.1794 1.414806469014688 4.761802652778595 1.449092225170337 0 0 0
24 8 1 0.5897 1.2260883349918308 5.533654293526838 0.915431115479119 0 0 0
23 8 1 0.5897 0.6030792810238345 4.597674512709436 1.9291029905622556 0 0 0
20 7 1 0.5897 3.7840593264145923 2.6747385952887446 0.8363581187805371 0 0 0
9 3 1 0.5897 4.7744780890677 4.377012707568696 3.5725274496034203 0 0 0
21 7 1 0.5897 5.286460180804791 2.854722828606022 0.786460428949096 0 0 0
19 7 2 -1.1794 4.476901867743172 3.1246717955387293 0.3528717005021257 0 0 0
27 9 1 0.5897 4.757176284132267 5.001991886810409 0.38956075063423634 0 0 0
25 9 2 -1.1794 4.62511506715594 5.943696542283058 0.4988580009134638 0 0 0
387 129 1 0.5897 4.0387809049351375 0.1769616817218616 1.1244233159122263 0 1 0
7 3 2 -1.1794 5.721968270628032 4.322294019751009 3.4477354586149076 0 0 0
16 6 2 -1.1794 -0.018677434188937452 1.6288884580480287 2.0609641134593493 0 0 0
8 3 1 0.5897 6.069369854640217 5.085170022910595 3.9098113734592754 0 0 0
1455 485 1 0.5897 1.338702755694779 3.4344019062840943 -0.11144926869824293 0 0 1
99 33 1 0.5897 0.12504557507699132 3.7945732538389443 4.008981810036272 1 0 0
28 10 2 -1.1794 1.6987976403415708 0.2376933765748545 4.623121394965833 0 0 0
98 33 1 0.5897 0.2493176179163149 5.302018497212677 4.071972711110818 1 0 0
867 289 1 0.5897 4.869623849373498 0.06144461687219825 5.374472676013626 0 1 0
218 73 1 0.5897 0.22259826621664047 10.935874272453908 2.6311685211908276 1 0 0
26 9 1 0.5897 5.439665394575055 6.256113714952039 0.8927681057016668 0 0 0
168 56 1 0.5897 6.051028096689265 8.381631450978846 1.4558110365970673 0 0 0
148 50 2 -1.1794 1.3649808090662485 6.405915064562428 4.983332369157137 0 0 0
140 47 1 0.5897 4.492582196651351 10.467884527643866 0.6102267666829195 0 0 0
121 41 2 -1.1794 4.5438107265844865 8.030131985875974 4.061995841622808 0 0 0
122 41 1 0.5897 3.766165032307147 7.9911288079591145 3.505239085670969 0 0 0
123 41 1 0.5897 5.279138823586934 7.991057176078911 3.450446198988465 0 0 0
124 42 2 -1.1794 2.846647874168855 7.639184822136633 1.8956930954977937 0 0 0
125 42 1 0.5897 3.1583164727135813 6.847164151381809 1.4577958351488371 0 0 0
126 42 1 0.5897 3.323879358316491 8.351899784191819 1.4708495047436057 0 0 0
129 43 1 0.5897 5.126255827347829 10.961710024744747 3.648068481713955 0 0 0
130 44 2 -1.1794 3.1587396104096404 11.175024035475527 3.725788998565031 0 0 0
132 44 1 0.5897 2.7027517846855105 10.377000651697623 3.9930792887418463 0 0 0
133 45 2 -1.1794 1.471469315268273 9.185857847712285 4.943702754197948 0 0 0
135 45 1 0.5897 0.8005972781456945 9.705793279809576 4.501181024410885 0 0 0
137 46 1 0.5897 1.0933514626877858 7.963030384848799 2.110842295603759 0 0 0
139 47 2 -1.1794 4.4218895229469055 9.515821730848971 0.6792918654850781 0 0 0
142 48 2 -1.1794 1.6991834312555718 10.934431226247954 1.3725323296078669 0 0 0
143 48 1 0.5897 2.3174289901240077 11.174509699565345 2.0626925618601653 0 0 0
144 48 1 0.5897 1.7150837165552275 11.67599851672042 0.7675674510731088 0 0 0
149 50 1 0.5897 1.5504927456099669 7.332422950888297 5.136197265429255 0 0 0
131 44 1 0.5897 2.7038789598119135 11.87806931923603 4.189493853129853 0 0 0
127 43 2 -1.1794 6.031067129217963 10.676889108760578 3.519657788273125 0 0 0
621 207 1 0.5897 4.54384099127817 9.323684528912628 5.382046679591727 0 0 0
145 49 2 -1.1794 4.523484956077382 12.283219577295965 0.750728661777159 0 0 0
136 46 2 -1.1794 0.14158845054698793 8.065200376375358 2.106773938483321 0 0 0
507 169 1 0.5897 4.674161042558191 6.7685299704448125 5.2715354149139975 0 0 0
1574 525 1 0.5897 1.5439679255969643 9.713667213130433 0.0062796416870066485 0 0 1
270 90 1 0.5897 0.8875779268822928 12.314817351929575 4.380512289383451 0 0 0
150 50 1 0.5897 1.4024368668773468 6.00705852825886 5.8526000686112605 0 0 0
508 170 2 -1.1794 1.7168575699757496 0.22296058187991935 10.639355157021361 0 0 0
578 193 1 0.5897 0.28948688553573354 3.8849912556025514 9.752085852398487 1 0 0
496 166 2 -1.1794 0.22915886637631494 1.6810711268091734 7.904353525765556 0 0 0
494 165 1 0.5897 1.827569534206672 1.8436347060202938 10.824402961529422 0 0 0
504 168 1 0.5897 1.3499952397165162 4.056912660481648 6.48379117822021 0 0 0
501 167 1 0.5897 4.876455150077879 4.303097698856023 6.008081271156036 0 0 0
499 167 2 -1.1794 4.770733851609318 3.351845669933338 6.0197924776936915 0 0 0
483 161 1 0.5897 4.6132127324376215 1.9437563466930474 10.637833553550946 0 0 0
492 164 1 0.5897 2.8482045462678056 4.1499820133541725 9.882377136428703 0 0 0
493 165 2 -1.1794 1.829595495661781 2.799949711745291 10.783808453729224 0 0 0
491 164 1 0.5897 2.5776703924883386 4.8292025153385785 8.556827156939338 0 0 0
485 162 1 0.5897 3.3104461421374802 1.6737878698934958 8.468776239935202 0 0 0
481 161 2 -1.1794 4.528080205056084 1.3072182196652526 9.928109712407775 0 0 0
482 161 1 0.5897 5.223492913687777 1.539522515720784 9.312767048576283 0 0 0
502 168 2 -1.1794 1.3650616887746179 4.778421005523677 7.112570509263435 0 0 0
500 167 1 0.5897 3.934950870459703 3.2087136252714012 6.463909161690791 0 0 0
490 164 2 -1.1794 3.150654892830256 4.865147677816634 9.32270644262552 0 0 0
503 168 1 0.5897 0.6116410592173935 4.617426065927483 7.680607818249286 0 0 0
498 166 1 0.5897 1.185682105695775 1.6805250231275493 7.9413823186456 0 0 0
484 162 2 -1.1794 2.9582292796144816 1.7150152773194132 7.579750616229783 0 0 0
489 163 1 0.5897 5.023320878768791 5.066029021652499 8.991815257480035 0 0 0
486 162 1 0.5897 3.5021680124077865 1.1080640857488682 7.07780623330152 0 0 0
527 176 1 0.5897 5.9460646003863395 1.051687652579623 7.218662127482642 0 0 0
528 176 1 0.5897 5.893922543877962 2.563272772497291 7.283454502251121 0 0 0
487 163 2 -1.1794 5.972601797187685 4.953201472520133 8.942399356435534 0 0 0
579 193 1 0.5897 0.4241752225522236 5.3924342082529755 9.787836349860845 1 0 0
488 163 1 0.5897 6.1367622538334405 4.111800821677313 9.3681616911643 0 0 0
497 166 1 0.5897 0.00270813277413913 0.8265959304406175 7.537236426454401 0 0 0
1347 449 1 0.5897 4.418842502979915 0.07106280628180693 11.35123115938429 0 1 0
625 209 2 -1.1794 4.51500307959723 12.274078317416599 6.261227348672824 0 0 0
604 202 2 -1.1794 2.8912609620899445 7.6919941309816755 7.4982408022543865 0 0 0
1101 367 1 0.5897 4.523587349750678 9.055618833372346 11.039378459147535 0 0 0
622 208 2 -1.1794 1.2107871634837173 10.924674059232432 7.0569848410970195 0 0 0
505 169 2 -1.1794 4.758503717978868 6.20145664965134 6.037983520469677 0 0 0
613 205 2 -1.1794 1.5039165988795673 9.192815280025021 10.461927747754492 0 0 0
699 233 1 0.5897 0.0062333151067230225 10.80263742844977 8.352943517297158 1 0 0
628 210 2 -1.1794 1.4454729765237626 6.543116366343071 10.737866652685009 0 0 0
615 205 1 0.5897 0.6438001389250352 9.57302087859906 10.283246162457068 0 0 0
134 45 1 0.5897 1.616856720456138 9.638662977900573 5.7743358893773475 0 0 0
602 201 1 0.5897 4.5595604389556765 7.034439764173542 10.247216237545889 0 0 0
623 208 1 0.5897 1.933102642593911 10.943852716502569 7.6847636143423035 0 0 0
605 202 1 0.5897 3.2431716621736264 8.49321277712467 7.110423730811569 0 0 0
607 203 2 -1.1794 5.920910102992288 11.147879683663891 9.086268682788932 0 0 0
611 204 1 0.5897 3.9918633824403056 11.133017261942106 9.121098856853974 0 0 0
629 210 1 0.5897 2.253041641073634 6.271203338696244 10.301803699747596 0 0 0
648 216 1 0.5897 5.805688019932845 7.257657969412625 6.916596938004818 0 0 0
620 207 1 0.5897 5.038534037749271 9.299249504920452 6.81253102805115 0 0 0
647 216 1 0.5897 5.786115131222893 7.972447546195454 8.250872908934523 0 0 0
626 209 1 0.5897 4.4912185670909945 11.32625608856863 6.129863673109511 0 0 0
610 204 2 -1.1794 3.044220908477302 11.05499483889291 9.010624235292726 0 0 0
601 201 2 -1.1794 4.5571809889430055 7.796210436255112 9.667680829160874 0 0 0
630 210 1 0.5897 1.4463403843315985 7.497946751296719 10.670858376500243 0 0 0
612 204 1 0.5897 2.6853643143483827 11.811067615790442 9.475139666960626 0 0 0
606 202 1 0.5897 1.941340439722331 7.791951345305011 7.435177479960914 0 0 0
614 205 1 0.5897 2.0957707629588413 9.644747630658488 9.860545285323905 0 0 0
506 169 1 0.5897 4.023959512254533 6.447292524702275 6.600330201649597 0 0 0
619 207 2 -1.1794 4.34375258550296 9.653947235792979 6.257834368950548 0 0 0
603 201 1 0.5897 3.8718256850645227 7.607830475264073 9.026583707234726 0 0 0
624 208 1 0.5897 1.4427585066156343 11.5850547636398 6.404108830867426 0 0 0
616 206 2 -1.1794 0.11618079965197822 7.976804326456936 7.804008264208802 0 0 0
698 233 1 0.5897 0.007136567016246924 11.654157595330982 9.604559897596502 1 0 0
961 321 2 -1.1794 4.730143619917238 1.7712647209091756 15.601770722253478 0 0 0
962 321 1 0.5897 5.4336402453882915 1.589768784561941 14.978583267087696 0 0 0
963 321 1 0.5897 4.672413228529177 0.9790705886732345 16.135864689369278 0 0 0
964 322 2 -1.1794 2.9984330630439273 1.9940457163089969 13.461809683161434 0 0 0
965 322 1 0.5897 3.5319170939152635 1.8116747855836761 14.235317668053641 0 0 0
966 322 1 0.5897 2.1003155126983137 2.02522326391639 13.791508377883197 0 0 0
970 324 2 -1.1794 3.3897005742093134 4.879268276354064 14.8408274880376 0 0 0
971 324 1 0.5897 4.3227981142573 4.675838686444961 14.906011033285203 0 0 0
972 324 1 0.5897 2.951498064561883 4.124947103008759 15.23475777053086 0 0 0
973 325 2 -1.1794 1.7508088305455174 3.041011759977028 16.2533684066958 0 0 0
975 325 1 0.5897 0.9401650819482531 3.3296047724831563 15.834044056924926 0 0 0
982 328 2 -1.1794 1.5272004245724329 4.70059421099213 12.875314853809314 0 0 0
983 328 1 0.5897 1.468901870886819 5.392973661494424 12.21701023946417 0 0 0
984 328 1 0.5897 2.243068670797563 4.974353938320186 13.448749222513346 0 0 0
980 327 1 0.5897 3.849959113731653 3.0648049106860062 12.393119436858397 0 0 0
981 327 1 0.5897 5.34810867203551 2.8466276000486785 12.399149133837103 0 0 0
979 327 2 -1.1794 4.659386786104455 3.358417939727621 11.974927290469783 0 0 0
990 330 1 0.5897 1.6894569315447523 1.1321210030361881 16.257844827269892 0 0 0
986 329 1 0.5897 4.577960076494635 5.119400059586494 11.941892865012749 0 0 0
985 329 2 -1.1794 4.608003057423628 6.076070716299736 11.933102227276533 0 0 0
1460 487 1 0.5897 4.975405297107408 2.9473795037595876 17.011277219943537 0 0 0
1109 370 1 0.5897 0.7511196122345741 5.990806363388729 16.120793177296033 0 0 0
974 325 1 0.5897 1.7631723081650448 3.500094183673863 17.093135666309614 0 0 0
495 165 1 0.5897 1.7584638821936067 3.079048873664422 11.696576643219291 0 0 0
1058 353 1 0.5897 0.13124817457272497 4.731230299239686 14.171371826630793 1 0 0
1110 370 1 0.5897 2.2422907221385278 5.95569713998247 15.861458799425677 0 0 0
988 330 2 -1.1794 1.7912644393857697 0.1890665681768446 16.129495051823643 0 0 0
1346 449 1 0.5897 3.854156522123021 0.47566643314715795 12.696244356711363 0 1 0
976 326 2 -1.1794 0.10266653528629155 1.7950606267475042 13.598576961328565 0 0 0
1087 363 2 -1.1794 5.985999478198867 10.554566608070264 15.321391277843414 0 0 0
1108 370 2 -1.1794 1.57985275809186 6.36836200456603 16.415623472760338 0 0 0
987 329 1 0.5897 3.944100150410478 6.342866989478217 12.568912063955516 0 0 0
1081 361 2 -1.1794 4.555091819086612 7.700840366942054 15.801123165590708 0 0 0
1082 361 1 0.5897 4.494707364098214 8.493168839963925 16.33472521614906 0 0 0
1083 361 1 0.5897 4.588053130755166 6.985603022040368 16.436336011952655 0 0 0
1084 362 2 -1.1794 3.024783203262945 7.912004886815145 13.3880936090516 0 0 0
1085 362 1 0.5897 3.5012540562468923 7.769765708378236 14.20596169616858 0 0 0
1086 362 1 0.5897 3.5483880239631667 8.558502542328286 12.914723820305673 0 0 0
1089 363 1 0.5897 5.20283261358524 10.930134163342352 14.919079943463867 0 0 0
1090 364 2 -1.1794 3.2014105253212546 11.000329938835742 14.833244970605783 0 0 0
1091 364 1 0.5897 2.879480667313029 11.745432282506217 15.34055597321647 0 0 0
1092 364 1 0.5897 2.8676215585817295 10.23224319071147 15.296721673691989 0 0 0
1095 365 1 0.5897 0.8916435734585234 9.403511072585705 15.774044087776765 0 0 0
1097 366 1 0.5897 1.0847993432772713 7.57658983686241 13.398237718706621 0 0 0
1099 367 2 -1.1794 4.663758124592895 9.50035541411826 11.875248207242821 0 0 0
1102 368 2 -1.1794 1.4286762713359669 10.809813595271875 12.751073508091954 0 0 0
1104 368 1 0.5897 2.243005977120896 10.779705293738246 13.253276982860774 0 0 0
1093 365 2 -1.1794 1.5577443425973871 9.151651121054439 16.413648069325163 0 0 0
1103 368 1 0.5897 1.4995219855728013 10.080569790219199 12.135167441836936 0 0 0
1100 367 1 0.5897 5.431771615581705 9.069526130635332 12.250470060116516 0 0 0
1094 365 1 0.5897 1.5341696027904883 8.19478701555873 16.420552618796293 0 0 0
1107 369 1 0.5897 4.35077734058876 11.2411959137814 12.162045039546515 0 0 0
1178 393 1 0.5897 0.14548316038774609 11.713340361642718 15.528594764635235 1 0 0
1105 369 2 -1.1794 4.255323176746137 12.188231290202099 12.263063713124247 0 0 0
1179 393 1 0.5897 0.4612078084243474 10.940692072343124 14.265676073925084 1 0 0
1127 376 1 0.5897 6.015954386931171 7.758317789366838 14.347912001879134 0 0 0
1128 376 1 0.5897 5.772993632956703 7.025075637567954 13.04601186206634 0 0 0
1096 366 2 -1.1794 0.17901349125053093 7.886028020892624 13.408038870199968 0 0 0
1456 486 2 -1.1794 0.1920949128258418 1.6238358976665126 19.515441617821292 0 0 0
1826 609 1 0.5897 3.8005666087671504 0.19629600713081022 18.231175334515353 0 1 0
1468 490 2 -1.1794 1.6674735781471393 0.30861577998141027 22.102403047913274 0 0 0
1454 485 1 0.5897 2.2655202557249234 3.493273979388581 21.802204769875555 0 0 0
1464 488 1 0.5897 1.0611905294153872 4.699810620300944 19.14636273035324 0 0 0
1443 481 1 0.5897 4.643641785362387 2.0147765609071673 21.999516850803076 0 0 0
1450 484 2 -1.1794 3.4584779974230084 4.686909543813645 20.855650346846385 0 0 0
1469 490 1 0.5897 1.5838965076802785 1.2498495877361684 22.255013335581005 0 0 0
1442 481 1 0.5897 4.169666503513803 1.4120963421057067 20.694234875464133 0 0 0
1453 485 2 -1.1794 1.4889588918781995 3.0445165321458707 22.136616495870847 0 0 0
1444 482 2 -1.1794 3.061305727042307 1.776349639360005 19.41729563991508 0 0 0
1463 488 1 0.5897 1.548567638474462 5.325446373937438 17.856909167062618 0 0 0
1452 484 1 0.5897 3.1233924856565674 4.908196970285172 19.986810237721258 0 0 0
1441 481 2 -1.1794 4.845603512319484 1.3258703910125669 21.366451724445355 0 0 0
1451 484 1 0.5897 4.400518934473513 4.57461057748183 20.7281701632917 0 0 0
1445 482 1 0.5897 2.1320653708419695 1.9992395633293918 19.473317244308117 0 0 0
1446 482 1 0.5897 3.4251342219789636 2.4162252896936347 18.80544525600559 0 0 0
1461 487 1 0.5897 5.593702529948552 2.6894657247938403 18.36878725436461 0 0 0
1459 487 2 -1.1794 5.008211155882083 3.2881365770534394 17.905100212247913 0 0 0
1462 488 2 -1.1794 1.7064991938103566 4.589427806920079 18.44808798324955 0 0 0
1466 489 1 0.5897 4.565810489855189 4.987503380450044 17.787756825166053 0 0 0
1465 489 2 -1.1794 4.505159950338909 5.942755822017237 17.784831706017737 0 0 0
386 129 1 0.5897 4.510522566725948 0.15979935801393902 22.79528978086818 0 1 -1
1488 496 1 0.5897 5.90682728257272 0.5712014845750482 18.63978529255863 0 0 0
1447 483 2 -1.1794 6.1544037771451885 4.473336681892312 20.892338863172643 0 0 0
1539 513 1 0.5897 0.18542924733294128 5.659404082672699 21.06415908692787 1 0 0
1537 513 2 -1.1794 0.004566835849956749 4.842715864311025 20.598880161364022 1 0 0
1538 513 1 0.5897 0.3540777207814883 4.158683888187109 21.169955000394104 1 0 0
1576 526 2 -1.1794 0.37500292470199803 7.75498770629882 19.256748579639858 0 0 0
1709 570 1 0.5897 0.8776900801517835 12.08985332826826 21.6594790815189 0 0 0
1565 522 1 0.5897 2.1939599841668573 7.82035076830194 19.328227917964288 0 0 0
1608 536 1 0.5897 5.966010634991828 7.670556476837046 19.89886293701836 0 0 0
1585 529 2 -1.1794 4.620262814177964 12.161969274797121 18.295118360484544 0 0 0
1575 525 1 0.5897 2.1514210245330525 9.91016963144208 21.74286680981316 0 0 0
1567 523 2 -1.1794 5.88792200636185 11.016012126032125 20.806970306925013 0 0 0
1658 553 1 0.5897 0.21316081994948236 10.400406276843936 21.17939687050532 1 0 0
1710 570 1 0.5897 2.3760901503425864 12.277740488842435 21.767073344871527 0 0 0
1588 530 2 -1.1794 1.3789691640240844 6.650772358781492 22.142856774773293 0 0 0
1590 530 1 0.5897 2.20125787900119 6.321717188307947 21.779770946132054 0 0 0
1571 524 1 0.5897 2.962089606528591 11.179322455934786 19.916471908455247 0 0 0
1579 527 2 -1.1794 4.6260007273561445 9.42579675728539 17.993126950212044 0 0 0
1589 530 1 0.5897 1.4553207960873744 7.6031635571811504 22.085282551493645 0 0 0
1572 524 1 0.5897 4.217200065552703 11.106434135911307 20.759861830046734 0 0 0
1587 529 1 0.5897 4.5903777669046395 11.20611996735433 18.254501788584655 0 0 0
1581 527 1 0.5897 5.426141907482553 8.908114622530546 18.08289238694632 0 0 0
1582 528 2 -1.1794 1.626007672066994 10.852089269610605 18.411540690946115 0 0 0
1467 489 1 0.5897 5.329036750874571 6.236713310868391 18.173524611127974 0 0 0
1573 525 2 -1.1794 1.4582704689872994 9.437022027336008 22.20319638080325 0 0 0
1562 521 1 0.5897 4.7767736764717075 7.20103288590308 22.13564325109413 0 0 0
1580 527 1 0.5897 3.9966985564310136 8.997638172698487 18.573530728667098 0 0 0
1583 528 1 0.5897 0.7821500493846191 10.788800342981942 18.858930222334934 0 0 0
1584 528 1 0.5897 1.6133727934328483 10.138762778346718 17.773444557295594 0 0 0
1566 522 1 0.5897 3.393020717219851 7.05825756124688 18.80533211223766 0 0 0
1563 521 1 0.5897 4.10856238295829 7.8094153267078745 20.921125774806754 0 0 0
1570 524 2 -1.1794 3.264150317247192 11.034441417017407 20.813067619036687 0 0 0
1564 522 2 -1.1794 3.117183721954751 7.6444439613651 19.509926233105553 0 0 0
1561 521 2 -1.1794 4.773693524009297 7.985102852740148 21.586660291285195 0 0 0
141 47 1 0.5897 4.377702085303832 9.21206067126696 22.881899636460496 0 0 -1
1586 529 1 0.5897 5.4866337723104435 12.360089335300747 18.650678670313106 0 0 0
241 81 2 -1.1794 4.675498444379406 13.88347670930789 4.146398245793783 0 0 0
242 81 1 0.5897 4.6602551376784636 13.222087491858252 4.838118800726139 0 0 0
243 81 1 0.5897 3.960626094767892 13.63450143491371 3.5605780485736527 0 0 0
244 82 2 -1.1794 2.719877465895375 13.757200742504507 2.0917637802251843 0 0 0
245 82 1 0.5897 1.7870208694987533 13.854479618404097 1.9004146986051538 0 0 0
246 82 1 0.5897 3.130527049715838 14.515252925617073 1.6759291416626365 0 0 0
250 84 2 -1.1794 3.204234500521004 17.042005460610543 3.556657379696774 0 0 0
251 84 1 0.5897 2.8841851851522544 17.01391557896432 2.6550450730276975 0 0 0
252 84 1 0.5897 4.121132374451637 16.774209023897203 3.494351324775885 0 0 0
253 85 2 -1.1794 1.166876347015359 15.47791691289815 4.552538463601635 0 0 0
255 85 1 0.5897 2.031798020055971 15.857583543024763 4.397461957501695 0 0 0
259 87 2 -1.1794 4.103015518004945 15.7029162318334 0.7617844878648594 0 0 0
262 88 2 -1.1794 1.3062582655348824 17.062615188373503 1.1820930397374099 0 0 0
263 88 1 0.5897 1.537074770156472 16.438979906673993 0.4936469862778936 0 0 0
264 88 1 0.5897 1.2859222777570765 17.91139953603948 0.740117176006194 0 0 0
269 90 1 0.5897 1.457814633155228 13.684036491489067 4.683649415887068 0 0 0
254 85 1 0.5897 0.5708572824585848 16.01894001342842 4.034597664004941 0 0 0
260 87 1 0.5897 4.384384426869106 16.564687028991575 0.4545756717199103 0 0 0
247 83 2 -1.1794 5.9226121506967475 16.57734808475969 3.452254901583642 0 0 0
265 89 2 -1.1794 4.576456729309047 18.329386442083937 0.40599231359713495 0 0 0
389 130 1 0.5897 1.8868170992494986 18.468528403456272 4.639549390754359 0 0 0
256 86 2 -1.1794 0.01566295611138266 14.103233611155922 1.7503407990451958 0 0 0
740 247 1 0.5897 4.757252366431159 14.991075576917753 5.608648358194627 0 0 0
261 87 1 0.5897 4.204031236019229 15.131899539346016 0.0002950501753940238 0 0 0
268 90 2 -1.1794 1.468253530365806 12.775879720087245 4.985846569780422 0 0 0
147 49 1 0.5897 5.28932522177075 12.793409206731727 1.0142662008729917 0 0 0
146 49 1 0.5897 3.796611537844631 12.673000224718953 1.2364890350320938 0 0 0
288 96 1 0.5897 5.935611742432492 14.78518685377665 1.4637770457142236 0 0 0
287 96 1 0.5897 5.792174776080607 13.786969336010854 2.5927829435641248 0 0 0
30 10 1 0.5897 1.6174732197816846 24.492209137233353 5.414626605552556 0 -1 0
408 136 1 0.5897 5.68170145151586 19.769333536580906 2.7099608487899847 0 0 0
385 129 2 -1.1794 4.575103581647885 24.462879659702917 0.5096541620487173 0 0 0
458 153 1 0.5897 0.11403418040250429 23.969589216907035 4.067237665322716 1 0 0
388 130 2 -1.1794 1.1321581813119208 18.90435175199673 5.035525281372182 0 0 0
267 89 1 0.5897 3.8876124019624045 18.830916064725745 0.8421049108583886 0 0 0
361 121 2 -1.1794 4.619577774859008 20.047235666147518 4.112401505805787 0 0 0
362 121 1 0.5897 3.8814132432517767 19.900667967942073 3.5209058262094333 0 0 0
364 122 2 -1.1794 3.0106832345041794 20.123826499242135 1.9014688042098098 0 0 0
365 122 1 0.5897 3.4276634706545868 20.713084912841627 1.2729197658932845 0 0 0
370 124 2 -1.1794 3.215032634595392 23.04379451125757 3.0158374914893415 0 0 0
371 124 1 0.5897 4.166699351844186 22.940842559001815 3.0223055950911606 0 0 0
372 124 1 0.5897 2.8956175028466795 22.3597332640454 3.6042340833668156 0 0 0
373 125 2 -1.1794 1.4834374604376066 21.568056618985082 4.5825397396470375 0 0 0
382 128 2 -1.1794 1.3718503269242455 23.43729278853445 1.092643401978264 0 0 0
383 128 1 0.5897 2.088350568758265 23.38445899556919 1.7251501742249151 0 0 0
390 130 1 0.5897 1.2881486954018537 19.836902360321584 4.8865024146677865 0 0 0
375 125 1 0.5897 0.7567099360854909 22.02095039995647 4.154762815550106 0 0 0
366 122 1 0.5897 2.0772230157287175 20.325871005544816 1.837169625863897 0 0 0
384 128 1 0.5897 1.51870050538928 22.698930945754583 0.5015329102982848 0 0 0
363 121 1 0.5897 4.6273370150281705 19.277800217533766 4.681667873728646 0 0 0
381 127 1 0.5897 5.201503370907249 21.476267366674403 1.0337097050306598 0 0 0
379 127 2 -1.1794 4.593411063328646 21.69821329225422 0.3286210195624139 0 0 0
380 127 1 0.5897 4.469973901880933 22.64415600638151 0.40703354490088084 0 0 0
459 153 1 0.5897 0.12520807471994894 23.45170083407262 2.6448291433811946 1 0 0
374 125 1 0.5897 1.5981843596319358 22.02961188238135 5.413156617939711 0 0 0
861 287 1 0.5897 4.649704368062255 21.431841343762397 5.389110549349763 0 0 0
407 136 1 0.5897 5.8779207869878105 19.27386280616803 1.2930627206067897 0 0 0
367 123 2 -1.1794 6.060383054535384 22.936607796621423 3.182779044577054 0 0 0
376 126 2 -1.1794 0.1659606140973955 20.079618392876906 2.098534199796014 0 0 0
29 10 1 0.5897 2.404632485661798 24.60974719376502 4.126893868296476 0 -1 0
1470 490 1 0.5897 1.6336034513129338 24.706364776040395 -0.13281594546635592 0 -1 1
748 250 2 -1.1794 1.2958817950261403 12.779053364357445 10.566851597339161 0 0 0
818 273 1 0.5897 0.053663755993281756 16.901096635912193 8.61529712110017 1 0 0
729 243 1 0.5897 6.067233678801721 17.68876648493985 10.193678393311233 0 0 0
737 246 1 0.5897 1.1834441185587978 14.203067453161163 7.991410905311401 0 0 0
732 244 1 0.5897 2.8358547974129347 16.24331892111909 9.711960875567742 0 0 0
725 242 1 0.5897 3.7150843286382975 14.733864007861072 7.449578060654863 0 0 0
726 242 1 0.5897 2.976734849430017 13.425199756846357 7.264918918959158 0 0 0
730 244 2 -1.1794 3.2444520969184554 16.839320091225343 9.08425792175486 0 0 0
728 243 1 0.5897 5.063094900249852 17.05646476537196 9.253595939045045 0 0 0
733 245 2 -1.1794 1.5743540913737146 15.402415154191354 10.621434443880295 0 0 0
724 242 2 -1.1794 2.9833219950531285 14.222344390423487 7.79471125904234 0 0 0
742 248 2 -1.1794 1.2981605718252054 17.082414579556897 7.079561469100116 0 0 0
721 241 2 -1.1794 4.664013091947521 13.865721818126103 10.144316199974478 0 0 0
743 248 1 0.5897 1.4139468226552965 17.82506112058833 6.4869194336140525 0 0 0
722 241 1 0.5897 3.9241269139179886 14.07301638483937 9.573505270039094 0 0 0
731 244 1 0.5897 2.667510280483305 16.816127578418964 8.320864194751099 0 0 0
735 245 1 0.5897 0.8593877281895423 15.938708028391183 10.278716641881308 0 0 0
741 247 1 0.5897 5.007439949011043 16.2878689459205 6.348564398132214 0 0 0
744 248 1 0.5897 1.2044867400021873 16.32581514219439 6.500817571244488 0 0 0
739 247 2 -1.1794 4.995079540500809 15.338287938782642 6.468298667416223 0 0 0
723 241 1 0.5897 5.435711922890277 14.124761604141014 9.64071045035465 0 0 0
749 250 1 0.5897 1.3617959689165429 13.72374852974699 10.706121147438198 0 0 0
745 249 2 -1.1794 4.923181517710426 18.34840236446223 6.26718669390074 0 0 0
870 290 1 0.5897 2.3422199371410817 18.312663451029774 10.336542110492262 0 0 0
869 290 1 0.5897 0.8283353352461337 18.301993459701443 10.325324053589341 0 0 0
747 249 1 0.5897 3.996574729307288 18.490744888496653 6.460686480975563 0 0 0
727 243 2 -1.1794 5.99636524478598 17.07105551768094 9.46597819784623 0 0 0
736 246 2 -1.1794 0.24029418084250614 14.072778978487836 7.892429432635529 0 0 0
627 209 1 0.5897 5.068486276798432 12.395616372785103 7.0326233002369 0 0 0
1106 369 1 0.5897 4.475479035475755 12.544774219521347 11.402525952997845 0 0 0
509 170 1 0.5897 1.5296581705124261 24.437241175389158 11.383420043451368 0 -1 0
888 296 1 0.5897 5.7629983497951685 19.927674884189518 8.687060596289584 0 0 0
865 289 2 -1.1794 4.778838562052418 24.540155525841136 6.276203199641222 0 0 0
847 283 2 -1.1794 5.932427239399819 23.219209405222372 9.036510329459206 0 0 0
850 284 2 -1.1794 3.1460412591475824 23.318267151669414 9.047159403146638 0 0 0
843 281 1 0.5897 4.281924472135421 19.317020629526915 10.529047609277043 0 0 0
746 249 1 0.5897 5.382381791149614 18.99514989093873 6.8029473537179905 0 0 0
845 282 1 0.5897 3.3334378491975776 19.815538005413913 8.225172670076184 0 0 0
846 282 1 0.5897 1.9892868036723494 20.199729432874406 7.644104778117058 0 0 0
859 287 2 -1.1794 4.469119292794338 21.829891933757413 6.24061812048551 0 0 0
851 284 1 0.5897 4.098450328262538 23.270002647379833 8.964128249137195 0 0 0
510 170 1 0.5897 2.1597662705952043 24.44369078112413 10.006991211657162 0 -1 0
854 285 1 0.5897 1.4707934499566246 20.642308910533 10.446393642709877 0 0 0
844 282 2 -1.1794 2.868317472784709 19.914610719345397 7.394515937790081 0 0 0
862 288 2 -1.1794 1.5217952184836494 23.322933561911057 6.80472752873411 0 0 0
868 290 2 -1.1794 1.5793149141057905 18.75156720947243 10.712829468608543 0 0 0
863 288 1 0.5897 2.3001716932109697 23.361030334996745 7.360527583876982 0 0 0
853 285 2 -1.1794 1.6181686563600801 21.584255527365745 10.531308153753317 0 0 0
855 285 1 0.5897 0.8595484050869296 21.98505641851308 10.10692941983162 0 0 0
841 281 2 -1.1794 4.344801880706287 20.060912398148957 9.930028913693183 0 0 0
866 289 1 0.5897 4.684472372123733 23.590901266239477 6.197416189902998 0 0 0
856 286 2 -1.1794 0.1861288039686481 20.302651244280742 7.664792851710402 0 0 0
852 284 1 0.5897 2.9159349173471023 22.576002510891538 9.605964877293413 0 0 0
860 287 1 0.5897 3.806319545864908 21.262876724700245 6.6348498521628185 0 0 0
842 281 1 0.5897 4.435507219914171 20.822838815936663 10.50221552333861 0 0 0
864 288 1 0.5897 0.79565448172287 23.201727314527385 7.416484493351212 0 0 0
887 296 1 0.5897 5.9509222525857055 20.832469915108923 7.488029335707885 0 0 0
939 313 1 0.5897 0.23554766213665906 24.11743678352873 9.526034855910314 1 0 0
1201 401 2 -1.1794 4.642812268585497 13.926632644715527 15.910896271370003 0 0 0
1204 402 2 -1.1794 2.970199162482333 13.915969474123774 13.75198029555677 0 0 0
1205 402 1 0.5897 3.385497416804106 13.958690227210578 14.613278664252837 0 0 0
1206 402 1 0.5897 3.3705724606112875 13.155815886655798 13.330002761700783 0 0 0
1210 404 2 -1.1794 3.269459264624498 16.830993818118166 14.893909711860852 0 0 0
1211 404 1 0.5897 3.0956291791831525 17.564022467339402 15.48434132015343 0 0 0
1212 404 1 0.5897 4.220753409137735 16.726509268772148 14.914615866639862 0 0 0
1213 405 2 -1.1794 1.5967730490248226 15.521026265585503 16.46412000142173 0 0 0
1214 405 1 0.5897 0.8011436604172361 15.78526641346975 16.00216847735101 0 0 0
1215 405 1 0.5897 2.306945962976384 15.940460241902494 15.978355418052946 0 0 0
1218 406 1 0.5897 1.0826253238171089 13.907367515769646 13.485839157095453 0 0 0
1222 408 2 -1.1794 1.4957769551200737 16.860864303579156 12.883694072865808 0 0 0
1223 408 1 0.5897 1.51030089671113 17.746972730666975 12.522062026852476 0 0 0
1224 408 1 0.5897 2.1623455028290346 16.87106195940615 13.570561485031439 0 0 0
1229 410 1 0.5897 1.541310266290938 13.70021778655292 16.575413276727833 0 0 0
1220 407 1 0.5897 4.289563262511296 15.181958666935886 12.976801826806623 0 0 0