#include		in.partitions
include		in.temp
variable        temperature equal 213.27
variable	tempDamp equal 100.0
include		in.pressure
variable        pressure equal 8298.2
variable        pressureDamp equal 1000.0 # This is 1 ps
include		in.seed
variable        seed equal 745823

units		real
atom_style	full
read_restart	restart.lmp.${pid}
read_restart	restart.lmp.0
Reading restart file ...
  restart file = 30 Jul 2021, LAMMPS = 30 Jul 2021
  restoring atom style full from restart
  orthogonal box = (-0.10349748 -0.018125127 -0.080463303) to (24.833498 24.748126 22.890463)
  4 by 2 by 2 MPI processor grid
  restoring pair style lj/cut/tip4p/long/omp from restart
  restoring bond style harmonic/omp from restart
  restoring angle style harmonic/omp from restart
  1920 atoms
  1280 bonds
  640 angles
Finding 1-2 1-3 1-4 neighbors ...
  special bond factors lj:    0        0        0       
  special bond factors coul:  0        0        0       
     2 = max # of 1-2 neighbors
     1 = max # of 1-3 neighbors
     1 = max # of 1-4 neighbors
     2 = max # of special neighbors
  special bonds CPU = 0.001 seconds
  read_restart CPU = 0.006 seconds
include 	in.setup
variable	out_freq equal 1000
variable	out_freq2 equal 10000
variable	out_freq3 equal 1000

timestep	2.0

neigh_modify    delay 7 every 1

include		in.tip4p
# This is TIP4P/Ice

# create groups ###
group ox type 2
640 atoms in group ox
group hy type 1
1280 atoms in group hy

# set charges - beside manually ###
set group ox charge -1.1794
Setting atom values ...
  640 settings made for charge
set group hy charge 0.5897
Setting atom values ...
  1280 settings made for charge

# ### TIP3P Potential Parameters ###
pair_style lj/cut/tip4p/long/omp 2 1 1 1 0.1577 8.5
pair_coeff 1 1*2 0.000 0.000
pair_coeff 2 2 0.21084 3.1668
bond_style  harmonic
bond_coeff  1 450 0.9572
angle_style harmonic
angle_coeff 1 55 104.52
kspace_style pppm/tip4p/omp 1.0e-5
pair_modify tail yes

thermo          ${out_freq}
thermo          1000
thermo_style    custom step temp pe etotal epair emol press lx ly lz vol pxx pyy pzz pxy pxz pyz enthalpy

restart 	${out_freq3} restart.lmp.${pid} restart2.lmp.${pid}
restart 	1000 restart.lmp.${pid} restart2.lmp.${pid}
restart 	1000 restart.lmp.0 restart2.lmp.${pid}
restart 	1000 restart.lmp.0 restart2.lmp.0


include         in.dump
dump            myDump all atom ${out_freq2} dump.water.${pid}
dump            myDump all atom 10000 dump.water.${pid}
dump            myDump all atom 10000 dump.water.0
dump            myDump2 all dcd ${out_freq2} dump.dcd
dump            myDump2 all dcd 10000 dump.dcd
dump_modify     myDump append yes
dump_modify     myDump2 append yes


variable natoms 	equal  "count(all)"                        # NUMBER ATOMS
variable H      	equal  "enthalpy/v_natoms"                 # ENTHALPY-per-atom
variable Vol      	equal  "vol/v_natoms"                 # volume-per-atom
fix AVG all 		ave/time ${out_freq} 1 ${out_freq} v_Vol v_H file vol_enthalpy.dat
fix AVG all 		ave/time 1000 1 ${out_freq} v_Vol v_H file vol_enthalpy.dat
fix AVG all 		ave/time 1000 1 1000 v_Vol v_H file vol_enthalpy.dat




fix 		1 all shake 1e-6 200 0 b 1 a 1
       0 = # of size 2 clusters
       0 = # of size 3 clusters
       0 = # of size 4 clusters
     640 = # of frozen angles
  find clusters CPU = 0.000 seconds
fix             2 all nph aniso ${pressure} ${pressure} ${pressureDamp}
fix             2 all nph aniso 8298.2 ${pressure} ${pressureDamp}
fix             2 all nph aniso 8298.2 8298.2 ${pressureDamp}
fix             2 all nph aniso 8298.2 8298.2 1000
fix             3 all temp/csvr ${temperature} ${temperature} ${tempDamp} ${seed}
fix             3 all temp/csvr 213.27 ${temperature} ${tempDamp} ${seed}
fix             3 all temp/csvr 213.27 213.27 ${tempDamp} ${seed}
fix             3 all temp/csvr 213.27 213.27 100 ${seed}
fix             3 all temp/csvr 213.27 213.27 100 745823


run             250000
PPPM initialization ...
  extracting TIP4P info from pair style
  using 12-bit tables for long-range coulomb (../kspace.cpp:340)
  G vector (1/distance) = 0.37467101
  grid = 30 30 30
  stencil order = 5
  estimated absolute RMS force accuracy = 0.0032445834
  estimated relative force accuracy = 9.7709666e-06
  using double precision FFTW3
  3d grid and FFT values/proc = 7920 1800
Last active /omp style is kspace_style pppm/tip4p/omp
Neighbor list info ...
  update every 1 steps, delay 7 steps, check yes
  max neighbors/atom: 2000, page size: 100000
  master list distance cutoff = 10.8154
  ghost atom cutoff = 10.8154
  binsize = 5.4077, bins = 5 5 5
  1 neighbor lists, perpetual/occasional/extra = 1 0 0
  (1) pair lj/cut/tip4p/long/omp, perpetual
      attributes: half, newton on, omp
      pair build: half/bin/newton/omp
      stencil: half/bin/3d
      bin: standard
Per MPI rank memory allocation (min/avg/max) = 12.55 | 12.55 | 12.56 Mbytes
Step Temp PotEng TotEng E_pair E_mol Press Lx Ly Lz Volume Pxx Pyy Pzz Pxy Pxz Pyz Enthalpy 
10250000    213.37511   -9283.7612   -8470.2779   -9283.7612            0    8866.5985    24.936996    24.766251    22.970927     14186.75    8164.1381       9232.8    9202.8575   -278.96899   -53.775622    340.41452   -6635.7858 
10251000    211.97646   -9320.0736   -8511.9227   -9320.0736            0    7390.7282    24.824164    25.005559    22.955482    14249.434    7669.0819    7186.8518    7316.2509    -460.5937     -621.057    -65.11641   -6976.0305 
10252000    208.24777   -9292.3506   -8498.4152   -9292.3506            0    8293.8373    24.795111    24.941059     22.96161    14199.834    8892.2589    8134.8085    7854.4444    936.37593   -782.29031    319.98203   -6780.8442 
10253000    213.13959   -9326.2028   -8513.6174   -9326.2028            0    7385.1382    24.909577    24.870948    22.987488    14241.319    7457.3495    7951.3791    6746.6862    576.92884    407.05661   -314.88493    -6979.761 
10254000    211.23018    -9338.102   -8532.7962    -9338.102            0    8584.0018    24.828807    24.938371    22.907113    14183.855    9090.1123    7152.6308    9509.2622    868.17172   -186.14154    -724.1096   -6757.1355 
10255000    208.35657   -9278.1224   -8483.7722   -9278.1224            0    8648.6377    24.876501    24.954447    22.875547    14200.667    8715.5774    8390.6412    8839.6946    766.74604    774.77535    1601.5669   -6692.6206 
10256000    218.89101   -9306.3053   -8471.7929   -9306.3053            0    7378.6325    24.933099    24.954926    22.926173    14264.749    7662.8715    7273.0023    7200.0237    525.07326   -731.18453     168.4974   -6936.7664 
10257000     211.7677   -9324.9068   -8517.5517   -9324.9068            0    8504.3821    24.911415    24.828386    22.910807    14170.569    9294.0119    8582.8786    7636.2558    108.99709    618.56218    1044.1332   -6760.0088 
10258000     212.0377   -9325.2565   -8516.8721   -9325.2565            0    7620.1758    24.883698    24.951077    22.938379    14241.867    8078.4609    7270.8054     7511.261     322.6359   -522.70031    249.24054   -6934.1386 
10259000    216.35336   -9286.1453   -8461.3076   -9286.1453            0    8837.6125    24.895467    25.006512    22.809209    14199.846    9185.6758    8301.0111    9026.1505   -327.90801   -422.65577    475.26652   -6631.1249 
10260000    218.34482   -9315.1044   -8482.6744   -9315.1044            0    8487.3279    24.917377    24.938857    22.863813    14207.822    7323.8692     9351.707    8786.4075   -312.18198   -880.83645    1182.5335   -6724.0448 
10261000    206.34377   -9294.7748   -8508.0982   -9294.7748            0    8487.6201    24.899094    24.923688    22.883631    14201.061    8661.1569    8268.7646    8532.9388   -453.11847   -544.26854   -243.00805    -6750.245 
10262000    217.00697   -9286.7064   -8459.3769   -9286.7064            0    9339.7474    24.910567    24.857992    22.909986    14186.475    7893.0879    10174.466    9951.6883    525.62741   -80.840282   -161.33283   -6527.0281 
10263000    218.43219   -9314.0366   -8481.2735   -9314.0366            0    7290.4877    25.013085    24.906394      22.8894    14259.769    5720.5015     7556.343    8594.6185    482.80405   -1413.9007    452.70378   -6965.1137 
10264000     209.1921   -9330.8647    -8533.329   -9330.8647            0    9066.9364     24.83553    24.977032    22.798726    14142.456    9291.3929    8280.2867    9629.1297    73.294876   -6.9291843    259.29924   -6663.2443 
10265000    210.87168   -9303.3402   -8499.4012   -9303.3402            0    8703.0403     24.88486     24.99659    22.832144     14202.43    9012.4476    7476.4122    9620.2609   -344.92437   -761.04196    1134.9796   -6696.7589 
10266000    209.92663   -9287.7974   -8487.4613   -9287.7974            0    8592.2801    24.933828    24.895253    22.871628    14197.197    8215.6165    8666.2608    8894.9631   -94.860495    -269.3063   -534.11852   -6708.4164 
10267000    216.98351   -9301.2578   -8474.0177   -9301.2578            0    9268.6961    24.728355    25.050863     22.83984    14148.518    10156.565    8277.1404    9372.3831    219.59435   -1031.6544    248.08655   -6561.4999 
10268000    212.55634   -9336.3598   -8525.9981   -9336.3598            0    8443.4766    24.847718    24.871327    22.955158    14186.189    8899.0599    8989.0736    7442.2962   -175.69243    357.56786   -864.71444   -6779.1186 
10269000    211.46723   -9316.8839   -8510.6743   -9316.8839            0    7518.6567    24.947341    24.883779    22.957632    14251.734    7639.1618     8186.176    6730.6322   -689.22115    442.85791   -56.141748   -6947.9447 
10270000     207.7819   -9314.8361   -8522.6768   -9314.8361            0    8837.2461    24.795542    24.992841    22.869926    14172.746    9274.8578    7750.6606      9486.22   -166.28564   -445.93385   -1145.6726   -6696.0625 
10271000    214.94216   -9329.5286   -8510.0711   -9329.5286            0     8278.286    24.887388    24.953817    22.836585    14182.326    9018.3562    7487.8338     8328.668   -179.14448   -497.69048    336.69188   -6797.8344 
10272000    217.34443   -9304.5998   -8475.9837   -9304.5998            0    8674.8924    24.983348      24.9328    22.797341    14200.573    7207.6021    9027.5303    9789.5448    192.05602   -225.75413    541.29121   -6679.4066 
10273000    205.65782   -9320.7274    -8536.666   -9320.7274            0    8568.6289    24.967505     24.87496    22.849624    14191.117    6538.5908     9119.229    10048.067   -175.33793   0.89352321    77.508695   -6763.2778 
10274000    222.00007   -9291.0536   -8444.6881   -9291.0536            0    7448.1367    24.815037     25.05244    22.943346    14263.356    7613.4992    6764.3231    7966.5878   -340.36781    -31.38903    1133.5438   -6895.3534 
10275000    211.52736   -9297.6987     -8491.26   -9297.6987            0    8554.1393    24.834054    24.899395    22.971121     14204.26    9144.0054    8465.9561    8052.4565   -139.87657   -530.38822    387.27239    -6719.231 
10276000     216.0295   -9297.6993   -8474.0963   -9297.6993            0    8291.8989    24.922758    24.724399    23.080503    14222.211    7464.8259    10110.764    7300.1068    411.92162    -23.87482    1535.8695   -6754.2209 
10277000     210.7648   -9296.0221   -8492.4906   -9296.0221            0    8887.1036    24.806537    24.908932    22.967291    14191.588     9603.696    8984.0772    8073.5377   -14.948992    834.39079    297.81263   -6653.1289 
10278000    212.50364   -9332.7529   -8522.5921   -9332.7529            0    7703.3048    24.791263     25.01626    22.927839    14219.495     8826.254    7295.8188    6987.8418   -626.81527   -950.18739   -254.37033   -6925.1058 
10279000     210.7819   -9317.2363   -8513.6396   -9317.2363            0    8991.5044    24.985383    24.876918    22.761235    14147.458    8486.6547    8829.6792    9658.1794   -672.27945    90.933478   -32.119744    -6658.457 
10280000      219.532   -9311.6609   -8474.7048   -9311.6609            0    7868.5796    24.929754    24.927477    22.878749    14217.675    7532.7294    7804.3383    8268.6709   -135.59059    713.18049   -227.58435   -6843.1531 
10281000    215.91931   -9279.2122   -8456.0293   -9279.2122            0    9289.2776    24.885679     24.97734    22.819223    14183.928    9088.8996    8273.9725     10504.96    216.24518   -1032.5163    979.15602   -6534.4675 
10282000    217.14903   -9298.1501    -8470.279   -9298.1501            0    8013.9158    24.907322    24.931468    22.918682    14231.954      7535.06    8117.2722    8389.4152    226.98334    616.73807    99.073926    -6806.923 
10283000     215.3943   -9310.2676   -8489.0863   -9310.2676            0     8485.461    24.903439    25.001486    22.807247    14200.317    8431.7769    7521.2004    9503.4058    72.629788   -267.76705    417.20041   -6731.7723 
10284000    210.90677   -9340.6533   -8536.5805   -9340.6533            0    7364.1736    24.897699    24.939391    22.908279    14224.517    8058.9437    6999.1441    7034.4329   -34.176754    3.4948077    -146.2858   -7008.8828 
10285000    204.14352   -9325.0673   -8546.7791   -9325.0673            0    8128.7876     24.84352    24.889833    22.969913     14203.47    9138.1564    7538.9985    7709.2078   -80.152381    157.45219    150.81579   -6862.9573 
10286000    210.89965   -9311.4343   -8507.3887   -9311.4343            0    7975.0188    24.939221     24.85399    22.956944    14229.613    7339.2293    8850.1503    7735.6767     995.6128   -769.76498    67.097008   -6852.3784 
10287000    215.28503   -9316.7975   -8496.0328   -9316.7975            0      8511.05    24.809504    24.854946    23.016677    14192.979    9130.4993    8666.4398    7736.2107   -1106.3879    811.57205     453.1611   -6734.3302 
10288000    214.45733   -9306.4033   -8488.7941   -9306.4033            0    7687.1517    24.767435    24.843952    23.156208    14248.501    8590.7233    8741.7773    5728.9545   -1234.4998   -917.32217    727.35213   -6891.4058 
10289000    209.48298   -9321.5737   -8522.9291   -9321.5737            0    7137.7185    24.882026    24.744743    23.158145    14258.455     6944.563    8649.4249    5819.1676   -204.12774    785.13508    85.729762   -7038.6766 
10290000    210.20705   -9320.2117   -8518.8066   -9320.2117            0    8288.5603    24.833703    24.871549    22.973613    14189.713    8333.9705    8355.2407    8176.4697   -464.95579   -449.13977    233.82566    -6803.552 
10291000    207.69825   -9338.6588   -8546.8183   -9338.6588            0    9016.9359    24.774788    24.806842    23.019655    14147.517    8866.0225    9225.0577    8959.7276    174.80394   -527.98943    155.59949   -6686.3808 
10292000    208.64653   -9305.1038   -8509.6481   -9305.1038            0     7841.398    24.936133    24.791604    23.023359    14233.196    8061.3481    7526.3742    7936.4717   -1006.0503   -480.55793   -57.291904   -6881.9577 
10293000    209.69418   -9280.0413   -8480.5915   -9280.0413            0    9002.7256    24.894065    24.811612    22.971538    14188.644     8021.976    10177.686    8808.5144   -3.0436553   -133.77349   -211.39998   -6617.6861 
10294000    211.70871   -9316.2202   -8509.0901   -9316.2202            0    7888.2336    24.819803    24.971384    22.960135    14230.344    8629.8075    7152.4445    7882.4488   -228.75506   -76.000958   -371.45329   -6872.0058 
10295000     210.4909   -9353.9396   -8551.4523   -9353.9396            0    8741.4947    24.783101    24.896019    22.931716    14148.882    9184.2781    9338.9798    7701.2264   -89.107512    24.889513   -571.62832   -6747.6717 
10296000    214.93881   -9283.5207   -8464.0759   -9283.5207            0    7933.2083    24.898445    24.840644    23.041514    14251.025    7890.7767     9377.207    6531.6411    1043.8683   -420.70691    316.46522    -6815.265 
10297000    205.49019   -9306.4233    -8523.001   -9306.4233            0    8711.8819    24.813185    24.861332    23.011897    14195.782    8657.3479    9281.9998    8196.2979    24.883436    595.66072   -28.175624   -6719.3721 
10298000    207.60224   -9301.4533   -8509.9788   -9301.4533            0    8279.0674    24.747807    24.922743     23.04532    14213.968    9386.4977    8592.7014    6858.0032    75.874616     770.7783    396.87125   -6793.7601 
10299000    216.71436   -9297.6411   -8471.4272   -9297.6411            0    8299.3043    24.744561    24.868194    23.087436    14206.913    9407.4737    8304.5928    7185.8465    380.89128   -399.57105   -160.57877   -6751.8673 
10300000    214.83257    -9297.672   -8478.6323    -9297.672            0    8692.6402    24.897979    24.793856    23.035742    14220.353     8232.836    10606.788    7238.2966   -81.417931   -804.26407    421.14354   -6675.8721 
10301000    217.41151   -9317.9181   -8489.0462   -9317.9181            0    8448.6266    24.821492    24.851316    23.017822    14198.469    9082.4699    8198.1584    8065.2516   -766.92548    877.92302   -418.68731   -6739.5882 
10302000    212.37993   -9320.1936   -8510.5044   -9320.1936            0    7592.5916    24.899465    24.981168    22.883743    14234.093    6846.4641     7126.978    8804.3327    16.883857    215.74243    517.12884    -6934.361 
10303000     219.0856   -9339.1025   -8503.8483   -9339.1025            0    8528.0542      25.0262    24.925191    22.737037    14182.974    7613.7672    7869.0689    10101.326   -648.36249   -633.07146    591.76407   -6739.8704 
10304000    211.01802   -9290.1835   -8485.6865   -9290.1835            0    8453.2019    25.001472    24.940365    22.773229    14200.152    8488.1852     8049.456    8821.9645   -70.157049    912.32816   -855.06854   -6735.0736 
10305000    212.30058     -9287.36   -8477.9734     -9287.36            0    8786.8295    24.944094      24.9655    22.788733    14191.496    7302.0996    8600.1436    10458.245   -1475.8653   -426.59533   -166.49399   -6659.3772 
10306000    214.23229    -9292.418   -8475.6668    -9292.418            0    7833.3341    24.919045    25.066446     22.79375    14237.703    7766.5291    7521.4927    8211.9805    938.10609   -1199.1838   -13.134662   -6849.1353 
10307000    214.14661   -9310.0324   -8493.6079   -9310.0324            0    9093.8051    24.889703    24.894821    22.862748    14166.323    8817.8602    8531.0947    9932.4604   -558.88565   -459.42117    880.31619    -6614.816 
10308000    206.39653    -9305.413   -8518.5353    -9305.413            0    7531.9882      24.8001    24.924667    23.039672     14241.61    7926.0057    7906.1693    6763.7897   -432.20489    735.45265    267.68434   -6954.1469 
10309000    213.95272   -9321.3779   -8505.6926   -9321.3779            0    8298.4601    24.753349     24.96924    22.980727    14203.751    9004.2012    8067.4743    7823.7049     179.6803   -14.031116   -104.75591   -6786.6903 
10310000    212.00782   -9346.9233   -8538.6528   -9346.9233            0     7716.701    24.897053    24.849567    22.970088    14211.156    6652.9094     8557.342    7939.8515    473.80087    452.12683   -13.933384   -6939.3268 
10311000    215.16821   -9337.7042   -8517.3848   -9337.7042            0    8983.3186    24.853387    24.814199    22.982011    14173.394    8760.6416    9401.4091    8787.9052   -1120.5746    133.41744   -543.73382   -6660.4932 
10312000    218.06229   -9327.4774   -8496.1245   -9327.4774            0    8088.3964       24.783    24.836362    23.116806    14228.846    8640.4717    8420.4246    7204.2927   -595.49532   -1032.9417   -846.24259   -6817.6761 
10313000    221.35659   -9307.0461   -8463.1338   -9307.0461            0     8694.819    24.803985    24.824829    23.038251    14185.911    8872.9213    8874.4715    8337.0643    427.40579   -55.779717   -446.04582   -6664.2892 
10314000    211.67608   -9295.9468   -8488.9411   -9295.9468            0    9060.7849    24.832968    24.877082    22.975375    14193.538    9470.9113    8902.5021    8808.9413    167.14173    510.65961    1090.3672   -6613.3749 
10315000    205.79674   -9322.8972   -8538.3062   -9322.8972            0    8659.6716    24.759176     24.89781    23.021099    14191.339    9419.1424    7794.2651    8765.6072    273.12982    321.27745     129.1752   -6746.0476 
10316000    223.34664   -9289.8842   -8438.3849   -9289.8842            0    9470.5005    24.850959     24.78807    23.024877    14183.493     9533.998    10246.596    8630.9077   -577.70078   -1386.6043   -542.13401   -6479.3959 
10317000    204.43104    -9312.902   -8533.5176    -9312.902            0     8946.623    24.880683    24.838597    22.941096    14177.626    8554.5961    9547.5674    8737.7054    115.95864    8.0269481   -117.35366    -6683.659 
10318000    204.59453     -9314.93   -8534.9223     -9314.93            0    8014.8528     24.87358    24.911082    22.964074    14229.178    7961.1356     7388.905    8694.5177    472.49696    719.38463    385.95676   -6871.6964 
10319000    209.80134   -9340.5309   -8540.6725   -9340.5309            0    7492.7514    24.764698    25.017074    22.966779    14228.845    8835.0715    7067.9719    6575.2109    -397.3535    547.64628    -529.2254   -6985.8284 
10320000    211.08786   -9325.9368   -8521.1736   -9325.9368            0      8486.77    24.929856    24.834295    22.942915    14204.312    8672.9165    8867.5138    7919.8799    2.9475827   -745.53033    647.91851    -6763.094 
10321000    214.48429   -9318.5383   -8500.8264   -9318.5383            0    7376.7303    24.794843    24.824784     23.19136      14274.9    7830.2415    8022.5096    6277.4397    657.44406   -375.46092     244.4486   -6965.1035 
10322000    218.60639   -9308.0929   -8474.6656   -9308.0929            0    9095.1439    24.784289    24.923374    22.935854    14167.663    9773.0866    8665.6309    8846.7142    206.01965    185.31949    152.62541   -6595.4194 
10323000    206.62194   -9348.5597   -8560.8226   -9348.5597            0    7871.1554    24.907882    24.911565    22.848618    14177.438    7218.3575    8303.6299    8091.4787   -303.88008   -789.01471    501.55745   -6933.3558 
10324000    220.86989   -9330.8545   -8488.7978   -9330.8545            0    7076.8314    24.997941    24.900451    22.902128    14255.659    6181.4785    7566.2219    7482.7937   -650.74388    1306.2551     -309.522   -7017.4951 
10325000    216.05361    -9290.189   -8466.4941    -9290.189            0    8654.2376    24.865695    24.863584     22.92967    14176.275    9785.9584    8541.5113    7635.2431    362.34065   -34.434619   -64.140767   -6677.2614 
10326000    220.17635   -9339.9946   -8500.5819   -9339.9946            0    7914.5612    24.802316    24.845272    23.046622    14201.796    8806.3212    7624.4572    7312.9051   -288.59257   -847.40838    541.62458   -6861.3289 
10327000    213.75341   -9350.6465   -8535.7211   -9350.6465            0    8333.4074    24.787521    24.873005    23.024859    14195.749    8755.4509    8650.4776    7594.2937    754.12976    79.818958   -353.80225    -6810.452 
10328000      217.994   -9300.1419   -8469.0494   -9300.1419            0     8311.987    24.893875    24.809221     23.00829    14209.865    8569.9542    8887.6745    7478.3324    383.02209   -276.73878    53.901476   -6746.5039 
10329000    207.92917   -9313.6123   -8520.8915   -9313.6123            0    8165.2293    24.915742    24.843921    22.966716    14216.505    7758.7963    8659.2672    8077.6244   -310.83519    103.93682    842.74251   -6827.9688 
10330000    218.21896    -9324.342   -8492.3918    -9324.342            0    10012.101    24.771041    24.892646    22.918318    14131.819    10909.191    8915.5305    10211.582   -828.96901   -628.89871   -1160.4799    -6428.917 
10331000    226.14564   -9334.6623    -8472.492   -9334.6623            0    7531.3612    24.886973    24.929839     22.91995    14220.184    7291.5327    7065.5817    8236.9694    93.356778   -1178.4911    229.70701   -6910.5871 
10332000    216.94362   -9323.0942   -8496.0062   -9323.0942            0    9669.7231    24.884208    24.924015    22.760095    14116.138    9545.8503    8857.0993     10606.22   -39.455485    928.06383     711.4701   -6505.3062 
10333000    211.16824   -9354.1675   -8549.0978   -9354.1675            0    7432.1577    24.928503    24.931141    22.860868    14207.938    7503.8223    6957.5221    7835.1287   -599.38638   -78.122804   -182.04273   -7009.0938 
10334000    219.64705   -9307.4548     -8470.06   -9307.4548            0    8370.2607    24.947434    24.894269    22.855673    14194.473    7447.9919    8611.1179    9051.6724   -113.54786     345.2054   -225.74508    -6737.317 
10335000    212.07271   -9314.2837   -8505.7658   -9314.2837            0    7569.7459    24.945949    24.996476    22.798807    14216.443    7604.1634    7513.4926    7591.5818    338.16144   -147.15054    12.848666   -6936.3134 
10336000    213.41618   -9319.2708    -8505.631   -9319.2708            0    8286.8746    24.945086    24.956559    22.864169     14233.94    7689.9699      8450.67    8719.9839   -720.10423    798.43816   -1048.6259   -6785.3801 
10337000    216.34773     -9333.86   -8509.0438     -9333.86            0    6838.3201    24.965224    24.976597    22.841781    14242.909    7728.6523    5692.9199     7093.388    698.44562   -103.94387   -57.599312   -7088.6002 
10338000    216.56717     -9298.05   -8472.3972     -9298.05            0    9013.7918     25.02105    24.896347    22.770461    14184.466    7413.8649    8761.4475    10866.063   -1000.3817    721.78334    1133.5723   -6607.7512 
10339000    200.10922   -9308.6903   -8545.7827   -9308.6903            0    8939.9315    24.911054    24.925478    22.814982    14166.277     7941.732    9243.1962    9634.8662   -322.02293    319.23045    -673.3068   -6698.7873 
10340000    216.17951    -9310.727   -8486.5521    -9310.727            0    8360.1768    24.881407    25.070285    22.771304    14204.374    8049.3654    7826.9369    9204.2281   -385.50243   -959.93709    271.82809   -6754.6895 
10341000      206.826   -9328.8057   -8540.2907   -9328.8057            0    8344.9736    24.926979    24.895092    22.899827    14210.704    6974.0577    9113.7223     8947.141   -253.31686    1058.3903    911.18567   -6810.8071 
10342000    222.80891   -9330.1282   -8480.6791   -9330.1282            0     10368.85    24.900625    24.848131    22.802518    14108.694    9825.6891    9878.4805     11402.38     56.90817    855.01848    573.99357   -6347.1759 
10343000    213.40163    -9309.479   -8495.8946    -9309.479            0    7327.9857    24.958847    24.976467    22.895242    14272.524    6699.7056    7347.7832    7936.4681   -353.14853    731.37384    133.64483   -6970.5736 
10344000    214.53338   -9319.4746   -8501.5755   -9319.4746            0     9515.135    24.811089    24.946708    22.846531    14140.975    10442.666     8434.059    9668.6803    260.11952     556.4968   -120.54965   -6539.2538 
10345000    205.61451   -9346.8452   -8562.9489   -9346.8452            0    6468.4726    24.926054    25.065373    22.870176    14288.848    6212.1889    5555.6814    7637.5476    226.20727    -377.7722    722.51494   -7214.9956 
10346000    214.51735   -9321.3308   -8503.4929   -9321.3308            0    8046.8814      24.9293     24.85715    22.929879    14208.989    7746.6981    9591.1806    6802.7655   -320.00138   -371.76908   -364.98105   -6835.9897 
10347000    215.17257   -9305.7417   -8485.4058   -9305.7417            0    9650.2041    24.848976    24.877624    22.904943    14159.457    9491.7734    9925.8936    9532.9453    410.32764   -1350.3034    186.94396   -6492.6274 
10348000    207.27774   -9338.0901   -8547.8528   -9338.0901            0    7763.0544    24.768119    25.023239    22.933377    14213.615    9044.3068    6251.7552    7993.1012    168.29157   -367.63432   -841.92421   -6938.6415 
10349000    217.93041   -9323.0432   -8492.1931   -9323.0432            0    7170.8025     24.94909    24.885592    22.977597    14266.167    7164.7691    7099.6159    7248.0225   -7.9173491   -349.52827    565.63535   -7000.2545 
10350000     211.2525   -9332.5801   -8527.1893   -9332.5801            0    9236.2017    24.722953     24.84058    23.028154    14142.337    9067.1732      10038.7    8602.7322   -450.53711    522.23574    1030.1471    -6622.209 
10351000    214.10078   -9321.5018    -8505.252   -9321.5018            0    9127.2809    24.794368    24.844367    22.995038    14164.952    9040.4986    8664.5932     9676.751    597.91216    506.17983    290.13461   -6619.7265 
10352000    218.17597   -9315.1731   -8483.3869   -9315.1731            0    7972.9616    24.810357    24.874669    23.040707    14219.559    8781.4954     8813.217    6324.1725    15.360696    83.759512   -573.86071   -6829.9726 
10353000    217.11947   -9325.9379   -8498.1794   -9325.9379            0    7977.0853    24.809522    24.904427    23.017272    14221.611    8365.6843    8492.5799    7072.9919    287.06307   -300.36127   -50.717721   -6843.6712 
10354000    216.44928   -9332.6007   -8507.3974   -9332.6007            0    7854.8115    24.918676    24.822973    23.006666    14230.903    7357.4554    9486.0159    6720.9631    621.61549   -297.66147    363.19809   -6877.1853 
10355000    212.77593   -9297.0844   -8485.8855   -9297.0844            0    7655.2802    24.924972    24.904448    22.941836    14240.976    7237.9835    8113.9966    7613.8604   -22.895991    269.96415    725.44452   -6895.9602 
10356000      215.777   -9346.1836   -8523.5433   -9346.1836            0    8454.6038     24.79468    24.968028    22.923963    14191.636     8793.034    7721.5301    8849.2472    323.99087   -66.460712    794.54601   -6773.6901 
10357000    213.75798   -9318.2723   -8503.3294   -9318.2723            0     7694.381    24.877954    24.969095    22.926985    14241.785    7517.3809    8170.3495    7395.4125   -182.38557    1553.7308   -622.19286   -6905.1925 
10358000    218.38689   -9336.5159   -8503.9254   -9336.5159            0     8679.112    24.940479    24.876669    22.836482    14168.576    7631.7803    9038.9019    9366.6537    207.07833   -379.01978   -518.35231   -6710.5245 
10359000    211.58516   -9314.7268   -8508.0677   -9314.7268            0     8586.067    24.928587    24.908585    22.862927    14196.411    8410.7432     8384.402    8963.0556    228.10353   -1084.5076    1465.6009   -6730.4077 
10360000    212.10014   -9334.8466   -8526.2242   -9334.8466            0    7630.8195    24.920387    25.111368    22.732087    14225.399    7499.3694    6491.7513    8901.3377   -524.02249   -663.48732   -723.20271   -6943.1126 
10361000    210.03905   -9300.7712   -8500.0066   -9300.7712            0    8088.2467     24.90185    24.946156    22.871099    14207.651    7988.1457    8607.0216    7669.5727    231.05556    252.60817   -64.118491   -6824.0894 
10362000    218.33358   -9322.9156   -8490.5284   -9322.9156            0    6782.7722    25.005553     24.95061    22.859055    14261.851    5895.8187    6925.8781    7526.6197    530.21542    251.14427     587.3334   -7079.7493 
10363000    216.42921   -9321.8455   -8496.7187   -9321.8455            0     9074.099    24.821649    24.961303    22.857112    14161.825    8826.2091    8380.3047    10015.783   -288.62865   -1002.4528   -257.57064   -6622.5933 
10364000    216.23138   -9272.5197   -8448.1471   -9272.5197            0    7974.8552    24.853958    25.046129    22.857196      14228.5    9273.4536    6004.7964    8646.3156   -161.06843   -761.44162    876.09048   -6793.3003 
10365000    224.20407   -9317.7483   -8462.9801   -9317.7483            0     8534.587    24.933813    24.880041    22.888262    14198.832    7851.1503    8006.4905    9746.1204    508.95281   -562.70079     1387.741   -6695.6771 
10366000    204.85996   -9307.4476    -8526.428   -9307.4476            0    7991.4254     24.94744    24.859287    22.957337    14237.579      6936.56    8409.5549    8628.1613    211.89126    1453.2307    517.78966   -6867.0845 
10367000    208.92632   -9343.9553   -8547.4329   -9343.9553            0    8083.6503    24.793688    24.975382    22.924337    14195.479    8549.9752    7799.9693    7901.0063    715.82687   -637.21728   -235.11125   -6873.9031 
10368000    209.61814   -9352.4119    -8553.252   -9352.4119            0    7448.6825    24.834081    24.907452    23.001392    14227.596     8205.989    7257.7853     6882.273   -468.08587   -712.74305    1051.7981   -7007.6885 
10369000    208.27073   -9286.4266   -8492.4036   -9286.4266            0    9795.3727    24.842235    24.736592    23.028698    14151.417    10181.244    10450.519    8754.3553   -170.29534    23.994065     65.48771   -6470.7963 
10370000    204.75576   -9303.1759   -8522.5535   -9303.1759            0    7693.6437    24.882371    24.879428    22.982176    14227.327    8099.7962    7592.3263    7388.8084   -403.21612   -336.43753    121.21804   -6926.1919 
10371000    211.38031   -9319.6357   -8513.7575   -9319.6357            0    9290.1428    24.812108    24.749759    23.081614    14174.274    8579.5119    11165.609    8125.3073   -737.87443   -1764.4842   -105.77148   -6593.3248 
10372000    210.81456   -9287.1634   -8483.4421   -9287.1634            0     8257.985    24.779365    24.917467    23.033747    14221.934     9547.148    7173.1654    8053.6415    147.75906   -226.78869    358.53202   -6770.6343 
10373000    208.92585   -9322.8065   -8526.2859   -9322.8065            0    8290.6008    24.729309    24.914994     23.01398    14179.617    9713.1198    7685.4174    7473.2651   -867.72659   -409.46189   -87.844054   -6811.8297 
10374000    217.80131   -9301.5742   -8471.2163   -9301.5742            0    9008.2755    24.747167    24.893985    23.027909    14186.472    9783.4832    8765.4658    8475.8774   -221.33718    51.928268    284.66409   -6607.4478 
10375000    215.42974   -9277.6779   -8456.3615   -9277.6779            0    9441.3894    24.852676    24.888376     22.90853    14169.905     9107.013    9632.8568    9584.2985   -96.025128    -451.5522    917.70091   -6505.2651 
10376000    211.86044   -9320.0784   -8512.3698   -9320.0784            0     6696.334    24.864475    25.021465     22.97489    14293.726    6910.5724    6144.0845     7034.345   -231.62433   -843.23015   -682.81425   -7116.4565 
10377000     211.6606   -9298.5498   -8491.6031   -9298.5498            0    9186.0304    24.881728    24.869912    22.906083     14174.43    8245.2557    9722.6168    9590.2187   -152.87246   -289.03209     71.07692   -6592.6712 
10378000    208.40987   -9307.9152   -8513.3618   -9307.9152            0    8862.9057     24.85225    24.853606    22.948193    14174.366    8926.3982    9649.4715    8012.8476    37.186955   -800.22718   -831.44461   -6681.2344 
10379000    216.52414   -9323.4008    -8497.912   -9323.4008            0    6932.0912    24.836711    24.959514    23.027435    14274.988    7030.9021    6595.3623    7170.0093    265.04765    220.34424    -72.02682   -7054.7473 
10380000     214.3895   -9349.1302   -8531.7797   -9349.1302            0    9271.5868    24.805221    24.838591     22.94559    14137.391    10155.638    8948.9537    8710.1685   -205.09059    26.715501    -55.67296     -6620.17 
10381000    207.85811   -9328.1974   -8535.7475   -9328.1974            0    7595.9506    24.915302    24.820247    22.988474    14216.163    7781.2796    7947.1379    7059.4345   -23.977619    250.87419   -602.52619    -6960.893 
10382000    212.80034   -9310.1531   -8498.8612   -9310.1531            0      10056.2    24.876759    24.842742    22.869326    14133.402    9733.4003    9802.5695    10632.631   -1356.0525    176.52629   -10.412747   -6426.0653 
10383000    205.48627   -9295.9435   -8512.5361   -9295.9435            0     8163.712    24.939549    24.954297    22.864603    14229.761    7898.4216    7326.2141    9266.5003   -197.13978    1228.2781    682.40775   -6818.3498 
10384000     213.4506   -9348.8449   -8535.0739   -9348.8449            0    8719.9858    24.872534    24.945608      22.8192    14158.412    8695.4891    8040.4025    9424.0659    302.30791   -137.94459    581.55032   -6734.5196 
10385000    210.46852   -9364.5017   -8562.0997   -9364.5017            0    6412.1035    24.943244    24.982603    22.908285    14275.233    6571.8961    6574.0636    6090.3507    798.86317   -1155.4096      1261.45   -7227.1662 
10386000    208.05732    -9282.957   -8489.7476    -9282.957            0    10523.223    24.847148    24.853982    22.869452    14123.043    10642.578    10410.843    10516.249    4.3818948   -318.10931   -289.92639   -6322.2783 
10387000    206.60588   -9319.8002   -8532.1244   -9319.8002            0    7225.9095    24.924045    24.994673    22.868316    14246.238    6609.8373    7365.5836    7702.3078     139.3021   -772.23389    407.46272   -7030.8205 
10388000    207.35953   -9286.8614   -8496.3122   -9286.8614            0    9142.0367    24.875587    24.903884     22.85763    14160.273      8688.23    8535.0328    10202.847    413.88207   -68.426328   -162.15646   -6608.3624 
10389000    205.28423   -9320.0401    -8537.403   -9320.0401            0    7660.4893    24.965529    24.966401     22.86821    14253.742    7640.8449    7073.2201    8267.4027    258.51307   -170.21022    120.95489   -6944.9696 
10390000    213.53556   -9314.5786   -8500.4837   -9314.5786            0    8807.6448     24.86525    24.955597     22.82544    14163.806    8774.0025    8602.1413    9046.7907   -1306.9682    210.34922    182.11836   -6681.1362 
10391000    204.28088   -9323.7751   -8544.9632   -9323.7751            0    6815.5558    25.023089    24.922019    22.895732    14278.372    6197.8595    7022.2332    7226.5746    738.61813    417.31516     710.8592   -7125.7231 
10392000    204.91392   -9318.8868   -8537.6614   -9318.8868            0    8695.5532    24.922031    24.884757    22.885186    14192.905    7525.0774    8684.7984    9876.7838   -1436.8343   -936.58148   -510.96808    -6737.778 
10393000     217.1572   -9332.9128   -8505.0105   -9332.9128            0    9080.3745    24.758135    24.977389    22.905273    14164.474    9678.6876    8413.6588    9148.7771   -750.04753    128.99958    -379.7199   -6629.2383 
10394000    221.46971   -9366.4208   -8522.0773   -9366.4208            0     6221.006     24.90975    24.985796    22.934298    14274.076    6222.2174    5853.6868    6587.1137    223.13072    -291.9112    377.71645   -7227.0333 
10395000    223.13545   -9308.0183   -8457.3242   -9308.0183            0    8913.8158    24.893792    24.792048    22.958106    14169.011     9102.482    9232.6272    8406.3382   -406.21737    -1489.603    992.78943    -6615.369 
10396000    211.24697   -9316.4586   -8511.0888   -9316.4586            0    7965.2756     24.83935    24.854241    23.028823    14217.147     8445.235    7965.8383    7484.7537   -541.59135   -154.07962    81.351034   -6859.5486 
10397000    215.23382    -9341.819   -8521.2496    -9341.819            0    8273.6695    24.788604    24.882052       22.973    14169.547    8322.2998    8798.4781    7700.2304   -550.38899   -627.70339    -921.1878   -6811.5098 
10398000    206.94381    -9329.452   -8540.4878    -9329.452            0    8483.5815    24.804267    24.820269    23.033196    14180.354     9013.369    8338.9234    8098.4522    490.44518    -873.4499    379.91588    -6786.033 
10399000     214.5488   -9324.4314   -8506.4735   -9324.4314            0    7824.7999     24.86753    24.732757    23.133974     14228.38     7866.759    9049.5983    6558.0424    6.4682522     222.6165   -307.35184   -6882.7781 
10400000    212.03879   -9325.2637   -8516.8752   -9325.2637            0    8893.6073    24.845905    24.811356     22.99289    14174.211    8297.3455    9488.1992    8895.2773    768.73035   -157.29045    38.455749   -6678.4213 
10401000    218.32873   -9338.0998   -8505.7311   -9338.0998            0    7334.3341    24.821163    24.915009    23.048013    14253.341    8107.5269    7530.1586     6365.317   -390.06703   -563.70091   -112.57778   -6981.1405 
10402000    213.25585   -9330.8448   -8517.8162   -9330.8448            0    9075.9376    24.771322    24.896024    22.959886    14159.532    10503.204    8093.4767    8631.1327   -1073.8485   -330.78453   -713.36249   -6643.6146 
10403000    206.73032   -9280.3161   -8492.1658   -9280.3161            0    8254.2416    24.962338    24.874101    22.921522    14232.333    7901.9869     8830.198    8030.5398    65.833204   -152.47586    683.26999   -6778.8826 
10404000    205.10297   -9323.1259   -8541.1798   -9323.1259            0     8113.995    24.914655    24.852577    22.929839    14198.004    8129.2269       8822.9    7389.8582   -304.80839   -668.62934   -30.581291    -6861.069 
10405000    219.70567   -9341.4164   -8503.7982   -9341.4164            0    8570.8597    24.949831    24.877343     22.81848      14163.1    7292.2731    8964.2785    9456.0275   -438.12514    19.043615    676.51002   -6733.4504 
10406000    205.50697   -9376.0271   -8592.5408   -9376.0271            0    7879.4924    24.872111    24.972434     22.86082    14199.247    7973.1619    7221.9951    8443.3203    79.701181    659.18942    1087.1399   -6960.8441 
10407000    205.17167   -9298.3857   -8516.1778   -9298.3857            0    9015.2594    24.970454    24.915998     22.80498    14188.432     7913.988    8823.5701     10308.22   -976.61598    552.70659   -407.13197   -6650.7067 
10408000    217.82731   -9335.1424   -8504.6854   -9335.1424            0    8017.9244    25.014799    24.981842    22.729331    14203.917    8007.8665    6990.5595    9055.3472    306.53348    245.19439    1224.4916   -6843.7759 
10409000    215.92601   -9300.6426   -8477.4342   -9300.6426            0    8724.0781    24.867082    25.000451     22.82699    14191.272    8880.2855     8108.675    9183.2739   -976.94146    -217.9945    716.65122   -6671.8541 
10410000    219.51867   -9346.5128   -8509.6076   -9346.5128            0    9264.9654     24.75975    24.945477    22.853988    14115.623    8985.4496    9557.6816    9251.7649      812.071   -985.28772   -656.56195   -6602.3044 
10411000    209.37717   -9350.1225   -8551.8812   -9350.1225            0    8224.1296    24.932307    24.886215    22.901067    14209.443    7651.3451     8890.675    8130.3686    47.063882   -59.606987    396.57683   -6847.5937 
10412000    212.90326   -9326.3475   -8514.6632   -9326.3475            0    8170.9748    24.891538    24.855998    22.954608    14202.108    8172.0819    8275.8536    8064.9888   -875.62169      182.197   -409.72746   -6822.2649 
10413000    216.72575   -9324.3535   -8498.0961   -9324.3535            0    7752.1716    24.772154    25.076947    22.882056    14214.562    8469.9481    6592.3935     8194.173   -377.68213   -781.26816    463.61628   -6891.0337 
10414000    208.42166   -9320.2921   -8525.6937   -9320.2921            0    9541.7471    24.830025    24.891857    22.895483    14150.906    8551.1524    9780.3223    10293.767   -32.882337    238.76882    508.73734   -6556.5017 
10415000    212.85352   -9326.8935   -8515.3988   -9326.8935            0    6829.0559    24.956293    24.961006    22.892788    14260.701    7497.4079    5935.9614    7053.7984    350.63243     640.0464    -354.3761   -7095.1075 
10416000    218.12016   -9309.3618   -8477.7883   -9309.3618            0    9650.1992    24.890513    24.875155    22.848588    14146.826    10155.551    10097.484    8697.5631   -14.254168   -128.98245     -166.635   -6486.7887 
10417000    200.48736   -9323.4186   -8559.0694   -9323.4186            0    7179.3026    24.923253    24.921442    22.943564    14250.785    6163.6815    7064.6398    8309.5864    934.67966    1122.8616     164.1107   -7066.9728 
10418000    218.36968   -9296.0886   -8463.5638   -9296.0886            0    9396.0864    24.800694      24.9619    22.885653    14167.877    9066.3909      9175.33    9946.5384   -23.891753   -1255.7787    925.31864   -6522.1073 
10419000    210.11814   -9308.2963   -8507.2302   -9308.2963            0    8311.0162    24.880989    24.909412    22.957513    14228.396    7895.2516    8347.1012    8690.6958    242.68328   -842.72412   -238.22886   -6782.6397 
10420000    208.78714   -9321.3755   -8525.3837   -9321.3755            0    9385.4787    24.818925    24.760133    23.033701    14154.668    9313.5683    10564.877    8277.9911    -396.4463   -551.61162    12.097836   -6587.9271 
10421000    212.57454   -9330.7136   -8520.2825   -9330.7136            0    7643.7906    24.841692    24.913325    22.960518    14210.016     7203.815    8089.9928     7637.564    -207.2111    -415.2391   -990.14151   -6936.1948 
10422000    216.01279   -9332.4888   -8508.9496   -9332.4888            0    9924.6744    24.818088    24.870406    22.880447    14122.634    8937.4169    10637.905    10198.701   -263.71215   -397.98862    634.27086   -6464.8226 
10423000    213.11974    -9317.913   -8505.4034    -9317.913            0     9043.606    24.978954     24.82423     22.85451      14171.7     8028.094    9330.0228    9772.7011    316.61135   -305.71132    220.28539   -6636.2736 
10424000    203.30292   -9301.7196   -8526.6361   -9301.7196            0    8757.3342    24.864497    24.990132     22.87293    14212.485    9059.4272     7853.403    9359.1723   -414.69883    714.27783   -258.80107   -6711.4639 
10425000    215.56404   -9336.8528   -8515.0243   -9336.8528            0    7014.8125    24.870953    24.983214    22.951819    14261.259    7040.9422    7223.3679    6780.1274   -829.22887   -918.22074    1418.4679   -7056.0427 
10426000    213.87571   -9349.4518     -8534.06   -9349.4518            0    8043.6547    24.928972     24.91026    22.909828    14226.709     8443.884    7423.2241    8263.8559   -45.477148   -339.27596    59.889722   -6865.1468 
10427000    211.54467    -9297.507   -8491.0023    -9297.507            0    9505.1802    24.895872    24.947115       22.787    14152.554     9176.076    9029.0677    10310.397    -338.9465    483.25316    28.903927   -6529.1285 
10428000    211.54448   -9319.4781   -8512.9741   -9319.4781            0    7796.8055    24.865208    25.039644    22.858405    14232.008    7936.7468    7635.2152    7818.4546    378.68035   -592.71862    565.83334   -6894.6751 
10429000    212.74014    -9331.572   -8520.5096    -9331.572            0    7161.4645    24.912256    24.935758    22.938172    14249.329    6684.8155    7025.3391     7774.239   -489.05177    870.37092    264.99174   -7032.2724 
10430000    211.38633   -9337.6328   -8531.7317   -9337.6328            0    8062.5468    24.930005    24.818006    22.943537    14195.465     7525.351    8354.7681    8307.5214   -457.83864    466.33033    74.898838   -6862.5725 
10431000    206.87986    -9302.738   -8514.0176    -9302.738            0    8483.7453    24.757059    24.915861    23.029748    14205.749    8266.7996    8757.6928    8426.7434   -481.22932   -1117.1846    23.782235   -6756.3869 
10432000    216.43574   -9293.7168   -8468.5651   -9293.7168            0    8750.5513     24.75591    24.929661    23.006801    14198.796    9485.7885      8550.23    8215.6353    -845.8566   -332.41508   -388.68727   -6656.5458 
10433000    214.99618   -9338.3159   -8518.6524   -9338.3159            0    7683.6711    24.886787    24.872482    23.016749     14247.28    8056.7332    8184.5829    6809.6971    -48.17827   -210.49978    189.54398   -6922.1241 
10434000    213.26925   -9310.5218   -8497.4422   -9310.5218            0    9583.5661    24.829904    24.820503    22.955081    14147.003    9038.4162     9976.353     9735.929   -224.53876   -781.92319   -695.55033   -6520.1654 
10435000    223.31421   -9312.5216    -8461.146   -9312.5216            0    7782.4187     24.86754    24.970876    22.904485    14222.867    8126.8784    7425.5729    7794.8049   -20.898583    1481.5124    -371.2828   -6846.8706 
10436000     218.3825   -9299.8967    -8467.323   -9299.8967            0    8678.9373     24.94166    24.965751    22.791185    14191.781    7804.9373    8853.6082    9378.2665   -85.311361   -466.98951     111.5828   -6671.0209 
10437000    211.67532   -9354.5569    -8547.554   -9354.5569            0    7647.5183    24.976888    24.925004    22.818287    14205.503    6180.9274    8971.6185     7790.009   -900.65082    -692.8325    -334.8154   -6963.1971 
10438000    216.50648   -9312.9931   -8487.5717   -9312.9931            0    6922.8031    24.982891    24.923282    22.924505    14274.072    6425.4425    7206.1105    7136.8562   -58.601076    435.69376   -1285.2354   -7046.4331 
10439000    204.72513   -9333.1201   -8552.6145   -9333.1201            0    8168.9647     24.76435    24.916831    22.979377    14179.405    9394.2195    7253.2004    7859.4742      445.637    -489.7459     -315.333   -6863.3374 
10440000    217.83897   -9289.2656   -8458.7641   -9289.2656            0    9790.3192    24.878334    24.836344    22.885536    14140.672    9406.9469    9820.0805     10143.93   -639.59047   -643.16845   -390.12227    -6439.734 
10441000    212.43295   -9306.0595   -8496.1682   -9306.0595            0     8424.997     24.92276    24.924625    22.883988    14215.315    8342.9769    6853.0132    10079.001    301.34779    140.61596   -470.15867   -6749.5334 
10442000    216.93035   -9308.8993   -8481.8619   -9308.8993            0    9480.8735    24.856866    24.894087    22.843029    14135.015    9712.3014    8275.3082    10455.011    728.43926    -205.0101   -698.49853   -6527.4301 
10443000    209.86074   -9306.8211   -8506.7362   -9306.8211            0    7749.7814    24.906894    24.936325    22.898391     14221.88    7296.3677    7802.0082    8150.9683   -323.99192   -400.71253   -774.20609   -6899.3423 
10444000    209.28557   -9318.5696   -8520.6776   -9318.5696            0    7556.1201    24.976427    24.902399    22.884364    14233.455    7147.1914    6786.8577    8734.3113   -92.148561     83.55498   -569.26582   -6952.1755 
10445000    210.22831   -9310.2168   -8508.7306   -9310.2168            0    8096.9856    24.952366    24.960272    22.779701    14187.604    7443.7099    9025.7519    7821.4952   -436.06833   -1368.9274   -561.84492   -6833.3699 
10446000    216.20886   -9312.9728    -8488.686   -9312.9728            0    8305.4677    24.921466    24.966123    22.806565    14190.072    8113.2979     8360.948    8442.1573   -240.09955    770.48322    322.34722   -6769.8891 
10447000    209.46203   -9309.6489   -8511.0841   -9309.6489            0    7764.4275    24.898337    24.944573    22.894328    14219.172    7634.9066    7781.5375    7876.8383   -183.53666    579.41314    955.71941   -6900.9589 
10448000      216.519   -9306.5024   -8481.0332   -9306.5024            0    9184.8214    25.051911    24.846354    22.718996    14141.408    7868.4596    10564.997    9121.0074    166.82628    -1169.803    1002.3299   -6586.7746 
10449000    212.57826    -9287.969   -8477.5237    -9287.969            0    8619.8341    24.883399    24.966667    22.886157    14218.152    8666.9973    7433.6861     9758.819   -987.96546   -921.17332    317.00355   -6690.1394 
10450000    211.60151   -9313.5074   -8506.7859   -9313.5074            0    7870.6555    24.867267    24.985321    22.890858    14222.471    7666.9439     7994.675    7950.3476    734.58296    -276.0448   -594.33052   -6874.2533 
10451000    217.78161   -9308.1457   -8477.8628   -9308.1457            0    8848.0959    24.826492    24.926938     22.94641     14200.35    9068.2828    8789.4628    8686.5421     1006.322   -59.908342   -37.631657   -6645.4439 
10452000    209.96054   -9317.0116   -8516.5463   -9317.0116            0    8455.9916    24.875692     24.89184    22.942278    14205.898    8028.5092    8420.1493    8919.3164    426.49772   -757.28828    138.63231    -6764.647 
10453000    208.61749   -9348.6741   -8553.3291   -9348.6741            0    8148.7617    24.887962    24.911043    22.906688    14201.805    8205.1783    8034.2973    8206.8096   -426.78908   -446.92389    852.18992   -6865.5677 
10454000     218.7091   -9321.0723   -8487.2535   -9321.0723            0    8517.0856    24.788489    24.886045    23.001819    14189.534     8362.911    8644.0816    8544.2641   -53.432831    146.60587    526.95458   -6724.7296 
10455000    205.43576   -9314.0309   -8530.8161   -9314.0309            0    7630.0011    24.843982    24.826585    23.049044    14216.448    8157.1852    7396.2676    7336.5504   -1420.2622    640.79426   -251.76264   -6948.8703 
10456000     200.8711   -9341.9757   -8576.1634   -9341.9757            0     7753.911    24.787933    24.822226    23.069886    14194.709    9445.8942    7551.7991    6264.0397   -93.171186   -18.859816       -996.5   -6970.9855 
10457000    213.57649   -9319.6176   -8505.3666   -9319.6176            0    8094.0932    24.795097    24.829211    23.078116    14207.873      8538.69    8304.5958    7438.9938   -508.54284   -908.44376   -1038.0432   -6828.2118 
10458000    207.07539   -9302.5124   -8513.0466   -9302.5124            0    7612.2731    24.909077    24.864327    23.025141    14260.562    7739.7244    7626.6835    7470.4113   -180.62127   -618.41121   -635.00119    -6929.879 
10459000    213.55538   -9292.3968   -8478.2263   -9292.3968            0    9725.7954    24.915083    24.862613    22.878419    14172.129    8915.2848    10870.999    9391.1029   -757.74068   -1219.2439    62.452336   -6468.0409 
10460000    220.04391   -9330.6704   -8491.7626   -9330.6704            0    8102.4305    24.813712    24.966568    22.909576    14192.785    9311.2574    6875.5242      8120.51    107.82314   -397.82815    881.83218   -6814.6631 
10461000    215.16116   -9305.8656   -8485.5732   -9305.8656            0    7965.1065    24.779316    24.970357    22.924805    14184.686    8097.0508    7560.5028    8237.7659    -202.8049   -1423.1756   -200.72898   -6837.8388 
10462000    212.60525    -9323.112   -8512.5639    -9323.112            0     8188.184    24.926872    24.853396     22.94488    14214.753    7084.6882    8974.4317    8505.4321   -46.799127   -116.00993   -202.77124   -6815.0912 
10463000    212.59848   -9326.9816   -8516.4593   -9326.9816            0    8696.9501    24.843165    24.780651    23.040263    14184.272    9078.1043    10229.229    6783.5169    996.22067    77.290274    238.98881   -6717.3816 
10464000    216.14983   -9315.4501   -8491.3884   -9315.4501            0    8981.1606    24.807221    24.850487    22.993237    14174.676    9352.4758    8972.1702    8618.8359    584.23667    265.31438   -503.72672    -6634.775 
10465000    207.58867   -9311.7913   -8520.3687   -9311.7913            0    8717.4912    24.833933    24.852887    22.960525     14171.12    9603.4105    8103.9915    8445.0716   -1010.9688   -382.52335    265.90693   -6718.7138 
10466000    210.63854    -9337.782   -8534.7318    -9337.782            0      8168.71    24.932327    24.852497    22.927811    14206.773    8215.6278    9143.7907    7146.7113   -69.218199   -1195.3389   -421.34061   -6842.2469 
10467000    215.38636   -9315.2209   -8494.0698   -9315.2209            0    7387.0438    24.907573    24.910782    22.971815    14253.256    7795.3767     7127.189    7238.5657   -46.664775    188.19539    660.06552   -6958.5316 
10468000    217.54495   -9327.8556   -8498.4751   -9327.8556            0    9558.5194    24.762477    24.929962    22.888495      14129.7    10643.825    9118.8515    8912.8819    93.398769    121.27372    271.34094    -6528.778 
10469000    208.50496   -9344.3314   -8549.4154   -9344.3314            0    6641.7858    25.045795    24.845701    22.913134    14258.393    5690.3885    6812.1033    7422.8656    653.86532      695.069   -113.53511   -7168.2957 
10470000    221.48534   -9348.5029   -8504.0997   -9348.5029            0    8699.8656    24.906019    24.862693    22.839638    14143.005    8245.6932    8364.9218     9488.982    649.49789   -574.91217   -379.62216   -6709.6548 
10471000    210.59729   -9323.8564   -8520.9635   -9323.8564            0    7812.1709    24.860402     24.98747    22.906246    14229.327    7892.5157    7587.6407    7956.3563    316.08791     509.1033   -337.72934   -6899.7807 
10472000    209.26076   -9325.1385    -8527.341   -9325.1385            0    9533.9228    24.848575    24.869706    22.876372    14137.066    9772.5269    9100.0904    9729.1512    583.61419    254.70363    781.67682   -6561.6882 
10473000    210.62703   -9310.2814   -8507.2751   -9310.2814            0    7511.5628    24.932122    24.878965    22.914215    14213.353    6504.6864    8496.9907    7533.0113   -255.98985   -857.28501    960.80585   -6950.2245 
10474000    221.60389    -9302.138   -8457.2829    -9302.138            0    8464.0781    24.891975    24.921488    22.920534     14218.64     8771.054    8868.8415    7752.3387    927.00346   -321.64562   -308.32892   -6702.1354 
10475000    208.60087   -9312.4849   -8517.2032   -9312.4849            0    8919.8312    24.905238    24.928808    22.849058    14186.018    8743.4379    8156.2715    9859.7841    104.77848   -1023.9078   -587.29178   -6671.7925 
10476000      211.531    -9322.904   -8516.4513    -9322.904            0    7880.6601    24.926655    24.950705    22.851737    14212.355    7158.1173    8136.9073    8346.9559     139.7701     -67.3604     290.0437   -6883.0062 
10477000    212.90809   -9288.9208    -8477.218   -9288.9208            0    8427.2818    24.975706    24.887209    22.860033    14209.239    7151.8729    8355.7936    9774.1788    642.90187    1050.4802   -546.21832   -6730.8562 
10478000    225.59611   -9341.7807   -8481.7054   -9341.7807            0    7698.1491    24.883729     24.97638    22.879343    14219.637    7397.4437    7090.7002    8606.3033   -570.85295   -19.122674    854.16865   -6885.2724 
10479000    212.52107   -9335.6401   -8525.4128   -9335.6401            0      9525.76    24.838521    24.963662    22.816617    14147.682    9106.7032    8479.5417    10991.035    692.39523   -247.00693   -185.72623   -6559.9682 
10480000    219.72783   -9330.1311   -8492.4284   -9330.1311            0    8789.4455    24.954831    24.942427    22.797895    14190.186    7457.2576    8569.5177    10341.561    -139.2177    711.78535    -709.3042   -6673.4588 
10481000       219.92   -9319.0383    -8480.603   -9319.0383            0    7160.0066    25.017313    24.880651    22.932059    14273.992    6053.6724    8149.0196    7277.3279    605.20491   -504.45776    1034.9343   -6990.0934 
10482000    212.81611   -9312.6342   -8501.2822   -9312.6342            0    7114.0922    24.835719    24.918655      23.0206    14246.821    7219.3677    7329.4894    6793.4194   -532.41468    37.532864    299.56815   -7023.1498 
10483000    218.02459    -9313.288   -8482.0788    -9313.288            0    7016.2525    24.939191    24.883918    22.959995    14248.624    6794.4276    7364.0203    6890.3095   -522.84648    964.80119    227.53205   -7024.0906 
10484000    219.42146   -9313.7975   -8477.2629   -9313.7975            0     9804.726    24.786224    24.932736     22.89882    14151.204    10378.958    9173.2961    9861.9238    383.61123   -802.47674    592.14507   -6453.7557 
10485000    213.23177   -9339.2225   -8526.2857   -9339.2225            0    8075.6801    24.954038    24.911961    22.848608     14203.93    7634.3305    7935.3351    8657.3748   -415.13561   -784.71048   -561.72868   -6853.4107 
10486000     218.4174   -9324.9344   -8492.2277   -9324.9344            0    8184.6532    24.949716    24.944005    22.814954    14198.792    8331.6477    7644.5034    8577.8085     105.3214    -52.32103    103.68616   -6797.3922 
10487000    212.02203   -9331.8959   -8523.5712   -9331.8959            0    8422.1191    24.926831    24.971487    22.777686    14178.199    8498.0079    7758.7375    9009.6119    389.36788    183.06218    489.29036   -6782.0918 
10488000    216.75048   -9282.3891   -8456.0374   -9282.3891            0     7543.927    24.931509    24.980193    22.917109    14272.635    6671.6557    7817.6737    8142.4516   -224.46938   -654.43246    235.21294   -6885.7558 
10489000    208.20899   -9294.7508   -8500.9631   -9294.7508            0    7923.1264    24.896312    24.951759    22.921611     14239.06    8747.7488    7961.1424    7060.4882   -513.99652    43.298921    262.38118   -6855.6302 
10490000    222.45306   -9318.1368   -8470.0443   -9318.1368            0    9069.5645    24.791519    24.905078    22.907248     14143.73    9322.7929    8587.4003    9298.5003    468.84352   -110.20171    161.20587    -6599.249 
10491000    216.88971   -9314.8655    -8487.983   -9314.8655            0    7931.1768    24.842102    24.817938    23.079419    14229.148    8119.7552     8752.769    6921.0061    664.04709    274.49125    639.70091   -6842.1247 
10492000    221.82361   -9310.1794   -8464.4867   -9310.1794            0    10575.067    24.759987    24.799017    22.983368    14112.324    10494.211    11568.235    9662.7551    557.86466   -1117.7638   -193.24754   -6287.9922 
10493000    217.63226   -9348.8394   -8519.1259   -9348.8394            0    7365.4414    24.906257    24.926443    22.955584    14251.386    6865.5691    7775.2511    7455.5039    -114.9927     258.2035   -1165.0189    -6988.279 
10494000    209.78867   -9323.3226   -8523.5125   -9323.3226            0    9266.6276      24.8103    24.985892    22.838564    14157.797    10359.937    7992.8316    9447.1146    632.40705   -805.71653     484.0427   -6610.1676 
10495000    212.39545   -9309.8523    -8500.104   -9309.8523            0     9074.878    24.840024    24.961232    22.854804    14170.838    8523.7452     8793.513    9907.3758    -747.5457    22.113449   -1392.0697    -6624.625 
10496000    210.63322   -9328.9793   -8525.9494   -9328.9793            0    7489.8563    25.046869    24.865711    22.850556    14231.514    5886.8158    7598.7612    8983.9921   -819.82693    810.38665   -597.38501   -6971.4145 
10497000    217.45195   -9291.0173   -8461.9914   -9291.0173            0    8608.9698    24.955948    24.849959    22.905858    14205.166    7592.5272    9363.0801    8871.3022    -190.2104    842.50081    729.51984   -6678.4902 
10498000    200.55761   -9302.7034   -8538.0863   -9302.7034            0    8632.8978    24.801864    24.932505     22.93711     14183.68    10020.348     7801.934     8076.411    24.797047    381.10721    35.576126   -6752.3332 
10499000    203.20431   -9332.2232   -8557.5157   -9332.2232            0    8913.3054    24.808198    24.880961    22.962501    14173.645    9035.2749    8416.7133    9287.9278    104.61048   -1557.5798    185.60881   -6715.0635 
10500000    216.80285   -9303.0209   -8476.4695   -9303.0209            0    8999.3984    24.795869     24.78652    23.109185    14202.982    8585.8848    10668.904    7743.4061    92.858043   -334.54964   -433.00773   -6612.3709 
Loop time of 522.716 on 64 procs for 250000 steps with 1920 atoms

Performance: 82.645 ns/day, 0.290 hours/ns, 478.271 timesteps/s
376.6% CPU use with 16 MPI tasks x 4 OpenMP threads

MPI task timing breakdown:
Section |  min time  |  avg time  |  max time  |%varavg| %total
---------------------------------------------------------------
Pair    | 76.896     | 77.931     | 79.754     |  10.0 | 14.91
Bond    | 1.5955     | 1.7929     | 2.7071     |  21.9 |  0.34
Kspace  | 249.71     | 254.19     | 260.28     |  17.1 | 48.63
Neigh   | 2.9568     | 3.0556     | 3.1963     |   4.1 |  0.58
Comm    | 67.231     | 72.655     | 77.419     |  29.0 | 13.90
Output  | 0.57433    | 0.57459    | 0.57627    |   0.1 |  0.11
Modify  | 78.164     | 89.502     | 93.217     |  46.1 | 17.12
Other   |            | 23.02      |            |       |  4.40

Nlocal:        120.000 ave         123 max         117 min
Histogram: 3 1 0 2 0 2 4 0 3 1
Nghost:        4149.12 ave        4181 max        4119 min
Histogram: 2 1 1 2 2 1 5 1 0 1
Neighs:        42795.6 ave       43723 max       41528 min
Histogram: 1 0 3 1 0 3 2 1 3 2

Total # of neighbors = 684729
Ave neighs/atom = 356.62969
Ave special neighs/atom = 2.0000000
Neighbor list builds = 6277
Dangerous builds = 0

unfix		3
unfix		2
unfix		1

write_data	data.final.${pid}
write_data	data.final.0
System init for write_data ...
PPPM initialization ...
  extracting TIP4P info from pair style
  using 12-bit tables for long-range coulomb (../kspace.cpp:340)
  G vector (1/distance) = 0.37470891
  grid = 30 30 30
  stencil order = 5
  estimated absolute RMS force accuracy = 0.0032360401
  estimated relative force accuracy = 9.7452388e-06
  using double precision FFTW3
  3d grid and FFT values/proc = 7920 1800
Last active /omp style is kspace_style pppm/tip4p/omp
WARNING: Not all mixed pair coeffs generated from mixing. Use write_data with 'pair ij' option to store all pair coeffs. (../write_data.cpp:312)

write_restart   restart.lmp.${pid}
write_restart   restart.lmp.0
System init for write_restart ...
PPPM initialization ...
  extracting TIP4P info from pair style
  using 12-bit tables for long-range coulomb (../kspace.cpp:340)
  G vector (1/distance) = 0.37470891
  grid = 30 30 30
  stencil order = 5
  estimated absolute RMS force accuracy = 0.0032360401
  estimated relative force accuracy = 9.7452388e-06
  using double precision FFTW3
  3d grid and FFT values/proc = 7920 1800
Last active /omp style is kspace_style pppm/tip4p/omp
Total wall time: 0:08:42
