LAMMPS data file via write_data, version 30 Jul 2021, timestep = 5000000

864 atoms
2 atom types
576 bonds
1 bond types
288 angles
1 angle types

0.35151749065150106 17.856054909343392 xlo xhi
1.5055724424021975 22.12360535760346 ylo yhi
0.42885051754719505 21.78434528244952 zlo zhi

Masses

1 1.00794
2 15.9994

Pair Coeffs # lj/cut/tip4p/long/omp

1 0 0
2 0.21084 3.1668

Bond Coeffs # harmonic/omp

1 450 0.9572

Angle Coeffs # harmonic/omp

1 55 104.52

Atoms # full

59 1 1 0.5897 2.6548836396907234 4.961291929921423 4.273981283012607 5 -1 -3
58 1 2 -1.1794 2.8948274397355234 4.043790911607763 4.403749199612694 5 -1 -3
32 1 1 0.5897 1.6721525275919784 1.5092853506422892 1.0057514849574714 4 8 1
100 1 2 -1.1794 3.3841899398140547 5.280542789248852 1.2120547226454135 5 -4 -2
60 1 1 0.5897 2.170957442108869 3.675794756899562 4.910505774524362 5 -1 -3
759 1 1 0.5897 0.8242840079369078 6.628976491110878 3.2704036104070218 1 1 2
102 1 1 0.5897 2.90073408753768 5.373679282248623 2.0329111859187288 5 -4 -2
757 1 2 -1.1794 1.7504699801075094 6.399996693714186 3.347543198484671 1 1 2
644 1 1 0.5897 4.426189141839469 3.1317877684794913 4.784124369667271 3 -2 0
101 1 1 0.5897 3.2327272253234516 6.104748398292557 0.7494896066629058 5 -4 -2
296 1 1 0.5897 2.598827015450097 3.9313964046484555 0.45747440670152884 -2 4 1
454 1 2 -1.1794 1.8931582769484265 5.066983964131422 8.018163263014298 1 -1 2
557 1 1 0.5897 2.858049269481154 4.71136273896769 9.67279196937737 2 2 1
558 1 1 0.5897 3.65307005961002 3.980291103556106 10.733601079054557 2 2 1
456 1 1 0.5897 2.650102748619658 5.4545455426415295 7.578791205163518 1 -1 2
535 1 2 -1.1794 1.2581713963519743 1.6967503546870821 9.489110773853634 5 7 3
556 1 2 -1.1794 3.308654044057385 4.844085865363805 10.506785645278763 2 2 1
455 1 1 0.5897 1.5182821345922584 4.471146610992156 7.3695637354183425 1 -1 2
820 1 2 -1.1794 2.4698805357454865 2.44541053747251 6.978154049498158 3 1 5
537 1 1 0.5897 0.5269839622764488 2.1048751505657157 9.025381361496613 5 7 3
821 1 1 0.5897 3.091653327770607 3.1320249206347253 7.219332559963024 3 1 5
822 1 1 0.5897 2.2999204311068375 1.9775724529294023 7.795744159421805 3 1 5
360 1 1 0.5897 0.6071632300159198 6.17866837257075 8.930880742410425 4 0 -3
20 1 1 0.5897 1.1212491308677954 2.6978320024911357 10.983647105554098 -4 -3 1
34 1 2 -1.1794 3.971344552829243 6.0780822033991075 6.670659998410334 -4 2 -1
35 1 1 0.5897 4.616374044438545 6.585931099849524 7.162829147261286 -4 2 -1
98 1 1 0.5897 4.726401780190665 5.839388985103418 10.475603706059896 4 -7 6
80 1 1 0.5897 2.65233547050538 4.693164426416013 12.412706118655047 -1 1 -4
79 1 2 -1.1794 2.9657738798407944 4.982582105765479 13.269562851642625 -1 1 -4
21 1 1 0.5897 1.4915746952603965 2.62143618538215 12.44954446931362 -4 -3 2
733 1 2 -1.1794 3.5589396139550944 2.6147907865176827 16.009368556857456 0 1 -3
632 1 1 0.5897 0.6210994707157007 5.5592735991339985 15.283596651052557 3 4 3
19 1 2 -1.1794 1.0100471138995304 3.154891721216109 11.817276201091566 -4 -3 2
633 1 1 0.5897 1.746099446336709 4.628709606736532 14.883260956993547 3 4 3
81 1 1 0.5897 3.891135766849218 4.738061299073626 13.281741952866128 -1 1 -4
157 1 2 -1.1794 2.4795015465861803 1.7576384766352704 13.672254219185621 1 2 -3
184 1 2 -1.1794 4.327304533607984 2.3312518489269416 11.429125750388332 1 5 4
159 1 1 0.5897 2.7683551148001078 2.228597352366765 14.453906198963196 1 2 -3
631 1 2 -1.1794 0.8699652336371426 4.63512160786821 15.26868913214361 3 4 3
735 1 1 0.5897 4.335151762834691 2.0667175572882672 15.89398480770501 0 1 -3
185 1 1 0.5897 3.967642766861017 2.145448938718663 12.296492276943566 1 5 4
705 1 1 0.5897 0.5718260335533032 4.918937426931991 12.196610469122046 4 -2 -1
518 1 1 0.5897 4.712456565470907 4.025714393656857 16.2952161961879 -1 -2 -4
861 1 1 0.5897 3.382547703702648 6.624181764830381 12.833348242252132 -2 -2 0
299 1 1 0.5897 0.8384538644619651 2.0664999662311883 18.487542522166237 -3 -1 0
288 1 1 0.5897 0.7999571936279027 4.796512549289151 18.133968914064425 3 1 1
45 1 1 0.5897 2.257561901843961 6.647430752594367 19.32475360570694 1 7 -1
734 1 1 0.5897 3.3528834547237176 2.5458301519079174 16.941563648380487 0 1 -3
297 1 1 0.5897 2.6606638941963605 3.156060077756975 20.514120494889596 -2 4 0
44 1 1 0.5897 2.3467596779085333 6.317643025858961 17.84992917406936 1 7 -1
43 1 2 -1.1794 2.1421699032480417 5.930512536172044 18.701105742231306 1 7 -1
295 1 2 -1.1794 2.23654429411169 3.1628037637470277 21.37220235413841 -2 4 0
421 1 2 -1.1794 3.8273600353279624 3.0447470464232227 18.945571280972622 -5 2 4
422 1 1 0.5897 4.097049649138604 3.9628253944403715 18.920226186909197 -5 2 4
300 1 1 0.5897 2.341446998157263 1.993888985151343 18.653598161476893 -3 -1 0
389 1 1 0.5897 0.6569068250512665 3.5409886500069 21.588899703435793 1 5 2
423 1 1 0.5897 4.648016853837073 2.5549754103368905 18.99912749637376 -5 2 4
803 1 1 0.5897 0.9420477936466268 9.762042952532589 2.427362900149336 5 3 -2
544 1 2 -1.1794 2.4182579288406783 9.600431586580175 1.6547115232975436 -3 4 4
545 1 1 0.5897 3.0533196444380275 9.273310960887018 2.2918080760375332 -3 4 4
546 1 1 0.5897 2.327604786691333 8.889957212920642 1.0197199969048887 -3 4 4
758 1 1 0.5897 2.1344493223623733 7.118991463496498 3.8493748751797416 1 1 2
426 1 1 0.5897 3.368445814891203 10.987209518258387 0.6405529136228217 8 -3 1
142 1 2 -1.1794 3.6544576925156314 10.867415563141085 4.1861720717749495 -1 3 3
603 1 1 0.5897 3.135952450071058 8.934561368908973 5.123151325224668 3 3 -1
601 1 2 -1.1794 2.690657651442984 8.140425436025929 5.418563210949414 3 3 -1
602 1 1 0.5897 1.8148824274119562 8.43514648896907 5.6683214238794095 3 3 -2
143 1 1 0.5897 4.166649412936765 11.318581282947733 4.8572260480405545 -1 3 3
144 1 1 0.5897 4.101190015258895 11.072671105613054 3.3648902806975465 -1 3 3
402 1 1 0.5897 1.21928458827934 10.433591543576878 9.03044039656742 -1 -2 2
568 1 2 -1.1794 1.3351500930628404 10.411981141381261 11.01447519286875 6 0 -1
480 1 1 0.5897 3.2145556298805835 7.991720186658655 10.746201388184666 -3 2 -4
328 1 2 -1.1794 4.085517124344176 9.939916656081046 8.177280259936357 4 5 1
330 1 1 0.5897 3.7883382617390535 9.26989325025394 8.792875680442235 4 5 1
479 1 1 0.5897 2.036578853781396 7.721552777492482 9.834495204401968 -3 2 -4
400 1 2 -1.1794 1.310817863908229 10.580513502379242 8.089029373790034 -1 -2 2
329 1 1 0.5897 3.3752327024624393 10.01200630010961 7.539703584596537 4 5 1
478 1 2 -1.1794 2.777147864186499 8.315148829802833 9.958626381017043 -3 2 -4
569 1 1 0.5897 1.9727106414409856 9.738692136321195 10.776926206779782 6 0 -1
401 1 1 0.5897 0.7599991848754519 9.909004092884672 7.686642909903327 -1 -2 2
358 1 2 -1.1794 0.37229068099050266 6.786847491917276 9.631735270278753 4 0 -3
36 1 1 0.5897 3.508694674317741 6.727096769039202 6.140594580885766 -4 2 -1
570 1 1 0.5897 0.5000410617631634 9.946394281734777 11.059763049556258 6 0 -1
770 1 1 0.5897 2.3865058371792762 10.745963283649994 12.42376963309671 5 -1 1
395 1 1 0.5897 3.0454459214425325 9.685235090293142 14.551693094766218 2 0 5
860 1 1 0.5897 4.314015825825327 7.816773296098393 12.789266396004093 -2 -2 0
769 1 2 -1.1794 3.1551412784215214 10.812120798548099 12.990395990696067 5 -1 1
771 1 1 0.5897 3.8988287577951746 10.805489524760628 12.387804866818687 5 -1 1
859 1 2 -1.1794 3.395414862907932 7.569469966035492 12.683355615053266 -2 -2 0
12 1 1 0.5897 3.706663625522739 7.509380160451545 15.72297919647474 -4 1 5
396 1 1 0.5897 3.8310225593336593 9.78976634174388 15.841595744159303 2 0 4
96 1 1 0.5897 1.7132745804043894 7.83456718538923 13.370052161506742 -4 1 0
394 1 2 -1.1794 3.0030425522625053 9.469834392400758 15.48337069380052 2 0 5
94 1 2 -1.1794 0.7666586485207009 7.9755264803682415 13.386874663669486 -4 1 0
10 1 2 -1.1794 4.1520418803843935 6.851616552445127 16.257041395602187 -4 1 5
404 1 1 0.5897 1.0968894773980977 11.773589114827434 16.08494334754207 8 -3 -1
95 1 1 0.5897 0.5145561804219396 7.803975141767745 14.294193526172467 -3 1 0
11 1 1 0.5897 4.544432192335629 7.350066143705431 16.97383005013525 -4 1 5
838 1 2 -1.1794 1.588943952407979 9.375573867150049 19.325942732215026 -3 -3 -4
69 1 1 0.5897 2.1297628840736946 8.139990453657255 20.504993811673273 5 -1 -5
840 1 1 0.5897 2.1696427313834947 10.035356062523292 18.9468867804 -3 -3 -4
839 1 1 0.5897 1.0830085050626324 9.85119681877788 19.9847445832576 -3 -3 -4
51 1 1 0.5897 0.7837698703132728 9.398135553971962 17.838820687408244 7 2 -1
49 1 2 -1.1794 0.5888669830309637 9.560028181301846 16.91577199876442 7 2 -1
813 1 1 0.5897 4.132835156868478 10.242213708914214 18.320813288696122 -5 5 -3
812 1 1 0.5897 3.6892543505634268 11.665237741133076 18.5855131314299 -5 5 -3
811 1 2 -1.1794 3.402880016923818 10.845697147651748 18.18233629960013 -5 5 -3
67 1 2 -1.1794 2.3473445228705225 7.4310922067464 21.110253961661535 5 -1 -5
68 1 1 0.5897 1.5104438671843472 7.001836184451009 21.287865084301934 5 -1 -5
405 1 1 0.5897 2.2682193037283165 11.596821251880055 17.027579847492632 8 -3 -1
425 1 1 0.5897 4.675967992415618 11.58011158356219 21.515657656690784 8 -2 0
628 1 2 -1.1794 0.49162049165094757 11.054928336007993 21.0010898426752 -1 -3 2
630 1 1 0.5897 0.7363792121560245 11.781017097561222 20.427419496278297 -1 -3 2
50 1 1 0.5897 1.4414782400176644 9.530621704930162 16.481725330588304 7 2 -1
392 1 1 0.5897 3.946826241204376 14.112101673210027 2.8310548082839695 4 -4 -1
642 1 1 0.5897 3.0561679185538613 13.363271425425298 1.0836986744480321 4 2 -4
641 1 1 0.5897 1.8449384319734283 14.214402101213912 1.400468053761022 4 2 -4
446 1 1 0.5897 2.16736091358416 14.667919539356241 5.1010540449481585 3 0 -1
391 1 2 -1.1794 4.536147378498513 14.096036074562296 3.585141583684487 4 -4 -1
393 1 1 0.5897 3.9545642722112087 14.124501836963551 4.344881332197696 4 -4 -1
640 1 2 -1.1794 2.775081605541831 14.115955867008026 1.6039960349863025 4 2 -4
209 1 1 0.5897 0.655482103831045 12.490708240279961 5.009689949771001 2 -2 3
582 1 1 0.5897 0.41597441673212693 12.900564602470238 2.539584777692532 -2 -2 0
445 1 2 -1.1794 2.8219162096425685 14.348210180778787 5.72197732737347 3 0 -1
208 1 2 -1.1794 0.9592265220714745 12.161577029922785 4.163742927326156 2 -2 3
210 1 1 0.5897 1.8818436147526842 11.949785290932637 4.305859084008788 2 -2 3
581 1 1 0.5897 0.3610590981117028 12.489328048477894 1.0836604258527824 -2 -2 0
424 1 2 -1.1794 3.8096506366117286 11.822685455823446 0.48715214779171595 8 -2 1
685 1 2 -1.1794 0.8234258194252891 15.996293218121684 9.547741656372855 8 -7 -3
239 1 1 0.5897 1.619350500494384 13.422040707937184 6.688453112306239 -6 -4 -1
240 1 1 0.5897 1.0645392930418858 12.238320847743879 7.451881969855825 -6 -4 -1
776 1 1 0.5897 4.665868577965582 12.220134689676032 6.846208829892679 3 -3 0
447 1 1 0.5897 3.1822531280712125 15.140605113335925 6.1200693945350615 4 0 -1
427 1 2 -1.1794 1.4314834010831763 13.31788935796634 9.990876558077028 1 -1 -3
428 1 1 0.5897 1.247740218843294 14.238360870125167 9.8032712868354 1 -1 -3
429 1 1 0.5897 2.226096435525836 13.12549175683754 9.49310190792047 1 -1 -3
367 1 2 -1.1794 3.841279799139031 12.765691506990033 8.479744776493698 4 5 -2
238 1 2 -1.1794 0.8020778966612205 12.964943251400486 6.886780096612343 -6 -4 -1
686 1 1 0.5897 0.6108104661761087 15.985672261309587 8.614528657754464 8 -7 -3
39 1 1 0.5897 2.937082344002546 16.738970745577774 9.02165455698852 1 2 -2
368 1 1 0.5897 4.4253776199761425 13.174287979222921 9.118557949896967 4 5 -2
369 1 1 0.5897 3.8384449553991606 11.838131817405785 8.71603521218122 4 5 -3
254 1 1 0.5897 3.139629962904612 12.714003495419286 12.705652632761446 3 6 -7
253 1 2 -1.1794 3.0692692760876676 13.478112365139085 12.133446496840998 3 6 -7
278 1 1 0.5897 3.0235262444883935 12.72271524332508 15.640017433212353 2 0 1
607 1 2 -1.1794 4.337879721930946 15.567212507146063 16.01732191561222 5 3 2
694 1 2 -1.1794 2.604696059981023 16.03424977950153 12.990301331395699 2 -2 0
834 1 1 0.5897 1.2883935384047547 14.194316096185357 15.511879378282636 3 -1 -1
255 1 1 0.5897 2.3633213095008068 13.258445052168103 11.525500395819314 3 6 -7
696 1 1 0.5897 3.5132731693456773 16.317848738865223 13.091887140829986 2 -2 0
695 1 1 0.5897 2.667752738001853 15.114454110166637 12.732998400220016 2 -2 0
277 1 2 -1.1794 3.7669455157456815 13.02821555993592 15.12020951004829 2 0 1
833 1 1 0.5897 1.6147310467809137 15.42406415177722 14.691472657158453 3 -1 -1
832 1 2 -1.1794 1.0147529990041246 15.099381869174193 15.362897507166682 3 -1 -1
609 1 1 0.5897 4.221538867823005 16.331479485941024 15.452907436443411 5 3 2
279 1 1 0.5897 4.1315639328293345 13.754180756578986 15.626424355014699 2 0 1
16 1 2 -1.1794 4.588755593667598 15.011398720407191 21.204918595545514 -2 3 1
228 1 1 0.5897 3.1506754473795007 15.810808689240785 19.322986808551008 3 -1 0
574 1 2 -1.1794 0.9980574149400587 13.15391262466736 19.379739888651578 3 0 -1
226 1 2 -1.1794 2.197861308587203 15.829163093782988 19.412635897710054 3 -1 0
575 1 1 0.5897 1.2175826674144585 12.66638534964641 18.58580412865596 3 0 -1
227 1 1 0.5897 1.9411045306884118 14.907311617025501 19.435153847197356 3 -1 0
736 1 2 -1.1794 4.703012433194165 16.612994137641216 18.59184358130986 0 -1 -1
342 1 1 0.5897 4.425808923884734 13.739732528101259 19.61819373753758 2 5 2
491 1 1 0.5897 1.0048237550016599 16.86211614275539 20.73066711613022 1 3 2
189 1 1 0.5897 4.2947908724807 16.718186375585322 21.540747927629305 -3 4 0
636 1 1 0.5897 1.2286376966183838 16.392087203819212 16.529003458597558 -7 2 0
18 1 1 0.5897 3.794489971605145 14.764615556708476 21.67867915245217 -2 3 1
340 1 2 -1.1794 4.094205447865994 13.254427247105873 18.862719745125275 2 5 2
341 1 1 0.5897 4.447726285430821 13.719713250687763 18.10458490502964 2 5 2
635 1 1 0.5897 1.6891407926842814 16.879090325274362 17.886426011127412 -7 2 0
403 1 2 -1.1794 1.7441499645711123 12.266927698275083 16.58881245318542 8 -3 -1
589 1 2 -1.1794 3.1792903267277413 18.082879960444448 2.9179259184708393 3 5 2
531 1 1 0.5897 1.7474781522928944 21.759443390447338 4.016918340861638 -4 -2 -5
708 1 1 0.5897 4.655479411068018 21.023884713498447 1.9989420941535032 0 -3 -6
271 1 2 -1.1794 0.4393892257587817 17.652193072700666 2.8051027197416336 0 2 4
591 1 1 0.5897 2.2327813372068213 18.146874740980095 3.045427882815356 3 5 2
590 1 1 0.5897 3.454706455374042 18.97629519979206 2.7125487708091325 3 5 2
529 1 2 -1.1794 1.1553684952680747 21.870532486757366 4.760739613532849 -4 -2 -5
188 1 1 0.5897 3.685488879560097 17.76327847202156 1.0954080067854686 -3 4 1
207 1 1 0.5897 4.312426720343389 20.73679521802087 4.192317920753505 -5 4 -3
706 1 2 -1.1794 3.9116885520984717 20.601616722088902 2.4286965011753385 0 -3 -6
707 1 1 0.5897 3.142853221497914 20.963067209770976 1.9877236880359463 0 -3 -6
407 1 1 0.5897 3.604939902472118 17.335315720257192 4.546311631787007 -4 -2 3
31 1 2 -1.1794 1.4538203363374702 21.251128650893396 1.323290059050613 4 7 1
272 1 1 0.5897 0.3828656041621763 17.331896271762215 1.9048351870388787 0 2 4
33 1 1 0.5897 1.577378564996667 20.68268104435891 0.5631475548262039 4 7 1
205 1 2 -1.1794 4.374386123516609 20.893674315729726 5.134541228278707 -5 4 -3
406 1 2 -1.1794 3.746590948439472 17.108996677262233 5.465506036462147 -4 -2 3
530 1 1 0.5897 1.7349755210654467 21.980533941934308 5.514513122518206 -4 -2 -5
578 1 1 0.5897 2.2722688537919176 20.048528950382295 7.078633722080001 1 1 -2
577 1 2 -1.1794 3.148420575121934 19.74718904209766 7.319187963963409 1 1 -2
37 1 2 -1.1794 3.739653092701652 17.13314517185664 8.680009259608129 1 2 -2
579 1 1 0.5897 3.7240025173149736 20.12961368139377 6.656853196279568 1 1 -2
309 1 1 0.5897 4.251159759719441 18.429323241956503 10.737601163550188 -1 4 -1
399 1 1 0.5897 1.6057850917099115 19.17409596057732 10.24019289006526 6 3 -5
408 1 1 0.5897 3.3926589598319854 17.852775284291116 5.95307934020562 -4 -2 3
500 1 1 0.5897 4.185115220528266 21.85458664892581 9.818707189661113 -1 -1 -2
501 1 1 0.5897 4.105148296892783 20.850227028270986 8.688799859821126 -1 -1 -2
536 1 1 0.5897 0.9938777501140876 21.401167953400165 9.597098414648446 5 6 3
397 1 2 -1.1794 0.9410365999916521 19.588230350699785 9.689909263960008 6 3 -5
499 1 2 -1.1794 4.611789576460645 21.600118815840855 9.000539910642939 -1 -1 -2
670 1 2 -1.1794 0.353282660538941 19.269617613932 7.06383863822215 7 1 1
38 1 1 0.5897 3.473933273356787 18.00594183965696 8.390399738825407 1 2 -2
666 1 1 0.5897 0.5526866269659166 17.50703673192972 6.75718367470953 2 0 3
672 1 1 0.5897 0.492620260236316 19.434926169919795 7.996292956805824 7 1 1
343 1 2 -1.1794 2.737524909731717 19.699215756796505 14.234877936789625 0 0 -2
345 1 1 0.5897 2.2005562596594452 20.000411356468863 14.967791052328883 0 0 -2
585 1 1 0.5897 2.6269851967243594 18.91833107859257 12.365660826538841 2 -4 2
344 1 1 0.5897 3.4725986196065195 19.244969468327177 14.646670629303623 0 0 -2
158 1 1 0.5897 2.5637851592303034 21.450903248720344 13.90443136820584 1 1 -3
584 1 1 0.5897 2.556626082259703 17.5334059377207 11.758296211854343 2 -4 2
583 1 2 -1.1794 2.574826195723137 18.461816868672376 11.525971502477772 2 -4 2
249 1 1 0.5897 0.87237175293324 17.116007892439647 12.862727681057775 -1 1 -5
737 1 1 0.5897 4.437391353436188 17.504246065746777 18.818411145902928 0 -1 -1
622 1 2 -1.1794 1.0489073768534187 19.957186107911525 16.55574667062306 5 -1 1
623 1 1 0.5897 1.2844328395620512 19.046508208288095 16.73301238394042 5 -1 1
624 1 1 0.5897 1.1669205369183167 20.403190454824053 17.394412844008976 5 -1 1
187 1 2 -1.1794 4.174380241965458 17.663170224489903 21.63407736403657 -3 4 0
825 1 1 0.5897 2.6741603983796582 19.000350562321184 20.747564460460538 -1 4 3
823 1 2 -1.1794 2.0444058407250862 19.605866066642292 20.356385798703556 -1 4 3
824 1 1 0.5897 2.4918166027894024 19.95161567147562 19.584061886823335 -1 4 3
325 1 2 -1.1794 4.1427597116779005 19.4160800955365 18.60700575656493 2 -2 -1
327 1 1 0.5897 4.45677686780346 19.43505202038041 17.70298955154994 2 -2 -1
298 1 2 -1.1794 1.5856715296353872 22.098216303616024 18.368774566146257 -3 -2 0
634 1 2 -1.1794 1.2740136204470915 17.17584849046797 17.076606648114236 -7 2 0
784 1 2 -1.1794 5.7806505035151385 3.7576887297207837 1.2261466755832227 5 5 3
785 1 1 0.5897 6.276669333525086 4.209431639267768 1.9088702092707737 5 5 3
649 1 2 -1.1794 7.478756788988821 4.083521764521792 3.4430448458069205 2 -1 1
385 1 2 -1.1794 5.665372078954618 6.128229600091792 4.243325376936635 -2 1 1
643 1 2 -1.1794 5.304952506966066 2.8681175607560805 5.056997515411681 3 -2 0
651 1 1 0.5897 8.36992150627263 4.410375509121135 3.3197174285180746 2 -1 1
645 1 1 0.5897 5.880818633285382 3.2067213911266963 4.371477141402426 3 -2 0
650 1 1 0.5897 6.95317662179075 4.869653116359218 3.591300116281109 2 -1 1
713 1 1 0.5897 6.006462849744603 2.1075360461710777 1.2437613761286261 -5 -1 3
251 1 1 0.5897 8.559939482882708 3.121062168402327 4.951778703269512 5 -3 2
387 1 1 0.5897 4.9647706476480105 5.8998455303456465 4.854232495176803 -2 1 1
786 1 1 0.5897 4.963522503319052 4.251345563878585 1.156707463991494 5 5 3
816 1 1 0.5897 8.623872304029819 1.7464639833319684 2.2937468291353125 -4 8 -3
386 1 1 0.5897 6.404640113510976 6.364669037039186 4.803499616437271 -2 1 1
250 1 2 -1.1794 8.938255131068114 2.6832525075068547 5.714288428100843 5 -3 2
138 1 1 0.5897 8.29997417669692 4.299795746235267 8.654716704514767 6 -6 0
511 1 2 -1.1794 5.071087644033412 3.376656587624165 7.953710979765262 0 1 -3
201 1 1 0.5897 6.7031589976728005 4.909725588062322 10.333812423437926 4 -2 -1
200 1 1 0.5897 6.363033245048522 3.816914562881071 9.342896817889176 4 -2 -1
512 1 1 0.5897 4.915877210932889 2.467291547489514 8.209017965712249 0 1 -3
199 1 2 -1.1794 7.074244951663947 4.145506604622826 9.892812770661267 4 -2 -1
513 1 1 0.5897 5.223625818334038 3.338144624328134 7.009542849593145 0 1 -3
137 1 1 0.5897 8.539859006157673 3.672070471759844 7.298144930178986 6 -6 0
516 1 1 0.5897 8.24325768046547 5.917964024727501 6.8367996803451545 -5 -4 -2
97 1 2 -1.1794 5.573410592832929 6.27974253627465 10.40578172145406 4 -7 6
136 1 2 -1.1794 8.811174501941668 4.403943685265646 7.8521984906190205 6 -6 0
514 1 2 -1.1794 7.9539588484141 6.531326740680966 6.161302994512664 -5 -4 -2
99 1 1 0.5897 5.659458608157754 6.488390751919759 9.475571521816635 4 -7 6
252 1 1 0.5897 8.38889152492961 1.9102606621412634 5.844287363525632 5 -3 2
47 1 1 0.5897 5.667274855342192 4.560650079685142 14.343817984467787 2 -1 0
46 1 2 -1.1794 5.679455056976484 4.465293116476797 13.391467414520305 2 -1 0
8 1 1 0.5897 7.209846746800922 3.4557565191583968 16.02479792235219 3 0 0
437 1 1 0.5897 8.3894675721828 6.116772438012731 12.437624378902088 -2 3 1
436 1 2 -1.1794 8.140369739140905 5.385482410990026 13.002764736222689 -2 3 1
7 1 2 -1.1794 7.927638363838665 2.9972396085282385 15.588049598759982 3 0 0
486 1 1 0.5897 6.862578901528225 3.09214196747547 12.801448860073432 -1 3 -1
48 1 1 0.5897 6.479423948088813 4.91274297390042 13.115687197334896 2 -1 0
484 1 2 -1.1794 7.031817400932474 2.4754770584560135 12.089194587837994 -1 3 -1
9 1 1 0.5897 8.522775447586795 2.7528535493613426 16.296781411772386 3 0 0
740 1 1 0.5897 7.820482439234859 6.338092954377248 16.180535773114414 0 2 3
485 1 1 0.5897 7.173395738199945 3.0289285732039 11.321170549892418 -1 3 -1
186 1 1 0.5897 5.234604787353719 2.5869936069464563 11.595298212851143 1 5 4
438 1 1 0.5897 8.86174689132081 4.761779017917376 12.920121318417213 -2 3 1
725 1 1 0.5897 6.679972635986413 1.6045835339263907 15.31872264522976 0 -4 3
517 1 2 -1.1794 5.496519406467201 4.570091744974151 16.36669726467979 -1 -2 -4
519 1 1 0.5897 5.1675405893255375 5.4687176458115285 16.34511898428323 -1 -2 -4
790 1 2 -1.1794 7.564976807773942 4.111763896976248 20.198087998594914 3 4 -1
236 1 1 0.5897 6.295861061256317 5.271036532397302 19.752419172927652 -1 -2 -4
791 1 1 0.5897 7.129629625183794 3.9394109638114525 21.032944950567952 3 4 -1
477 1 1 0.5897 8.746802504439538 2.681792304213367 20.193059985070768 5 -1 -2
792 1 1 0.5897 8.235566894031702 4.762111552976936 20.40689195818282 3 4 -1
237 1 1 0.5897 5.34971767707162 6.15382437219079 20.538144726685573 -1 -2 -4
235 1 2 -1.1794 5.452761866735905 5.720084804742392 19.691113947700252 -1 -2 -4
739 1 2 -1.1794 7.919741310746089 6.011433264172253 17.074780135486947 0 2 3
741 1 1 0.5897 7.16684814503839 5.4347952554923475 17.204572149953634 0 2 3
799 1 2 -1.1794 7.746802895041864 6.766287352737241 1.5370701715246529 -2 -1 2
473 1 1 0.5897 8.229170687967436 9.65468357022028 2.4994903009008276 2 0 0
845 1 1 0.5897 8.325157079352518 11.536868376028968 0.8716758975662612 0 0 4
801 1 1 0.5897 7.970994919073771 7.565551512247524 2.0136585356874237 -2 -1 2
844 1 2 -1.1794 7.934821283446393 10.673294741711985 1.0061458885645944 0 0 4
474 1 1 0.5897 7.71542046804284 9.096205860025691 3.809447337753124 2 0 0
6 1 1 0.5897 6.268521198244358 10.606275520845143 4.4286285464356965 2 0 0
4 1 2 -1.1794 6.35959466725524 9.706558129507775 4.742485908866371 2 0 0
800 1 1 0.5897 7.011721052319293 7.018325398191201 0.9781940250804996 -2 -1 2
420 1 1 0.5897 8.957244344587451 11.646164275578986 4.519636773107733 -7 -3 6
168 1 1 0.5897 5.235635566852251 8.975076781364713 3.5237231442563406 -2 0 3
167 1 1 0.5897 4.878853536988412 7.5542713592564805 3.1417884979387223 -2 0 3
472 1 2 -1.1794 8.406811197597445 8.982447254088244 3.1573319730492533 2 0 0
5 1 1 0.5897 6.734309694897881 9.794887730368998 5.618837707192217 2 0 0
166 1 2 -1.1794 4.81294664705756 8.459267210186173 2.8370724800726004 -2 0 3
266 1 1 0.5897 5.325791596085913 8.12951422499647 1.1264258789882844 -2 -1 0
152 1 1 0.5897 9.017455051503413 10.815582832015172 9.75191705864926 2 -1 1
151 1 2 -1.1794 8.554383576752016 11.650790534742667 9.81685674247798 2 -1 2
465 1 1 0.5897 6.008087444061749 8.771948536427411 7.674072227891603 6 2 -2
170 1 1 0.5897 8.903045733263367 10.854028494689777 6.289000427057965 -4 4 -1
520 1 2 -1.1794 7.30766452064719 10.837068262301251 7.3247211868041635 -2 -1 -3
463 1 2 -1.1794 6.149598921279818 7.844897141495772 7.86579427207763 6 2 -2
521 1 1 0.5897 6.562473559112969 11.384085482823657 7.076393536631042 -2 -1 -3
515 1 1 0.5897 8.563556762161927 7.266312728449331 6.227548113501461 -5 -4 -2
522 1 1 0.5897 7.6294433996764 11.224923266928089 8.138497803082142 -2 -1 -3
464 1 1 0.5897 6.889983698504796 7.595738042431826 7.312663287536035 6 2 -2
242 1 1 0.5897 5.373302467499376 10.293552766435834 9.687598148831146 0 -3 2
241 1 2 -1.1794 5.605230641850279 10.622227360042347 10.556161623504146 0 -3 2
243 1 1 0.5897 6.13502987029003 11.400733058026875 10.384559873672359 0 -3 2
3 1 1 0.5897 8.990269630170344 11.80334473883613 15.849017957736315 1 -7 3
483 1 1 0.5897 6.360039360190716 9.156420116275644 15.896785262181801 1 3 -1
147 1 1 0.5897 8.40110864816702 11.07238825181711 11.554445984261795 -1 1 -4
481 1 2 -1.1794 5.898227481413879 9.949878110018357 16.167720423440286 1 3 -1
313 1 2 -1.1794 7.404106496374996 7.755486337302071 14.998544938476394 -2 -1 0
175 1 2 -1.1794 5.981909739374753 8.187989633880818 12.373874680208461 -3 -2 6
314 1 1 0.5897 8.331339901301607 7.924143214944345 14.831204115094836 -2 -1 0
176 1 1 0.5897 5.947277259844977 7.657429796341193 11.577939977549182 -3 -2 6
315 1 1 0.5897 7.017523687402396 7.655667824656932 14.128606248655936 -2 -1 0
482 1 1 0.5897 5.961608034599234 10.534221979913312 15.412248862541126 1 3 -1
177 1 1 0.5897 6.042825160146191 9.089776299549476 12.058716473137318 -3 -2 6
146 1 1 0.5897 8.009718778290122 10.955084573089248 13.012148211132526 -1 1 -4
145 1 2 -1.1794 8.6462034716726 10.637984076199016 12.37141227465411 -1 1 -4
203 1 1 0.5897 8.508824469188566 11.558454990780048 19.026508844050788 -6 3 3
443 1 1 0.5897 7.950084301187941 7.5506848630193355 18.021055317278893 5 3 -2
827 1 1 0.5897 6.478115019628882 10.783295042213057 17.788638700105253 2 2 1
442 1 2 -1.1794 7.873174065409079 8.412692775127049 18.430009996687787 5 3 -2
74 1 1 0.5897 6.098585915131641 10.675082361328837 19.968385303101712 1 0 1
281 1 1 0.5897 5.977593609830069 8.398476538622866 18.621464268002093 -1 -1 1
73 1 2 -1.1794 5.765682141035116 10.41185935538814 20.826342890912777 1 0 1
444 1 1 0.5897 8.47001903006193 8.969578607604692 17.930139037896872 5 3 -2
75 1 1 0.5897 6.533400558282458 10.430628786561414 21.397726367291163 1 0 1
280 1 2 -1.1794 5.045116806578249 8.224132824164577 18.493718919741 -1 -1 1
282 1 1 0.5897 4.8729008188280885 7.442723116657398 19.01904074278496 -1 -1 1
265 1 2 -1.1794 5.478546612445317 7.804656296714648 21.594600042665896 -2 -1 -1
267 1 1 0.5897 5.6300417535472524 8.59294698983744 21.07320138848707 -2 -1 -1
826 1 2 -1.1794 6.846966690332489 11.328464652138196 18.48358315132495 2 2 1
596 1 1 0.5897 9.041525428668931 8.518134548662067 19.96445013782187 2 -4 2
846 1 1 0.5897 8.41500370820568 10.097583768078836 21.766505801272643 0 0 3
193 1 2 -1.1794 6.886754574758285 15.451187227305232 3.4354971182806353 3 -5 0
788 1 1 0.5897 7.183767014015783 14.311620773700717 1.836306218039744 4 -2 6
111 1 1 0.5897 5.648296252002607 12.446854215617341 3.676974567903164 -1 -2 -7
194 1 1 0.5897 6.803130269103641 16.171469493177987 2.81066148767198 3 -5 0
109 1 2 -1.1794 6.164788990955689 11.84346536859996 3.1427670619567167 -1 -2 -7
195 1 1 0.5897 6.0600486079257 14.974082077769573 3.363803885320202 3 -5 0
418 1 2 -1.1794 8.814213322598683 12.368525094737388 3.9081280293870084 -7 -3 6
110 1 1 0.5897 6.29563224663046 12.307065869968007 2.315616211498761 -1 -2 -7
419 1 1 0.5897 7.922705293500183 12.236880893898842 3.585497351985709 -7 -3 6
787 1 2 -1.1794 7.032080204101891 13.661968439320617 1.1498847389272338 4 -2 6
710 1 1 0.5897 6.495592791060483 15.369076370987214 5.4853340956266745 -5 -4 -2
275 1 1 0.5897 8.2680963444245 14.81501128797867 4.951932261217038 -2 2 -3
789 1 1 0.5897 7.666786715507558 13.880985215678198 0.4676877626869521 4 -2 6
274 1 2 -1.1794 9.091374730421268 15.229273241536402 5.210397121374417 -2 2 -3
354 1 1 0.5897 9.001495596456648 16.795855862340126 4.3998439655961015 4 2 -1
219 1 1 0.5897 6.023243032777765 14.958603247302245 9.222005385046819 4 -2 -1
711 1 1 0.5897 6.165824985803826 15.081773081733719 6.934695370229511 -5 -4 -2
357 1 1 0.5897 8.029709216543068 15.785834439091962 8.307523152997536 0 -1 4
775 1 2 -1.1794 5.287206129647797 12.19296781063698 6.118593914702601 3 -3 0
217 1 2 -1.1794 6.157205488705537 15.725175464832514 8.664641539314621 4 -2 -1
835 1 2 -1.1794 5.582820542063966 13.607236583017304 10.757909285608962 0 -1 -1
355 1 2 -1.1794 8.919239300496217 15.729677895614133 7.958511046134109 0 -1 4
218 1 1 0.5897 5.3218334142952335 16.19158773502837 8.693201493441318 4 -2 -1
356 1 1 0.5897 8.80246642755247 15.471547688423534 7.044197465587236 0 -1 4
709 1 2 -1.1794 6.430406747216293 14.655207694763885 6.119652140032633 -5 -4 -2
777 1 1 0.5897 5.673746676912547 13.06845324041993 6.100262183895697 3 -3 0
854 1 1 0.5897 6.943784936639699 12.570467075203997 14.73416282317146 -4 0 1
617 1 1 0.5897 7.964875250231462 15.833528593030362 11.289702029611753 -2 1 0
616 1 2 -1.1794 7.945952645526406 14.990928443372017 11.743446742323531 -2 1 0
618 1 1 0.5897 7.6819276329124495 15.205953189926078 12.638045137052337 -2 1 0
855 1 1 0.5897 5.504879590374376 12.28823051943231 14.357707510368963 -4 0 1
332 1 1 0.5897 6.374338861105075 15.038714891083997 14.98852491741388 -1 -2 -4
1 1 2 -1.1794 8.875547308312054 12.749067597813166 15.75594314734856 1 -7 3
294 1 1 0.5897 5.668067645320349 16.51868332330163 13.597966221847432 -1 1 1
333 1 1 0.5897 7.72738165016427 15.64388664186948 14.680522073741512 -1 -2 -4
331 1 2 -1.1794 6.958087883516208 15.257416028126594 14.262153260057373 -1 -2 -4
853 1 2 -1.1794 6.389270425318342 11.928179605727777 14.291234689523245 -4 0 1
837 1 1 0.5897 4.890341724351079 13.737297212304354 11.405806235895593 0 -1 -1
836 1 1 0.5897 6.396125342444973 13.698027720040173 11.254407982449575 0 -1 -1
782 1 1 0.5897 7.435043258515361 13.376666248519951 16.516575134922597 -2 -1 0
738 1 1 0.5897 5.552852379626623 16.500299277904638 19.017608168371922 0 -1 -1