LAMMPS data file via write_data, version 30 Jul 2021, timestep = 31250000

972 atoms
2 atom types
648 bonds
1 bond types
324 angles
1 angle types

0.21479936129546395 19.78520163870676 xlo xhi
-0.033287994810002886 20.033288994822087 ylo yhi
0.1390976813998197 20.560900318601313 zlo zhi

Masses

1 1.008
2 15.999

Pair Coeffs # lj/cut/tip4p/long/omp

1 0 0
2 0.21084 3.1668

Bond Coeffs # harmonic/omp

1 450 0.9572

Angle Coeffs # harmonic/omp

1 55 104.52

Atoms # full

33 11 1 0.5897 1.851363015411596 2.2871392051973745 1.1316738103044064 0 0 0
11 4 1 0.5897 1.6870296920421544 3.1408136718805415 3.0895594874926404 0 0 0
32 11 1 0.5897 0.4275384015895456 1.8573250891726942 1.4147506808373815 0 0 0
12 4 1 0.5897 2.5636940510487998 3.8702746643494845 4.085089132430978 0 0 0
16 6 2 -1.1794 4.55459460756495 3.915484782354624 3.6060485628053147 0 0 0
10 4 2 -1.1794 1.662077381874256 3.8152223284342344 3.768259976057814 0 0 0
17 6 1 0.5897 4.455112181734148 4.382639255181545 2.7766549628039847 0 0 0
4 2 2 -1.1794 4.699000034555433 1.09658516107281 3.3494437188159463 0 0 0
67 23 2 -1.1794 7.570462109207241 2.191390112329825 2.110021167663338 0 0 0
48 16 1 0.5897 7.797224555392664 4.364414653481752 4.844563746093121 0 0 0
18 6 1 0.5897 4.663109756741213 2.9986207391776056 3.35359718211797 0 0 0
69 23 1 0.5897 6.729787039096021 2.4540647348757365 1.7351173181742128 0 0 0
34 12 2 -1.1794 5.447509500207112 2.523115870333315 0.3229042328968854 0 0 0
47 16 1 0.5897 7.789891439007724 3.5666489117955966 3.558111492199979 0 0 0
6 2 1 0.5897 5.348878346997686 0.8417760458222194 4.004365444960515 0 0 0
22 8 2 -1.1794 2.460090472414098 0.939762868182024 4.973556449775532 0 0 0
31 11 2 -1.1794 1.2905147973767652 1.933348067306214 1.8219232194956514 0 0 0
5 2 1 0.5897 4.6894585166654155 0.3705943029384316 2.725807221415998 0 0 0
46 16 2 -1.1794 8.308060706092348 4.202438816779363 4.051513639688697 0 0 0
24 8 1 0.5897 3.2538380378918226 1.0330381612529766 4.446751756848293 0 0 0
68 23 1 0.5897 8.215945457994847 2.435548786038535 1.4467539085972327 0 0 0
41 14 1 0.5897 9.576541098036204 1.121966288370363 3.7394095808507615 0 0 0
236 79 1 0.5897 1.4803497619384696 0.13277990599959594 2.1534068626028424 0 1 0
273 91 1 0.5897 7.591006187537888 0.33509759212125895 1.7969493940762897 0 1 0
81 27 1 0.5897 0.4707018295026211 4.118635860631056 4.999921091426914 1 0 0
325 109 2 -1.1794 2.6772589181160313 2.7923045335898453 6.858857210447527 0 0 0
326 109 1 0.5897 2.439071554022084 2.2015849209688536 6.144471375479122 0 0 0
327 109 1 0.5897 3.5809148313456123 2.559229660527214 7.071915964809999 0 0 0
356 119 1 0.5897 2.0321781465064 2.3202492904663288 8.424264190473714 0 0 0
355 119 2 -1.1794 1.3652421724892192 2.1247952707742366 9.082393503300436 0 0 0
393 131 1 0.5897 7.677814622464063 1.1853601793862816 9.530466506469637 0 0 0
362 121 1 0.5897 9.100506855567213 3.6094636959062094 6.553063862182332 0 0 0
392 131 1 0.5897 7.913121963813793 2.227648171974812 8.458172008599911 0 0 0
341 114 1 0.5897 4.430438340321477 3.196108050128971 9.998778602631065 0 0 0
361 121 2 -1.1794 9.119059953840551 2.8429410388509915 7.1259530739993675 0 0 0
8 3 1 0.5897 6.200910244538955 3.8342020438289284 6.651409133198338 0 0 0
560 187 1 0.5897 1.6264287085403824 0.023006548519540142 9.242218987924346 0 1 0
391 131 2 -1.1794 7.450825323057694 2.081811287673324 9.283474268165346 0 0 0
59 20 1 0.5897 8.590456951080883 1.718615727918211 5.849121852099628 0 0 0
358 120 2 -1.1794 5.51650972363407 2.339968789797062 7.34105454182994 0 0 0
360 120 1 0.5897 5.538475328353113 1.479190738256661 6.923079632382403 0 0 0
27 9 1 0.5897 2.954747607121201 4.644816464475572 6.482191799065754 0 0 0
359 120 1 0.5897 6.060049468835925 2.2411166091724337 8.122653910859738 0 0 0
23 8 1 0.5897 2.581373732930326 0.1164835530575985 5.446432919382944 0 0 0
342 114 1 0.5897 4.841986844608058 4.631365143412156 9.749213124689874 0 0 0
7 3 2 -1.1794 6.31225370879188 4.635771138651019 6.140334323215979 0 0 0
328 110 2 -1.1794 4.19017511860387 1.2010022732176702 10.058646115313262 0 0 0
335 112 1 0.5897 1.4128411312763673 3.6070699376305684 9.930755746465861 0 0 0
554 185 1 0.5897 4.74305356203746 -0.003777945206699631 8.835379797257998 0 1 0
29 10 1 0.5897 6.920894672161922 0.4251776690028072 5.508892723770211 0 0 0
9 3 1 0.5897 5.739294296668074 4.5187217025640445 5.382631102942227 0 0 0
60 20 1 0.5897 8.893516734188935 0.23818564806817094 5.758559145211818 0 0 0
357 119 1 0.5897 0.5333252948217989 2.2558111405843957 8.627540044496028 0 0 0
28 10 2 -1.1794 6.012907195494208 0.12231941826438683 5.522152817257123 0 0 0
58 20 2 -1.1794 8.487711051504359 0.9586274206401509 5.27644105793195 0 0 0
649 217 2 -1.1794 2.698562022277592 2.671171428060949 13.725799202440538 0 0 0
650 217 1 0.5897 2.5207941414076047 1.9806105530136322 13.087343563262893 0 0 0
386 129 1 0.5897 8.866153280627588 4.322399701496216 13.485661011094557 0 0 0
651 217 1 0.5897 2.0722317368965566 2.512129504053714 14.431868873534459 0 0 0
347 116 1 0.5897 1.5152479760666209 0.526231856613225 11.814115241814124 0 0 0
332 111 1 0.5897 5.38790029821207 4.389958333931107 11.852469510847849 0 0 0
346 116 2 -1.1794 2.458530519854832 0.6132886338658751 11.951815384369644 0 0 0
683 228 1 0.5897 4.557791038710018 2.598141964567136 14.61131147690638 0 0 0
331 111 2 -1.1794 5.980888619129392 4.669638860854586 12.549822396351578 0 0 0
382 128 2 -1.1794 8.701657356902714 0.45606552871614353 11.836297747627519 0 0 0
384 128 1 0.5897 9.389732848114456 0.3785481436367362 11.175463348161733 0 0 0
685 229 2 -1.1794 9.133488694548554 2.537591712897939 13.628061065564967 0 0 0
682 228 2 -1.1794 5.491258962003704 2.7650927963579135 14.480602253016956 0 0 0
686 229 1 0.5897 8.595273707705404 2.432133635802765 14.412474557767766 0 0 0
354 118 1 0.5897 5.96386003125161 1.713758945580266 12.685603393307062 0 0 0
684 228 1 0.5897 5.520052905656352 3.504042367989405 13.872972305424721 0 0 0
353 118 1 0.5897 6.955158602465621 0.8707953131619497 11.912105801822477 0 0 0
352 118 2 -1.1794 6.022034074533366 0.9515047868430582 12.109781562982883 0 0 0
405 135 1 0.5897 0.33991706775790276 4.2716881086690695 11.90423971374671 1 0 0
371 124 1 0.5897 7.8766610093358596 3.533097913602739 10.381488335375638 0 0 0
383 128 1 0.5897 8.856294733278313 1.3076383463536543 12.244933460086433 0 0 0
336 112 1 0.5897 2.546923728632815 4.291280554769391 10.66399156539472 0 0 0
329 110 1 0.5897 3.35994103082929 0.99269656793463 10.487137319061809 0 0 0
372 124 1 0.5897 7.297188523902791 4.360622613124297 11.508861301601309 0 0 0
340 114 2 -1.1794 4.482874523482936 4.053008922230696 10.421970859028757 0 0 0
351 117 1 0.5897 2.6880298383851873 4.539006534348905 13.294133835826226 0 0 0
370 124 2 -1.1794 8.093027908818424 4.238452934084371 10.991201726986615 0 0 0
377 126 1 0.5897 9.905824492833046 3.880349817251309 11.04228735797958 0 0 0
330 110 1 0.5897 4.853639409084553 1.0402765453721434 10.729575545894475 0 0 0
334 112 2 -1.1794 1.650236450690631 4.429593323191462 10.35880609966701 0 0 0
671 224 1 0.5897 2.383540531153799 1.6888537791178915 19.071520636874595 0 0 0
653 218 1 0.5897 3.67161398640278 0.941347127684609 17.548757622239805 0 0 0
652 218 2 -1.1794 4.483009478155599 1.2572178098311342 17.151148322156942 0 0 0
664 222 2 -1.1794 3.906582428390417 4.090114250165574 16.80810126630979 0 0 0
670 224 2 -1.1794 2.2301583396063656 0.8272369613267626 18.68393428003489 0 0 0
665 222 1 0.5897 2.9552208788576992 4.159961929864792 16.888022559698086 0 0 0
677 226 1 0.5897 5.807059084013681 0.6976873637731583 18.245712206354227 0 0 0
658 220 2 -1.1794 1.3066747861896568 4.006797446091871 17.047429405766202 0 0 0
716 239 1 0.5897 7.471035493796934 1.158194609059169 16.118342012163488 0 0 0
659 220 1 0.5897 0.78079717043699 4.136254483671421 17.836616305025842 0 0 0
37 13 2 -1.1794 9.181388455113527 2.778348042075608 20.455906967205507 0 0 -1
681 227 1 0.5897 0.9354783956587492 2.2951225690162373 16.369504179905043 0 0 0
38 13 1 0.5897 9.131115072455879 2.067361302263635 19.81711158259258 0 0 -1
657 219 1 0.5897 6.441194071098291 4.412136244571323 18.527514521411682 0 0 0
666 222 1 0.5897 4.087665154002865 3.155357507868615 16.906068846122388 0 0 0
694 232 2 -1.1794 7.938136497494531 4.377155737819461 17.72462751453358 0 0 0
1 1 2 -1.1794 2.8496521008729876 3.032750598797946 20.201767965246567 0 0 -1
706 236 2 -1.1794 9.03074906465533 0.6788665189625739 18.642612024501815 0 0 0
695 232 1 0.5897 7.792086573121867 3.499997139972445 17.370528446202513 0 0 0
711 237 1 0.5897 9.347298494734785 4.808006765846354 19.90901467670566 0 0 0
654 218 1 0.5897 4.574303826996476 0.7414802563772723 16.350061637314916 0 0 0
656 219 1 0.5897 4.984663441174967 4.6694984297492175 18.204371044330983 0 0 0
708 236 1 0.5897 8.083621477399552 0.5676464586243997 18.725760771545204 0 0 0
660 220 1 0.5897 1.016917341014207 4.696427440131139 16.450288641439755 0 0 0
702 234 1 0.5897 9.681007015423702 4.329022446093199 17.458563165969217 0 0 0
715 239 2 -1.1794 7.400036099396436 2.1122661225520627 16.089105843176753 0 0 0
672 224 1 0.5897 1.2878211228197602 0.6866702728703206 18.776589057091734 0 0 0
676 226 2 -1.1794 6.2966284427091574 0.5320512143463134 19.051321934746838 0 0 0
2 1 1 0.5897 2.694390778893574 3.964607794988733 20.04785822843288 0 0 -1
655 219 2 -1.1794 5.608900963386491 4.6604020179291465 18.92990960327957 0 0 0
35 12 1 0.5897 5.76330991434875 1.8280301673139396 20.167435523773243 0 0 -1
679 227 2 -1.1794 1.0270500857517186 1.6207085810619075 15.696553074748353 0 0 0
36 12 1 0.5897 5.6219212596744494 3.3321448459642453 20.263912565394854 0 0 -1
717 239 1 0.5897 6.6426387779836595 2.2794783530444884 15.528191222840329 0 0 0
696 232 1 0.5897 7.665640813037847 4.9678540295239 17.022547857498374 0 0 0
3 1 1 0.5897 3.7903040396807226 2.9703798291755223 20.367914565151672 0 0 -1
139 47 2 -1.1794 0.8438443310829995 8.988659137541482 2.3716309903826014 0 0 0
140 47 1 0.5897 1.0321263273409838 9.549426783321127 3.1240681021503818 0 0 0
710 237 1 0.5897 8.875163271235373 5.945246370477067 0.36775864760780597 0 0 1
20 7 1 0.5897 1.3252033967978714 5.384668219475344 2.99723870241679 0 0 0
111 37 1 0.5897 1.9144506559118555 9.506856356934671 1.1037460870564786 0 0 0
142 48 2 -1.1794 5.296384776913432 9.017447233254755 0.48018306934432176 0 0 0
141 47 1 0.5897 1.2485785236875386 8.149371528584007 2.5905952059405455 0 0 0
113 38 1 0.5897 3.8465479046283275 7.388966108903293 3.7700767674503224 0 0 0
145 49 2 -1.1794 9.314120011114602 9.467617790815654 0.3416233182167535 0 0 0
126 42 1 0.5897 4.891310064791111 9.353575467170126 3.367775936625266 0 0 0
13 5 2 -1.1794 4.941212810319654 5.400745676230903 1.343744708930966 0 0 0
19 7 2 -1.1794 1.2188243200306648 6.136796128325576 2.414922940971994 0 0 0
112 38 2 -1.1794 4.688866470818305 7.376474300344257 3.3155295591405767 0 0 0
55 19 2 -1.1794 7.691479964284793 5.993232340982837 1.8275733807344812 0 0 0
175 59 2 -1.1794 7.592006634757844 9.033127707470863 2.3755886801579984 0 0 0
114 38 1 0.5897 5.339921517432937 7.35571334849859 4.016868355606679 0 0 0
56 19 1 0.5897 6.842690393527152 5.615347619705078 1.5972079049905064 0 0 0
15 5 1 0.5897 4.767373916820603 6.167313400503104 1.8898578878545316 0 0 0
144 48 1 0.5897 6.018222738535406 8.923719938176367 1.1017498747982473 0 0 0
176 59 1 0.5897 7.827860976946126 8.14802736135329 2.6532956067238387 0 0 0
674 225 1 0.5897 1.9516061511340035 5.949315979158693 0.5974445459395326 0 0 1
177 59 1 0.5897 8.257428788298355 9.2668538333975 1.7284830490249634 0 0 0
21 7 1 0.5897 0.330859513054638 6.048391404289771 2.0684955092143236 0 0 0
14 5 1 0.5897 4.19414505188424 5.356968414609639 0.7469155676465149 0 0 0
57 19 1 0.5897 7.994081599904553 5.469357443399635 2.5692422630731273 0 0 0
109 37 2 -1.1794 2.4163812867579257 9.626874132694603 0.29766274720824804 0 0 0
130 44 2 -1.1794 2.332221800214989 7.603951309011161 4.803137644956126 0 0 0
110 37 1 0.5897 3.301766585015201 9.33970732353952 0.5211081211142887 0 0 0
132 44 1 0.5897 1.394118904718685 7.4535153292009415 4.920081240668258 0 0 0
166 56 2 -1.1794 8.991990488603678 7.57785003493116 4.97342712076337 0 0 0
138 46 1 0.5897 7.106125774001056 7.339409148168189 5.085268229584998 0 0 0
131 44 1 0.5897 2.7504027491441105 6.858063664339926 5.2331779681775945 0 0 0
338 113 1 0.5897 5.7374317413566915 5.916357661668503 8.105318127968435 0 0 0
344 115 1 0.5897 1.4339402528705252 5.763849588853489 9.21236365671607 0 0 0
168 56 1 0.5897 8.85530893086366 8.380486021971425 5.476629705660343 0 0 0
26 9 1 0.5897 2.326805879923681 5.884547504856351 7.082599673249667 0 0 0
339 113 1 0.5897 4.274756776602439 5.737055422674072 7.7580501585272295 0 0 0
468 156 1 0.5897 4.373242075679548 9.1348825864271 7.221677353356019 0 0 0
433 145 2 -1.1794 2.63490293545343 9.414011587061484 6.970130021740012 0 0 0
381 127 1 0.5897 7.911246124582312 5.625278100858356 9.555587373058646 0 0 0
464 155 1 0.5897 1.34468933585689 8.929852556013762 8.07318415899438 0 0 0
435 145 1 0.5897 2.499574490012027 9.033908464554806 6.102225355394878 0 0 0
500 167 1 0.5897 7.551609667035599 9.461532707916563 9.802539402388325 0 0 0
437 146 1 0.5897 4.111014525484695 7.625101894160284 9.300027622691676 0 0 0
463 155 2 -1.1794 0.7609515878990055 8.901549651867679 8.831202858072857 0 0 0
466 156 2 -1.1794 5.319498443029029 9.168166485359672 7.362427744721628 0 0 0
379 127 2 -1.1794 7.667085661542079 5.913475228664499 8.676230097497994 0 0 0
467 156 1 0.5897 5.66361038030274 8.432821797137176 6.855474842991902 0 0 0
61 21 2 -1.1794 9.572985305018543 5.582043667857044 6.743633260301091 0 0 0
469 157 2 -1.1794 8.718996048786497 9.504387809990035 6.95296206229991 0 0 0
25 9 2 -1.1794 3.00546140383771 5.600556796939742 6.470247267112905 0 0 0
470 157 1 0.5897 8.310153290821507 9.337084473064678 7.802050608923642 0 0 0
343 115 2 -1.1794 1.3046011596745322 6.302334631237674 8.431746224040685 0 0 0
501 167 1 0.5897 6.5590100525378325 8.90593882672384 8.803648143058764 0 0 0
337 113 2 -1.1794 4.86034190574467 5.937622454135294 8.488126049303752 0 0 0
62 21 1 0.5897 8.825609478509753 5.595316415672345 7.341504121138009 0 0 0
380 127 1 0.5897 7.599530631973155 6.865694997897134 8.74577833553707 0 0 0
499 167 2 -1.1794 7.376765453890495 8.696321931910926 9.254843411553404 0 0 0
345 115 1 0.5897 0.9213683195084964 7.115051669700839 8.761535121803623 0 0 0
436 146 2 -1.1794 4.125608094204603 8.08722125578752 10.138001308969745 0 0 0
438 146 1 0.5897 4.051530995734861 9.012200821848175 9.903343994978082 0 0 0
471 157 1 0.5897 9.658222410111831 9.518523154778494 7.1373408184289735 0 0 0
167 56 1 0.5897 9.289007842435261 6.9371489473045544 5.619478964621572 0 0 0
137 46 1 0.5897 6.232150998964376 6.484876240387384 5.978345474150788 0 0 0
136 46 2 -1.1794 6.234859214022361 7.30199348795213 5.47994597334073 0 0 0
350 117 1 0.5897 3.4262751430977016 5.817245117738527 13.630109296604097 0 0 0
492 164 1 0.5897 7.825813401792534 7.506680941635908 11.537784722490024 0 0 0
792 264 1 0.5897 4.681758088077614 9.242382903737948 14.406824502531935 0 0 0
793 265 2 -1.1794 9.468871954978962 9.137450422294872 13.844764481988783 0 0 0
758 253 1 0.5897 2.7246343566277393 8.933131518167501 12.899828730029927 0 0 0
333 111 1 0.5897 5.893551233572666 5.622558499610387 12.571270560065479 0 0 0
757 253 2 -1.1794 2.6377459401787777 9.41606494951631 13.721585328727107 0 0 0
454 152 2 -1.1794 1.9231534500570788 7.605254455434948 11.662697689050228 0 0 0
456 152 1 0.5897 2.138508808436991 6.833442107420137 12.18612311694222 0 0 0
455 152 1 0.5897 2.647435381113742 7.683812734284967 11.041850795147614 0 0 0
791 264 1 0.5897 6.095028601945333 8.8774981263197 14.808887095915063 0 0 0
490 164 2 -1.1794 8.748522621426783 7.32861848066933 11.720101159408763 0 0 0
661 221 2 -1.1794 4.547317511670386 6.178584944598186 15.03727422138376 0 0 0
387 129 1 0.5897 8.77486730335174 5.695515295890623 12.854922773856252 0 0 0
385 129 2 -1.1794 9.006281901085535 5.251040233418578 13.670374079014472 0 0 0
794 265 1 0.5897 9.198310543956982 8.470325421300348 13.214010706341156 0 0 0
789 263 1 0.5897 1.5476016875261582 8.987891160087266 15.109384296420114 0 0 0
668 223 1 0.5897 1.3083875435060486 5.7460955430814264 14.471318032479179 0 0 0
462 154 1 0.5897 5.334202452398017 7.663276704809228 11.406055443868004 0 0 0
790 264 2 -1.1794 5.568676437210509 9.152260793169866 14.05815675878504 0 0 0
461 154 1 0.5897 5.611883382881853 7.956047930686379 12.865031680322899 0 0 0
460 154 2 -1.1794 5.855280578766692 7.365939545667187 12.151849452239393 0 0 0
491 164 1 0.5897 9.208880409631698 7.61663309618502 10.93194778715113 0 0 0
349 117 2 -1.1794 2.6868297035489705 5.480889742464373 13.123857250392021 0 0 0
704 235 1 0.5897 6.525381705255126 6.2639642401429345 15.194985560669268 0 0 0
705 235 1 0.5897 7.98535158862334 5.922207999416253 14.985587341901603 0 0 0
824 275 1 0.5897 8.007994667088376 9.104513501731967 14.958327983199503 0 0 0
667 223 2 -1.1794 0.7143271567947623 5.9038394354806645 15.205052425469118 0 0 0
795 265 1 0.5897 9.114752688534109 9.955353189158473 13.49577025099845 0 0 0
709 237 2 -1.1794 9.543707548640036 5.714697617984566 20.14451365022594 0 0 0
814 272 2 -1.1794 8.829794652671797 7.804848981953838 18.426939930492843 0 0 0
673 225 2 -1.1794 2.522228249590991 5.622490001183965 20.323735444882097 0 0 0
825 275 1 0.5897 7.762483757195115 7.837421114652797 15.749333264495295 0 0 0
761 254 1 0.5897 4.024199304214346 9.245419688295826 16.788399522155913 0 0 0
780 260 1 0.5897 2.516427804260889 8.355384558321678 19.095902115996033 0 0 0
779 260 1 0.5897 3.2005085618416875 7.782700883179223 17.872929810227618 0 0 0
778 260 2 -1.1794 2.4875564126092145 7.6155511802364355 18.48934806708798 0 0 0
788 263 1 0.5897 1.1471081549174045 8.998308123097605 16.569161557917646 0 0 0
760 254 2 -1.1794 4.411667609390015 8.372047253607972 16.731662058355965 0 0 0
784 262 2 -1.1794 6.081551839330539 7.3767216547924885 18.8496304714945 0 0 0
787 263 2 -1.1794 0.9736909560575486 8.552918816769393 15.739934775622338 0 0 0
786 262 1 0.5897 6.976396744115718 7.356819069968938 18.510262663045623 0 0 0
703 235 2 -1.1794 7.367736835023579 6.230988764862691 15.648448606331971 0 0 0
762 254 1 0.5897 5.071109379865223 8.356466146502221 17.42523789148504 0 0 0
816 272 1 0.5897 9.057641288476827 8.485934000045198 19.059625827359888 0 0 0
675 225 1 0.5897 2.636422001127227 6.369376530171265 19.736239535538637 0 0 0
815 272 1 0.5897 8.889039580466731 6.9878559657545765 18.922014208272003 0 0 0
785 262 1 0.5897 5.934421949084352 6.4944292509589605 19.190257296696892 0 0 0
143 48 1 0.5897 5.425014740346811 8.305098952563931 20.275829731407484 0 0 -1
662 221 1 0.5897 4.228737052929891 5.497534914090371 15.62954846135611 0 0 0
823 275 2 -1.1794 7.6471284858689215 8.786877316359176 15.785931854797429 0 0 0
858 286 1 0.5897 0.7558758468249688 7.483061667453232 18.58695807165551 1 0 0
804 268 1 0.5897 7.617614563588819 9.964142105684285 17.14393199936081 0 0 0
669 223 1 0.5897 0.9275662086842943 6.788918569801756 15.50039509016537 0 0 0
663 221 1 0.5897 4.541634616769134 6.977246623311147 15.564726495211604 0 0 0
129 43 1 0.5897 1.1083808275727334 13.898442769459017 2.4411965509822577 0 0 0
240 80 1 0.5897 2.4966286636802466 14.449719753756044 4.5868950691482375 0 0 0
122 41 1 0.5897 4.203357976692011 12.357245174619317 0.9588781920646228 0 0 0
119 40 1 0.5897 2.844694674999597 10.761570364609376 4.174421896783078 0 0 0
783 261 1 0.5897 2.131334461589316 12.686817706063694 0.9965908156372988 0 0 1
120 40 1 0.5897 1.9329241004124074 11.82709618368332 3.6041988003999106 0 0 0
154 52 2 -1.1794 8.311057296133178 11.367835709592066 3.8137426671025563 0 0 0
155 52 1 0.5897 8.026753827953065 10.580180762067451 3.350158091779537 0 0 0
124 42 2 -1.1794 4.664385168409464 10.258407857952891 3.5821045580280106 0 0 0
285 95 1 0.5897 7.323054663013886 14.856931330576744 2.3632204792610185 0 0 0
123 41 1 0.5897 4.818227622500882 11.553814813351524 2.084942205703448 0 0 0
222 74 1 0.5897 4.074004690649319 13.909385442061994 2.495072214158566 0 0 0
245 82 1 0.5897 4.750546793723279 13.891291167401349 4.626769057276689 0 0 0
220 74 2 -1.1794 3.7607009142899743 14.315069192021488 3.303337057849808 0 0 0
118 40 2 -1.1794 1.931827627336151 11.049424931350448 4.162172398142855 0 0 0
819 273 1 0.5897 8.553410691605142 12.223651760403696 0.2714693886801201 0 0 1
156 52 1 0.5897 9.237109780023543 11.214663720787346 4.001648348461369 0 0 0
127 43 2 -1.1794 1.1430552190110133 12.94251382022881 2.407406080326584 0 0 0
164 55 1 0.5897 7.997914060861314 12.384086142821392 2.5423503892917716 0 0 0
165 55 1 0.5897 6.738686801079352 12.86861864765066 1.85568044921394 0 0 0
163 55 2 -1.1794 7.660839013196174 13.08831393147007 1.9886938269251604 0 0 0
121 41 2 -1.1794 4.962646388748423 12.32799860386532 1.5409905342143686 0 0 0
125 42 1 0.5897 5.215074293412278 10.471908755382511 4.335277806462123 0 0 0
275 92 1 0.5897 8.711492100509322 14.15263753605911 4.569874531061295 0 0 0
781 261 2 -1.1794 2.6912084741266153 12.422477873635453 0.26665935988440437 0 0 1
128 43 1 0.5897 0.24957343132329546 12.67756566938337 2.188741096150582 0 0 0
246 82 1 0.5897 5.711208136700396 12.841666681253786 5.1436492218717085 0 0 0
244 82 2 -1.1794 5.490751686394011 13.769824093117272 5.221365614531558 0 0 0
276 92 1 0.5897 7.257543082256981 14.184586159214666 4.990781838679603 0 0 0
782 261 1 0.5897 2.541919922424923 11.4811885437289 0.17834846555827255 0 0 1
133 45 2 -1.1794 2.718972004383371 12.108098170897463 6.831600107654753 0 0 0
134 45 1 0.5897 1.9517184353099206 12.222869289275375 7.392310278127816 0 0 0
135 45 1 0.5897 3.4388660558684645 12.49905693709785 7.326709304944186 0 0 0
445 149 2 -1.1794 4.6987656810268374 12.825985444506825 8.5120994439592 0 0 0
480 160 1 0.5897 7.564827651076725 11.901531842311568 9.961247882098633 0 0 0
238 80 2 -1.1794 1.87019344451848 14.323700998932635 5.299548337663922 0 0 0
117 39 1 0.5897 5.858993490050215 10.395832137243152 6.321180282931837 0 0 0
434 145 1 0.5897 2.5904256548807805 10.35946244381352 6.827673691879051 0 0 0
446 149 1 0.5897 4.498601192407911 13.680038642910665 8.895043041777974 0 0 0
170 57 1 0.5897 9.169018065438612 11.32140747289074 6.699782046690321 0 0 0
447 149 1 0.5897 5.65046023132421 12.826238690067646 8.409025003504688 0 0 0
451 151 2 -1.1794 0.8093672900840471 12.590355743780702 8.698230964186763 0 0 0
450 150 1 0.5897 4.0828629222952815 11.489497215950554 9.71178041535688 0 0 0
115 39 2 -1.1794 6.22880441888862 10.977481197124721 5.657076976706573 0 0 0
239 80 1 0.5897 2.059902095672196 13.446993251890156 5.633504741410284 0 0 0
488 163 1 0.5897 7.972604308764135 12.87848850292782 7.813969183357388 0 0 0
487 163 2 -1.1794 7.430039164962801 12.986839927386255 8.594988493269074 0 0 0
489 163 1 0.5897 7.452927638002672 13.926722568183477 8.77456190198743 0 0 0
453 151 1 0.5897 0.8570184179472635 11.93955528538653 9.398426479515702 0 0 0
169 57 2 -1.1794 9.391623422506909 12.238544883912759 6.8593152899406755 0 0 0
171 57 1 0.5897 9.0133353859485 12.709900349116875 6.117144089923748 0 0 0
573 191 1 0.5897 0.5985767937731807 14.776218314824607 9.602983429456167 0 0 0
116 39 1 0.5897 7.062666618728692 10.571577322097856 5.419972088515751 0 0 0
575 192 1 0.5897 5.285294455902788 14.776312896351195 6.722416043310782 0 0 0
544 182 2 -1.1794 4.042917347946382 15.003269358163198 10.340340291792119 0 0 0
188 63 1 0.5897 0.6730820638125524 11.118545489363907 5.3791699288113435 1 0 0
443 148 1 0.5897 1.3867269855779951 10.110899400486263 10.007581640271413 0 0 0
274 92 2 -1.1794 8.13358963111336 14.446598517781617 5.273979754182217 0 0 0
457 153 2 -1.1794 2.738771395259341 11.969934419141534 13.248117443705885 0 0 0
458 153 1 0.5897 1.9816994154733243 12.081416855283829 13.823110181295421 0 0 0
459 153 1 0.5897 3.489824422423258 12.210560526510031 13.790575486712354 0 0 0
563 188 1 0.5897 2.0959320818569203 13.302479207914779 12.025505802369597 0 0 0
562 188 2 -1.1794 1.8544327301214913 14.184334686857436 11.742388494119862 0 0 0
478 160 2 -1.1794 7.603522069720255 11.086655480965506 10.46179220054723 0 0 0
545 182 1 0.5897 3.212137966636109 14.772142513308179 10.755877984641815 0 0 0
442 148 2 -1.1794 1.4300650597503637 10.716407783410205 10.747555119519333 0 0 0
599 200 1 0.5897 8.698868939559773 12.9907485252517 11.965674635331252 0 0 0
568 190 2 -1.1794 5.784481511927599 14.077037886947501 12.289579329418796 0 0 0
448 150 2 -1.1794 4.1032257661523595 10.81414338929375 10.389680418127124 0 0 0
449 150 1 0.5897 4.759572234719955 11.121490594293164 11.014904360495633 0 0 0
546 182 1 0.5897 4.703130443482514 14.523048984339084 10.840040475407775 0 0 0
564 188 1 0.5897 2.1085957137672233 14.748783505516657 12.472379707214657 0 0 0
769 257 2 -1.1794 4.587962806925417 12.687651538644705 15.287624262007647 0 0 0
479 160 1 0.5897 8.537847169224456 10.888448085651907 10.52579254541653 0 0 0
439 147 2 -1.1794 5.788257151504658 11.252209816754144 12.547732186988801 0 0 0
570 190 1 0.5897 6.565639301484338 14.269929986239484 11.771109939435458 0 0 0
494 165 1 0.5897 8.394509243938288 11.983283377565744 13.972527420503345 0 0 0
569 190 1 0.5897 5.8778043824255 13.155346926122348 12.530231250231775 0 0 0
598 200 2 -1.1794 8.389122782092338 13.796782809655284 11.552800621324325 0 0 0
440 147 1 0.5897 6.462335442588708 11.100530914201913 11.885320876807572 0 0 0
493 165 2 -1.1794 9.092718460532861 11.76943478321854 13.353678584251076 0 0 0
444 148 1 0.5897 2.3534810296633193 10.721405045360866 10.999776773867618 0 0 0
759 253 1 0.5897 2.605872617801559 10.335491654492255 13.457441333256922 0 0 0
441 147 1 0.5897 5.806002508815714 10.46551622995406 13.09260543762849 0 0 0
770 257 1 0.5897 5.53572179760339 12.605501711072126 15.181099773008993 0 0 0
495 165 1 0.5897 9.89654972794782 12.046459859321331 13.793436929004526 0 0 0
600 200 1 0.5897 8.750940142145344 14.498174901605362 12.094332179078576 0 0 0
581 194 1 0.5897 9.929513329602242 14.10122411707721 10.440366762689512 0 0 0
768 256 1 0.5897 1.1877892259321876 11.421720309150118 16.895022791162795 0 0 0
812 271 1 0.5897 7.362422478732392 13.492767351316285 15.844400368412403 0 0 0
813 271 1 0.5897 7.56230469158563 12.091507064228718 16.381231952804534 0 0 0
766 256 2 -1.1794 1.3426605742648832 10.650220352060561 17.439908963868035 0 0 0
764 255 1 0.5897 5.444788934785976 10.900156029889807 19.823268805650464 0 0 0
923 308 1 0.5897 9.026941218554779 14.787542974287472 18.949605290670533 0 0 0
773 258 1 0.5897 3.0139397485800363 11.061233077722113 17.415722663421676 0 0 0
767 256 1 0.5897 0.75748192114136 10.764009766962895 18.188736110285518 0 0 0
763 255 2 -1.1794 5.760007232037307 11.55585464367287 19.201332126334457 0 0 0
887 296 1 0.5897 2.542234054240018 13.6509749138187 19.3540434292441 0 0 0
774 258 1 0.5897 4.182501736927194 11.493455334550765 16.55587567829454 0 0 0
924 308 1 0.5897 9.37673717181355 14.062629358128282 17.667563872156883 0 0 0
772 258 2 -1.1794 3.970650625311318 11.063840466777458 17.384469445507342 0 0 0
811 271 2 -1.1794 7.329014791032671 12.571553374351364 15.586743487227965 0 0 0
893 298 1 0.5897 6.9842275904286355 14.334348868764584 18.8117437435088 0 0 0
892 298 2 -1.1794 6.082070520299627 14.292820532289547 19.129032681942547 0 0 0
803 268 1 0.5897 7.121958290512447 10.865322622659903 18.25468698737066 0 0 0
802 268 2 -1.1794 7.844886429430891 10.752008905759984 17.637637984234665 0 0 0
818 273 1 0.5897 9.104579820684192 12.60217280923513 19.335189060127938 0 0 0
966 322 1 0.5897 0.450859016081125 14.67042453725488 18.74126437866942 1 0 0
869 290 1 0.5897 3.5903046958241065 14.947012836986485 17.660568546230635 0 0 0
894 298 1 0.5897 5.948024234171836 13.371581123208466 19.351406825601615 0 0 0
886 296 2 -1.1794 2.319119913130776 14.344994840837769 18.733862597966493 0 0 0
775 259 2 -1.1794 0.92047514331202 12.465388777003367 15.496937749331618 0 0 0
922 308 2 -1.1794 8.71409143846199 14.104093799108067 18.35702700797173 0 0 0
817 273 2 -1.1794 9.19851823981138 11.958859121161591 20.037599433176517 0 0 0
765 255 1 0.5897 5.194064128655574 11.452517082211209 18.436368730201593 0 0 0
870 290 1 0.5897 5.087580476543526 14.74819120914696 17.76422010043637 0 0 0
146 49 1 0.5897 9.243174563428077 10.33733661073621 20.37012088101463 0 0 -1
771 257 1 0.5897 4.458878017614947 13.580675319771395 15.606977355192914 0 0 0
810 270 1 0.5897 9.84953990314888 10.918875297595054 17.359401269961026 0 0 0
777 259 1 0.5897 1.1249596148126804 13.266754726590827 15.97873421226466 0 0 0
251 84 1 0.5897 5.352416423328197 14.971242687790175 20.53975107772114 0 0 -1
247 83 2 -1.1794 0.724256696563142 15.646923206512742 2.48638979966941 0 0 0
226 76 2 -1.1794 1.4979938367609151 17.456900079268266 4.331501889956606 0 0 0
232 78 2 -1.1794 4.019079895768909 17.008882682435768 3.611405878587216 0 0 0
271 91 2 -1.1794 7.5060246244809035 19.490963587243865 1.5149844796833887 0 0 0
233 78 1 0.5897 3.1301642109681045 17.17142071657729 3.927205083193772 0 0 0
228 76 1 0.5897 0.8064115883838875 17.715195590831087 4.940764651476765 0 0 0
234 78 1 0.5897 4.2129241773620265 17.755844182078654 3.0451974282858063 0 0 0
249 83 1 0.5897 0.9610867020962187 16.20328136705391 3.2283187803307016 0 0 0
890 297 1 0.5897 2.2714485676568987 18.94960758862545 0.7250572779442854 0 0 1
227 76 1 0.5897 1.451991636877252 18.10420600178817 3.62797079658216 0 0 0
263 88 1 0.5897 7.4390658855884055 17.653403063618008 4.664879825194306 0 0 0
927 309 1 0.5897 8.712373468527801 18.890535666201362 0.25231691283456803 0 0 1
284 95 1 0.5897 7.419207707387067 16.26724210750414 2.904899964106421 0 0 0
235 79 2 -1.1794 1.2230611826893156 19.27783447399212 2.1807080908815997 0 0 0
250 84 2 -1.1794 4.901919324969253 15.39940720679869 0.8458543439087699 0 0 0
254 85 1 0.5897 8.409536266168303 15.48531335800233 0.630166334445823 0 0 0
283 95 2 -1.1794 7.205628828466987 15.773390765142455 2.1133368940339263 0 0 0