LAMMPS data file via write_data, version 30 Jul 2021, timestep = 25750000

864 atoms
2 atom types
576 bonds
1 bond types
288 angles
1 angle types

0.688115604351367 17.519456795653294 xlo xhi
1.902040559301863 21.727137240699907 ylo yhi
0.8394994300640288 21.373696369923067 zlo zhi

Masses

1 1.00794
2 15.9994

Pair Coeffs # lj/cut/tip4p/long/omp

1 0 0
2 0.21084 3.1668

Bond Coeffs # harmonic/omp

1 450 0.9572

Angle Coeffs # harmonic/omp

1 55 104.52

Atoms # full

796 1 2 -1.1794 3.7070061385509514 5.9179930267622565 3.1004207234412093 -4 -2 -2
798 1 1 0.5897 4.5399884880784604 6.273189878406066 3.410823722992068 -4 -2 -2
587 1 1 0.5897 2.3519567250581233 3.6247110757612733 4.251419425897786 -2 -4 6
797 1 1 0.5897 3.6507099938505907 5.051329462740611 3.503032724393516 -4 -2 -2
588 1 1 0.5897 3.719412918269928 3.093405824633156 4.6256109266929855 -2 -4 6
93 1 1 0.5897 3.4241853609596973 5.455511145563877 1.354056085430793 -4 -4 2
586 1 2 -1.1794 3.227864899801452 3.4720722469130845 3.8966521171091606 -2 -4 6
83 1 1 0.5897 0.7248735438264664 4.524112530465716 5.390048128874957 5 -10 -4
659 1 1 0.5897 2.5693218851299893 2.164881742043876 2.9257875361121815 2 -2 3
42 1 1 0.5897 4.013778240439744 2.899681547610561 8.815575571078945 -5 1 -1
649 1 2 -1.1794 2.279749230623044 3.5753644395295145 10.783986367878496 6 -2 0
765 1 1 0.5897 1.3760110522087108 5.719070854799881 7.307429419706519 -13 -2 -2
66 1 1 0.5897 3.083760637359784 6.668690519818542 8.778765161138008 3 -2 -7
745 1 2 -1.1794 2.682832739628669 3.113250773488227 7.886848380966234 5 4 -8
746 1 1 0.5897 2.5492600798696072 2.6188483991892646 7.078089642144165 5 4 -8
650 1 1 0.5897 3.097576715048097 3.47449755354123 10.296798054004093 6 -2 0
651 1 1 0.5897 1.9790277104639686 4.458132508168416 10.567987170510577 6 -2 0
64 1 2 -1.1794 2.246579743353347 6.208159058732164 8.837324785659465 3 -2 -7
747 1 1 0.5897 2.972590465150656 3.9775801652149614 7.594700175680728 5 4 -8
544 1 2 -1.1794 4.40581627345915 5.202318475626184 6.7692266416562425 -6 6 2
40 1 2 -1.1794 4.659598754854682 2.8375722945704003 9.519440621436445 -5 1 -1
763 1 2 -1.1794 1.098602100557629 5.911120431084043 6.411583174516188 -13 -2 -2
546 1 1 0.5897 4.038558701367705 5.867321281886404 6.18676937029666 -6 6 2
251 1 1 0.5897 1.1224602395319017 3.1058067808939622 8.504828623917874 2 -3 5
65 1 1 0.5897 1.7180073577597126 6.74521660241467 9.427754260043223 3 -2 -7
764 1 1 0.5897 1.7479973059948652 6.53553396453583 6.087878494984302 -13 -2 -2
523 1 2 -1.1794 2.703585179118604 6.254332530747514 12.347108312213761 4 0 5
236 1 1 0.5897 1.794658805663711 4.303165030015933 16.2143692064134 -6 -8 1
235 1 2 -1.1794 1.7533650490847785 4.716851417816883 15.352078110347216 -6 -8 1
525 1 1 0.5897 3.418341251198942 5.657000641551332 12.126464532207802 4 0 5
642 1 1 0.5897 2.4989013059392446 3.7760242189297157 13.967174469627077 3 -1 -4
640 1 2 -1.1794 2.870136498873876 3.0926417056715882 13.409017951713835 3 -1 -4
237 1 1 0.5897 1.8332969843283944 5.6538182499855605 15.531315636949154 -6 -8 1
641 1 1 0.5897 2.645528025598285 3.3619500953303567 12.518287181885643 3 -1 -4
107 1 1 0.5897 1.064928305631537 5.731868194391957 12.535216549666982 1 1 4
807 1 1 0.5897 3.8676088783408225 2.2449480978806835 16.234554328672807 -4 1 -4
805 1 2 -1.1794 4.75887536099912 2.4006280724450937 15.9218634092534 -4 1 -4
524 1 1 0.5897 2.9888850304884054 6.6820851792118825 13.15457959151581 4 0 5
600 1 1 0.5897 4.2981991306497225 5.430198270833486 17.610757929407626 -2 -5 -9
598 1 2 -1.1794 4.85978550896954 6.018600484121747 17.105998147990782 -2 -5 -9
322 1 2 -1.1794 0.9925191456095019 4.800660799340127 18.529314174660087 10 -2 0
748 1 2 -1.1794 2.02261691618071 2.1974090507452986 16.762918064626486 -3 3 2
323 1 1 0.5897 1.9064525087218975 4.5374101561025935 18.63788885848328 10 -2 0
567 1 1 0.5897 3.685275313373171 4.368174458819357 19.502481897571023 0 10 -12
565 1 2 -1.1794 3.6251728107228605 4.111879941962711 18.582105097336864 0 10 -12
566 1 1 0.5897 4.062136580074583 3.26115325394742 18.540828438453765 0 10 -12
750 1 1 0.5897 1.8840030723257302 2.2444428687463898 17.70893601010971 -3 3 2
324 1 1 0.5897 1.0376414006660672 5.64473257537982 18.0799929736585 10 -2 0
696 1 1 0.5897 1.1090739540518164 2.2984840282780263 20.137665217590843 2 -1 -6
91 1 2 -1.1794 3.047439625319354 5.39383949796919 21.010400287625757 -4 -4 1
92 1 1 0.5897 2.1117887722407835 5.549768191016278 21.139279869991206 -4 -4 1
853 1 2 -1.1794 4.427471885080716 2.190533569504021 21.032532469643698 -2 2 -1
605 1 1 0.5897 3.206060361513844 6.81301640514005 19.762125207452605 -2 1 3
694 1 2 -1.1794 1.7572243366486664 1.9683292071690095 19.515337949538484 2 -1 -6
854 1 1 0.5897 3.7557268263675896 2.256146290045212 20.353681503922274 -2 2 -1
811 1 2 -1.1794 4.343562331017647 9.85619042142545 5.4647395555004445 -8 2 -2
515 1 1 0.5897 2.9740222193358576 8.284754720533403 2.459267223757471 -8 -5 -1
514 1 2 -1.1794 2.121797079102728 8.537061531516514 2.814830752122682 -8 -5 -1
156 1 1 0.5897 3.1201363783055514 6.939424482280489 4.462613191349444 5 0 -2
774 1 1 0.5897 3.2297437026943343 11.31049497583135 4.388802945440614 0 -9 1
284 1 1 0.5897 1.1828481460937814 7.162650691277443 1.8780256144585314 7 -2 1
772 1 2 -1.1794 2.62998186718013 11.281955361210505 3.6432566644459663 0 -9 1
154 1 2 -1.1794 3.2113692780639496 7.214955720148074 5.374831523452473 5 0 -2
155 1 1 0.5897 3.5400136095311057 8.112557817065522 5.322728304084375 5 0 -2
516 1 1 0.5897 2.1719146869695884 9.488699866851317 2.9058587388177703 -8 -5 -1
684 1 1 0.5897 0.8165685255946638 9.000749198709917 5.784090986540365 12 2 -6
683 1 1 0.5897 0.9767164535852813 8.83916922782744 4.287270692873349 12 2 -6
307 1 2 -1.1794 4.489847820590812 8.473440942476111 1.4962055561176102 4 11 -2
309 1 1 0.5897 4.145312203028538 9.120830231756358 0.8809329772917257 4 11 -2
308 1 1 0.5897 4.775567621283184 8.988070179856361 2.2511205753212415 4 11 -2
773 1 1 0.5897 3.1372561712756966 11.637446036830504 2.9134068842385905 0 -9 1
603 1 1 0.5897 1.4305928855094976 8.479530750918833 10.941987564702409 4 3 -3
753 1 1 0.5897 3.2247196551959383 11.200528407407782 10.271791938329521 6 -2 4
380 1 1 0.5897 2.36722862223833 8.651757341140838 7.369481531698952 6 7 -1
618 1 1 0.5897 1.4553922737043925 10.956022951074866 7.015968403617836 5 0 -2
751 1 2 -1.1794 4.13608200589073 11.036050985918894 10.514199818759577 6 -2 4
381 1 1 0.5897 1.220228851230809 8.942596039349713 8.31397547795374 6 7 -1
601 1 2 -1.1794 0.9595956568249997 8.215003768796247 10.151700850573041 4 3 -3
379 1 2 -1.1794 1.5317000294852947 9.115581165633248 7.42547034457445 6 7 -1
182 1 1 0.5897 4.553207709219485 11.430536425355138 8.597745990795804 -3 2 0
726 1 1 0.5897 4.004093442029831 9.078240355622125 10.972360378627908 3 -8 3
121 1 2 -1.1794 4.62528331243719 7.90880564312584 8.410457238009084 1 0 1
812 1 1 0.5897 4.6665517618839 10.167399351657767 6.3104295381901885 -8 2 -2
616 1 2 -1.1794 0.9814959447065539 11.784246502017032 6.939443964277821 5 0 -2
752 1 1 0.5897 4.387639501874161 11.799410140641605 11.034201135957067 6 -2 4
388 1 2 -1.1794 1.8582048687995383 9.51711575448868 15.538838393394625 -4 8 6
459 1 1 0.5897 3.7344213019687236 9.904025342221507 13.1961505674799 2 2 -5
47 1 1 0.5897 4.292379283140035 8.400405122482839 14.378051129273814 7 -1 -2
390 1 1 0.5897 2.733483679405135 9.15790553483341 15.684576341961925 -4 8 6
485 1 1 0.5897 1.9658430141372847 10.301172017192275 12.625514873814986 3 -1 -5
484 1 2 -1.1794 2.2336616829522598 9.38450442521842 12.559386902440606 3 -1 -5
46 1 2 -1.1794 3.7730914196374226 7.648588605258832 14.663510674200836 7 -1 -2
486 1 1 0.5897 1.9609407734742441 8.994275354296978 13.389884326923355 3 -1 -5
457 1 2 -1.1794 4.4527463423455345 10.00367378936002 13.821011379697566 2 2 -5
725 1 1 0.5897 3.8121720012847433 7.745012475954775 11.66366574090173 3 -8 3
425 1 1 0.5897 4.59607602117473 10.928391753178301 15.337301329344017 3 -5 5
48 1 1 0.5897 4.286195556600544 7.257003938265548 15.370449990330131 7 -1 -2
724 1 2 -1.1794 4.43468857906423 8.237710067401224 11.128771789282757 3 -8 3
424 1 2 -1.1794 4.471862351806671 11.226450448102376 16.238473158484496 3 -5 5
389 1 1 0.5897 1.281902850637481 8.968334578759254 16.07090674682356 -4 8 5
480 1 1 0.5897 2.0926391481933933 7.285877660956458 17.850145444891268 -8 8 -4
692 1 1 0.5897 3.6822101458991647 11.124094746319505 20.875182271574246 0 2 0
253 1 2 -1.1794 4.870458887431669 8.950195157224066 17.685575994835027 2 9 -7
255 1 1 0.5897 4.199354042364604 8.517309784018765 18.213398910593554 2 9 -7
693 1 1 0.5897 2.8226075089333698 10.595028061556196 19.746732729921142 0 2 0
691 1 2 -1.1794 3.1548823794857164 10.368562655609992 20.615450670613114 0 2 0
474 1 1 0.5897 1.0295802276369779 10.408228147036395 18.137769488743373 -2 2 4
604 1 2 -1.1794 2.998267553236671 7.615970239479023 19.28415687139838 -2 1 3
606 1 1 0.5897 2.7394124437354908 8.23923484495396 19.963054668508356 -2 1 3
473 1 1 0.5897 2.0482225703098886 10.592818349485698 17.032980019574772 -2 2 4
478 1 2 -1.1794 1.4126263961558119 7.098290496578446 17.202991751082045 -8 8 -4
426 1 1 0.5897 4.688582681480722 10.464154191985465 16.775415490523713 3 -6 5
472 1 2 -1.1794 1.925988811549846 10.702689533573263 17.97603617949337 -2 2 4
609 1 1 0.5897 2.1293679371664123 15.370329671297693 4.309730756549328 4 4 5
607 1 2 -1.1794 1.1887689428763735 15.240723544520415 4.43156210645841 4 4 5
291 1 1 0.5897 4.158380959353072 13.157658901284549 1.0775200443118382 -7 -8 -8
662 1 1 0.5897 3.8566214077427037 14.482518415748622 4.362173181545128 -4 0 1
278 1 1 0.5897 1.4182013714864072 15.341686876741097 2.3555073324792684 2 4 1
279 1 1 0.5897 0.9237126552695605 14.837722733537316 1.0162059893689364 2 4 1
661 1 2 -1.1794 3.936511121176215 15.05864897897075 3.601853404840529 -4 0 1
277 1 2 -1.1794 1.185726546203854 15.636109246861034 1.4748015139957453 2 4 1
289 1 2 -1.1794 3.522113670108948 13.006501697997198 1.7765815133470002 -7 -8 -8
663 1 1 0.5897 4.102731376473323 14.466422770537527 2.8683489756881664 -4 0 1
290 1 1 0.5897 2.681098563842969 13.256670716419553 1.3938601383653593 -7 -8 -8
422 1 1 0.5897 1.1853950410110359 12.353918109028244 4.185185671758376 -6 -2 7
431 1 1 0.5897 4.734326192987758 12.931045171074434 5.524599884241644 -6 -1 -3
430 1 2 -1.1794 3.8672081416371435 13.322404060983434 5.631024126039614 -6 -1 -3
608 1 1 0.5897 1.1219965999998662 14.677464631245035 5.202711347563633 4 4 5
584 1 1 0.5897 1.6806256377246542 15.566443003650168 9.89795334685213 4 -6 5
670 1 2 -1.1794 1.5653508713451934 12.052054159805111 9.562396954285635 5 5 1
410 1 1 0.5897 4.553679543279271 14.38089938797031 8.608489885851098 11 5 -3
409 1 2 -1.1794 3.809332495488939 14.540192115469258 8.028000412706369 11 5 -3
671 1 1 0.5897 1.5112191692134544 11.884897710474037 8.621389463421089 5 5 1
617 1 1 0.5897 0.7266128476900049 11.83062452602823 6.017877387902111 5 0 -2
583 1 2 -1.1794 2.2174600765002808 14.803998472469141 10.114497234200323 4 -6 5
360 1 1 0.5897 4.067462750198361 16.075616820028188 7.351355424893242 11 0 0
432 1 1 0.5897 3.8462039941653257 13.61516557294578 6.5421878564214735 -6 -1 -3
411 1 1 0.5897 3.0663117038133296 14.66362825411767 8.618836863434197 11 5 -3
672 1 1 0.5897 1.7015036237939172 12.997116726637206 9.630842583358433 5 5 1
10 1 2 -1.1794 0.8050181484686689 15.665484252916581 7.480940759270232 5 7 7
99 1 1 0.5897 4.866152053458032 15.980530923891893 10.373047719889861 10 -12 4
585 1 1 0.5897 2.323719998052021 14.847371295731287 11.064868909432427 4 -6 5
128 1 1 0.5897 1.3229819893758716 12.7990945849333 12.636160547062014 -3 0 -2
365 1 1 0.5897 3.3703837459863433 15.709200500648134 13.373112101852325 2 6 2
7 1 2 -1.1794 2.3588304126156627 12.783185816595065 15.540457158348081 2 -2 1
9 1 1 0.5897 3.0741419099335743 12.160220517340614 15.669354490680616 2 -2 1
741 1 1 0.5897 3.561275309355089 14.195125538071093 15.222203643587036 3 -2 -4
8 1 1 0.5897 2.1247644513294768 12.692091135792646 14.616721813124288 2 -2 1
127 1 2 -1.1794 2.0457785295667095 12.235668740596697 12.912728319144973 -3 0 -2
129 1 1 0.5897 2.830071566611664 12.668114701528456 12.574725046996827 -3 0 -2
364 1 2 -1.1794 3.048940268062714 16.13205001910101 12.57672204634864 2 6 2
739 1 2 -1.1794 4.2303124716549485 14.784372287604755 14.873573806628846 3 -2 -4
103 1 2 -1.1794 4.57463640826205 13.257134830280712 12.206679800284029 -4 -2 7
366 1 1 0.5897 2.1879861473028863 16.474337723548068 12.817480707939287 2 6 2
740 1 1 0.5897 4.874058806859129 14.203417462601646 14.46803562337648 3 -2 -4
62 1 1 0.5897 4.549272497722521 12.573520317145137 17.329032442597494 2 -5 10
820 1 2 -1.1794 2.9701102673131596 15.500074543119021 17.760729171447267 3 -4 4
821 1 1 0.5897 2.924749040132108 15.724180792318998 18.69029159315319 3 -4 4
822 1 1 0.5897 3.6959844457813196 14.879051902691662 17.69870844874425 3 -4 4
648 1 1 0.5897 1.63628982029557 12.792860914048022 17.976187089534008 -7 3 0
647 1 1 0.5897 1.8977552358437126 14.283740683147617 18.01063345890583 -7 3 0
810 1 1 0.5897 2.5191584452352043 16.09547756221114 20.9684106825435 2 -1 -6
646 1 2 -1.1794 1.2823911793209455 13.61589955526024 18.31344677626376 -7 3 0
808 1 2 -1.1794 3.047055012648897 16.406760447267665 20.233022296079454 2 -1 -6
657 1 1 0.5897 1.1533065598803802 13.206944165738994 20.008214329229354 -3 -1 1
61 1 2 -1.1794 4.691014223187226 13.364059974210775 17.84991590821292 2 -5 10
655 1 2 -1.1794 1.0707327281753811 12.876515003099385 20.902854461140556 -4 -1 1
656 1 1 0.5897 0.8528543508903556 11.950337718251914 20.79747250449317 -4 -1 1
809 1 1 0.5897 3.8366501637204307 16.764722309601815 20.638937316523965 2 -1 -6
110 1 1 0.5897 1.4263554373018126 21.184156148189423 4.747975852324856 -1 2 -11
687 1 1 0.5897 3.6016006394287925 18.27699053401189 2.0636689057716833 11 -6 0
658 1 2 -1.1794 2.1424427848700427 21.165593304225567 2.6921620750513857 2 -3 3
111 1 1 0.5897 2.0752805201668254 20.126507681446668 5.615456955922475 -1 2 -11
686 1 1 0.5897 2.741726811119823 19.466740769427243 2.434323641507345 11 -6 0
685 1 2 -1.1794 2.772971714184546 18.511151966345682 2.4819116154823915 11 -6 0
569 1 1 0.5897 2.8112986644308133 18.2285516108118 4.322757781851088 5 -3 2
196 1 2 -1.1794 4.357841690747444 21.61236464738811 5.662343289765705 -3 -1 2
568 1 2 -1.1794 2.698279759435527 18.464328132104306 5.243646025261525 5 -3 2
539 1 1 0.5897 4.444014497778652 20.939632922662277 3.793911222091655 4 -4 3
540 1 1 0.5897 4.684869668265956 20.860118063270207 2.301283062343083 4 -4 3
109 1 2 -1.1794 1.4898566570243739 20.882899615743543 5.65439922841169 -1 2 -11
570 1 1 0.5897 3.30623933602948 17.893672113633535 5.713861156560872 5 -3 2
36 1 1 0.5897 1.0910108883994476 17.889014969215324 5.326050645200161 -4 2 3
660 1 1 0.5897 1.500919895892138 21.40831917433335 2.0243785890702517 2 -3 3
720 1 1 0.5897 1.2471619193680623 18.469152508509108 8.701594017701103 9 5 -5
495 1 1 0.5897 3.0863676240851277 17.661597622749042 10.090711212953133 -4 -2 0
198 1 1 0.5897 4.0896725275215555 21.023525401569227 6.367840395087316 -3 -1 2
719 1 1 0.5897 1.4053536478887505 16.982056568368066 8.465392476805693 9 5 -5
718 1 2 -1.1794 1.5266052795130163 17.660084875208767 9.130188383250562 9 5 -5
574 1 2 -1.1794 2.2952313955056862 20.487506759244162 10.862824087684617 4 -5 0
358 1 2 -1.1794 4.174671644938307 16.962493689116585 7.007360744113459 11 0 0
184 1 2 -1.1794 3.8664178806632656 19.791891216504208 7.797750686100837 -3 7 2
575 1 1 0.5897 2.312744210227625 21.4439569383734 10.82703595371395 4 -5 0
186 1 1 0.5897 3.2704167197408385 20.127856460466795 8.467317759806015 -3 7 2
493 1 2 -1.1794 3.89663752130178 17.5325175426296 10.583836474237781 -4 -2 0
185 1 1 0.5897 3.756198688485388 18.84165294956807 7.833318798010388 -3 7 2
359 1 1 0.5897 4.880638527348534 16.88714952680436 6.365233650527877 11 0 0
216 1 1 0.5897 2.726792420428646 21.07882654059125 13.594791451374274 -3 0 1
494 1 1 0.5897 3.6246963172283886 17.066605266344993 11.374620579005366 -4 -2 0
214 1 2 -1.1794 2.299840493623333 20.234069683713628 13.73791220779208 -3 0 1
262 1 2 -1.1794 4.362013106714663 18.57697823413263 14.755644006780866 -1 -1 8
576 1 1 0.5897 2.313524721944699 20.28194407633162 11.797583218990653 4 -5 0
215 1 1 0.5897 3.0189578116594333 19.630058323403553 13.923432137289689 -3 0 1
263 1 1 0.5897 3.721709560265478 18.19990317968902 15.359133053439665 -1 -1 8
264 1 1 0.5897 4.883794382235743 17.83010367997649 14.46188038755358 -1 -1 8
24 1 1 0.5897 0.9940372341973132 19.050889113174755 16.134761358392076 -5 -1 3
375 1 1 0.5897 2.896753366093051 18.414712933950316 17.305699680989633 9 11 4
81 1 1 0.5897 2.199166516164955 18.865548483903424 21.314474611284872 2 1 -3
304 1 2 -1.1794 3.8656251604575047 19.37804018042982 18.540097780425086 4 0 -4
80 1 1 0.5897 2.70167864709313 19.06545549111486 19.900338711613983 2 1 -3
373 1 2 -1.1794 2.518887888672329 17.91034430283887 16.58514208879476 9 11 4
306 1 1 0.5897 4.241450721610612 20.236729416812413 18.34563255238305 4 0 -4
79 1 2 -1.1794 1.9422112530960158 19.218639744469048 20.462576776584257 2 1 -3
695 1 1 0.5897 1.898946074320328 20.883436817399136 19.7765166055786 2 -2 -6
749 1 1 0.5897 1.6192711193704592 21.19445174209713 16.502126913149397 -3 2 2
383 1 1 0.5897 0.7274159455730482 17.843509032422098 19.62437120886203 -5 -2 -1
305 1 1 0.5897 4.592614246875904 18.766091221589623 18.424354573509675 4 0 -4
374 1 1 0.5897 2.700689577911489 16.99772433636184 16.80974824451861 9 11 4
341 1 1 0.5897 6.576782782482625 5.974872048025586 4.409963899416237 3 9 0
780 1 1 0.5897 7.193229776141452 3.404312995942926 5.351874305733279 -6 2 4
220 1 2 -1.1794 7.47910467263767 2.0136153242171626 2.760097346031425 -5 0 5
340 1 2 -1.1794 6.162400155782502 6.7989997783313845 4.154100161400284 3 9 0
386 1 1 0.5897 6.742251217802841 3.764585901855463 2.1666540778118826 -6 2 2
385 1 2 -1.1794 6.253014792768006 4.208613248514212 1.4739346840157095 -6 2 2
779 1 1 0.5897 7.304572999358901 4.845164524322779 5.803418001368698 -6 2 4
778 1 2 -1.1794 6.91593089185185 4.292158865421855 5.125505490866607 -6 2 4
711 1 1 0.5897 8.721147657721763 4.190535269030713 4.113566488233211 -6 -4 0
293 1 1 0.5897 6.183825211498773 5.956299079984728 1.1698737381929833 2 1 1
387 1 1 0.5897 5.542525721021137 3.604849496498486 1.2570430670450852 -6 2 2
795 1 1 0.5897 5.393435030845376 5.046511075131163 10.783575614532733 -3 0 5
697 1 2 -1.1794 8.321679068714241 5.872116892527487 6.893690170550469 4 -2 -10
864 1 1 0.5897 5.6623670420342425 4.3366534533328185 9.174169629742552 7 -6 4
119 1 1 0.5897 8.324701345401992 3.1781885631079785 9.682414427237171 5 -2 -7
862 1 2 -1.1794 5.835123616930492 5.272983484464143 9.074979905292917 7 -6 4
698 1 1 0.5897 8.815731491348657 5.159137172225977 7.298613506676934 4 -2 -10
287 1 1 0.5897 7.393135261091495 6.502766905769861 9.67404320215797 5 -3 6
118 1 2 -1.1794 7.785157790204143 2.984185464762873 10.448994600801194 5 -2 -7
863 1 1 0.5897 5.324247334084389 5.531351148381818 8.307764819671473 7 -6 4
41 1 1 0.5897 5.281639649999212 2.1758968116020196 9.216708433428709 -5 1 -1
120 1 1 0.5897 7.89314836991635 3.7466365155666534 11.017720454872176 5 -2 -7
699 1 1 0.5897 8.966822860018102 6.567148009964004 6.762966332289008 4 -2 -10
545 1 1 0.5897 4.934963258391648 4.6472310723484895 6.196273696801637 -6 6 2
159 1 1 0.5897 7.161244452415937 1.9791872959431132 9.189422753555544 3 3 0
73 1 2 -1.1794 7.750015360812096 2.580848156152175 14.03919620545783 -9 -2 0
5 1 1 0.5897 7.863170059271266 5.817164387371172 12.822645645051251 6 2 0
74 1 1 0.5897 7.606200852144903 2.890606402004795 14.933484720525547 -9 -2 0
445 1 2 -1.1794 5.297683903797198 4.814952831218438 14.623435497722237 0 -1 -2
6 1 1 0.5897 8.324482911851689 4.424275035057347 13.195935460204346 6 2 0
794 1 1 0.5897 5.5494809671975025 5.907075240814134 12.01942771756946 -3 0 5
471 1 1 0.5897 7.740471267489021 6.56792358986007 15.970536877632071 2 2 1
447 1 1 0.5897 5.000568644809804 3.9954031459740276 15.018963996405846 1 -1 -2
143 1 1 0.5897 5.231304353459337 2.307034568928404 12.121017574313099 1 6 3
75 1 1 0.5897 6.884776008575718 2.300998655954734 13.740108768516418 -9 -2 0
469 1 2 -1.1794 8.408614351623584 5.901864812583119 15.808290056438816 2 2 1
4 1 2 -1.1794 8.519051483855295 5.153871535184869 12.60754047463728 6 2 0
793 1 2 -1.1794 5.070250322175656 5.151789827563012 11.678479907501625 -3 0 5
446 1 1 0.5897 4.920039908535763 4.807697901546451 13.743826384879215 0 -1 -2
144 1 1 0.5897 4.927307020965671 2.1427671833976296 13.595071400341451 1 6 3
564 1 1 0.5897 5.508078128955397 2.3870671556981407 17.611951190223607 1 6 9
247 1 2 -1.1794 7.7629980616141525 3.4314537971402412 16.752462016549302 -7 3 -3
766 1 2 -1.1794 7.552494331993194 3.394220124640038 19.80090799492733 2 -2 3
248 1 1 0.5897 8.55252104504523 3.24010556855153 17.25883103251521 -7 3 -3
563 1 1 0.5897 6.3469413696924395 2.3654354322269837 18.87215180668153 1 6 9
249 1 1 0.5897 7.914627744719298 4.305451407056438 16.392589875084198 -7 3 -3
767 1 1 0.5897 7.501887390721297 4.209233406036115 19.301329285627666 2 -2 3
818 1 1 0.5897 6.812882905133393 6.262488485446408 19.612920131589853 4 -9 -4
768 1 1 0.5897 7.208584238680636 3.6206783112471577 20.66510082649078 2 -2 3
819 1 1 0.5897 6.270810278018063 5.930112571095844 18.23890785316425 4 -10 -4
27 1 1 0.5897 8.225983074994183 6.363354602331975 21.008202133982437 -4 5 7
817 1 2 -1.1794 7.0832008877501265 5.965281662735452 18.744032489898764 4 -9 -4
292 1 2 -1.1794 6.447574803332286 6.80746912012623 21.35433868418552 2 1 0
562 1 2 -1.1794 5.606558863976867 1.9314284719611117 18.448073464043013 1 6 9
470 1 1 0.5897 8.932246807664937 5.887022044430411 16.60951539840149 2 2 1
599 1 1 0.5897 5.209037460572565 5.471881139654722 16.402091664337853 -2 -5 -9
317 1 1 0.5897 8.882632650195756 11.06292593161743 3.8422310006214633 -4 -9 -1
295 1 2 -1.1794 7.894931226990634 8.413639262398139 2.767073223714254 1 1 -1
342 1 1 0.5897 6.816031262429693 7.237191171974932 3.609001506183166 3 9 0
201 1 1 0.5897 8.025053974916768 9.83104175960229 5.915650118379095 6 -3 -2
513 1 1 0.5897 6.581389538881251 9.852269374250444 3.127948354744468 0 2 -4
858 1 1 0.5897 8.624513658499104 10.528204862370167 1.4022410254623225 1 -2 -3
511 1 2 -1.1794 5.689117472460504 10.19205497429292 3.1970380480430554 0 2 -4
296 1 1 0.5897 8.577940745664641 7.922143178744936 3.22350365175651 1 1 -1
297 1 1 0.5897 7.684093867984551 7.877847139490308 2.0023140794423826 1 1 -1
771 1 1 0.5897 6.3722530617807065 7.601114877662749 5.8488963270859715 1 -5 1
512 1 1 0.5897 5.755237364226312 11.101246891352272 2.904657087124973 0 2 -4
199 1 2 -1.1794 8.380822644358936 10.498663520591508 5.329060155000132 6 -3 -2
813 1 1 0.5897 5.0985227212165745 9.923355429958612 4.880016536263934 -8 2 -2
837 1 1 0.5897 7.029530319094316 11.76699838752607 5.2808288121034765 4 7 2
294 1 1 0.5897 5.721546744378667 7.39199870358383 1.0382853951541762 2 1 1
770 1 1 0.5897 7.3094701424274655 7.386597129668709 7.018450628598276 1 -5 1
589 1 2 -1.1794 6.644350601388179 9.796304187565195 9.60489058435363 6 2 1
590 1 1 0.5897 6.515111454216119 10.175613171175359 10.474260764325377 6 2 1
816 1 1 0.5897 8.37029341410498 9.74555834819791 8.666429587868887 -9 8 2
591 1 1 0.5897 6.043667626389926 10.281921893025265 9.039425831293215 6 2 1
288 1 1 0.5897 7.516013378102557 8.010830361380425 9.620474235069098 5 -3 6
122 1 1 0.5897 5.395277179312636 7.957640667477621 7.843804250223916 1 0 1
181 1 2 -1.1794 4.991187505817972 11.370750117939833 7.7486457598443375 -4 2 0
286 1 2 -1.1794 8.007885814470725 7.21842428274982 9.836153678711888 5 -3 6
769 1 2 -1.1794 6.75551131798601 8.048035182722057 6.603724111978455 1 -5 1
123 1 1 0.5897 4.971584979746093 8.019418603417297 9.296014236362787 1 0 1
736 1 2 -1.1794 7.444291688546003 10.788782433492985 15.262713937149368 -4 -2 -1
572 1 1 0.5897 6.681817404341598 9.13248556891049 15.347168238658927 7 -1 -8
416 1 1 0.5897 7.167978534870548 11.530759856229075 11.984062518876655 -4 -1 -2
738 1 1 0.5897 7.770620550775707 10.811984538589156 16.162345742671235 -4 -2 -1
573 1 1 0.5897 6.472963876370523 7.821806455319029 14.618638905283186 7 -1 -8
417 1 1 0.5897 7.6669031686589175 10.153775501267772 12.367778237691878 -4 -1 -2
737 1 1 0.5897 8.227621029292973 10.883895513447372 14.72072744899384 -4 -2 -1
615 1 1 0.5897 5.655343781304017 7.665880668588381 12.197034222053942 -4 7 6
415 1 2 -1.1794 6.865274021154357 10.666236642512764 12.262177245125923 -4 -1 -2
614 1 1 0.5897 7.168554882717137 7.706965959431486 12.16929755734822 -4 7 5
571 1 2 -1.1794 6.438103362269161 8.217755525550619 15.489490028685266 7 -1 -8
613 1 2 -1.1794 6.43108296539223 7.228210106244432 12.54783861689521 -4 7 6
458 1 1 0.5897 5.226976879919714 10.145105318085209 13.27608600138224 2 2 -5
391 1 2 -1.1794 8.838379277464865 8.868117995946259 12.77629093459957 3 -2 -3
665 1 1 0.5897 8.19620535538887 7.84217026934017 17.93232143688642 10 -2 2
856 1 2 -1.1794 8.64139628056178 10.530907168206689 20.979313040705584 1 -2 -4
149 1 1 0.5897 5.695949236207564 10.854472813328638 19.841258099408208 -6 -1 3
328 1 2 -1.1794 8.134422385713204 10.865298104828737 17.926881876071725 2 6 -2
150 1 1 0.5897 5.900512728136116 9.635488122847288 18.966923136455605 -6 -1 3
148 1 2 -1.1794 6.26346052339048 10.092250737059528 19.72587803318809 -6 -1 3
329 1 1 0.5897 7.492462903788822 10.70111477265982 18.61775153448906 2 6 -2
254 1 1 0.5897 5.2575691151530615 8.246178256373922 17.16510792734028 2 9 -7
330 1 1 0.5897 8.675661516717382 10.075909714836937 17.909655209545186 2 6 -2
857 1 1 0.5897 7.811012061759385 10.129167609567677 20.723490966984585 1 -2 -4
664 1 2 -1.1794 9.023285220687521 8.31610973428295 17.84451427905507 10 -2 2
233 1 1 0.5897 6.821041215817724 15.563018795816538 2.450705532011045 6 1 1
836 1 1 0.5897 6.539309988579558 12.609289366311247 4.122152232292981 4 7 2
232 1 2 -1.1794 6.189793692138611 15.280460167177582 1.7888358706797984 6 1 1
213 1 1 0.5897 8.943187335760905 15.158756515581796 2.771534743631844 8 1 2
636 1 1 0.5897 7.583888738075327 12.453347703265704 2.564110082828208 -7 2 2
634 1 2 -1.1794 6.669822575022359 12.651501534482362 2.360192039702624 -7 2 2
211 1 2 -1.1794 8.537758786383776 15.548511605794834 3.5461958143558543 8 1 2
635 1 1 0.5897 6.7102258850461585 13.439462625995848 1.8181063078473911 -7 2 2
835 1 2 -1.1794 6.471520306091782 12.516417521380884 5.072514091412614 4 7 2
332 1 1 0.5897 5.306433101215933 15.943208387301997 4.430740177423516 3 -7 -2
331 1 2 -1.1794 5.829025729533168 16.47667544155098 5.029672738904589 3 -7 -2
212 1 1 0.5897 9.09216165622488 16.30056845491874 3.754550324041069 8 1 2
338 1 1 0.5897 6.807119506666277 15.446022790805339 5.952845045947143 5 5 0
234 1 1 0.5897 6.5827073819647435 15.541101349430491 0.9557327328201879 6 1 1
97 1 2 -1.1794 5.462804229435314 15.233067359092455 10.414044406638636 10 -12 4
704 1 1 0.5897 8.840014660548913 12.779416994488965 10.843164745807755 7 -6 2
302 1 1 0.5897 8.131463660884755 12.65595865333552 8.178127017151285 4 2 11
337 1 2 -1.1794 7.3459751261302335 14.90744623870134 6.5324597101001824 5 5 0
759 1 1 0.5897 7.893509729610839 16.327837257503425 8.732598138688655 0 2 0
301 1 2 -1.1794 7.2040365221840865 12.873216093065702 8.273227774959292 4 2 11
303 1 1 0.5897 7.095964325894604 13.685785047971065 7.77884125350637 4 2 11
705 1 1 0.5897 7.481338342345006 12.925248560502487 10.191272247650813 7 -6 2
98 1 1 0.5897 6.30512727307739 15.582080918558036 10.122404687533168 10 -12 4
757 1 2 -1.1794 7.938944919683075 16.062265155704495 9.651179188710927 0 2 0
183 1 1 0.5897 5.774685267010764 11.912413007328173 7.844065650878329 -4 2 0
703 1 2 -1.1794 7.902163630137335 12.741187241831968 11.031166296643235 7 -6 2
339 1 1 0.5897 7.469069499796108 14.088070577346844 6.0530429065969305 5 5 0
31 1 2 -1.1794 6.5310908923078275 13.342338834489782 14.087032286588407 1 12 -6
518 1 1 0.5897 8.037944299260895 16.35009063316832 15.7845093036136 -1 4 0
314 1 1 0.5897 6.864756353257565 16.5609337641705 12.4533349797903 -2 -1 -5
33 1 1 0.5897 7.303182740438464 13.684080614888554 13.635964751052827 1 12 -6
553 1 2 -1.1794 6.226630475872465 16.22134426996675 16.043555959228097 -6 -3 1
554 1 1 0.5897 5.475267256572921 15.80903284757769 15.617146814836344 -6 -3 1
353 1 1 0.5897 8.178022574095035 14.426577947542526 11.893367546390992 4 4 -2
352 1 2 -1.1794 8.333541658488757 14.935174787624906 12.68930291809564 4 4 -2
32 1 1 0.5897 6.822403145220302 12.513400282428229 14.466994125705842 1 12 -6
517 1 2 -1.1794 8.994386217196276 16.389728206553862 15.788554017068519 -1 4 0
105 1 1 0.5897 5.276716260184841 12.97129489440701 12.791274426871526 -4 -2 7
104 1 1 0.5897 5.022204789183275 13.742473788647587 11.513460503210345 -4 -2 7
468 1 1 0.5897 7.734432426124872 13.65466426777113 17.080700925464313 3 -6 1
466 1 2 -1.1794 7.157647905403056 14.286280517522627 17.510519446299284 3 -6 1
481 1 2 -1.1794 7.829817315311382 13.032874912940608 20.261841774480253 4 3 -3
193 1 2 -1.1794 7.26917802839857 16.17869449024801 19.876325223394147 4 0 5
63 1 1 0.5897 5.582680761021481 13.637193900953744 17.633820693655196 2 -5 10
467 1 1 0.5897 7.611507381889047 14.511852890165759 18.322614147297955 3 -6 1
483 1 1 0.5897 8.098804048967738 12.14884353093724 20.51184356065385 4 3 -3
401 1 1 0.5897 6.078142566668581 12.779598544776935 20.474519095972063 -2 -7 2
400 1 2 -1.1794 5.172079147791363 12.514678975353236 20.31562277426182 -2 -7 2
482 1 1 0.5897 8.402875369258624 13.60994096907292 20.766806093119165 4 3 -3
555 1 1 0.5897 6.60997712131761 15.526424624177992 16.578817700078247 -6 -3 1
195 1 1 0.5897 8.212529074893895 16.25991171581183 19.735239206648586 4 0 5
402 1 1 0.5897 4.992454311690549 12.799241682439659 19.419443096915344 -2 -7 2
621 1 1 0.5897 6.4152483139821195 19.568039131795693 4.3684803364125155 6 -6 1
222 1 1 0.5897 6.651631831183061 21.394152443865597 2.944551653714197 -5 -1 5