LAMMPS data file via write_data, version 30 Jul 2021, timestep = 7250000

972 atoms
2 atom types
648 bonds
1 bond types
324 angles
1 angle types

0.03597814486839823 19.964022855124618 xlo xhi
-0.13989554122737324 20.13989654122733 ylo yhi
0.09085837811339736 20.609139621885422 zlo zhi

Masses

1 1.008
2 15.999

Pair Coeffs # lj/cut/tip4p/long/omp

1 0 0
2 0.21084 3.1668

Bond Coeffs # harmonic/omp

1 450 0.9572

Angle Coeffs # harmonic/omp

1 55 104.52

Atoms # full

12 4 1 0.5897 2.196840971707553 3.8582747488075926 3.6682304432106885 0 0 0
31 11 2 -1.1794 0.5244059536582952 1.677141946030075 2.1130058581550575 0 0 0
16 6 2 -1.1794 4.015678745013934 4.02219558788769 3.5701080591325094 0 0 0
102 34 1 0.5897 0.43008258839134667 0.5933462322380183 4.766857221904934 1 0 0
18 6 1 0.5897 4.204209392514694 3.096468927843907 3.416454940912799 0 0 0
11 4 1 0.5897 1.0705642549692622 2.8662422356012103 3.470069366780091 0 0 0
33 11 1 0.5897 1.0442876873468232 1.893702724076098 1.3389968592329773 0 0 0
5 2 1 0.5897 4.530234380899781 0.43182953798518564 3.0366455523341602 0 0 0
17 6 1 0.5897 4.455941091245347 4.478971741105993 2.8532856795063495 0 0 0
10 4 2 -1.1794 1.288966134213459 3.684219831813892 3.91667921639901 0 0 0
23 8 1 0.5897 3.123562300412473 0.47288662215339894 4.525997958185648 0 0 0
22 8 2 -1.1794 2.2513930292475286 0.42494982985683594 4.917507037515741 0 0 0
3 1 1 0.5897 3.168748482121955 2.2153599106342514 0.4427496410436332 0 0 0
4 2 2 -1.1794 4.465429856412379 1.0587763670578694 3.7571042715775937 0 0 0
81 27 1 0.5897 0.05220044618901774 4.402058283570843 5.010241090331683 1 0 0
1 1 2 -1.1794 2.3011282487237223 2.426948412466315 0.09817141779621608 0 0 0
356 119 1 0.5897 1.4121019944707123 2.2775033847081003 8.808791203734089 0 0 0
330 110 1 0.5897 4.2999803661356255 0.3270553801785337 9.711345416054817 0 0 0
355 119 2 -1.1794 0.5927989165624226 1.9480419873646162 9.178132721527229 0 0 0
325 109 2 -1.1794 2.585792142810661 2.16902392283387 7.0432255087236655 0 0 0
326 109 1 0.5897 2.3276082419071127 1.7322279301016812 6.231499735916686 0 0 0
327 109 1 0.5897 3.524137286381447 1.9965181449484333 7.120616131059825 0 0 0
27 9 1 0.5897 2.3715200380563033 4.002109648918075 6.481593300943007 0 0 0
342 114 1 0.5897 3.81947591960806 4.199477434300837 10.218587204863649 0 0 0
339 113 1 0.5897 3.6684027242854986 4.7796190986577685 8.020556908493894 0 0 0
561 187 1 0.5897 0.7623833303975861 0.2506898099908413 8.89719192741247 0 1 0
336 112 1 0.5897 1.7597355767434102 3.903635523129034 11.21553396040073 0 0 0
347 116 1 0.5897 1.2594429041864168 0.6071308449534035 11.808049099539664 0 0 0
650 217 1 0.5897 2.234288189244355 1.777182252163943 13.337134346174096 0 0 0
348 116 1 0.5897 2.6774485135337245 0.6461627871605666 11.279184604120633 0 0 0
346 116 2 -1.1794 2.1673660391343135 0.4439358394157068 12.06357211132375 0 0 0
334 112 2 -1.1794 0.8409654874970689 4.055731708068955 10.994237055618392 0 0 0
651 217 1 0.5897 1.7611886537965005 2.1915222007607267 14.714363224537552 0 0 0
649 217 2 -1.1794 2.4430996980943793 2.363008204266208 14.06481668842709 0 0 0
329 110 1 0.5897 4.919860794637439 0.8134566358392682 11.004165984773303 0 0 0
350 117 1 0.5897 2.20984262104038 4.2533245571689955 13.649202995993589 0 0 0
683 228 1 0.5897 4.341829146261879 2.424801605426471 14.314766447678167 0 0 0
340 114 2 -1.1794 3.7543372071427097 3.691996334254278 11.027623005887625 0 0 0
335 112 1 0.5897 0.6230994993385668 3.3553748565090444 10.379171462161759 0 0 0
341 114 1 0.5897 3.9504845877917756 2.7931377405854203 10.763468225350595 0 0 0
328 110 2 -1.1794 4.213187886770408 1.0004321131386364 10.38612921950294 0 0 0
679 227 2 -1.1794 0.4973904341996007 1.8267476065968702 16.04586407658222 0 0 0
653 218 1 0.5897 3.1147592598880722 0.8437819930637398 17.47695959389781 0 0 0
659 220 1 0.5897 0.6923086855184751 4.194269559979442 18.064928427139954 0 0 0
665 222 1 0.5897 3.0133214565115636 4.109991778809205 17.144703222925877 0 0 0
671 224 1 0.5897 0.665566515521644 0.7205105459732488 18.699181808393504 0 0 0
652 218 2 -1.1794 3.848432886429541 1.2288138702184237 16.99762851892841 0 0 0
664 222 2 -1.1794 3.955735750118935 3.9517470838646833 17.089451556028344 0 0 0
681 227 1 0.5897 0.7110389560422695 2.5979786549408233 16.57099621922974 0 0 0
666 222 1 0.5897 4.0347838515547 3.002011396405049 17.000318096792533 0 0 0
672 224 1 0.5897 1.9221420835424496 1.3364103529460802 19.27678808423847 0 0 0
670 224 2 -1.1794 1.6202908753385066 0.6915374715475568 18.637006227334638 0 0 0
658 220 2 -1.1794 1.0263587565272458 4.232538227625317 17.168636278352878 0 0 0
654 218 1 0.5897 4.096182980316415 0.5594510431103882 16.359762784966208 0 0 0
2 1 1 0.5897 2.310807297156542 3.378079424966721 20.509455375804336 0 0 -1
656 219 1 0.5897 4.969247302487998 4.451225566519474 18.77684016170104 0 0 0
114 38 1 0.5897 3.3520555604889624 7.334714429115482 3.8906947248493777 0 0 0
140 47 1 0.5897 1.0377537906060852 9.529844007444753 3.0840733578989914 0 0 0
126 42 1 0.5897 4.084250582904759 9.37051682095953 3.589635437284651 0 0 0
13 5 2 -1.1794 4.637449811822597 5.628702567361897 1.5573569159039242 0 0 0
674 225 1 0.5897 1.8322430202415647 5.637520053829209 0.6430347739984127 0 0 1
15 5 1 0.5897 4.636036954733588 6.314779494095168 2.2248626316944646 0 0 0
139 47 2 -1.1794 0.9090454191973295 8.922981152263151 2.355059008245174 0 0 0
112 38 2 -1.1794 4.182667206769077 7.61424171835881 3.5057803380250756 0 0 0
109 37 2 -1.1794 2.8148015250300027 9.738432935651394 0.1708973560486643 0 0 0
14 5 1 0.5897 3.9078168071974235 5.853878093670532 0.9801506336366971 0 0 0
19 7 2 -1.1794 1.1181956076752013 6.0103657921569 2.319270543878481 0 0 0
141 47 1 0.5897 1.1758500948525654 8.071589204937618 2.7016662116484738 0 0 0
132 44 1 0.5897 1.3237741700723533 7.223964716194264 5.127904069804853 0 0 0
110 37 1 0.5897 2.217927693772328 9.616621374486344 0.9092486255670111 0 0 0
113 38 1 0.5897 4.844316036027976 7.3503335369633716 4.145225728542206 0 0 0
111 37 1 0.5897 3.596503436024895 9.240204850482339 0.40954266262994754 0 0 0
21 7 1 0.5897 0.19284130065806881 5.950775177953325 2.0817465744846033 0 0 0
20 7 1 0.5897 1.2165248087183758 5.406195246811083 3.055182375457907 0 0 0
438 146 1 0.5897 3.8069354241576976 8.409873458688471 9.761218873694853 0 0 0
344 115 1 0.5897 0.6994552225799718 5.567825848561773 9.442460342581066 0 0 0
26 9 1 0.5897 1.8257662426616368 5.177464624777931 7.264307092751408 0 0 0
435 145 1 0.5897 2.7210840445620192 8.649873716821125 6.300361781412257 0 0 0
131 44 1 0.5897 2.480864453412979 6.409572356773916 5.666263258318061 0 0 0
345 115 1 0.5897 0.5733737492067501 6.827376561015317 8.612029388832305 0 0 0
436 146 2 -1.1794 3.7013961860403075 7.543607554313099 10.154508561485837 0 0 0
437 146 1 0.5897 3.9589193661726005 6.933388636019901 9.46341288115825 0 0 0
464 155 1 0.5897 1.66042180763905 8.912312769788715 8.278899197894091 0 0 0
433 145 2 -1.1794 2.879690475287773 9.159926301506196 7.09473311874284 0 0 0
343 115 2 -1.1794 0.5038733289024477 5.874312198720829 8.556908910457354 0 0 0
468 156 1 0.5897 4.642037599776455 9.246216963562446 7.550904585944694 0 0 0
463 155 2 -1.1794 0.9231182103426887 8.577750528083984 8.789512834365784 0 0 0
337 113 2 -1.1794 4.317110225691458 5.051304586458521 8.669926057686414 0 0 0
465 155 1 0.5897 0.14808317937055548 8.845498431056903 8.295635454880493 0 0 0
443 148 1 0.5897 1.2890956286280435 9.60923350867738 10.192945514916383 0 0 0
25 9 2 -1.1794 2.4863958012432303 4.943336835551377 6.6123395140093955 0 0 0
130 44 2 -1.1794 2.2753564988361203 7.236725404244385 5.23059304275753 0 0 0
349 117 2 -1.1794 2.3388379100356427 5.196030390970723 13.75342603156267 0 0 0
757 253 2 -1.1794 2.7441522021303952 9.373998570861051 14.030596737478422 0 0 0
454 152 2 -1.1794 1.8714672140120472 7.39748179910307 12.271012886617024 0 0 0
455 152 1 0.5897 2.524866662605684 7.2485416116577825 11.587485973956259 0 0 0
456 152 1 0.5897 1.952868485147568 6.639684737729123 12.8501459973703 0 0 0
668 223 1 0.5897 1.646472533876092 6.631462690950232 15.442779339042788 0 0 0
759 253 1 0.5897 2.342100456369844 8.973688187649572 13.259593834800787 0 0 0
789 263 1 0.5897 1.3714884231404234 9.342648758405899 15.265039204468064 0 0 0
351 117 1 0.5897 3.228300193555913 5.280006722899655 14.096999238331579 0 0 0
792 264 1 0.5897 4.314377528747387 8.607383822307478 13.91629634364929 0 0 0
661 221 2 -1.1794 4.669946652853889 5.670208886497284 15.089114010280646 0 0 0
761 254 1 0.5897 4.25844292314793 9.092155352028701 16.846722856750773 0 0 0
780 260 1 0.5897 2.8374136624165702 7.675810339741173 17.84833569254109 0 0 0
778 260 2 -1.1794 2.2134396541310566 7.675774444800687 18.574280456000984 0 0 0
760 254 2 -1.1794 4.474326294666038 8.166118734080912 16.736926928328586 0 0 0
779 260 1 0.5897 2.3210191817825256 8.534470329072317 18.98331117581651 0 0 0
663 221 1 0.5897 4.576381717236167 6.47994686304169 15.590919107059591 0 0 0
675 225 1 0.5897 2.4515221308103343 6.3213645082580285 19.960958590140407 0 0 0
669 223 1 0.5897 0.6186104667239545 7.653406135916582 15.879859611401201 0 0 0
858 286 1 0.5897 0.3825023056355292 7.235979489257612 18.606836163000672 1 0 0
762 254 1 0.5897 4.880308209052814 7.914369065623582 17.566488939494384 0 0 0
787 263 2 -1.1794 0.5940206353442112 9.512127395017226 15.797121227323993 0 0 0
667 223 2 -1.1794 0.7520443265569471 6.7114773684815505 15.774205000602496 0 0 0
660 220 1 0.5897 0.9048077662069233 5.144915691496952 16.90594690278796 0 0 0
673 225 2 -1.1794 2.319462728925988 5.4598939844952294 20.356707412092817 0 0 0
662 221 1 0.5897 4.47437256488634 4.9748156938756525 15.7171739621738 0 0 0
222 74 1 0.5897 4.174032227559331 14.858995921577955 2.0486324036999273 0 0 0
124 42 2 -1.1794 3.971974806040356 10.317748241398297 3.669274697943539 0 0 0
129 43 1 0.5897 0.8748254790484915 13.419950241625827 2.4587020920263583 0 0 0
120 40 1 0.5897 2.3843427527342715 10.761843116810494 4.07662333067865 0 0 0
240 80 1 0.5897 2.7065254662880607 13.535108439918416 4.480896833861307 0 0 0
127 43 2 -1.1794 0.7944620655692363 12.525728601594466 2.1268578608749045 0 0 0
781 261 2 -1.1794 2.773936194831627 12.26450147896585 0.14786917052900694 0 0 1
119 40 1 0.5897 1.297007184938603 11.589783212956691 3.425390495562028 0 0 0
118 40 2 -1.1794 1.4768236686164768 11.043920787184248 4.190909828985526 0 0 0
123 41 1 0.5897 4.4600155068594125 12.174947560986823 0.9801480314412858 0 0 0
220 74 2 -1.1794 4.033708456203355 14.68628104756906 2.9796698614206667 0 0 0
122 41 1 0.5897 4.990621497140041 11.143501200435674 1.9530155946568986 0 0 0
783 261 1 0.5897 2.02730715835171 12.282848184106088 0.7466345544011231 0 0 1
125 42 1 0.5897 4.6357107920028255 10.585484920444323 4.304951623426494 0 0 0
188 63 1 0.5897 0.12099104548336215 11.298641386969013 5.127733971743994 1 0 0
133 45 2 -1.1794 2.68666559472656 11.790129550094727 7.064069133386214 0 0 0
134 45 1 0.5897 1.9745794025053809 11.974175473749924 7.676718916266329 0 0 0
135 45 1 0.5897 3.466089466289726 12.150741237295884 7.486815271147843 0 0 0
451 151 2 -1.1794 0.83901021421193 12.725133255495287 9.03948997842831 0 0 0
453 151 1 0.5897 0.9613936134676652 12.085571557000014 9.741121856244673 0 0 0
450 150 1 0.5897 4.275990880961732 11.307032350944741 9.623991380472155 0 0 0
446 149 1 0.5897 4.221598427563771 13.594907641388655 9.484711245450432 0 0 0
573 191 1 0.5897 1.0189558548557176 14.8139589096751 9.406314639043094 0 0 0
448 150 2 -1.1794 4.09799333772888 10.58786216991722 10.230111902516313 0 0 0
317 106 1 0.5897 0.6761991800213016 14.259694343866116 5.462104347511868 1 0 0
445 149 2 -1.1794 4.477810821886136 12.886275653498133 8.894409304239005 0 0 0
576 192 1 0.5897 4.8186704417477255 15.059405580121382 7.050410050622589 0 0 0
434 145 1 0.5897 2.9125711891990878 10.068101210303636 6.794147030105715 0 0 0
238 80 2 -1.1794 2.3686474937907307 13.841593559357367 5.322474988705307 0 0 0
239 80 1 0.5897 2.5100499171108166 13.10710597069839 5.919779136523312 0 0 0
564 188 1 0.5897 2.677919729826327 13.520589891179156 12.142864122426287 0 0 0
776 259 1 0.5897 0.3374426574243604 12.935414778026896 14.813144721502992 0 0 0
442 148 2 -1.1794 1.4945958803816264 10.362414479318447 10.7467942729898 0 0 0
642 214 1 0.5897 0.5944486590736695 14.208947218052245 11.80150693888848 1 0 0
457 153 2 -1.1794 3.061501728615011 12.12159485532449 13.187533983259474 0 0 0
458 153 1 0.5897 2.3053856726797246 12.237963996499206 13.762897917279876 0 0 0
459 153 1 0.5897 3.7799158531896366 12.55970557216178 13.64384287070797 0 0 0
562 188 2 -1.1794 2.387373108104581 14.35831550036346 11.782267894402244 0 0 0
563 188 1 0.5897 2.4906018024646284 14.978781391451808 12.503761681111351 0 0 0
444 148 1 0.5897 2.4275973088139553 10.519542565600556 10.601680507233304 0 0 0
546 182 1 0.5897 3.9743790451163905 14.686628896315115 10.93117058744486 0 0 0
769 257 2 -1.1794 4.958295725198863 12.69526770098132 15.143259848905124 0 0 0
777 259 1 0.5897 1.4937787919728909 13.703015754834626 15.417814201804154 0 0 0
758 253 1 0.5897 2.9292131007339246 10.274594824996546 13.764391130866265 0 0 0
775 259 2 -1.1794 1.225883598878031 12.823581428263461 15.151354627655829 0 0 0
512 171 1 0.5897 0.2086075770359549 10.972569201452313 11.646965924110313 1 0 0
449 150 1 0.5897 4.806302516314757 10.63430844407209 10.87233899185104 0 0 0
773 258 1 0.5897 3.548925001513504 11.36181860503025 17.517769192671707 0 0 0
772 258 2 -1.1794 4.399580424383883 11.049092917327554 17.209933369904682 0 0 0
774 258 1 0.5897 4.647364408078823 11.66615895437481 16.52136189169852 0 0 0
768 256 1 0.5897 1.550509599792155 12.06961727356102 16.98666170209016 0 0 0
965 322 1 0.5897 0.5362605129746258 14.538386387324637 18.81917328017542 1 0 0
888 296 1 0.5897 2.4743536866177345 13.557292272017259 19.455196513074263 0 0 0
868 290 2 -1.1794 4.1780425230240095 14.765781151998155 17.136398181988156 0 0 0
869 290 1 0.5897 3.304120789811018 14.661937176969333 17.512897836884093 0 0 0
886 296 2 -1.1794 2.239096700175524 14.338757984333732 18.954976198276206 0 0 0
766 256 2 -1.1794 1.6466935905200024 11.376465902964057 17.639799043303086 0 0 0
767 256 1 0.5897 0.9800597431032918 11.572744189178353 18.29812286621533 0 0 0
782 261 1 0.5897 2.94777120825418 11.333469681586736 20.52777171656917 0 0 0
771 257 1 0.5897 4.9067204279166186 13.463161163411947 15.712429921777488 0 0 0
870 290 1 0.5897 4.772999201331057 14.471856084949206 17.826293091868756 0 0 0
887 296 1 0.5897 2.2834047793668266 15.052936233442152 19.590791197230693 0 0 0
788 263 1 0.5897 0.8976831095693851 10.106352806462555 16.48341543399244 0 0 0
249 83 1 0.5897 1.5393768680726756 15.588444458506624 1.6629572696292192 0 0 0
234 78 1 0.5897 3.076453680443201 17.559629640024532 3.846152004546634 0 0 0
232 78 2 -1.1794 4.030497887528059 17.49335220710112 3.8056009717996453 0 0 0
890 297 1 0.5897 1.5084408601299444 18.992282104387975 0.8287487097057934 0 0 1
226 76 2 -1.1794 1.1501613297684452 17.426790931404085 4.042488215509883 0 0 0
227 76 1 0.5897 0.8839646298044278 18.13873117595348 3.4606278495676333 0 0 0
221 74 1 0.5897 3.9123630551052924 15.552320985896213 3.368870142236618 0 0 0
235 79 2 -1.1794 0.3491272355103663 19.124341398937517 2.093487064372852 0 0 0
229 77 2 -1.1794 4.397763904878908 19.309010689669776 2.001560728219159 0 0 0
233 78 1 0.5897 4.295865357423983 18.204219332427222 3.2220680284380587 0 0 0
248 83 1 0.5897 1.0665882002066058 16.030551897446493 3.0316351948731466 0 0 0
230 77 1 0.5897 3.9122853717362274 19.452418636508916 1.189101074567444 0 0 0
228 76 1 0.5897 0.5969223113965155 17.530014099967964 4.816845022117559 0 0 0
247 83 2 -1.1794 0.9507157383969419 15.342266396025595 2.376549571473534 0 0 0
217 73 2 -1.1794 2.6086235780630664 16.29695655951643 0.18379565352788718 0 0 0
219 73 1 0.5897 3.561872029244712 16.29466282386197 0.2707221806351704 0 0 0
236 79 1 0.5897 0.7479712914560442 19.994413292021413 2.083381366208882 0 0 0
889 297 2 -1.1794 2.1680804738210777 19.08457767150381 0.14123944778324926 0 0 1
241 81 2 -1.1794 2.410387960476954 18.66212376999288 6.840025636399773 0 0 0
555 185 1 0.5897 4.201206562607902 19.026437086579783 7.9027461646928625 0 0 0
243 81 1 0.5897 1.7200219814419069 18.754538132598704 7.4966579289429935 0 0 0
558 186 1 0.5897 3.891960655046309 18.368492292323147 10.248837996879228 0 0 0
242 81 1 0.5897 2.6044316816051354 17.724926751463393 6.826108475218496 0 0 0
551 184 1 0.5897 0.8124790553294029 18.492822145382043 10.25147420524285 0 0 0
543 181 1 0.5897 2.763684475907893 15.366674319220083 6.256506054283647 0 0 0
571 191 2 -1.1794 0.9735683560322751 15.680845826955544 9.002982279404332 0 0 0
553 185 2 -1.1794 4.5873412228780035 18.962840951618432 8.776382369657053 0 0 0
542 181 1 0.5897 2.475983249841253 15.885636949549491 7.649371962599728 0 0 0
541 181 2 -1.1794 3.1036559447579894 15.955779231135379 6.9300517886678366 0 0 0
559 187 2 -1.1794 0.7066566752088758 19.57541150504686 8.866670889528558 0 0 0
24 8 1 0.5897 2.3065754448114104 19.97825324373644 5.538347906355994 0 -1 0
572 191 1 0.5897 1.1296792587915556 16.28979612454389 9.724873615879192 0 0 0
867 289 1 0.5897 2.47689871033056 15.777793459685597 14.887072879676658 0 0 0
550 184 2 -1.1794 1.0367552223217107 17.943670914981553 11.002778870330866 0 0 0
865 289 2 -1.1794 2.9115171952502026 15.802296779677995 14.034501971753443 0 0 0
565 189 2 -1.1794 2.474460544910528 18.624942688788032 13.822293341929628 0 0 0
566 189 1 0.5897 2.6685861988925534 17.696220634846945 13.6959483249515 0 0 0
879 293 1 0.5897 3.9178384775051343 19.271373992491917 14.743435457923379 0 0 0
885 295 1 0.5897 1.0065771057466968 19.177379151516874 14.657528190645506 0 0 0
866 289 1 0.5897 3.8450124258536595 15.74899519596031 14.239425099580691 0 0 0
552 184 1 0.5897 1.9885697961251945 17.852730815250062 10.957932604812331 0 0 0
567 189 1 0.5897 2.519054752589681 19.001180858511752 12.943183381175736 0 0 0
556 186 2 -1.1794 3.6653140864873275 17.62190262090801 10.803324742217121 0 0 0
557 186 1 0.5897 4.17382899247766 16.89419651597955 10.44554044699279 0 0 0
544 182 2 -1.1794 4.75782037886351 15.080964186044516 10.547779905146662 0 0 0
548 183 1 0.5897 4.822295354548836 17.961745456743202 12.083779691423715 0 0 0
883 295 2 -1.1794 0.30563592056031796 19.267118836738433 15.303247475725005 0 0 0
877 293 2 -1.1794 4.51038660787408 19.485821230310194 15.46401294207948 0 0 0
874 292 2 -1.1794 1.2950564223744665 17.799788443906245 17.44995520518078 0 0 0
891 297 1 0.5897 1.673181234865545 19.358190427945097 19.887161842052393 0 0 0
876 292 1 0.5897 1.0987864880505078 18.464882817110656 16.79011319744167 0 0 0
875 292 1 0.5897 0.7422016046198299 18.031498310031296 18.196279147064907 0 0 0
880 294 2 -1.1794 3.922332086149643 17.40707038054343 17.352114842153632 0 0 0
881 294 1 0.5897 2.9791652923259293 17.55930360658929 17.411279028090014 0 0 0
897 299 1 0.5897 1.1266005591498716 16.17225507262031 16.599792964623624 0 0 0
882 294 1 0.5897 4.009912873732812 16.45457010157758 17.316441502238582 0 0 0
878 293 1 0.5897 4.36285813811527 18.794895609065897 16.10988018852362 0 0 0
873 291 1 0.5897 4.7938444977435495 18.094186818969987 18.75999963848902 0 0 0
218 73 1 0.5897 2.39241398718714 17.195779348744892 20.45394504347523 0 0 -1
884 295 1 0.5897 0.4678473446574369 20.114726116730054 15.717362950446287 0 0 0
895 299 2 -1.1794 0.9974624141581441 15.434419041870061 16.003829450019296 0 0 0
896 299 1 0.5897 0.20520240576342275 15.656681796397683 15.514746914898767 0 0 0
68 23 1 0.5897 8.01100416142621 2.1922923753809953 1.3479368887301857 0 0 0
9 3 1 0.5897 5.274620178657367 4.312068668957194 4.896417770499829 0 0 0
67 23 2 -1.1794 7.279825342343251 1.9709660734150072 1.9247313275670688 0 0 0
69 23 1 0.5897 6.498938494009278 2.202777223177188 1.4219656455091296 0 0 0
47 16 1 0.5897 7.707209616001094 3.2848740366318228 3.029636985444738 0 0 0
48 16 1 0.5897 7.4096258674609 4.200232635496868 4.1982457927296135 0 0 0
46 16 2 -1.1794 7.997276656238249 4.094405364354881 3.450073465615131 0 0 0
58 20 2 -1.1794 8.454508765333905 0.7473681084692824 5.012760087376991 0 0 0
6 2 1 0.5897 5.123467163264191 0.7678450009936018 4.388455898389607 0 0 0
272 91 1 0.5897 7.1379061908466825 0.13086777215995676 1.8821425613330918 0 1 0
34 12 2 -1.1794 5.020530009957168 2.3047174240959096 0.5028505427787838 0 0 0
41 14 1 0.5897 9.80295984002548 0.804203827751172 3.8829286012587794 0 0 0
53 18 1 0.5897 9.854336270512816 4.025253053868332 3.488212112499579 0 0 0
36 12 1 0.5897 5.145022623768431 3.2078119961751823 0.2111528086340826 0 0 0
391 131 2 -1.1794 7.602709448972673 1.5728351543047374 9.119916737092234 0 0 0
361 121 2 -1.1794 9.072587954062001 2.5579180615183987 7.148901878281972 0 0 0
7 3 2 -1.1794 6.0561257693283705 4.243060517393586 5.444860364975854 0 0 0
392 131 1 0.5897 8.369694510022635 1.7985923851100678 8.593552827908983 0 0 0
59 20 1 0.5897 8.758020669029593 1.3867872191954984 5.657204472977982 0 0 0
359 120 1 0.5897 5.601645958932228 1.3961972882160267 7.017016838740915 0 0 0
360 120 1 0.5897 5.798475702168866 2.3287036671109003 8.19335545755904 0 0 0
362 121 1 0.5897 8.734661496074231 3.3947667343101218 6.82999299238248 0 0 0
393 131 1 0.5897 7.540806583290133 0.619711944223824 9.057308470909126 0 0 0
8 3 1 0.5897 5.8507581230042005 3.5468302579631654 6.068863895590471 0 0 0
358 120 2 -1.1794 5.2609144770108385 2.198740614727807 7.412061899432521 0 0 0
377 126 1 0.5897 9.294394708054096 4.1431521766886 10.062882538011475 0 0 0
28 10 2 -1.1794 6.021873292294099 0.2217245940557842 5.817751724273568 0 0 0
371 124 1 0.5897 7.497012841512037 3.384353871074957 9.803455263246052 0 0 0
29 10 1 0.5897 6.833692166465461 0.40558653163139646 5.3451024888666545 0 0 0
370 124 2 -1.1794 7.562808992180331 4.313279637079748 10.024728064393106 0 0 0
60 20 1 0.5897 8.681623813418327 -0.10168984149090946 5.391892995425634 0 0 0
684 228 1 0.5897 5.56097984265992 2.972729889191428 13.603810618660003 0 0 0
354 118 1 0.5897 5.9021135954502215 1.0637618793882437 13.142509219069064 0 0 0
386 129 1 0.5897 9.099593602896741 4.616989939478649 13.700940063303737 0 0 0
332 111 1 0.5897 5.092938622893038 4.293014139616791 12.074819530297544 0 0 0
685 229 2 -1.1794 9.293306052218618 2.6593378285585407 13.853944599601908 0 0 0
353 118 1 0.5897 6.9693779096325255 0.5724848179006631 12.187697849856667 0 0 0
686 229 1 0.5897 8.921231071388995 2.326959446861762 14.670900407612494 0 0 0
384 128 1 0.5897 9.070968511281942 0.8073352949231399 11.134121150778391 0 0 0
382 128 2 -1.1794 8.816680561267445 0.48191283550936503 11.997728674944767 0 0 0
383 128 1 0.5897 8.986653274508537 1.2144775934460206 12.589942324388955 0 0 0
682 228 2 -1.1794 5.291382503684714 2.3217457312007617 14.251761084934268 0 0 0
372 124 1 0.5897 7.214584052191756 4.373335144028308 10.914392811470293 0 0 0
352 118 2 -1.1794 6.031931611211606 0.5117132009148259 12.371331093404857 0 0 0
331 111 2 -1.1794 5.9475151120927405 4.429360679890691 12.483934555481012 0 0 0
694 232 2 -1.1794 8.098750432661872 4.09812533189363 17.85237114022864 0 0 0
702 234 1 0.5897 9.857319641819824 3.952661304714433 17.55193622143063 0 0 0
677 226 1 0.5897 5.136159690545184 0.9540507871892117 18.13104776685755 0 0 0
715 239 2 -1.1794 7.6559023885357735 2.025996054322822 15.927569082452262 0 0 0
716 239 1 0.5897 7.651686105533802 1.0691641819909679 15.902248798954895 0 0 0
657 219 1 0.5897 6.459310351182112 4.296567911040515 18.995258599320472 0 0 0
38 13 1 0.5897 9.135157903870075 2.0479066920422153 19.721324760470324 0 0 -1
706 236 2 -1.1794 8.65902287364055 0.6946615181613383 18.44160568752975 0 0 0
678 226 1 0.5897 5.663357170354717 -0.12852257759593755 19.048699603655784 0 0 0
695 232 1 0.5897 7.855736199613989 3.334380666139414 17.329010429039947 0 0 0
708 236 1 0.5897 7.735776653243229 0.9156673185504762 18.56413279492495 0 0 0
676 226 2 -1.1794 5.831564679218155 0.7692086605051685 18.762347204154956 0 0 0
655 219 2 -1.1794 5.658420288490109 4.59688487421407 19.424980051094778 0 0 0
710 237 1 0.5897 9.145301051916785 4.543293492204042 20.389420259548245 0 0 0
696 232 1 0.5897 7.879053429512053 4.847780893756496 17.29917828116463 0 0 0
707 236 1 0.5897 8.788306621830055 -0.09546527936913174 18.96624916724698 0 0 0
35 12 1 0.5897 5.238220538223424 1.7731045788330768 20.255429403536745 0 0 -1
37 13 2 -1.1794 9.159004212757855 2.599375839498178 20.503395970595925 0 0 -1
717 239 1 0.5897 6.792525192268589 2.2785225771416875 15.600364846105943 0 0 0
175 59 2 -1.1794 7.557319021609454 9.025716268890726 1.816693084736112 0 0 0
56 19 1 0.5897 6.370289690097017 5.914862547723594 1.4467781494931045 0 0 0
143 48 1 0.5897 5.794468670570806 8.709400365880947 1.238143111138742 0 0 0
177 59 1 0.5897 8.186118981471095 9.285227144616739 1.14320111325403 0 0 0
55 19 2 -1.1794 7.214158943230033 6.27487463790921 1.7197747759098696 0 0 0
176 59 1 0.5897 7.517777168148703 8.071467132072012 1.7531466098970039 0 0 0
57 19 1 0.5897 7.463689161324745 5.750919539592622 2.481035684319089 0 0 0
711 237 1 0.5897 8.672273962389164 5.800839564077264 0.5687957814258808 0 0 1
166 56 2 -1.1794 8.663572005580495 7.234566200489538 4.658446983348431 0 0 0
142 48 2 -1.1794 5.0365810443587815 8.431396674660288 0.7237437527270074 0 0 0
138 46 1 0.5897 6.945365154987923 7.234646493258899 5.219278913972779 0 0 0
167 56 1 0.5897 8.762646911017281 6.415343813992329 5.143525318763824 0 0 0
338 113 1 0.5897 5.074518878134423 5.324913207400185 8.152479714286308 0 0 0
379 127 2 -1.1794 6.654045996754659 5.982236228426509 8.061584506643815 0 0 0
61 21 2 -1.1794 8.816789079423042 5.188382009373907 6.45620985904575 0 0 0
466 156 2 -1.1794 5.542929905334286 9.290448583955213 7.230457544085453 0 0 0
499 167 2 -1.1794 7.570965459615473 8.38103477710195 8.966840031430332 0 0 0
501 167 1 0.5897 6.954325826788363 8.83376507671764 8.391436820591348 0 0 0
470 157 1 0.5897 8.72149836132466 8.780055546007237 7.446987771579436 0 0 0
500 167 1 0.5897 7.962156570647748 9.077166757436583 9.494700932924633 0 0 0
467 156 1 0.5897 5.655350552390195 8.489201604131345 6.718966960320329 0 0 0
380 127 1 0.5897 6.797887287906457 6.763913356104148 8.595012639370887 0 0 0
62 21 1 0.5897 8.062716349915185 5.331512251556543 7.0282058834618155 0 0 0
381 127 1 0.5897 6.900958567072759 5.2540025054145705 8.63166069202472 0 0 0
469 157 2 -1.1794 9.250407323995132 9.185113073521899 6.759601580534155 0 0 0
168 56 1 0.5897 9.007160427166882 7.905648299273032 5.248247627213153 0 0 0
137 46 1 0.5897 6.031334084107019 6.3089776224905565 5.993647406131444 0 0 0
136 46 2 -1.1794 6.074547190006096 7.186503308777185 5.613764871486481 0 0 0
63 21 1 0.5897 9.5708287393291 5.45547557298596 6.981921884629996 0 0 0
385 129 2 -1.1794 9.10505965459091 5.546060317965767 13.93109944994425 0 0 0
793 265 2 -1.1794 9.448145111368824 8.888305559780779 13.820026829797087 0 0 0
333 111 1 0.5897 6.023751926542433 5.37963837897748 12.569539822884604 0 0 0
791 264 1 0.5897 5.549139414262209 8.459843645017065 14.779773962252172 0 0 0
387 129 1 0.5897 8.977406905253204 6.000342346860723 13.09822185993829 0 0 0
705 235 1 0.5897 7.927696391914609 5.881987662432418 15.207896729765881 0 0 0
490 164 2 -1.1794 8.844493330722011 7.216866890437684 11.773393806949924 0 0 0
460 154 2 -1.1794 5.918657832670462 7.14490932651303 11.675214680551337 0 0 0
492 164 1 0.5897 8.015376910668078 7.444018191314638 11.35238726426539 0 0 0
461 154 1 0.5897 5.753125820252497 7.5641938317666115 12.519706632733172 0 0 0
794 265 1 0.5897 9.227207618861607 8.314003118898913 13.086759182976689 0 0 0
491 164 1 0.5897 9.49756959689632 7.302022296784471 11.078722987501335 0 0 0
790 264 2 -1.1794 5.248725342053522 8.404142266562909 13.872570753945705 0 0 0
824 275 1 0.5897 8.103037707403336 8.839710986537133 15.052174588864634 0 0 0
462 154 1 0.5897 5.078827950809975 7.186476195161663 11.217873672844595 0 0 0
795 265 1 0.5897 9.21590316496681 9.765706793437536 13.516003817472448 0 0 0
704 235 1 0.5897 6.43697532173417 5.780059747375388 15.451390644816405 0 0 0
825 275 1 0.5897 7.532109664525535 7.924121287629461 16.114160925098503 0 0 0
785 262 1 0.5897 5.69222959409354 6.3567576373489345 19.16920727798886 0 0 0
816 272 1 0.5897 8.834788031197965 8.41363724938711 19.28023304926662 0 0 0
823 275 2 -1.1794 7.461355918149827 8.811340409085377 15.76193375868027 0 0 0
784 262 2 -1.1794 5.866076785420336 7.266047179803958 18.92593035569088 0 0 0
786 262 1 0.5897 6.817165649580252 7.310555472027465 18.82763733171361 0 0 0
814 272 2 -1.1794 8.74052020604354 7.620438680148294 18.75277242884183 0 0 0
815 272 1 0.5897 8.840568865289143 6.902968049367794 19.378482475169193 0 0 0
144 48 1 0.5897 5.412530047141634 8.022647341926673 20.462323236597918 0 0 -1
703 235 2 -1.1794 7.272060267124074 5.893577956544392 15.905279503579704 0 0 0
145 49 2 -1.1794 9.189927265107835 9.765918107358074 20.297893809062415 0 0 -1
709 237 2 -1.1794 9.374324212024332 5.461706185726456 20.531728787407964 0 0 0
164 55 1 0.5897 8.072001758372547 12.14041359030566 2.785564596819618 0 0 0
275 92 1 0.5897 9.478601774227677 14.506621817875287 4.643615510962682 0 0 0
819 273 1 0.5897 8.873260930951496 12.604929255941883 0.6685554816062356 0 0 1
165 55 1 0.5897 7.035620306596616 12.796008074062684 1.8978089663529913 0 0 0
156 52 1 0.5897 9.027601399716486 10.617675583704461 4.078546010083316 0 0 0
163 55 2 -1.1794 7.965369600234371 12.823725260987954 2.123760513160145 0 0 0
154 52 2 -1.1794 8.117427130284591 10.77255158709344 3.82590899337884 0 0 0
246 82 1 0.5897 5.36361870927856 13.885567144452867 3.962892435656455 0 0 0
284 95 1 0.5897 8.08545236744361 14.823536317304454 2.151378709656561 0 0 0
276 92 1 0.5897 7.988161145881265 14.267958691382038 4.759734024207385 0 0 0
121 41 2 -1.1794 5.274004239929053 11.804202327778706 1.3210593644241966 0 0 0
155 52 1 0.5897 7.947775066690777 10.132093203191586 3.135015434068755 0 0 0
244 82 2 -1.1794 6.14966261225215 13.72126767273865 4.483884869402837 0 0 0