LAMMPS data file via write_data, version 30 Jul 2021, timestep = 3750000

1296 atoms
2 atom types
864 bonds
1 bond types
432 angles
1 angle types

-10.550755679567631 12.530755679567632 xlo xhi
-9.13486100702739 12.12485900702739 ylo yhi
0.23011498497653982 21.629884015029216 zlo zhi
-8.997544645167805 1.6637741023451538 2.797521678781734 xy xz yz

Masses

1 1.008
2 15.999

Pair Coeffs # lj/cut/tip4p/long/omp

1 0 0
2 0.21084 3.1668

Bond Coeffs # harmonic/omp

1 450 0.9572

Angle Coeffs # harmonic/omp

1 55 104.52

Atoms # full

282 94 1 0.5897 -10.283540010458841 -4.06808004636588 1.7781878881515405 1 1 0
280 94 2 -1.1794 -9.391653312671535 -4.396449015084018 1.6641817193717212 1 1 0
299 100 1 0.5897 -6.646912782955615 -7.980312450733103 3.938984041986962 1 1 0
163 55 2 -1.1794 -7.037504649717404 -7.892104070280715 0.74528026041846 1 1 0
164 55 1 0.5897 -6.275910713771553 -8.314763963144978 1.1424131002556641 1 1 0
270 90 1 0.5897 -8.225325527624811 -7.224091848354423 1.9449218087422706 1 1 0
269 90 1 0.5897 -9.106740544113851 -6.031209643173356 2.2482307077657797 1 1 0
268 90 2 -1.1794 -8.850021420843209 -6.888509943374135 2.587848253915024 1 1 0
324 108 1 0.5897 -7.018597058357608 -4.300761946912393 3.5095603149402606 1 1 0
73 25 2 -1.1794 -8.151387015172064 -3.6711639579815936 4.81677686227985 1 0 0
298 100 2 -1.1794 -5.974844879995346 -7.29925233449784 3.9671243655859607 1 1 0
314 105 1 0.5897 -8.488334855600982 -6.5954047725301415 4.377550217315406 1 1 0
300 100 1 0.5897 -5.146622286746331 -7.777433264746083 3.926272106305534 1 1 0
44 15 1 0.5897 -9.83664320308009 0.7156535944573719 0.4368624076349532 1 0 0
82 28 2 -1.1794 -8.925198716670419 0.10266354445832171 4.264289003833059 1 0 0
74 25 1 0.5897 -7.909156498103317 -3.067691237296036 5.519295209795044 1 0 0
54 18 1 0.5897 -11.478253904615572 -0.35322664486427513 2.108819962595559 1 0 0
322 108 2 -1.1794 -6.411840015986037 -4.809926466401065 2.9721533524631827 1 1 0
83 28 1 0.5897 -9.556650073971516 -0.5887536259805177 4.065402233571074 1 0 0
273 91 1 0.5897 -10.441023760968324 -1.5737032274499558 0.25148089304303756 1 1 0
281 94 1 0.5897 -8.84600702325644 -3.610064071012844 1.6522753873993146 1 1 0
323 108 1 0.5897 -6.467033783400604 -5.698327635698201 3.3241026000557827 1 1 0
75 25 1 0.5897 -8.982888620738173 -3.3321620836806973 4.485045463131086 1 0 0
261 87 1 0.5897 -6.596047385944907 -5.008938184602065 1.075957165119749 1 1 0
256 86 2 -1.1794 -11.851670101856294 -3.194321348578443 1.9956677522252748 1 1 0
59 20 1 0.5897 -13.379914745689728 -0.7082969534163368 3.340137394712641 1 0 0
315 105 1 0.5897 -8.439590403095579 -5.426196828152484 5.338114527962851 1 1 0
67 23 2 -1.1794 -10.447146965434245 -2.3819185108529197 4.316527072860108 1 0 0
68 23 1 0.5897 -11.091775341371335 -2.3918371581584523 5.024023913053647 1 0 0
313 105 2 -1.1794 -8.517140415869406 -6.379817249076332 5.309772712858184 1 1 0
301 101 2 -1.1794 -7.844466262453927 -2.1878994277615416 1.6522751946902656 1 1 0
98 33 1 0.5897 -11.676648668526218 0.3763364752810805 4.738165433366778 1 0 0
69 23 1 0.5897 -10.932272163370628 -2.676761274649169 3.545680949414035 1 0 0
272 91 1 0.5897 -9.361838375421009 -1.31070535030846 1.2804418667232227 1 1 0
271 91 2 -1.1794 -10.128458525200951 -0.9119364851104486 0.868541151995949 1 1 0
258 86 1 0.5897 -12.346297859437344 -2.7712332766997942 1.2937316196858741 1 1 0
52 18 2 -1.1794 -11.897222530838679 0.11009766374511543 2.8341033912778335 1 0 0
53 18 1 0.5897 -12.05343670873933 0.9922412503098048 2.49703900398289 1 0 0
107 36 1 0.5897 -9.11217874794843 1.6215848407862783 3.539009893488024 1 0 0
99 33 1 0.5897 -11.797158031914789 1.7561310754773363 5.349375350724331 1 0 0
84 28 1 0.5897 -8.070417282172837 -0.30992565375600023 4.1402172515807685 1 0 0
275 92 1 0.5897 -10.240762974484106 -7.909133412922597 3.469338120469235 1 1 0
633 211 1 0.5897 -5.827470249298289 -5.916901380854126 5.472324046987552 1 1 0
257 86 1 0.5897 -12.512607324341161 -3.6604640659561456 2.50759479893991 1 1 0
97 33 2 -1.1794 -11.75391795785554 0.8278433577512914 5.578701486270707 1 0 0
1010 337 1 0.5897 -12.592520222696098 1.3669581239770459 0.28726777576094004 0 -1 1
420 140 1 0.5897 -9.07418189290793 -6.427044036530305 9.624654671647333 1 0 0
414 138 1 0.5897 -6.619486666145533 -4.6557048952095705 7.640828768611944 1 0 0
413 138 1 0.5897 -7.533439077953561 -3.4662202789048813 7.844929722611462 1 0 0
412 138 2 -1.1794 -7.305598614314398 -4.318321999692318 8.216700391183721 1 0 0
350 117 1 0.5897 -7.055313547768856 -4.104848443721153 9.953185925657044 0 0 0
429 143 1 0.5897 -6.2717840511133875 -7.12321491283592 8.67943063596632 1 0 0
428 143 1 0.5897 -6.591872610408585 -7.213464822062647 10.156385176798182 1 0 0
427 143 2 -1.1794 -5.938258728592979 -6.8782747482217435 9.542690796419016 1 0 0
627 209 1 0.5897 -10.128080019623876 -6.771442008079024 6.235965912000677 1 1 0
618 206 1 0.5897 -7.696649646467504 -7.36991317196161 6.5981202139823 1 1 0
419 140 1 0.5897 -8.688885550515142 -5.293582512633485 8.698068410027396 1 0 0
418 140 2 -1.1794 -9.436223780621496 -5.823039638243177 8.976267189029777 1 0 0
522 174 1 0.5897 -9.992944516442257 2.1699097119281667 7.532665363199348 1 0 0
626 209 1 0.5897 -10.361321459377102 -6.578552487199442 7.719364621009332 1 1 0
349 117 2 -1.1794 -7.06161774654262 -3.8698008021941313 10.881121971797524 0 0 0
528 176 1 0.5897 -12.17878278050336 0.5637291526217965 10.066328114507787 1 0 0
411 137 1 0.5897 -13.333484378351576 0.5278124014197161 6.631431994412451 1 0 0
435 145 1 0.5897 -7.54389300287119 -0.9255319003548781 9.711081269097848 0 0 0
424 142 2 -1.1794 -8.008150610859555 -1.8636951568311284 7.027872960924132 1 0 0
402 134 1 0.5897 -10.848207922070975 -0.14232609555386233 6.716998658864613 1 0 0
401 134 1 0.5897 -11.276204993219642 -1.3115589548378699 7.578069462858003 1 0 0
527 176 1 0.5897 -11.859243270658983 1.6377741813761322 9.048442317651741 1 0 0
526 176 2 -1.1794 -12.591733001087965 1.1915834016397895 9.473392748537073 1 0 0
400 134 2 -1.1794 -10.500214920763005 -0.8569229941565659 7.2503989343630275 1 0 0
426 142 1 0.5897 -8.867462019406414 -1.4768465348286997 6.859699947013877 1 0 0
537 179 1 0.5897 -9.517788244393294 -0.16987168446681622 8.684469277080629 1 0 0
536 179 1 0.5897 -9.663037734245291 -0.047180035522758956 10.186455662897554 1 0 0
535 179 2 -1.1794 -9.047665372259704 0.10947702274945215 9.470236796434326 1 0 0
616 206 2 -1.1794 -7.297149159084608 -7.866012913742844 7.312702163631536 1 1 0
408 136 1 0.5897 -11.011947176936097 -4.958322061093113 9.3077229862237 1 0 0
351 117 1 0.5897 -6.923147880444553 -2.9227231439388968 10.889790880215468 0 0 0
425 142 1 0.5897 -7.410801390491207 -1.1164588168955731 7.061144331087064 1 0 0
415 139 2 -1.1794 -8.561724254847203 1.7522878998632532 6.494382394021353 1 0 0
727 243 2 -1.1794 -8.242939388998783 -7.4524081191381 10.810528596060177 1 0 0
631 211 2 -1.1794 -5.591981319696528 -5.409826923444249 6.249386381045829 1 1 0
417 139 1 0.5897 -8.697000431999363 1.2112238385492073 5.716351900177583 1 0 0
652 218 2 -1.1794 -5.7001514416289485 -5.606040923934807 12.538235049253165 0 0 0
780 260 1 0.5897 -7.4845426523168195 -3.9646643253954705 15.206012338084188 0 0 0
779 260 1 0.5897 -7.2438289775962525 -2.9828893568783004 14.07907854464397 0 0 0
778 260 2 -1.1794 -7.942629133603754 -3.4087061691959866 14.575617392100025 0 0 0
768 256 1 0.5897 -9.65840119166699 -2.6467618988088386 14.914076254744153 0 0 0
654 218 1 0.5897 -6.154873780762308 -5.115265817836752 11.85360937909695 0 0 0
653 218 1 0.5897 -6.399116411515823 -6.043593452225236 13.024239480655897 0 0 0
767 256 1 0.5897 -11.11706858608936 -3.0388253241278838 14.810042157342535 0 0 0
740 247 1 0.5897 -10.961118238830819 -3.308546263450797 12.112707899117087 1 0 0
729 243 1 0.5897 -8.187684887367734 -7.228022224713297 11.739482847714005 1 0 0
684 228 1 0.5897 -8.478270833866258 -6.564292892659884 14.050001602571536 0 0 0
682 228 2 -1.1794 -7.847414637461414 -7.0042326706057505 13.4801895642317 0 0 0
663 221 1 0.5897 -8.674672818109514 -4.232604174046512 11.568998046610096 0 0 0
662 221 1 0.5897 -8.941418573375644 -4.144035875023495 13.056631534132237 0 0 0
661 221 2 -1.1794 -9.381156210365319 -4.260084957576465 12.214233036150471 0 0 0
866 289 1 0.5897 -12.566420385577235 1.7945676206216543 16.16024181127395 0 0 0
766 256 2 -1.1794 -10.542807564939858 -2.2805406059356166 14.917463846206763 0 0 0
888 296 1 0.5897 -10.678589170899574 3.017252763886219 15.154263593270935 0 0 0
769 257 2 -1.1794 -12.45716740848797 2.389922120484691 12.410496211225027 0 0 0
836 279 1 0.5897 -11.504520742007879 -1.3314131747006828 11.269501831128464 1 0 0
771 257 1 0.5897 -11.897461504670538 2.5913965560829606 11.66061926665547 0 0 0
770 257 1 0.5897 -11.938345948684725 2.6464694753789626 13.173044253953366 0 0 0
760 254 2 -1.1794 -8.870089073976512 1.835596929289908 12.622064387658417 0 0 0
762 254 1 0.5897 -9.318670858873654 2.3033858959354685 11.917577143771895 0 0 0
792 264 1 0.5897 -11.502519399008248 0.6418452294196335 14.557998714790598 0 0 0
837 279 1 0.5897 -11.130024909380214 -0.16216677429408755 12.155407105800814 1 0 0
791 264 1 0.5897 -10.611725297538097 -0.5687338914208411 14.376752638883454 0 0 0
790 264 2 -1.1794 -10.744363793595744 0.3267912914758515 14.065899850966126 0 0 0
761 254 1 0.5897 -9.560743558992511 1.3330166901270957 13.05406155659685 0 0 0
896 299 1 0.5897 -8.2005409932089 2.551140490835559 15.614703944354178 0 0 0
788 263 1 0.5897 -4.836569440000019 -4.577315791580966 15.396726940439507 0 0 0
757 253 2 -1.1794 -9.741125840492053 -5.9959913331534125 15.138859258526423 0 0 0
786 262 1 0.5897 -7.434693497943038 0.7791971198161836 12.37955979187055 0 0 0
897 299 1 0.5897 -8.028130279401353 2.346700388485406 14.124539903989739 0 0 0
758 253 1 0.5897 -9.401800263729916 -5.360135597636644 15.768901568623122 0 0 0
835 279 2 -1.1794 -11.145535422617 -0.4445389890695246 11.240866174275439 1 0 0
1089 363 1 0.5897 -6.631083204175605 -4.586308254984813 17.31347747954849 0 0 0
1152 384 1 0.5897 -6.856436497875272 -3.985339226786591 19.76177898591505 0 0 0
1225 409 2 -1.1794 -8.055822801614593 -3.2776023309172313 20.78050932112636 0 0 0
1227 409 1 0.5897 -8.937848860044362 -2.936947090636181 20.631076715911867 0 0 0
1109 370 1 0.5897 -8.82563146374961 -3.5894739512054006 17.429723415986018 0 0 0
1219 407 2 -1.1794 -10.467386804230069 -2.059065597169548 20.213263496377536 0 0 0
1108 370 2 -1.1794 -9.473675295969331 -4.2899419304735975 17.354185583258612 0 0 0
1101 367 1 0.5897 -10.339984099098958 -1.1890628820317364 16.33582611622247 0 0 0
1151 384 1 0.5897 -6.219178815147735 -5.298716030493185 19.36080699741411 0 0 0
1150 384 2 -1.1794 -6.209644112440881 -4.361832413354643 19.165015348005234 0 0 0
1217 406 1 0.5897 -11.759474439914442 3.642583049178352 17.61682030490808 0 0 0
1130 377 1 0.5897 -7.325044961358245 -1.8054699056024859 18.35552135052592 0 0 0
1129 377 2 -1.1794 -7.808243517740903 -2.1008714598269504 17.58367957602296 0 0 0
1097 366 1 0.5897 -8.88249770712451 -5.82349779814882 18.118916215549923 0 0 0
1087 363 2 -1.1794 -6.639850019571497 -4.850335767553817 16.393384670002234 0 0 0
1248 416 1 0.5897 -6.0652291832803344 -1.4909439247464 20.302509998594736 0 0 0
1218 406 1 0.5897 -13.24061610011369 3.3308423713495685 17.65178638660121 0 0 0
1099 367 2 -1.1794 -10.00602988132766 -0.5838200669666964 16.99806378513628 0 0 0
1229 410 1 0.5897 -7.889646129147148 3.67460706462197 18.249883884487197 0 0 0
1250 417 1 0.5897 -11.70620505153208 0.6061605106571193 20.475700435819995 0 0 0
1131 377 1 0.5897 -7.244381025353824 -1.8711436874816476 16.845120999403157 0 0 0
1249 417 2 -1.1794 -11.653108627850902 0.9681278242954363 21.360309598115492 0 0 0
1110 370 1 0.5897 -10.315003604412814 -3.854402494593698 17.491081081412766 0 0 0
1204 402 2 -1.1794 -12.059371729902244 0.3553568104413145 18.58089126033736 0 0 0
1251 417 1 0.5897 -11.451734748869136 1.8946076847835656 21.22886068094067 0 0 0
1088 363 1 0.5897 -6.753903690175977 -5.800399630080578 16.417369335532456 0 0 0
1205 402 1 0.5897 -12.189758753386046 1.205067783726637 18.15995580143587 0 0 0
1246 416 2 -1.1794 -6.38628326985058 -0.8944678256654264 19.626178237144245 0 0 0
1100 367 1 0.5897 -9.252391356103603 -1.035527646983983 17.378005441160404 0 0 0
1009 337 2 -1.1794 -11.211561351203267 3.651742539509854 20.929716865877865 0 -1 0
1260 420 1 0.5897 -9.945793133889765 3.047933918492898 19.644930159991 0 0 0
1259 420 1 0.5897 -9.019791368237623 1.8525948309316362 19.570331087613255 0 0 0
1258 420 2 -1.1794 -9.236258280565114 2.6714094886501023 19.124350174738133 0 0 0
1236 412 1 0.5897 -7.95586782169091 -0.061574138569504555 19.902694715968416 0 0 0
1235 412 1 0.5897 -9.360892072788616 -0.5703340508235151 20.145869775556044 0 0 0
1234 412 2 -1.1794 -8.816749393694025 0.21390836146071557 20.217714439460664 0 0 0
1197 399 1 0.5897 -9.761401031110774 2.2809035221761143 17.36962160052007 0 0 0
1216 406 2 -1.1794 -12.382277357278282 2.918265470682087 17.5552732093917 0 0 0
1206 402 1 0.5897 -11.357386927903422 -0.05675119148334673 18.07730349905207 0 0 0
1142 381 1 0.5897 -8.510032868341078 -6.2474961211562485 20.489671471136084 0 0 0
1195 399 2 -1.1794 -9.809192146509481 2.1226114888846475 16.426743237691078 0 0 0
1121 374 1 0.5897 -4.909657458177009 -3.428789874768885 18.42870786251617 0 0 0
1196 399 1 0.5897 -9.810760308700258 1.1690791021537468 16.34320664471506 0 0 0
1011 337 1 0.5897 -12.06941213094221 4.011116437499304 20.7032031562508 0 -1 0
1226 409 1 0.5897 -7.72748906163287 -2.7751760270057346 21.526286555555828 0 0 0
1141 381 2 -1.1794 -8.571570366079357 -5.923449805318574 21.388305639539333 0 0 0
1143 381 1 0.5897 -8.365908450632443 -4.99098612921833 21.321835846313974 0 0 0
165 55 1 0.5897 -5.634317447420766 -5.684742550215079 21.43780418227616 1 1 -1
259 87 2 -1.1794 -4.994097056002526 -2.425379516256741 21.544719941133337 1 1 -1
1096 366 2 -1.1794 -8.635412784752212 -6.616763489059979 18.594208741513256 0 0 0
260 87 1 0.5897 -4.961161580038624 -3.381548703033898 21.515491701553486 1 1 -1
40 14 2 -1.1794 -14.85340680040386 3.785297181112396 1.8645041205920536 1 0 0
177 59 1 0.5897 -13.951236072716808 4.467845327110322 3.307341229478945 1 0 0
42 14 1 0.5897 -15.35266500057714 4.2536815017404095 1.1953825471361919 1 0 0
55 19 2 -1.1794 -12.836096076550483 6.17966514102482 1.022612875099927 1 0 0
56 19 1 0.5897 -12.100455122145236 5.745524377580075 1.4547400049590016 1 0 0
66 22 1 0.5897 -13.35601519952872 2.90865136178102 1.8266247604888228 1 0 0
65 22 1 0.5897 -11.86654232443354 3.1572568653886943 1.9356212230727923 1 0 0
64 22 2 -1.1794 -12.50973936051357 2.46246546730956 1.7946617906853 1 0 0
191 64 1 0.5897 -12.533119060597684 6.488547837253151 4.250483918252046 1 0 0
183 61 1 0.5897 -12.04823479456224 3.7770097370251943 4.468066605400774 1 0 0
181 61 2 -1.1794 -11.231479406289852 3.4338163339168943 4.830728347972272 1 0 0
176 59 1 0.5897 -14.2160029127801 4.577001184094936 4.793959023286294 1 0 0
175 59 2 -1.1794 -13.535355728431842 4.711348154154681 4.134517855048841 1 0 0
108 36 1 0.5897 -9.911816090573804 2.8995772586083355 3.677428076661596 1 0 0
190 64 2 -1.1794 -11.87237961251243 7.170296249107626 4.372847092962926 1 0 0
153 51 1 0.5897 -12.703032255983576 9.147357233688968 1.0955143383596866 1 0 0
85 29 2 -1.1794 -10.756372613853824 4.6509060183883815 1.9147046443736566 1 0 0
215 72 1 0.5897 -12.220688575359167 8.623928867280735 3.3082404744238083 1 0 0
167 56 1 0.5897 -16.345306200151143 6.160842995072024 3.2149169567259603 1 0 0
43 15 2 -1.1794 -9.758665697875538 1.6695766656168303 0.42456297736952575 1 0 0
57 19 1 0.5897 -13.127416063070822 5.554650713724742 0.3586197246978804 1 0 0
162 54 1 0.5897 -14.072135141589067 6.78489141607405 2.181626925271253 1 0 0
193 65 2 -1.1794 -13.933435813783426 11.841005718890898 1.5732144117081568 1 0 0
205 69 2 -1.1794 -14.744264316344378 7.686622969369957 5.431548044654451 1 0 0
206 69 1 0.5897 -14.799782512026965 7.412118466861131 4.516160145102295 1 0 0
160 54 2 -1.1794 -14.798643191441364 7.139888157035724 2.6938574650501517 1 0 0
207 69 1 0.5897 -14.634983836232825 8.636681523538247 5.391028579536974 1 0 0
174 58 1 0.5897 -16.389741318848955 9.881598310549364 1.508000512108292 1 0 0
173 58 1 0.5897 -14.966367873234223 10.39741878375117 1.4970413113557686 1 0 0
172 58 2 -1.1794 -15.48433190611901 9.602157999671242 1.372236748794809 1 0 0
161 54 1 0.5897 -14.959465699330664 8.004176285614086 2.315254718329468 1 0 0
285 95 1 0.5897 -17.003584510127013 11.613131903137358 3.070795779416842 1 0 0
148 50 2 -1.1794 -18.022167460659954 10.8149683409676 1.751007353807219 1 0 0
150 50 1 0.5897 -18.372918212170546 11.48869026106652 1.168469712183879 1 0 0
289 97 2 -1.1794 -14.181323186381663 10.273241835780418 4.826278088331475 1 0 0
291 97 1 0.5897 -14.967802279555634 10.68320914708929 4.466063263796219 1 0 0
284 95 1 0.5897 -17.28994968531076 11.532664696810006 4.555223091905248 1 0 0
216 72 1 0.5897 -12.988859510804339 9.912105039015259 3.514053167202169 1 0 0
283 95 2 -1.1794 -16.596847228095115 11.739152767565542 3.92819985873933 1 0 0
45 15 1 0.5897 -9.603998088085344 1.9095879843396233 1.3382787861253902 1 0 0
41 14 1 0.5897 -15.514856679221396 3.315349463470822 2.372274130676987 1 0 0
290 97 1 0.5897 -13.904802017495834 10.860895023607007 5.529561841707704 1 0 0
192 64 1 0.5897 -11.036248291676774 6.71404736358471 4.277992560157904 1 0 0
182 61 1 0.5897 -10.965859472885404 4.08373054820734 5.481457455938268 1 0 0
214 72 2 -1.1794 -12.452443760850059 9.444717407715842 2.873719251894334 1 0 0
532 178 2 -1.1794 -10.889449836185914 5.11296648402158 6.979034340941513 1 0 0
521 174 1 0.5897 -10.771741241292471 3.453456749793075 7.727154024447731 1 0 0
534 178 1 0.5897 -11.794797029284492 5.40709037617888 7.079650630536035 1 0 0
645 215 1 0.5897 -12.447649768175303 7.178228626781301 8.610897530866197 1 0 0
644 215 1 0.5897 -12.666019681411406 7.428969341178494 10.087900224620464 1 0 0
643 215 2 -1.1794 -12.015476195271976 7.523616833365345 9.392179493968904 1 0 0
510 170 1 0.5897 -13.739235453210696 6.784491890350132 6.679721741263262 1 0 0
508 170 2 -1.1794 -13.38817258282846 6.234424634192466 7.380076237081414 1 0 0
543 181 1 0.5897 -10.691477870801032 6.287139546372259 9.897890155313517 0 0 0
509 170 1 0.5897 -14.156957181066854 5.807106347520358 7.757681800901198 1 0 0
327 109 1 0.5897 -13.466875609637972 13.384189709977836 9.94532340237283 0 -1 0
519 173 1 0.5897 -16.325994881097444 7.197545594310274 6.2534030551825825 1 0 0
458 153 1 0.5897 -10.414132471717554 3.058898661362532 9.789805166300692 0 0 0
636 212 1 0.5897 -15.184410023789798 7.646766676519608 9.810212529092464 1 0 0
641 214 1 0.5897 -13.301631041875794 12.907389459103083 6.931796052584602 1 0 0
617 206 1 0.5897 -17.0071379844548 12.856711956389272 7.659517215011403 1 0 0
523 175 2 -1.1794 -11.635532404490148 8.849956024103026 6.522172638499393 1 0 0
634 212 2 -1.1794 -15.632051552887095 8.176253703083958 9.150215693947832 1 0 0
642 214 1 0.5897 -14.78382580973221 12.600271850004138 6.962797231305505 1 0 0
541 181 2 -1.1794 -9.929725530758988 5.906661350250346 10.335333177659027 0 0 0
640 214 2 -1.1794 -13.929226006134694 12.193162021303262 6.820741367108466 1 0 0
630 210 1 0.5897 -12.885333329214646 9.496614436655644 7.8274751406355145 1 0 0
629 210 1 0.5897 -13.780111838780343 10.716080429656827 7.762981586465254 1 0 0
628 210 2 -1.1794 -13.623159722310799 9.918244339366783 8.267992084070682 1 0 0
566 189 1 0.5897 -13.16417204250794 10.109386497214206 10.04116147800763 0 0 0
635 212 1 0.5897 -14.971029290177242 8.803460504570346 8.857165158663873 1 0 0
457 153 2 -1.1794 -10.341617344699198 3.2227833749964017 10.730155906236325 0 0 0
459 153 1 0.5897 -10.234756845787064 4.171350083479865 10.800968035716227 0 0 0
533 178 1 0.5897 -10.362555426906166 5.890901746099114 7.162056172121043 1 0 0
520 174 2 -1.1794 -10.659315902551494 2.5741806961260885 8.088297912037842 1 0 0
728 243 1 0.5897 -17.50797236724524 12.888299598790432 10.801041484462921 1 -1 0
525 175 1 0.5897 -11.940613652312205 8.237043157208173 5.8530934724023 1 0 0
646 216 2 -1.1794 -18.44410190149407 12.051610124916778 8.205820480612402 1 0 0
518 173 1 0.5897 -16.60500865483236 7.624267711477362 7.678932509794167 1 0 0
874 292 2 -1.1794 -13.442682025949711 4.937249621601124 14.75519079662419 0 0 0
887 296 1 0.5897 -10.230740963642157 4.00402280082181 14.097151671002907 0 0 0
876 292 1 0.5897 -12.590046462068095 4.505038616786733 14.705419214040377 0 0 0
945 315 1 0.5897 -13.992866430599324 6.968900999809925 11.903202202245058 1 0 0
848 283 1 0.5897 -13.778502338702305 3.6969694159941238 12.067613522097991 1 0 0
900 300 1 0.5897 -14.556233512540928 7.773449198997266 14.160533458037598 0 0 0
899 300 1 0.5897 -13.891219635056093 6.4359663088294194 13.914124894465129 0 0 0
898 300 2 -1.1794 -14.01175133188151 7.303796004202958 13.528724714575386 0 0 0
869 290 1 0.5897 -12.424412410817528 8.088229839418062 13.109625951576293 0 0 0
875 292 1 0.5897 -14.068984510584288 4.221162607985512 14.861132551210035 0 0 0
671 224 1 0.5897 -13.324971864996387 11.170087459151478 14.097885006878425 0 -1 0
886 296 2 -1.1794 -11.009541701414218 3.5717809428032243 14.44766958729942 0 0 0
672 224 1 0.5897 -13.46944994587625 10.210565461628157 15.259898893047861 0 -1 0
870 290 1 0.5897 -12.17898468087236 9.26783485455524 12.193075230855149 0 0 0
868 290 2 -1.1794 -11.729151435221226 8.65377491251811 12.773490132481506 0 0 0
659 220 1 0.5897 -17.10546774441899 11.079123679754915 14.683627131984634 0 -1 0
680 227 1 0.5897 -11.072724950052024 9.5481069247061 15.528290370594839 0 -1 0
670 224 2 -1.1794 -13.976074860485548 10.67037520938646 14.590372156697743 0 -1 0
660 220 1 0.5897 -15.638516567905185 11.416724019676263 14.845716920855883 0 -1 0
879 293 1 0.5897 -14.728972865110471 10.09416190166425 11.619023407656082 0 0 0
877 293 2 -1.1794 -15.48404404714314 9.969278059968065 12.193894932920958 0 0 0
878 293 1 0.5897 -15.140416932687923 10.11252797639693 13.075852158172975 0 0 0
956 319 1 0.5897 -17.035849661124992 10.851068443275171 11.810901735065118 1 0 0
658 220 2 -1.1794 -16.50442081055605 11.818542604617516 14.774664544045056 0 -1 0
683 228 1 0.5897 -16.703923580662867 13.40279019921272 13.891539341607903 0 -1 0
944 315 1 0.5897 -14.201008184820004 5.767749936623758 11.005402216538531 1 0 0
943 315 2 -1.1794 -14.021626697343851 6.707702304596886 10.982706151643063 1 0 0
847 283 2 -1.1794 -14.577858534556142 4.059185732705368 11.685218914203261 1 0 0
565 189 2 -1.1794 -13.069416503175535 10.333190145109661 10.967076605462552 0 0 0
650 217 1 0.5897 -15.57280499684677 8.927064893670838 16.07119488334554 0 -1 0
649 217 2 -1.1794 -15.779825492058091 8.284853173324091 15.392161950119348 0 -1 0
993 331 1 0.5897 -16.2151336143158 13.078454528759156 15.987995928875732 0 -1 0
1209 403 1 0.5897 -13.269371261655607 5.984973603139121 16.251597586080337 0 0 0
567 189 1 0.5897 -12.961954473835839 11.284299159842849 10.974354514079925 0 0 0
1018 340 2 -1.1794 -11.754174644598875 7.170313355897708 20.528827666929885 0 -1 0
1019 340 1 0.5897 -12.353477108240016 6.42435023441508 20.503120836675834 0 -1 0
1020 340 1 0.5897 -10.885743318517179 6.784643753544611 20.41323923419884 0 -1 0
1030 344 2 -1.1794 -9.32812266218787 6.102828321139892 19.965043313990783 0 -1 0
1043 348 1 0.5897 -11.98308299321435 8.752444924583443 19.53426991538292 0 -1 0
1032 344 1 0.5897 -8.904745115658061 5.47607695222637 20.55176091325233 0 -1 0
1239 413 1 0.5897 -10.079257545655926 5.2047243878546094 17.120811029828566 0 0 0
1237 413 2 -1.1794 -10.800129708028834 5.168363242274896 17.749476114168544 0 0 0
1003 335 2 -1.1794 -13.527264067310604 4.958990924773657 20.27120804167331 0 -1 0
1208 403 1 0.5897 -12.15678245870074 6.28161137948009 17.234814801866257 0 0 0
1207 403 2 -1.1794 -12.992252291928008 6.619815510243077 16.912338990718872 0 0 0
1238 413 1 0.5897 -10.389007461494955 5.342434782665 18.596321091114362 0 0 0
990 330 1 0.5897 -14.396357091486085 7.0315851667429925 18.107468748286855 0 -1 0
979 327 2 -1.1794 -12.497199263470073 9.247868754633224 16.56535569084535 0 -1 0
1035 345 1 0.5897 -14.419753511541842 8.902478815235995 21.232404273514845 0 -1 0
1118 373 1 0.5897 -13.846269465544193 11.225020535610284 21.458822400120894 0 -1 0
980 327 1 0.5897 -12.770589406662664 8.330810485334695 16.587330093004446 0 -1 0
989 330 1 0.5897 -15.166081895316239 8.306471509018188 18.37954662561407 0 -1 0
1034 345 1 0.5897 -14.662003437026573 7.614260395133947 20.47484148474974 0 -1 0
1033 345 2 -1.1794 -14.612131965980183 7.97364909300569 21.36068649590006 0 -1 0
981 327 1 0.5897 -12.432722444200943 9.501298090001772 17.48622139568738 0 -1 0
1000 334 2 -1.1794 -15.422553315801956 9.9221626132375 17.58691581784995 0 -1 0
992 331 1 0.5897 -15.106340701737773 13.22195833171143 17.00905017920448 0 -1 0
1023 341 1 0.5897 -13.089766127891135 12.277619128966201 16.988924287255692 0 -1 0
1111 371 2 -1.1794 -16.486594594255592 11.827819297659449 20.173442763621544 0 -1 0
1140 380 1 0.5897 -12.043341952192769 12.656193323241773 20.418223679651575 0 -1 0
1138 380 2 -1.1794 -12.454326539054573 13.182994666497699 19.732726365337044 0 -1 0
1128 376 1 0.5897 -14.062779339792513 13.88077880582664 20.1442040988958 0 -1 0
1022 341 1 0.5897 -13.363002247090147 12.368673318574576 18.475228595117137 0 -1 0
1127 376 1 0.5897 -15.521906854864426 13.490361545088774 20.24749657311674 0 -1 0
1126 376 2 -1.1794 -14.945308197352432 14.250559930215982 20.17073446927079 0 -1 0
1119 373 1 0.5897 -14.913804299263234 10.891761044377585 20.43809694100206 0 -1 0
1117 373 2 -1.1794 -14.07139655394141 10.5903094533442 20.77849471635662 0 -1 0
1044 348 1 0.5897 -12.80426356327541 10.013105743023374 19.702314438911536 0 -1 0
1042 348 2 -1.1794 -12.075789872006652 9.645315460157153 19.202044970352688 0 -1 0
1021 341 2 -1.1794 -13.765775718272778 12.11117507649153 17.64580974763804 0 -1 0
991 331 2 -1.1794 -15.79158689286721 13.717863452786979 16.560866049704863 0 -1 0
1001 334 1 0.5897 -14.737777562424387 10.59059242836998 17.61111871750262 0 -1 0
1098 366 1 0.5897 -17.033597939140044 14.186362198153525 18.00386774142772 0 -1 0
1002 334 1 0.5897 -16.233042720294062 10.40259383373968 17.755877623779767 0 -1 0
1013 338 1 0.5897 -10.856474251587633 10.672957546405073 18.33712964881066 0 -1 0
151 51 2 -1.1794 -10.912675359203613 11.664520706622852 21.58881210296709 1 0 -1
152 51 1 0.5897 -10.99192577909396 10.711109814376776 21.619155798577218 1 0 -1
317 106 1 0.5897 -1.3458475747909322 -3.899865830944952 1.8796203715432998 1 1 0
3 1 1 0.5897 -1.7379798917087328 -3.149525270794184 4.548843385745439 0 0 0
316 106 2 -1.1794 -2.031055307051238 -4.555499203798646 1.7493803021445926 1 1 0
311 104 1 0.5897 -2.8055187078511885 -8.00112665174031 3.4036057947129854 1 1 0
304 102 2 -1.1794 -1.5389687901606184 -7.0515335975135525 2.6484494523461293 1 1 0
318 106 1 0.5897 -2.845970256817572 -4.05333105637714 1.744252009217914 1 1 0
305 102 1 0.5897 -1.6271800556384441 -6.146514412465171 2.349551865632362 1 1 0
306 102 1 0.5897 -0.8702971716285663 -7.4289472408075525 2.076915616398174 1 1 0
242 81 1 0.5897 -1.0935322879467435 -6.8083245377330925 4.544697659004302 0 1 0
303 101 1 0.5897 -7.155198113062195 -2.0320827395909937 1.0066530157706266 1 1 0
293 98 1 0.5897 -5.129804767938565 -3.6692013984762086 2.453442241522131 1 1 0
95 32 1 0.5897 -5.753222434318136 -0.7412290203245391 3.4645522209290505 1 0 0
105 35 1 0.5897 -3.5746619415676957 -2.4414826476371907 3.437630328765271 1 0 0
90 30 1 0.5897 -3.7523367465988455 -0.1770941444863663 2.2530111390370693 1 0 0
310 104 2 -1.1794 -3.516850905903264 -8.501290109021282 3.803679517892494 1 1 0
103 35 2 -1.1794 -3.1242858630422186 -2.0753234769704836 4.19891412436162 1 0 0
292 98 2 -1.1794 -4.404133199829316 -3.2050055922262253 2.0361474188153084 1 1 0
25 9 2 -1.1794 -4.019740485763972 0.5561621036338806 5.5050411625651385 0 0 0
294 98 1 0.5897 -4.821509490946344 -2.6505593411437776 1.3768214196480368 1 1 0
27 9 1 0.5897 -3.820679439867601 1.490139416206734 5.570483108346936 0 0 0
104 35 1 0.5897 -3.721504457443009 -2.233389660993451 4.9300269147462785 1 0 0
94 32 2 -1.1794 -6.499263978613191 -1.2062452956741385 3.843245726241532 1 0 0
88 30 2 -1.1794 -4.450558768729146 0.22898386958104666 2.7666254141470668 1 0 0
26 9 1 0.5897 -4.202018584462146 0.4140476883465958 4.5760712297113475 0 0 0
89 30 1 0.5897 -4.478075312292425 1.1352757500486366 2.4599360758561524 1 0 0
96 32 1 0.5897 -6.12088181059503 -1.7348499143817149 4.545906104267849 1 0 0
241 81 2 -1.1794 -1.0893785248894545 -6.491995985039168 5.448178678071779 0 1 0
243 81 1 0.5897 -1.0153909835093717 -5.540957890724128 5.369160480781829 0 1 0
309 103 1 0.5897 -2.7408606133248794 -1.3894564205206104 0.3209545453095622 1 1 0
199 67 2 -1.1794 0.49219650475052035 -7.977800023170679 1.0046424752239833 1 1 0
302 101 1 0.5897 -7.500353977149286 -1.8169424234718736 2.464943465820309 1 1 0
307 103 2 -1.1794 -2.477771616216243 -0.8933141535763909 1.0962277992271416 1 1 0
1 1 2 -1.1794 -0.9617537141206807 -3.6467367513913986 4.806878219685527 0 0 0
632 211 1 0.5897 -4.845851124310373 -5.877765453794776 6.624466050128728 1 1 0
554 185 1 0.5897 -2.8099058801709598 -6.704675821963276 7.836665789670406 0 1 0
443 148 1 0.5897 -8.090409748425238 1.7337913664134899 9.53939905289725 0 0 0
455 152 1 0.5897 -4.337757548175841 1.824179981447811 8.930969888054197 0 0 0
403 135 2 -1.1794 -5.252449456256545 -2.7052780267076573 5.795482351422596 1 0 0
330 110 1 0.5897 -2.9891858214597917 -0.5194633106282485 6.517734104643313 0 0 0
555 185 1 0.5897 -2.7596525398532687 -6.815513549648629 6.3275772789230365 0 1 0
553 185 2 -1.1794 -3.333913287378661 -6.964403543494914 7.078743480286656 0 1 0
346 116 2 -1.1794 -1.7691958967269983 -5.896637078063251 9.3661091662886 0 0 0
546 182 1 0.5897 -0.0665963405913903 -7.273950025629258 6.7992810780668185 0 1 0