LAMMPS data file via write_data, version 30 Jul 2021, timestep = 27500000

864 atoms
2 atom types
576 bonds
1 bond types
288 angles
1 angle types

0.16191967590780365 18.045652724094907 xlo xhi
0.1466455742440047 23.48253222577138 ylo yhi
0.037099935695470876 22.176095864299675 zlo zhi

Masses

1 1.00794
2 15.9994

Atoms # full

707 1 1 0.5897 2.7083093533157943 1.9105627914436776 3.735022841726125 0 0 0
706 1 2 -1.1794 2.809878914018875 1.8867131550699137 2.783507162708718 0 0 0
30 1 1 0.5897 5.0756424100084905 3.941472486584019 2.231544684155156 0 0 0
708 1 1 0.5897 2.0053302713254553 2.280487451725738 2.446292645828839 0 0 0
29 1 1 0.5897 4.353584333351085 2.6113751019267877 2.1983565162004584 0 0 0
28 1 2 -1.1794 5.141109920725068 3.0531834504398914 1.881069984325945 0 0 0
3 1 1 0.5897 0.4255771874605676 3.8430265278254 2.2331495050905734 0 0 0
136 1 2 -1.1794 5.007925281318242 5.617719607191849 2.934440079404685 0 0 0
495 1 1 0.5897 8.066488673842866 2.202075829070224 2.6400720426366995 0 0 0
494 1 1 0.5897 6.553088286399029 2.2002952197028485 2.609772817198235 0 0 0
493 1 2 -1.1794 7.303011528918219 1.743403377232549 2.9904872012649424 0 0 0
188 1 1 0.5897 2.662059900799495 0.1794421044630603 2.2610738763511526 0 1 0
846 1 1 0.5897 7.502951443984638 1.9571939415297144 4.827140506234644 0 0 0
1 1 2 -1.1794 0.3413773310669402 2.9734215544780804 1.842151879799991 0 0 0
597 1 1 0.5897 0.6882541666289625 5.623971111279446 3.8604432430947733 0 0 0
137 1 1 0.5897 5.178995417211306 5.660205864717332 3.875286480559255 0 0 0
668 1 1 0.5897 5.0293506675530075 3.136995352825574 0.11992431481359463 0 0 0
595 1 2 -1.1794 0.6763928200589607 5.549197424792783 2.9062170811590864 0 0 0
181 1 2 -1.1794 0.7748146411586553 5.824615726897244 5.560219064537825 0 0 0
487 1 2 -1.1794 2.7913117853672285 1.931481052825945 5.546014454106561 0 0 0
83 1 1 0.5897 4.366152286529882 2.637322172949435 6.270375346045281 0 0 0
112 1 2 -1.1794 0.8745035687781204 5.387835368593079 10.386266389480244 0 0 0
82 1 2 -1.1794 5.113771918937163 3.0563947351761223 6.696431010774952 0 0 0
35 1 1 0.5897 0.7159819311714101 3.785034359292583 9.617723691045883 0 0 0
674 1 1 0.5897 3.4363714483878116 1.9746856515759077 10.030778492258937 0 0 0
356 1 1 0.5897 7.1780740882470235 1.1079339640348682 10.015852534278812 0 0 0
34 1 2 -1.1794 0.6605142987861532 2.9275796005016828 9.195959720872441 0 0 0
844 1 2 -1.1794 7.4365357509755246 2.012021842918986 5.780482179278664 0 0 0
784 1 2 -1.1794 0.6066490764254738 3.2707136372917986 6.568473318636027 0 0 0
673 1 2 -1.1794 2.6716013478660634 1.5536911158497195 10.423173014695982 0 0 0
845 1 1 0.5897 7.341692320409511 1.103704329632857 6.067081974383381 0 0 0
274 1 2 -1.1794 4.767803678891949 2.925421184974937 9.441752841533937 0 0 0
678 1 1 0.5897 5.063471261908183 4.713419424052687 9.995900295653094 0 0 0
183 1 1 0.5897 0.7669312492396112 4.9254372320140645 5.888256936825994 0 0 0
36 1 1 0.5897 1.3742937000833455 2.4222399048957954 9.584855962674013 0 0 0
355 1 2 -1.1794 7.147085337152831 2.041594789781594 10.224403718715852 0 0 0
686 1 1 0.5897 5.241773098300321 4.751923794253729 6.113496992850733 0 0 0
84 1 1 0.5897 5.879628591665313 2.645855565806217 6.295190580879469 0 0 0
276 1 1 0.5897 5.649145133848509 2.6634075427301016 9.707506893246226 0 0 0
675 1 1 0.5897 2.6540729006899424 0.6786861231545074 10.03556389465454 0 0 0
275 1 1 0.5897 4.796601195288045 2.9286016453004797 8.4849682290763 0 0 0
489 1 1 0.5897 2.8795394011779067 1.0756012414781746 5.965383427991338 0 0 0
785 1 1 0.5897 0.6726857557642917 3.2170728321389097 7.52190589211593 0 0 0
488 1 1 0.5897 2.0591185619166614 2.3473094544572253 6.0010630500493995 0 0 0
676 1 2 -1.1794 5.091771884872128 5.608598125912919 10.333598142858026 0 0 0
419 1 1 0.5897 8.80097379376918 3.001283731558326 6.459993050218021 0 0 0
176 1 1 0.5897 8.99954710975959 2.445082893574354 9.714540578135706 0 0 0
685 1 2 -1.1794 5.268947385070644 5.583676558482078 5.640593476765742 0 0 0
166 1 2 -1.1794 3.016721879643963 1.97891278821728 13.18466855756492 0 0 0
167 1 1 0.5897 2.872012142324653 1.892669852354156 12.242392535742765 0 0 0
457 1 2 -1.1794 5.263716008175421 3.053535670756043 14.164230136869003 0 0 0
458 1 1 0.5897 5.987949437255705 2.651839925506572 13.684411414963499 0 0 0
459 1 1 0.5897 4.477410992962219 2.6645674557821546 13.781483357076606 0 0 0
762 1 1 0.5897 5.339292688098947 4.877728171585145 13.421267250025881 0 0 0
594 1 1 0.5897 8.326318975881916 2.4618852717042565 13.282943546431202 0 0 0
168 1 1 0.5897 2.26315892773488 2.478646650687767 13.498484168564127 0 0 0
468 1 1 0.5897 0.9223914146953127 3.288933909111802 15.064754697903775 0 0 0
466 1 2 -1.1794 0.9161706813762408 3.3866578611310945 14.112555905376865 0 0 0
593 1 1 0.5897 7.4843660372994165 1.2131755060589644 13.436075835353083 0 0 0
592 1 2 -1.1794 7.47031941680127 2.094531715652968 13.062970195443741 0 0 0
365 1 1 0.5897 1.04093127466792 5.082536334541753 13.493460638827214 0 0 0
71 1 1 0.5897 5.5015236521750515 3.2388205416231335 15.913794282557632 0 0 0
761 1 1 0.5897 5.204986633165113 5.736357587615308 12.181652145305252 0 0 0
737 1 1 0.5897 2.8575014935411387 0.3045028215959157 13.89469196019931 0 1 0
760 1 2 -1.1794 5.351630106165954 5.788188477252355 13.126151059491786 0 0 0
113 1 1 0.5897 1.0907055153733949 5.4407944668212425 11.31725350703594 0 0 0
364 1 2 -1.1794 1.099872135842976 5.967614161274671 13.13381399306912 0 0 0
357 1 1 0.5897 7.325764881765318 2.08371837497263 11.16385711523934 0 0 0
754 1 2 -1.1794 7.561355141390575 1.8756658019044254 17.687023697087497 0 0 0
21 1 1 0.5897 0.6512189912384283 4.097251001528926 20.932271030607694 0 0 0
277 1 2 -1.1794 5.4872377009541315 5.970147362471568 17.790713633157033 0 0 0
755 1 1 0.5897 7.512985842106144 1.9170943015158601 18.642122064842482 0 0 0
290 1 1 0.5897 3.081159645914826 1.0170829222987994 17.549296028210257 0 0 0
42 1 1 0.5897 7.345359010095853 1.068900071289765 20.69856907324597 0 0 0
289 1 2 -1.1794 3.213973476668724 1.946047228951189 17.737857967810235 0 0 0
41 1 1 0.5897 6.602052658889356 2.3867932037421533 20.74633945246172 0 0 0
143 1 1 0.5897 5.012750410564515 4.968476096478405 20.757896863143692 0 0 0
569 1 1 0.5897 2.040326092581388 2.2993905133386927 20.603561488604647 0 0 0
291 1 1 0.5897 2.396793626786438 2.3649339600860513 17.468026215742945 0 0 0
570 1 1 0.5897 2.9305691629195874 1.861289515969685 19.460201087565082 0 0 0
40 1 2 -1.1794 7.4094819608887965 1.984394867241154 20.42666796007876 0 0 0
70 1 2 -1.1794 5.44405291304175 3.3728068796655353 16.859845343382077 0 0 0
667 1 2 -1.1794 5.0467689791014125 3.269589461395769 21.311089679024434 0 0 0
646 1 2 -1.1794 0.8729657636858442 5.85610618463312 20.63588481527175 0 0 0
568 1 2 -1.1794 2.863241434589674 1.848518903059562 20.414965099239083 0 0 0
756 1 1 0.5897 6.831500156138162 2.416813104171441 17.386053687940347 0 0 0
669 1 1 0.5897 4.286396854097905 2.7868739582615722 20.98720949425764 0 0 0
278 1 1 0.5897 5.409394405961251 5.069349203430575 17.476570245445508 0 0 0
571 1 2 -1.1794 0.9910641013027596 5.582701916933476 17.871358471646893 0 0 0
19 1 2 -1.1794 0.5101066858465104 3.176724779151068 21.15338015801516 0 0 0
72 1 1 0.5897 4.702286414461363 2.8336302262033017 17.133970033447063 0 0 0
142 1 2 -1.1794 5.087435457947094 5.89413556831764 20.526061991161725 0 0 0
134 1 1 0.5897 0.8531237682482118 3.8991471959944173 17.350094579568506 0 0 0
648 1 1 0.5897 0.9631868332887666 5.893695257226756 19.68366787523393 0 0 0
144 1 1 0.5897 5.066241347658654 5.904348718348594 19.569130263426786 0 0 0
360 1 1 0.5897 8.845799544302714 2.9037264367855324 21.016694989623396 0 0 0
599 1 1 0.5897 9.089193834726348 2.840586112295784 16.96725842214962 0 0 0
133 1 2 -1.1794 0.8411234390961213 3.0429490134843724 16.92234051114943 0 0 0
20 1 1 0.5897 0.3353371146381672 3.18002314569298 22.09450136317106 0 0 -1
253 1 2 -1.1794 2.695669764282175 7.171508703055112 2.251787306818916 0 0 0
123 1 1 0.5897 3.091767298732868 8.856892784064907 2.5726507149983644 0 0 0
121 1 2 -1.1794 3.1203971290885444 9.779869622005462 2.82459444477427 0 0 0
122 1 1 0.5897 3.071893111475126 9.769340741196254 3.780528817038253 0 0 0
44 1 1 0.5897 1.6912921226977435 10.353425270816558 2.2496881055754816 0 0 0
218 1 1 0.5897 6.035229669256131 10.717929304440972 2.2574696717515206 0 0 0
363 1 1 0.5897 5.261101060134595 11.220895604043648 0.08992069117395593 0 0 1
219 1 1 0.5897 4.5218353416695445 10.721405382264475 2.2883719914545004 0 0 0
43 1 2 -1.1794 0.909520561540981 10.789456657749156 1.9109048387336012 0 0 0
415 1 2 -1.1794 7.318791253436458 6.904876659702646 2.0090412460337053 0 0 0
417 1 1 0.5897 8.049113284518011 6.47545915654159 2.4543687824409073 0 0 0
254 1 1 0.5897 2.8414183243130204 7.2029773937403 1.3062560299661656 0 0 0
217 1 2 -1.1794 5.2727377544321605 11.198393471837695 1.9352330408852763 0 0 0
66 1 1 0.5897 7.379262988058355 9.683950269675949 3.9275136617876116 0 0 0
65 1 1 0.5897 7.4350766383453735 8.728789239043609 2.754297808017575 0 0 0
64 1 2 -1.1794 7.398996646413436 9.660455711901642 2.970785947455548 0 0 0
416 1 1 0.5897 6.546837947729001 6.408709346993367 2.2810450843781354 0 0 0
255 1 1 0.5897 1.9651013182952797 6.563048941748025 2.3618451833676812 0 0 0
773 1 1 0.5897 8.770160655301842 10.6992983372023 2.3763583198188263 0 0 0
138 1 1 0.5897 4.202988248584957 6.121305410120127 2.813928904709696 0 0 0
396 1 1 0.5897 0.9183869373367564 11.076690990225766 0.2590145246170864 0 0 0
162 1 1 0.5897 7.253794089671699 7.310286506925698 0.27642349751593365 0 0 1
45 1 1 0.5897 0.9499839443923173 11.673026892007234 2.2767534253777986 0 0 0
793 1 2 -1.1794 2.8816220906439196 9.757460731108017 5.548827377124566 0 0 0
256 1 2 -1.1794 2.9783944456485116 9.36690519164352 10.467902934580744 0 0 0
12 1 1 0.5897 2.9540099797649306 8.00710022915655 6.08913593870175 0 0 0
10 1 2 -1.1794 2.9869159824250344 7.109191746622475 6.41909238918584 0 0 0
165 1 1 0.5897 9.046109707217568 6.242080544505709 5.838628470407159 0 0 0
526 1 2 -1.1794 7.2691512561569995 7.056884871498937 9.144841319363882 0 0 0
577 1 2 -1.1794 5.0246088907854825 10.817233143659758 6.616375729302866 0 0 0
145 1 2 -1.1794 7.331925218970611 7.139707772715746 6.3962853266137305 0 0 0
551 1 1 0.5897 0.7865597609336468 11.04785221515691 7.6553022801881 0 0 0
795 1 1 0.5897 3.668753675998017 10.144855246630444 5.931477419666319 0 0 0
580 1 2 -1.1794 5.304633320085731 10.763094603569195 9.513057826433409 0 0 0
650 1 1 0.5897 3.0111452127980707 7.09235015998635 8.277461550968306 0 0 0
822 1 1 0.5897 8.52924815455393 10.18551133929625 9.85245662234616 0 0 0
527 1 1 0.5897 7.319766072378524 7.960649142820671 9.456003027415925 0 0 0
15 1 1 0.5897 1.568013882722063 10.333238450568704 9.811117876296018 0 0 0
582 1 1 0.5897 5.349913769499506 10.747603722694445 8.557032686059381 0 0 0
820 1 2 -1.1794 7.75060878728365 9.720314152375394 10.158052757626777 0 0 0
581 1 1 0.5897 6.110263750899006 10.332348394881214 9.798504948710184 0 0 0
147 1 1 0.5897 7.315997444093545 7.037752957522961 7.347953089663304 0 0 0
649 1 2 -1.1794 2.946189495717323 6.98226724790737 9.226117683048438 0 0 0
528 1 1 0.5897 8.031877695885413 6.626914237443077 9.531456996481307 0 0 0
687 1 1 0.5897 4.501462077365571 6.062588448282812 5.953123138738451 0 0 0
258 1 1 0.5897 3.67081750990624 9.883251375232083 10.055537463520464 0 0 0
13 1 2 -1.1794 0.8613756231356989 10.912667559127037 9.52650416437911 0 0 0
257 1 1 0.5897 2.9713151124908275 8.542804464829445 9.981063903760557 0 0 0
146 1 1 0.5897 6.666331596834306 6.52973911690824 6.0783771890968294 0 0 0
578 1 1 0.5897 5.8790821445148485 10.495914586505112 6.328821220362624 0 0 0
550 1 2 -1.1794 0.6524860832407519 10.949634406788665 6.71260442593618 0 0 0
114 1 1 0.5897 1.4780763378390065 5.999341971429155 9.96451160914382 0 0 0
651 1 1 0.5897 3.660776012806543 6.385409766712988 9.44795942548543 0 0 0
11 1 1 0.5897 2.1683989409527453 6.713451780101788 6.119963535318947 0 0 0
714 1 1 0.5897 7.334731094595806 8.8560046641009 6.097614896042284 0 0 0
713 1 1 0.5897 8.22423843384287 10.076339120869918 5.992075749962586 0 0 0
794 1 1 0.5897 2.159367399268997 10.14156696097494 6.045730806057638 0 0 0
677 1 1 0.5897 5.752891399585431 6.046470409167955 9.797588790281042 0 0 0
14 1 1 0.5897 1.0363444735454928 11.74144120214581 9.972264056287406 0 0 0
579 1 1 0.5897 4.999890240057143 11.728230565754265 6.323699709261486 0 0 0
712 1 2 -1.1794 7.374955351808351 9.732592550810024 5.715311606830836 0 0 0
826 1 2 -1.1794 7.7241518196986885 7.1353916024612145 13.72345542760597 0 0 0
827 1 1 0.5897 6.946870343866208 6.616369268723037 13.517283010309603 0 0 0
332 1 1 0.5897 3.1474383898547185 8.061274658938274 13.938438469810942 0 0 0
797 1 1 0.5897 3.2120498561271558 9.58020991257514 12.23487602489919 0 0 0
796 1 2 -1.1794 3.2411478369046876 9.765214643792868 13.173594665321263 0 0 0
798 1 1 0.5897 2.4214358496203876 10.225582930789196 13.352996209284024 0 0 0
722 1 1 0.5897 4.692945253948172 10.793130423382198 13.891379907900133 0 0 0
261 1 1 0.5897 0.9646957233049023 10.862525167548547 14.925682802168623 0 0 0
723 1 1 0.5897 5.661055460864094 11.22107162891288 14.973660120408166 0 0 0
828 1 1 0.5897 7.671431186255009 7.2817843163920735 14.667943281432121 0 0 0
259 1 2 -1.1794 0.9094475680609971 10.9386030104356 13.97309089455287 0 0 0
331 1 2 -1.1794 3.1623487909036108 7.176295653791602 14.302815401511063 0 0 0
225 1 1 0.5897 3.038113437709064 7.189958703099113 16.00016303838102 0 0 0
721 1 2 -1.1794 5.542940193138913 11.212666106762297 14.023792852288217 0 0 0
475 1 2 -1.1794 7.886630981911502 9.903020589694354 12.986664294064402 0 0 0
476 1 1 0.5897 7.048409842398801 10.31457527348374 13.196557324623246 0 0 0
477 1 1 0.5897 7.804820360619424 9.008980720255805 13.318590225981028 0 0 0
333 1 1 0.5897 3.9559589671025983 6.781470099529918 13.941756027432392 0 0 0
821 1 1 0.5897 7.8231583898343064 9.731971481087259 11.112447608978211 0 0 0
366 1 1 0.5897 1.8324376549785792 6.368399753710399 13.601582967052382 0 0 0
851 1 1 0.5897 9.097314736566682 6.18600948104693 13.086403370179898 0 0 0
520 1 2 -1.1794 7.560858409597965 7.305391474373403 16.497880356524227 0 0 0
572 1 1 0.5897 1.7628638329111304 6.090106199100346 17.62049939748571 0 0 0
141 1 1 0.5897 7.578257781414727 9.08588275814942 21.008349497161795 0 0 0
361 1 2 -1.1794 5.205487220562006 11.169553660610699 21.274691822685796 0 0 0
9 1 1 0.5897 6.927523611639181 10.082204342002694 17.61596089750335 0 0 0
4 1 2 -1.1794 3.061126507517723 7.277071490607339 21.660454179112527 0 0 0
627 1 1 0.5897 2.6780915046375857 10.102410849939456 17.33435354337432 0 0 0
394 1 2 -1.1794 1.0191648702966067 11.25367236087437 21.46269911095333 0 0 0
223 1 2 -1.1794 2.9768623163668413 7.11362513210926 16.95236907213286 0 0 0
140 1 1 0.5897 6.765029812928347 10.359153496626005 20.913092660808417 0 0 0
522 1 1 0.5897 7.676641011337116 8.021664727386106 17.12220515914369 0 0 0
690 1 1 0.5897 2.2358044334659817 10.25747829048412 20.861452571738276 0 0 0
625 1 2 -1.1794 3.4621588508563836 9.687333920022887 17.69354434528414 0 0 0
688 1 2 -1.1794 2.995966999836108 9.785380976947392 20.52182033051583 0 0 0
447 1 1 0.5897 0.29791040216600506 10.344891630644783 17.054380316193892 1 0 0
680 1 1 0.5897 4.976994896690074 10.495911493920502 16.988525349354084 0 0 0
689 1 1 0.5897 3.7366333414992527 10.365775031367686 20.696813960174296 0 0 0
161 1 1 0.5897 6.666580605804759 6.600879972887176 21.21384621463188 0 0 0
626 1 1 0.5897 3.334492228469584 9.713272596500593 18.64185682576207 0 0 0
139 1 2 -1.1794 7.622784643671347 9.991284495017974 20.701025140032023 0 0 0
6 1 1 0.5897 2.9743534465362944 8.110455307093677 21.19771072092155 0 0 0
446 1 1 0.5897 1.0219137356466297 11.673723126785669 17.095176777653464 0 0 0
8 1 1 0.5897 7.546840745597054 9.66879622759442 18.934074085501507 0 0 0
7 1 2 -1.1794 7.660600559710671 9.591129232606955 17.98681577838778 0 0 0
160 1 2 -1.1794 7.280727873628144 7.292951914941908 21.458732174272747 0 0 0
5 1 1 0.5897 3.8261923739940893 6.860810440687873 21.263622508322342 0 0 0
395 1 1 0.5897 0.25374957817756183 10.846226745313723 21.057476281137298 0 0 0
521 1 1 0.5897 6.827751002968926 6.798808388911754 16.84717379576695 0 0 0
224 1 1 0.5897 3.0234126870088667 8.015729683961556 17.26894556978249 0 0 0
279 1 1 0.5897 4.7323903288017295 6.421882877477963 17.413599194690818 0 0 0
679 1 2 -1.1794 5.732712187281335 10.976626553661307 16.651070392505574 0 0 0
462 1 1 0.5897 8.758152915077247 6.326548771207268 20.915314158232853 0 0 0
647 1 1 0.5897 1.6268296570513299 6.343529975719594 20.96783398509084 0 0 0
445 1 2 -1.1794 1.019897966366996 10.826161571055197 16.650400408098697 0 0 0
573 1 1 0.5897 0.2503858994393653 6.14553294817239 17.646183422124892 0 0 0
711 1 1 0.5897 8.894643315127066 6.3375065835540525 17.16040335469539 0 0 0
200 1 1 0.5897 5.3918934981744355 13.57156524248993 4.846091004027136 0 0 0
173 1 1 0.5897 4.531525010698558 14.21687016678853 2.606593650311702 0 0 0
172 1 2 -1.1794 5.2300454681704815 13.740348029035916 3.055035009393774 0 0 0
374 1 1 0.5897 0.9307292243312741 13.202620384243597 3.8363839987906156 0 0 0
558 1 1 0.5897 2.8730017729398196 14.880303321005977 1.0342653028052031 0 0 0
556 1 2 -1.1794 2.928259412240757 15.009819370368271 1.981073361438316 0 0 0
557 1 1 0.5897 2.3102601247350836 14.376770099892692 2.346381356240472 0 0 0
478 1 2 -1.1794 7.504456683694749 15.044856923192329 2.1956527638835026 0 0 0
174 1 1 0.5897 5.276264189533702 12.898932122035413 2.601086048438357 0 0 0
293 1 1 0.5897 3.0122017231520566 16.686123627976848 2.5788402216443886 0 0 0
479 1 1 0.5897 8.291994439587963 14.60671030759003 2.517945414179751 0 0 0
449 1 1 0.5897 7.416272331123317 16.761241696617052 2.655235911000044 0 0 0
480 1 1 0.5897 6.7822602252001785 14.587208030402511 2.625875228063722 0 0 0
373 1 2 -1.1794 1.0126140913020856 13.250307166692455 2.883867484936798 0 0 0
292 1 2 -1.1794 3.060699691101679 17.59112608445117 2.8867574531965956 0 0 0
308 1 1 0.5897 7.292811957765631 17.61710945028712 4.775390865817954 0 0 0
294 1 1 0.5897 3.0353385668638335 17.521598231486188 3.8411211040607154 0 0 0
317 1 1 0.5897 7.608156184117109 14.809978935164109 0.46600361924136946 0 0 0
375 1 1 0.5897 0.2553166449772972 13.76396409295617 2.603286503301452 0 0 0
384 1 1 0.5897 2.994551955516005 16.384438295311867 10.053819029384051 0 0 0
184 1 2 -1.1794 7.27714614697392 17.322378114027114 10.23011555737861 0 0 0
454 1 2 -1.1794 5.611181239873148 13.351390314077886 10.333557234616602 0 0 0
655 1 2 -1.1794 0.8000537962315472 13.432506519503695 5.721956595116492 0 0 0
811 1 2 -1.1794 3.195795107072419 14.634509019349071 9.372360581383793 0 0 0
456 1 1 0.5897 5.522252397353854 12.408006088101384 10.198297924147976 0 0 0
813 1 1 0.5897 2.4998512323964426 14.155523218604634 9.822174065257183 0 0 0
17 1 1 0.5897 3.033828955706172 14.831762603142623 7.586029627442196 0 0 0
766 1 2 -1.1794 1.108137504281808 13.455016822952219 10.602512779764323 0 0 0
239 1 1 0.5897 3.125062954354709 16.583423915839035 6.008096626067938 0 0 0
377 1 1 0.5897 6.995668423654405 14.31239211310042 9.80750058802712 0 0 0
201 1 1 0.5897 6.0205921643354685 13.950732071227462 6.170035254997896 0 0 0
519 1 1 0.5897 8.213553922084806 14.456268213789581 6.331089265956825 0 0 0
812 1 1 0.5897 4.0059243946644205 14.241899472488246 9.69732349273843 0 0 0
18 1 1 0.5897 3.7691287934419884 14.434785293147941 6.323614242069357 0 0 0
376 1 2 -1.1794 7.739645278996049 14.834011187779318 9.506685733882527 0 0 0
16 1 2 -1.1794 2.9754304400407694 14.872276862289567 6.63143800402309 0 0 0
517 1 2 -1.1794 7.434430646857397 14.86975290577143 6.702659963501493 0 0 0
186 1 1 0.5897 7.399107679951574 16.409907537008323 9.968016346109422 0 0 0
378 1 1 0.5897 7.664966792845862 14.83063878690404 8.552387021015353 0 0 0
518 1 1 0.5897 7.40546574027963 15.735869445230122 6.296231538237426 0 0 0
656 1 1 0.5897 1.447350405059577 14.003566706535766 6.135486750592448 0 0 0
768 1 1 0.5897 0.32953484759183105 13.832124878581388 10.193070574259506 0 0 0
382 1 2 -1.1794 2.8309709630258384 17.29731099417728 10.29064537812158 0 0 0
199 1 2 -1.1794 5.234666067315274 13.558150060981644 5.790210465831027 0 0 0
238 1 2 -1.1794 3.0581130627176156 17.457156400615172 5.623007647839133 0 0 0
552 1 1 0.5897 0.6452758780423058 11.845843170813032 6.376540726841613 0 0 0
307 1 2 -1.1794 7.207174228133135 17.491175120507272 5.720418391260085 0 0 0
296 1 1 0.5897 7.861323047713209 14.726748659463606 14.71879424887806 0 0 0
232 1 2 -1.1794 2.9985464729258444 14.683273730484167 13.992121563737317 0 0 0
234 1 1 0.5897 3.188364697550723 14.902363664918541 14.904385159372257 0 0 0
606 1 1 0.5897 3.134065797648004 16.5103529944596 13.332951522547816 0 0 0
427 1 2 -1.1794 5.4624679159737655 13.756707022742201 12.890465751839908 0 0 0
233 1 1 0.5897 3.8135782744878757 14.305993197685815 13.661288470020045 0 0 0
639 1 1 0.5897 1.4883870088905662 13.89846112164438 13.537659976622717 0 0 0
429 1 1 0.5897 6.331161561389484 14.062029704629493 13.151579541362516 0 0 0
428 1 1 0.5897 5.403132569070731 12.869752405913651 13.245383570011644 0 0 0
638 1 1 0.5897 0.6757176232208482 12.62251186129678 13.593579519898121 0 0 0
637 1 2 -1.1794 0.6464680244131804 13.525318860786813 13.276930199113584 0 0 0
295 1 2 -1.1794 7.840669775564098 14.826597212847522 13.767010302037157 0 0 0
270 1 1 0.5897 7.624642228272132 16.591184945822636 13.223359272692756 0 0 0
297 1 1 0.5897 8.647083434250236 14.409240690578915 13.464378081290599 0 0 0
604 1 2 -1.1794 3.1437880225496952 17.44803677963426 13.141053514258816 0 0 0
455 1 1 0.5897 5.569772363162585 13.462610031049032 11.283390856849554 0 0 0
605 1 1 0.5897 2.980215681885578 17.502022045775725 12.199464341488042 0 0 0
268 1 2 -1.1794 7.530764362814976 17.486382394088945 12.897809211254833 0 0 0
269 1 1 0.5897 7.439120195733205 17.388710366267645 11.94999028964502 0 0 0
767 1 1 0.5897 0.9842530731157414 13.607179725938396 11.539403397354036 0 0 0
49 1 2 -1.1794 7.836959494213839 14.620653632785228 16.59512548344265 0 0 0
824 1 1 0.5897 3.922518116685833 14.542231394701485 16.97200277012982 0 0 0
664 1 2 -1.1794 3.3266919809574556 15.061505172119485 21.399546974129684 0 0 0
583 1 2 -1.1794 3.2579166947626677 17.4900142498819 17.599073880336427 0 0 0
158 1 1 0.5897 8.058805652749111 17.647351205370974 20.786477786804852 0 0 0
610 1 2 -1.1794 7.708225563010041 17.20253455034968 17.65435643309594 0 0 0
452 1 1 0.5897 1.1912203189044202 12.91667009216037 20.678153240475872 0 0 0
125 1 1 0.5897 5.552947126316532 13.705658146938816 18.458851291394637 0 0 0
124 1 2 -1.1794 5.445743837357907 13.603482827739969 17.513148984654833 0 0 0
684 1 1 0.5897 4.745763684102254 14.265192722656398 20.536222292641476 0 0 0
50 1 1 0.5897 7.8207111139951575 15.50596698178899 16.958626975030732 0 0 0
666 1 1 0.5897 3.3524158741685275 15.975672993001464 21.117045694952928 0 0 0
316 1 2 -1.1794 7.705442834426351 14.728346236250388 21.656239193594544 0 0 0
52 1 2 -1.1794 1.0822727756037218 13.296031215575388 17.57348452384381 0 0 0
318 1 1 0.5897 7.59564029490224 15.620049130162824 21.326109964757357 0 0 0
665 1 1 0.5897 2.548750487076941 14.700769866894511 20.9744004549607 0 0 0
584 1 1 0.5897 3.361684646450061 16.62365291147593 17.20557701505929 0 0 0
683 1 1 0.5897 6.248975509744658 14.128303901176075 20.64996698091217 0 0 0
126 1 1 0.5897 6.240634231310322 13.983303796866615 17.139051896972184 0 0 0
682 1 2 -1.1794 5.482388083257915 13.733954667523864 20.234138161712004 0 0 0
51 1 1 0.5897 8.64543463111758 14.236778757435266 16.93433924173617 0 0 0
53 1 1 0.5897 1.232502453168871 13.512513197976523 18.493717460436976 0 0 0
451 1 2 -1.1794 1.093080024025297 13.788736200306438 20.295989486287283 0 0 0
715 1 2 -1.1794 3.337249433903988 17.611484813846676 20.39154214512434 0 0 0
716 1 1 0.5897 3.341717036749601 17.48846088373992 19.442270201563595 0 0 0
825 1 1 0.5897 2.414611909373366 14.438115892718182 17.053743300969217 0 0 0
362 1 1 0.5897 5.321916589498474 12.07229618267492 20.978572508405726 0 0 0
612 1 1 0.5897 8.446525430035042 17.538058203187646 17.14599437886347 0 0 0
159 1 1 0.5897 7.335618667690297 17.134851092753806 19.559211491983426 0 0 0
681 1 1 0.5897 5.696141065603535 11.823717772823173 17.09523908351634 0 0 0
823 1 2 -1.1794 3.117697942738447 14.988560367519131 16.709117161018497 0 0 0
54 1 1 0.5897 0.3246588290512058 13.824653021132777 17.323190593045247 0 0 0
453 1 1 0.5897 0.19707126331890024 14.046181284388728 20.512574828019467 0 0 0
157 1 2 -1.1794 7.305145378243377 17.123090161983203 20.515887136034536 0 0 0
267 1 1 0.5897 5.758395220619175 21.745404929107927 2.6527946352441067 0 0 0
696 1 1 0.5897 1.1970951493616437 21.60424813693962 2.6693511880689855 0 0 0
266 1 1 0.5897 4.249993004794247 21.69177938999773 2.7674797357342102 0 0 0
265 1 2 -1.1794 5.046960472212953 21.243851164852853 3.050781032214836 0 0 0
344 1 1 0.5897 1.5814934675367935 18.31568884480586 2.3140239080700207 0 0 0
228 1 1 0.5897 5.201571376482208 19.69516805131858 2.1320817285276927 0 0 0
345 1 1 0.5897 0.6874295335806522 18.780323400850605 1.1841965853677048 0 0 0
817 1 2 -1.1794 7.262926687538793 22.534737049973323 2.0608024449209497 0 0 0
249 1 1 0.5897 4.9687699509458465 21.28916793536699 4.837775486365461 0 0 0
226 1 2 -1.1794 5.2965844925998296 18.895381944747232 1.6148711140627081 0 0 0
187 1 2 -1.1794 2.6885516408185564 22.568301999853087 2.124682885236679 0 0 0
695 1 1 0.5897 0.5016054799459513 20.259651263663258 2.6663461550606242 0 0 0
694 1 2 -1.1794 0.41659877652360944 21.15510444455129 2.993636599236755 0 0 0
818 1 1 0.5897 8.01248725302877 22.09399300113618 2.460778078854976 0 0 0
343 1 2 -1.1794 0.7065904654994862 18.65920092814982 2.1335313175722455 0 0 0
189 1 1 0.5897 2.6606689517019073 22.461905334339733 1.173803238539056 0 0 0
413 1 1 0.5897 0.45504606461674696 21.117716474978565 4.770962332819435 0 0 0
227 1 1 0.5897 4.567128602194628 18.341661168371118 1.893011273811068 0 0 0
450 1 1 0.5897 6.631214732785592 18.05470330593358 2.6075884384240977 0 0 0
498 1 1 0.5897 7.309519450328584 22.694955771167553 0.09840011665314824 0 0 0
321 1 1 0.5897 8.942859651016906 18.342107208813577 2.387513951874368 0 0 0
448 1 2 -1.1794 7.42480227004066 17.6640209052268 2.973189660058992 0 0 0
819 1 1 0.5897 7.2716433731885 23.413954470733298 2.4390612952405784 0 -1 0
555 1 1 0.5897 5.085683499104526 20.476941302254136 10.147241173971112 0 0 0
342 1 1 0.5897 0.6725746979880263 18.81284531007418 7.685476373702557 0 0 0
87 1 1 0.5897 8.071341395876441 22.284571691382425 9.707008729911012 0 0 0
37 1 2 -1.1794 2.7105289143677562 22.455026545444014 9.329859507681652 0 0 0
86 1 1 0.5897 7.23756182622341 22.65668168987633 8.499485636413706 0 0 0
247 1 2 -1.1794 5.015831191394643 21.348224343662647 5.792019939357555 0 0 0
32 1 1 0.5897 7.999483338473314 22.256009636020174 6.309394090277257 0 0 0
404 1 1 0.5897 1.4557364664608072 18.405884055222295 9.969141651313535 0 0 0
39 1 1 0.5897 3.438090934082324 21.926883017507592 9.658180561023842 0 0 0
553 1 2 -1.1794 5.021857061988403 21.39482057479111 10.411053125025559 0 0 0
701 1 1 0.5897 2.8183640637508094 22.51785352948018 7.556450927967483 0 0 0
340 1 2 -1.1794 0.6299689564835336 18.67310422149457 6.739460225854727 0 0 0
387 1 1 0.5897 5.067510540626587 19.703617384844016 6.455064403818448 0 0 0
102 1 1 0.5897 5.092283838769323 18.703385713441836 8.572077256136913 0 0 0
700 1 2 -1.1794 2.7908775940292543 22.71414811482677 6.61997850697579 0 0 0
385 1 2 -1.1794 5.1212675839435295 18.815173757888736 6.807136883044569 0 0 0
702 1 1 0.5897 2.1042638745378097 22.14338452315795 6.275178759476528 0 0 0
38 1 1 0.5897 1.9288820391234234 22.03833828226656 9.69244609787831 0 0 0
101 1 1 0.5897 5.833704885430053 18.235234601229283 9.806149443628485 0 0 0
341 1 1 0.5897 1.4809833792993858 18.297787726190464 6.513729648861998 0 0 0
33 1 1 0.5897 6.490638685468848 22.185498693829604 6.407998143812532 0 0 0
403 1 2 -1.1794 0.6773826729470231 18.776391662543993 9.55320589880984 0 0 0
85 1 2 -1.1794 7.230231530402793 22.666520352462133 9.456628868448917 0 0 0
554 1 1 0.5897 5.780700377174352 21.814318949782923 10.005764809357716 0 0 0
405 1 1 0.5897 0.6096288491331763 19.660013954293245 9.91490199000254 0 0 0
240 1 1 0.5897 3.825989188540725 17.924030928930428 5.952351296995469 0 0 0
31 1 2 -1.1794 7.241190327998388 22.723701945436016 6.659147271902372 0 0 0
100 1 2 -1.1794 5.0345993001749 18.682185202643645 9.527323605771402 0 0 0
248 1 1 0.5897 4.21864585780454 21.81455559523423 6.0432076367844445 0 0 0
386 1 1 0.5897 5.91238966749933 18.448236992804976 6.412737109008305 0 0 0
94 1 2 -1.1794 0.529316126711183 21.361771780101193 10.625596399497727 0 0 0
412 1 2 -1.1794 0.5516529262278339 21.181141505612388 5.721178843646255 0 0 0
414 1 1 0.5897 0.5984860543982307 20.272631882090497 6.018826995619741 0 0 0
383 1 1 0.5897 3.652045229485133 17.74747047888193 10.092545705865664 0 0 0
309 1 1 0.5897 7.9962726673195625 17.88896164167887 6.088049427193234 0 0 0
185 1 1 0.5897 8.091136967169952 17.75626943829328 9.974760634145536 0 0 0
380 1 1 0.5897 0.689128864705753 20.685058718215153 13.613044581468632 0 0 0
88 1 2 -1.1794 5.222308151586904 21.580395686946957 13.168501401689875 0 0 0
381 1 1 0.5897 1.39596190182843 22.017998635229567 13.736696764598197 0 0 0
90 1 1 0.5897 5.136956042349346 20.67361641571203 13.462865693967265 0 0 0
763 1 2 -1.1794 5.3340768911829874 18.86177128855609 13.918923020976695 0 0 0
738 1 1 0.5897 3.488555078541002 22.26523496383514 13.84578377539768 0 0 0
89 1 1 0.5897 5.100939905399927 21.537251409049176 12.219989016920987 0 0 0
764 1 1 0.5897 4.562881394005466 18.373305805309567 13.631309743544763 0 0 0
474 1 1 0.5897 5.385259646529243 18.888681428162712 15.793862983160713 0 0 0
765 1 1 0.5897 6.075818650708487 18.35670367036762 13.586052608476848 0 0 0
350 1 1 0.5897 2.8847839435380536 22.694057554638576 16.02135504379372 0 0 0