#include		in.partitions
include		in.temp
variable        temperature equal 246.47
variable	tempDamp equal 100.0
include		in.pressure
variable        pressure equal 7750.3
variable        pressureDamp equal 1000.0 # This is 1 ps
include		in.seed
variable        seed equal 745823

units		real
atom_style	full
read_restart    restart.lmp.${pid}
read_restart    restart.lmp.0
Reading restart file ...
  restart file = 30 Jul 2021, LAMMPS = 30 Jul 2021
  restoring atom style full from restart
  triclinic box = (-3.2349609 -0.081427661 -0.028357202) to (14.844960 22.661427 19.258355) with tilt (-0.24292869 -6.7233692 0.15753193)
  2 by 4 by 4 MPI processor grid
  restoring pair style lj/cut/tip4p/long/omp from restart
  restoring bond style harmonic/omp from restart
  restoring angle style harmonic/omp from restart
  1008 atoms
  672 bonds
  336 angles
Finding 1-2 1-3 1-4 neighbors ...
  special bond factors lj:    0        0        0       
  special bond factors coul:  0        0        0       
     2 = max # of 1-2 neighbors
     1 = max # of 1-3 neighbors
     1 = max # of 1-4 neighbors
     2 = max # of special neighbors
  special bonds CPU = 0.002 seconds
  read_restart CPU = 0.007 seconds

include 	in.setup
variable	out_freq equal 1000
variable	out_freq2 equal 10000
variable	out_freq3 equal 1000

timestep	2.0

neigh_modify    delay 7 every 1

include		in.tip4p
# This is TIP4P/Ice

# create groups ###
group ox type 2
336 atoms in group ox
group hy type 1
672 atoms in group hy

# set charges - beside manually ###
set group ox charge -1.1794
Setting atom values ...
  336 settings made for charge
set group hy charge 0.5897
Setting atom values ...
  672 settings made for charge

# ### TIP3P Potential Parameters ###
pair_style lj/cut/tip4p/long/omp 2 1 1 1 0.1577 8.5
pair_coeff 1 1*2 0.000 0.000
pair_coeff 2 2 0.21084 3.1668
bond_style  harmonic
bond_coeff  1 450 0.9572
angle_style harmonic
angle_coeff 1 55 104.52
kspace_style pppm/tip4p/omp 1.0e-5
pair_modify tail yes

thermo          ${out_freq}
thermo          1000
thermo_style    custom step temp pe etotal epair emol press lx ly lz vol pxx pyy pzz pxy pxz pyz enthalpy

restart 	${out_freq3} restart.lmp.${pid} restart2.lmp.${pid}
restart 	1000 restart.lmp.${pid} restart2.lmp.${pid}
restart 	1000 restart.lmp.0 restart2.lmp.${pid}
restart 	1000 restart.lmp.0 restart2.lmp.0


include         in.dump
dump            myDump all atom ${out_freq2} dump.water.${pid}
dump            myDump all atom 10000 dump.water.${pid}
dump            myDump all atom 10000 dump.water.0
dump            myDump2 all dcd ${out_freq2} dump.dcd
dump            myDump2 all dcd 10000 dump.dcd
dump_modify     myDump append yes
dump_modify     myDump2 append yes


variable natoms 	equal  "count(all)"                        # NUMBER ATOMS
variable H      	equal  "enthalpy/v_natoms"                 # ENTHALPY-per-atom
variable Vol      	equal  "vol/v_natoms"                 # volume-per-atom
fix AVG all 		ave/time ${out_freq} 1 ${out_freq} v_Vol v_H file vol_enthalpy.dat
fix AVG all 		ave/time 1000 1 ${out_freq} v_Vol v_H file vol_enthalpy.dat
fix AVG all 		ave/time 1000 1 1000 v_Vol v_H file vol_enthalpy.dat



fix 		1 all shake 1e-6 200 0 b 1 a 1
       0 = # of size 2 clusters
       0 = # of size 3 clusters
       0 = # of size 4 clusters
     336 = # of frozen angles
  find clusters CPU = 0.001 seconds
fix             2 all nph tri ${pressure} ${pressure} ${pressureDamp}
fix             2 all nph tri 7750.3 ${pressure} ${pressureDamp}
fix             2 all nph tri 7750.3 7750.3 ${pressureDamp}
fix             2 all nph tri 7750.3 7750.3 1000
fix             3 all temp/csvr ${temperature} ${temperature} ${tempDamp} ${seed}
fix             3 all temp/csvr 246.47 ${temperature} ${tempDamp} ${seed}
fix             3 all temp/csvr 246.47 246.47 ${tempDamp} ${seed}
fix             3 all temp/csvr 246.47 246.47 100 ${seed}
fix             3 all temp/csvr 246.47 246.47 100 745823


run             250000
PPPM initialization ...
  extracting TIP4P info from pair style
  using 12-bit tables for long-range coulomb (../kspace.cpp:340)
  G vector (1/distance) = 0.37953462
  grid = 24 27 32
  stencil order = 5
  estimated absolute RMS force accuracy = 0.0024135563
  estimated relative force accuracy = 7.2683533e-06
  using double precision FFTW3
  3d grid and FFT values/proc = 5355 672
Last active /omp style is kspace_style pppm/tip4p/omp
Neighbor list info ...
  update every 1 steps, delay 7 steps, check yes
  max neighbors/atom: 2000, page size: 100000
  master list distance cutoff = 10.8154
  ghost atom cutoff = 10.8154
  binsize = 5.4077, bins = 5 5 4
  1 neighbor lists, perpetual/occasional/extra = 1 0 0
  (1) pair lj/cut/tip4p/long/omp, perpetual
      attributes: half, newton on, omp
      pair build: half/bin/newton/tri/omp
      stencil: half/bin/3d/tri
      bin: standard
Per MPI rank memory allocation (min/avg/max) = 10.31 | 10.32 | 10.33 Mbytes
Step Temp PotEng TotEng E_pair E_mol Press Lx Ly Lz Volume Pxx Pyy Pzz Pxy Pxz Pyz Enthalpy 
 3000000    252.67013   -4829.2582   -4323.8867   -4829.2582            0    8410.7727    18.079921    22.742854    19.286712    7930.4841    9426.0848    8550.2829    7255.9502   -264.43578    129.01368   -1943.1782   -3351.1138 
 3001000    255.47014   -4872.6101   -4361.6383   -4872.6101            0    7821.1362    17.984771    22.877797    19.325117    7951.3569    6846.4974    9111.7941    7505.1171    86.814841     520.7694   -385.91187   -3454.6807 
 3002000    250.99286   -4854.6684   -4352.6517   -4854.6684            0    8607.2842     18.00574    22.803309    19.296384    7922.9109    6751.1717    9110.4056    9960.2753    103.14259    59.699023    1420.6818   -3358.1013 
 3003000    239.75001   -4848.8073   -4369.2776   -4848.8073            0    6607.8989     17.92904    22.860558    19.441544    7968.4639    6180.4215    6819.1212     6824.154   -637.10897     43.28098   -1447.2233   -3601.3613 
 3004000    239.77946   -4877.1757   -4397.5871   -4877.1757            0    7668.0185     17.99511    22.849231     19.28842    7930.9049    7467.5326    7482.1552    8054.3677    301.39549   -1440.6828   -882.54091   -3510.6726 
 3005000    249.33009   -4860.9508   -4362.2598   -4860.9508            0    6857.0413    18.090996    22.674258    19.451077    7978.8301    5170.8885    8069.7168    7330.5185   -388.96523    853.64963    257.91069   -3564.3535 
 3006000    253.41719   -4858.4088   -4351.5431   -4858.4088            0    8149.0666     18.07677    22.779864    19.279321    7938.9612    7338.2075    8334.3511    8774.6412   -791.71482    39.757745   -1393.3475   -3408.0311 
 3007000    238.26248   -4842.8349   -4366.2805   -4842.8349            0    8158.1653    17.833738    22.881894    19.444139    7934.5639     9227.957    7673.9185    7572.6204   -556.10837    277.85776   -676.67962   -3422.2382 
 3008000    245.20175   -4861.1639   -4370.7302   -4861.1639            0    4487.6234    18.141175    22.975248    19.361754    8069.9401    4156.5081    4705.8931     4600.469   -625.72488   -677.45773     1598.206   -3842.5737 
 3009000    239.74361   -4810.3963   -4330.8794   -4810.3963            0    8399.2235    17.915231    22.784781    19.450907    7939.7555    6763.0663    8712.3406    9722.2637    2227.8711   -909.81557    745.25853   -3358.3066 
 3010000     256.8586   -4851.4201   -4337.6712   -4851.4201            0    9343.7112    18.031484     22.80619    19.241331    7912.6019    8575.1356    9495.3388    9960.6591   -110.43564    48.445763   -462.84874   -3259.4333 
 3011000    247.30975   -4856.9447   -4362.2947   -4856.9447            0    9686.2046    17.924234    22.654197    19.430143    7889.7868    9771.0562    10096.639    9190.9185    609.87219   -1879.6804     390.5156   -3247.7569 
 3012000    249.76151    -4821.421   -4321.8671    -4821.421            0    7549.1802     18.24806    22.610102    19.351629     7984.298    7060.7398    6390.5567    9196.2442    571.59034   -776.06169    516.00425   -3442.8195 
 3013000    251.67504   -4837.5075   -4334.1263   -4837.5075            0    7772.6226    18.118263    22.680317    19.387072    7966.6895    10863.575    6227.4439    6226.8492   -53.595128   -90.086597     77.22695   -3431.0564 
 3014000    254.69052     -4876.86   -4367.4475     -4876.86            0    8763.2378    18.136643    22.541079    19.439542    7947.2638    10219.943    7582.8414    8486.9295    770.73217    -150.5038   -2064.3417   -3351.7647 
 3015000    247.97595   -4854.1033   -4358.1207   -4854.1033            0    6194.0698    18.083532    22.579108    19.491915     7958.744    6187.5656    6698.8467    5695.7971    -576.9858   -840.40825   -1246.2032   -3639.1743 
 3016000    253.18362   -4860.5877   -4354.1892   -4860.5877            0    7162.4628    18.065259    22.708393    19.368031    7945.4055    5699.4821    8403.0081    7384.8982    411.56559    418.57143    816.25101   -3524.2346 
 3017000    245.73146   -4855.2633   -4363.7701   -4855.2633            0    6259.4621    17.900278    23.082872    19.372532    8004.5331    7940.6324    5881.5711    4956.1828    197.84707    475.53713    650.65945   -3633.0536 
 3018000    244.42367    -4880.272   -4391.3944    -4880.272            0    6662.7321    17.911145    23.160909    19.165876    7950.7411    4643.6084    7373.2852    7971.3028   -276.33659    -190.2025   -589.26854    -3618.828 
 3019000    250.76545    -4860.467   -4358.9051    -4860.467            0    8932.8282    17.780004    23.095326    19.192929     7881.288    11473.206    7165.6861    8159.5929    374.85968   -629.64326    2748.9876   -3332.1614 
 3020000    255.73969   -4877.8842   -4366.3732   -4877.8842            0    6505.4171    17.707875    23.084035    19.421362     7938.855    8191.9377    7235.1177    4089.1959    550.89718   -212.84241   -1957.4768   -3613.1756 
 3021000    230.06945   -4849.8464   -4389.6791   -4849.8464            0     6109.879    18.026868    22.990488    19.264098    7983.9379    6865.0428    5413.8884    6050.7057     1103.338    104.74782    451.72211   -3678.2597 
 3022000    252.29183   -4870.0572   -4365.4423   -4870.0572            0     7630.797    17.935564    22.915487    19.327721    7943.7354     6936.952    8295.5461    7659.8929    1379.4491    67.925851    1099.6279   -3481.4051 
 3023000     228.6091   -4854.0331   -4396.7866   -4854.0331            0    6867.5223    18.090551    22.786079    19.417244    8004.0352    6439.8592    7203.5439     6959.164    943.74069    681.36535     3.747091   -3595.1363 
 3024000    256.04827   -4831.3427   -4319.2146   -4831.3427            0    8091.8526    18.089509     22.67505    19.429048     7969.417    8882.6011    8573.6025    6819.3542   -746.44509   -102.57567    138.90108   -3378.7327 
 3025000    250.85853   -4834.7653   -4333.0173   -4834.7653            0    9450.1291     18.02913    22.739282    19.291136    7908.7766    10490.378    8731.3652    9128.6439    25.595251   -867.70804   -146.99639   -3243.0262 
 3026000    257.31637   -4860.9612   -4346.2967   -4860.9612            0    8164.6529    18.025537    22.508792    19.587186    7947.1688    11314.277    7672.2798    5507.4017    689.18379   -361.97618   -607.86212   -3400.0027 
 3027000    254.34143   -4826.2576   -4317.5433   -4826.2576            0    9447.6714    18.141541    22.436305    19.385892     7890.623    9762.3984     10701.92     7878.696    541.04612   -904.09046   -62.526334    -3230.337 
 3028000    243.12519    -4865.734   -4379.4535    -4865.734            0    7337.0808    18.217156     22.54079    19.375715    7956.2321    7029.7987    8041.7562    6939.6874    333.48738    1150.2674    38.857359   -3528.1065 
 3029000    251.71637   -4861.4676   -4358.0037   -4861.4676            0    8467.9223    17.991091    22.568393    19.554273    7939.6218    8716.1997     9079.263    7608.3041    924.21162    844.72919    1688.5409   -3377.4925 
 3030000    244.43079   -4822.0983   -4333.2065   -4822.0983            0    8169.7485    18.129531    22.703396    19.299058    7943.5294    6662.1759    8979.7876     8867.282   -1382.9941   -912.79705   -762.80904   -3386.7556 
 3031000    266.39366   -4862.7047   -4329.8844   -4862.7047            0    7911.8159    17.969995    22.652373    19.550519    7958.2939    7711.9382    7902.6847    8120.8249   -476.44703    -626.3893    1425.1626    -3411.611 
 3032000    257.77075   -4855.5376   -4339.9643   -4855.5376            0    8395.8284     18.17676    22.745435    19.144151    7914.9254    6193.5842    9106.7213    9887.1797   -377.76162   -382.88768   -1150.5632   -3370.8249 
 3033000    249.96844   -4864.7648    -4364.797   -4864.7648            0    6280.8889    17.922988    23.018105    19.371641    7991.8329    7540.8247    6989.5279    4312.3142    560.95479    815.63591    188.40687   -3632.7426 
 3034000    236.88281   -4870.2337   -4396.4388   -4870.2337            0     5834.826    17.871599    23.240831    19.216968    7981.7831    8313.0454    5261.5849    3929.8476   -936.55168    864.95931    782.08938   -3717.2293 
 3035000    238.88178   -4875.4154   -4397.6223   -4875.4154            0    8040.3631    17.947124    22.998987    19.190855    7921.3261    8149.4807    7578.4895    8393.1192    220.72556    747.03953    117.95105   -3468.7641 
 3036000     234.0558   -4848.1137   -4379.9731   -4848.1137            0    9568.2294     17.75349    22.991737    19.360629    7902.6911    10390.252    9077.8612    9236.5751   -33.376937   -191.99616    173.89292   -3277.2094 
 3037000    250.66142   -4856.2958    -4354.942   -4856.2958            0    8088.6898    18.019351     22.94465    19.201029    7938.6213    8268.2394    7611.5596    8386.2705   -1061.5122   -984.49439   -1514.7078   -3418.4606 
 3038000     244.5749   -4853.8306   -4364.6506   -4853.8306            0    7349.8868     17.95331    23.029855    19.304312    7981.6021    7268.7513    8010.3479    6770.5612    24.581403    277.16542    1937.8533   -3509.0982 
 3039000    244.10391   -4866.4698   -4378.2318   -4866.4698            0    6635.8951    17.899153    22.967604    19.437813    7990.8978    6269.0782    6841.9299    6796.6772    442.63296    961.51058   -31.815273   -3604.8909 
 3040000    258.36249   -4872.2221   -4355.4652   -4872.2221            0    9630.2608    18.082906    22.787286    19.169748    7899.0929    7935.7894     9345.675    11609.318    168.52958   -553.71008   -777.92334   -3246.0576 
 3041000    233.44425    -4832.699   -4365.7817    -4832.699            0    6514.7164    18.008354    22.828176     19.47644     8006.723    6761.9804    6468.0944    6314.0744    777.26886   -721.73746    1201.7713   -3605.0593 
 3042000    259.93208   -4881.9819   -4362.0856   -4881.9819            0    7880.0602    18.022025    22.830168    19.270656    7928.8314    7314.9138    7385.8529     8939.414    81.735049   -926.53403    1209.5553   -3450.8837 
 3043000    244.36478    -4834.031   -4345.2713    -4834.031            0    9626.1717    17.953019    22.742718    19.397386    7919.9616    11804.075    9167.1775    7907.2624   -576.10213    467.22885    393.18469    -3233.405 
 3044000    240.34527   -4864.5284   -4383.8082   -4864.5284            0     10386.46    17.884975    22.740112    19.325768    7859.9125    12389.149    10319.043    8451.1877    284.65135    1074.9039   -585.16946   -3193.2212 
 3045000    241.76057   -4884.9742   -4401.4232   -4884.9742            0    5980.9512    18.126887    22.892826    19.251673     7988.976    4787.9231    5296.0539    7858.8765    995.22669    362.29481    548.28664   -3704.5765 
 3046000    237.06561   -4860.1085    -4385.948   -4860.1085            0    6536.5355    17.946214    22.823251    19.462906    7971.8299    7197.6892    7219.6647    5192.2527    337.31257   -574.65404   -259.23013   -3626.0041 
 3047000    245.82407   -4853.7453   -4362.0668   -4853.7453            0     9602.144    18.131138    22.699621    19.167992    7888.9699    8835.8953    8959.8075    11010.729    1137.8838   -149.49287    318.79922   -3257.3158 
 3048000    245.82695   -4864.3317   -4372.6474   -4864.3317            0    8260.9358    17.833625    22.844046    19.372128    7892.0529    8196.6342    8319.6437    8266.5295     330.7259   -589.49809   -1791.4911   -3421.8344 
 3049000    246.52992   -4822.9132   -4329.8229   -4822.9132            0    9487.6555    18.086835    22.862973    19.108702    7901.8082    7884.9973    10602.186    9975.7837    371.46727    854.23223    -807.1808   -3236.4677 
 3050000    238.67384   -4858.4797   -4381.1025   -4858.4797            0    8531.7416    17.941467    22.864136    19.310452    7921.4592    9166.8322    8874.7294    7553.6631    172.42856    2015.4391    193.20956   -3395.4615 
 3051000    256.22018   -4811.9893   -4299.5173   -4811.9893            0    6871.6809    18.119023    22.980852    19.295563    8034.4905    7295.6515    5578.2298    7741.1613   -1515.3389   -411.77278   -1153.0865   -3494.3295 
 3052000    240.61065   -4862.5033   -4381.2523   -4862.5033            0    9973.2197    17.986581    22.777686    19.245737    7884.8381    10733.228    10678.764    8507.6676    466.17747    1991.9454   -469.96948    -3234.409 
 3053000    237.12293   -4863.2631    -4388.988   -4863.2631            0    9171.8178     17.92911    22.770647    19.304723    7881.2964    7192.8936    10350.498    9972.0615   -853.23116   -534.20955   -1834.5814   -3334.7735 
 3054000    262.79188   -4854.8433    -4329.227   -4854.8433            0    7312.0683    18.140211    22.932217    19.156077     7968.837     6892.666    6335.6231    8707.9157   -249.90935   -2042.3041    421.97016   -3479.4381 
 3055000    254.68876   -4845.1115   -4335.7025   -4845.1115            0     9437.439    17.814052    22.701512    19.530342     7898.186    9814.9856     10109.87     8387.461   -138.59303    657.96603    205.29222   -3248.6328 
 3056000    266.79962   -4851.6053   -4317.9731   -4851.6053            0    7936.1143    18.158284    22.828945    19.218875    7966.8861    9272.0971    7009.3345    7526.9114    237.03054   -96.302801   -1860.1319    -3395.885 
 3057000    239.06646   -4876.2775   -4398.1151   -4876.2775            0    6908.4628    17.926911    22.848131    19.466438     7973.383    7937.1176    7479.2998     5308.971     2582.396    14.264475   -159.33569   -3594.7741 
 3058000     247.7012   -4844.7239   -4349.2909   -4844.7239            0    8167.9274    17.929334     22.87513    19.330646     7928.191    8049.0393    8024.0126    8430.7302    395.93414   -1003.9885   -1496.2482   -3404.8781 
 3059000    239.11476    -4842.035   -4363.7759    -4842.035            0    7950.0074    18.000239    22.952381     19.24995    7953.0849    7219.2081    7348.4326    9282.3816    1107.4744   -454.04284   -339.28285   -3441.6738 
 3060000    243.20542   -4854.3848   -4367.9439   -4854.3848            0    7627.6825    18.019203     22.85552    19.198802     7906.801    6448.2406    7847.4188    8587.3881    412.43673    185.29503   -208.46325   -3488.3761 
 3061000    259.10983   -4864.3788   -4346.1271   -4864.3788            0    8635.3726    17.923177     22.95504    19.285509    7934.5841    9330.7116    7101.7564    9473.6498    1355.3255   -1282.4939   -325.80079   -3346.8611 
 3062000    258.06739    -4831.732   -4315.5653    -4831.732            0    7716.8206    18.023705    22.857628    19.275957    7941.2923    7422.5059    7643.6358    8084.3202   -1061.5613   -653.26696   -175.85549   -3421.8371 
 3063000     254.8024   -4832.1981   -4322.5618   -4832.1981            0    8958.6012    17.953156    22.712921    19.377235    7901.4282    9709.9026    8817.1457    8348.7553    710.65572   -121.92378   -1689.1421   -3290.2243 
 3064000    239.52885   -4845.5981   -4366.5108   -4845.5981            0    7287.4923    18.068585    22.839148    19.226618    7934.2692     7442.546    7390.3888     7029.542    2778.7891   -874.96858    1448.1783    -3523.252 
 3065000    247.60681   -4882.0994   -4386.8552   -4882.0994            0    9398.8978    17.906729    22.895122    19.246686    7890.6937    10296.795    7668.1279     10231.77   -545.94157   -898.09388   -1675.5524   -3305.2519 
 3066000    254.68483    -4835.056   -4325.6549    -4835.056            0    9183.0525    17.904447    22.908258    19.256552    7898.2614    7937.8473    10405.746    9205.5641    192.87365   -92.465808    304.69704    -3267.877 
 3067000    235.71022   -4852.1003   -4380.6508   -4852.1003            0    6806.3966    18.023063    22.946212    19.309702      7985.74    7231.4269    6929.9623    6257.8005    369.98317    336.80503   -407.54071   -3587.9518 
 3068000    240.57627   -4831.3021   -4350.1198   -4831.3021            0    8671.0354    17.934365    22.970864      19.2215    7918.6403    7767.5726    8643.1988    9602.3347    689.46661   -4.1505967    -1364.588   -3348.7431 
 3069000     234.2606    -4864.107   -4395.5569    -4864.107            0    8980.4112    17.857053      22.8063    19.379399    7892.3242    8178.2081    10207.744    8555.2818    2989.7768   -1792.6665    1157.5958   -3361.8985 
 3070000    244.39243   -4836.8863   -4348.0713   -4836.8863            0    8001.9458    18.019331    22.960118      19.2144    7949.4963    6626.5525    7670.8699    9708.4152    1715.8489   -802.09489   -1486.7886   -3420.3637 
 3071000    247.88243   -4861.3147   -4365.5193   -4861.3147            0    7588.8839     17.87811    22.946779    19.358765    7941.8375    9041.1755    7586.0774    6139.3987   -697.69063   -520.85637   -2010.5396   -3486.5478 
 3072000    257.29342    -4830.282   -4315.6633    -4830.282            0    5745.1792    18.172925    23.065761    19.215345    8054.5414    5605.1549    4655.0815    6975.3012   -578.79078    -655.6127    305.52958   -3640.7931 
 3073000    237.80747   -4876.3121   -4400.6678   -4876.3121            0    5796.9749    17.950993    22.882082    19.444747    7987.0486    6716.7579    6068.7344    4605.4323   -24.888891    258.28297    19.706828   -3725.4193 
 3074000    246.43658   -4896.6815   -4403.7779   -4896.6815            0    6739.8345    18.016073    22.894677    19.284431    7954.2911     6987.879    6636.4484     6595.176   -855.84815    -133.4778   -860.89642   -3621.9222 
 3075000    234.77374   -4844.7114   -4375.1349   -4844.7114            0    7291.1352    18.030349    22.718769     19.38824    7941.9528    5423.8132    8328.3774    8121.2149    1768.4871   -1.9905654   -989.03554   -3530.6374 
 3076000    253.65053   -4855.9818   -4348.6494   -4855.9818            0    7388.7371    18.007581    23.049884    19.143915    7946.1158    5483.0895    7685.9028    8997.2192    1732.9621     1009.877   -487.11216   -3492.3986 
 3077000    237.97936    -4887.322   -4411.3339    -4887.322            0    5882.9844     17.88374    23.088282    19.357255    7992.7039    8644.6959    4719.9805    4284.2767    1974.2535    756.83398   -429.81964   -3725.5816 
 3078000    262.82585   -4843.5711    -4317.887   -4843.5711            0    7857.9674    18.042047    22.906128    19.287234    7970.9015     5235.207    8803.3945    9535.3008   -26.483501    511.18468    49.027244   -3404.4185 
 3079000     259.8501   -4890.5148   -4370.7825   -4890.5148            0      8328.85    17.989863    22.829738    19.221656    7894.4084    8254.3037    8226.4263    8505.8199    57.514859   -786.46762    871.53433   -3411.8666 
 3080000    249.69621   -4828.0024   -4328.5791   -4828.0024            0     7813.667    17.849657    22.800851    19.504777    7938.1981    7185.9437    7466.8654    8788.1919    1578.0516   -526.74558   -506.99249   -3423.9872 
 3081000    249.33974   -4863.2539   -4364.5436   -4863.2539            0    7321.9216    17.966577    23.119964    19.222136     7984.618    7783.9256    7921.1139    6260.7252   -87.870647   -582.00726   -1144.5718   -3511.9244 
 3082000    236.66579   -4862.7629   -4389.4021   -4862.7629            0    9603.5056    17.853327    23.094581     19.12561    7885.7779    10456.813    9258.5717    9095.1324   -1656.5345    1869.6677   -749.82311   -3284.9415 
 3083000    242.83885   -4826.9779   -4341.2702   -4826.9779            0     8517.971    17.844536     23.10405    19.251667    7937.0975    9954.3344    9324.7393    6274.8392    333.10081     840.6489    189.89994   -3355.2773 
 3084000    251.28273    -4825.171   -4322.5745    -4825.171            0    7519.0798    17.901323    23.019437    19.296408    7951.6321    9995.8224    7367.5395    5193.8774    321.00298   -148.41635   -470.99667   -3450.6139 
 3085000    244.83399   -4867.9836   -4378.2853   -4867.9836            0    6872.0506    17.669238    23.205523    19.422052    7963.5056     9252.002    5462.6843    5901.4654    685.94033    -1062.362   -1463.0767   -3580.1684 
 3086000     239.1674   -4850.3787   -4372.0144   -4850.3787            0    8766.5969    17.906036    23.076407    19.129777    7904.5573    8358.1738    9250.4477     8691.169    713.56478   -619.36022   -599.56404   -3361.4023 
 3087000    247.58746   -4873.0356   -4377.8301   -4873.0356            0    7086.7266    17.927668     22.93372    19.415647    7982.7067    8159.2149    6141.5444    6959.4205    880.03686   -1905.4551    532.03934   -3552.7963 
 3088000    255.45198   -4869.7012   -4358.7656   -4869.7012            0    9888.9133    17.872888    22.772694     19.40095     7896.455    10347.177    10310.278    9009.2849    799.67455    1548.1348     513.7028   -3219.9416 
 3089000    233.31523   -4877.7023   -4411.0431   -4877.7023            0    8256.0533    18.075835    22.723953    19.270225    7915.3302    6025.9523    9094.7821    9647.4255   -221.76723   -436.38603   -534.07399   -3457.9893 
 3090000    234.14136   -4839.8782   -4371.5665   -4839.8782            0    8640.2365     17.93573    22.846237    19.285545    7902.5206    8298.4929    9292.2823    8329.9344    1051.9182    140.52332    713.22999   -3375.7779 
 3091000    236.13279   -4841.7346   -4369.4399   -4841.7346            0    7961.0724     18.11582     22.45965    19.386578    7887.9137    6648.5403    8982.2721    8252.4049   -586.30066    -418.4447   -66.264086   -3453.6209 
 3092000    239.90403   -4846.0258   -4366.1881   -4846.0258            0    9869.2993    18.080314    22.679558    19.273657    7903.2312    9677.9141    9782.3497    10147.634   -655.41159   -264.91068    1176.4108   -3228.6475 
 3093000    252.50649   -4851.4844   -4346.4402   -4851.4844            0    6663.2311    18.017316    22.816789    19.414721    7981.3394    6032.7899    6677.1334      7279.77   -211.70348    44.195722    1379.2276   -3570.8424 
 3094000     249.2339   -4872.8607   -4374.3621   -4872.8607            0    7304.1986    17.963441    22.731561    19.419541    7929.7181    7184.6252    8340.7962    6387.1745   -765.70372   -1182.2867    53.683629   -3529.6549 
 3095000    240.32536   -4879.5089   -4398.8285   -4879.5089            0    9168.7607    18.166343    22.747209    19.068618    7879.7937    8340.7069    9614.7872    9550.7881   -534.73729    510.99898   -722.67825   -3345.1664 
 3096000    242.82162   -4838.2542   -4352.5809   -4838.2542            0    7137.7347    17.834708    22.914636    19.500766    7969.4917    9636.7729    6262.4154    5514.0159    462.84306   -63.136158    2638.2759   -3522.9844 
 3097000      241.929   -4852.4664   -4368.5785   -4852.4664            0     8134.191    18.128507    22.857177    19.113499    7919.9935    5419.6622    8576.7203     10406.19    307.98006    1340.5146    67.348461   -3429.0389 
 3098000    242.12446   -4854.1964   -4369.9176   -4854.1964            0    7767.6055    17.992607    22.748987    19.395258    7938.7428    7838.5812    8541.7465    6922.4888   -408.19275    1029.5285    914.97016   -3470.5965 
 3099000    252.01297   -4873.0939   -4369.0368   -4873.0939            0    8758.9501    18.053651    22.722627    19.340653    7934.0465    6717.8129    10562.825    8996.2125    31.678379     322.6448    545.92216   -3355.5393 
 3100000    250.79826    -4863.296   -4361.6685    -4863.296            0    7668.6773    18.220873    22.651187    19.198639    7923.7465    6685.5761    8111.1669    8209.2889   -694.86558   -932.58929   -525.14161   -3475.4783 
 3101000    239.39622   -4882.0558   -4403.2338   -4882.0558            0     9718.575    18.021989    22.592533    19.405543    7901.2073    11774.276    9077.0609    8304.3883   -48.522758   -29.801033    87.806911   -3283.3526 
 3102000    244.89113   -4850.0313   -4360.2187   -4850.0313            0    7393.3948    18.102221    22.696658    19.381485    7963.0754    8932.3106    6652.7231    6595.1506    531.80642   -119.42098    -219.9762   -3501.5995 
 3103000    254.23448   -4857.3554    -4348.855   -4857.3554            0     7701.626    18.107507    22.658121     19.45281    7981.1394    7801.3445    8754.0538    6549.4797    1288.1588    891.55501   -310.61085   -3452.4109 
 3104000    247.12871   -4845.6935   -4351.4056   -4845.6935            0    7221.1745     18.17309    22.762411    19.352408     8005.382    4704.5819    7865.9985    9092.9433   -2069.8999    -588.1574   -1709.9121   -3508.3314 
 3105000    254.94831   -4823.0923   -4313.1642   -4823.0923            0    8434.9813    18.068163    22.531967    19.457871     7921.518    10140.735    8888.2881    6275.9212   -128.97471    227.73439    244.74262   -3338.6943 
 3106000    239.34975   -4882.0708   -4403.3417   -4882.0708            0    6623.1542    18.150728    22.608829    19.451265    7982.1512     7778.237    6601.8434    5489.3822    -1236.103    430.55291   -164.84949   -3632.3305 
 3107000    250.13334   -4846.6887   -4346.3911   -4846.6887            0    8300.6641    18.091898    22.623882    19.353413    7921.5257    8884.7049    8299.6734    7717.6139    184.69297   -1006.2464    2752.4378   -3387.4376 
 3108000    243.05656   -4828.2938   -4342.1507   -4828.2938            0    9062.0525    18.002467    22.829903    19.322698    7941.5242    7596.9049    9580.3146    10008.938    104.88205   -250.36128    -617.3556    -3292.593 
 3109000    245.96841    -4862.987   -4371.0198    -4862.987            0    8542.9998    18.003434    22.743486    19.369005     7930.849    9401.4134    8116.2201    8111.3658     231.1233    62.529791    309.44133   -3382.9083 
 3110000    239.64156   -4826.4191   -4347.1064   -4826.4191            0    8174.0936    17.955541    22.897746    19.365054     7961.776    10862.342    7722.6164    5937.3221   -241.26739   -731.48679   -227.00328   -3397.9769 
 3111000    262.62459   -4849.4579   -4324.1763   -4849.4579            0    8329.7436    18.155293    22.879371    19.080215    7925.5719    7176.7244    8680.1578    9132.3485   -360.72265   -746.99383   -925.60354   -3361.3718 
 3112000    251.43534   -4854.4977   -4351.5959   -4854.4977            0    8020.8345    17.812086    22.815908    19.481757    7917.3652    10089.393    7674.3957    6298.7151    1302.4287    661.87419    550.11126    -3425.457 
 3113000    243.85613   -4866.9471   -4379.2047   -4866.9471            0    6736.8128    18.092391    22.896405    19.196828    7952.2998    5609.5827    7082.1646    7518.6912   -2517.8662   -901.27929    -2009.331   -3597.8952 
 3114000    248.81095    -4851.118   -4353.4654    -4851.118            0    7302.2371     18.03579    22.823004    19.401986    7986.4574    6386.6666    7804.8913    7715.1533    2036.4773    645.32945     1932.513   -3502.9425 
 3115000     235.7218   -4843.2828   -4371.8101   -4843.2828            0    6338.2628    18.079118    22.920108    19.358186    8021.5547    4692.4014    7029.0541    7293.3329    98.522023    164.12832   -285.13429   -3630.3211 
 3116000    240.09155   -4879.8794   -4399.6666   -4879.8794            0    6832.4689    17.912822    22.895549    19.399563    7956.2244    7304.1796    6392.2862     6800.941   -599.90069   -734.61093   -952.88781   -3606.8722 
 3117000    245.76646   -4882.7324   -4391.1691   -4882.7324            0    8958.7975    17.959641    22.850745    19.227636    7890.8521    7541.7246    10364.708    8969.9601   -1091.1592    734.35564   -1546.8142   -3360.1908 
 3118000    242.18284   -4866.7714   -4382.3758   -4866.7714            0    8643.6271    17.854779    23.114729    19.154685    7905.2989     8864.252    7738.0591    9328.5702    39.625642   -203.47678   -90.548628   -3385.8462 
 3119000    246.15197   -4871.2195   -4378.8852   -4871.2195            0    7969.6556    17.712057    23.287505    19.230226     7931.884    9781.6245    6845.1457    7282.1966   -5.3594068    1001.0603   -1122.8697   -3456.9682 
 3120000     243.0554   -4854.5399    -4368.399   -4854.5399            0     9970.187    17.988969    23.112439    19.026089    7910.4571    10126.295    8726.2409    11058.025    289.19295   -1396.6256   -114.95308   -3218.1794 
 3121000     238.8775   -4863.4619   -4385.6774   -4863.4619            0    7795.6281    17.801956    23.132249    19.229797    7918.8165    9443.0752    7013.3668    6930.4422   -1010.2829    600.09773   -526.11761   -3485.3773 
 3122000    244.84697   -4828.9748   -4339.2506   -4828.9748            0    7294.1523    18.011848    22.988005    19.265627    7977.0574    7936.7371    6399.7438    7545.9761    353.28048    412.63367    1041.6546   -3490.6693 
 3123000    248.39781   -4864.8729   -4368.0466   -4864.8729            0    8409.0854    17.972589    22.822116    19.338486    7932.1155    8221.5343    8401.7224    8603.9996   -2343.6866    157.41797   -626.19964   -3395.2687 
 3124000    245.99778   -4850.2345   -4358.2086   -4850.2345            0    8288.8542    18.040678    22.698947    19.384558    7938.0614    7499.7611    9986.9272    7379.8743    -919.1106       2058.2   -106.99792   -3398.6205 
 3125000    255.26976     -4837.32   -4326.7489     -4837.32            0    10097.056    18.041033    22.606749    19.369375    7899.7818    10371.347    10000.162    9919.6581   -81.785416     569.1218   -733.37941   -3163.4649 
 3126000    249.08246   -4865.4556   -4367.2599   -4865.4556            0    8642.4191    18.081479     22.63984    19.320644    7909.1333    10296.698    7524.3389      8106.22   -233.18563   -345.59146    2551.4532   -3370.3863 
 3127000    243.42115   -4858.2957   -4371.4234   -4858.2957            0    7579.0546    18.039244     22.72307    19.321791    7920.1376     6948.114    7532.3923    8256.6576   -1636.5935   -113.55226    15.241404   -3495.9889 
 3128000    239.66778   -4860.7283   -4381.3631   -4860.7283            0    8845.7334    17.986004    22.770877    19.325031    7914.7034    10292.729    7530.1596    8714.3111   -1284.7449    207.49317    329.72902   -3360.3193 
 3129000    261.16149   -4836.1686   -4313.8134   -4836.1686            0     7782.136    18.062022     22.90529    19.288584    7979.9925    6731.1992    7983.9389    8631.2699   -1488.2304    1074.9851   -720.05569   -3408.1284 
 3130000    232.96567   -4861.4897   -4395.5296   -4861.4897            0    7533.9691    17.946896    22.905255    19.332927    7947.3452    9371.6262    7327.7259    5902.5553   -596.94077    387.18163   -20.842381   -3522.3133 
 3131000    244.39024   -4885.8978   -4397.0871   -4885.8978            0    7518.7787    17.851399    22.902129    19.311957    7895.4048    7340.6354    7404.1143    7811.5864    466.49147    10.615152    748.32937   -3531.3269 
 3132000    251.43521   -4841.4091   -4338.5076   -4841.4091            0    7497.0402    17.985064    23.025935    19.284788    7986.2724    6514.8538    7234.4133    8741.8534    759.04895   -721.47792   -215.40753   -3465.3154 
 3133000     242.9892   -4828.5503   -4342.5419   -4828.5503            0    6323.2542    18.104823    22.845295    19.399984     8024.028     5948.846    6745.1292    6275.7874   -1443.5356    967.38657   -181.64961   -3602.5807 
 3134000    235.65243   -4858.7104   -4387.3765   -4858.7104            0     9513.064    17.997369    22.774799    19.282075    7903.4615    11280.498    8781.7309    8476.9631   -514.61856    562.73477    2247.9769   -3290.8638 
 3135000    241.92888    -4859.135   -4375.2473    -4859.135            0    8186.7236    17.922908    22.895501    19.265304    7905.5938    6143.6588    9699.8442    8716.6679   -1181.1583    1056.9346   -196.70106   -3431.3592 
 3136000    241.99375   -4829.2567   -4345.2393   -4829.2567            0    8479.2401    17.889067    23.009883     19.28853    7939.6482    9454.7526    7576.9779    8405.9899    344.30257     -987.427    1204.8204   -3363.4143 
 3137000     244.0195   -4864.9056   -4376.8364   -4864.9056            0    6769.5807    18.021522    23.036127    19.248813    7991.0691    6519.9407     7175.007    6613.7943   -937.92597     1164.512   -539.62204    -3587.899 
 3138000    254.29808   -4876.7605   -4368.1329   -4876.7605            0    7545.8985    17.841512    23.084438    19.264225    7934.1884    7388.6703    7551.7135    7697.3117    240.09134    886.36444   -626.17391   -3494.9819 
 3139000    244.24602   -4885.6746   -4397.1524   -4885.6746            0    6788.7467     17.90011    23.228674    19.122872    7951.2101    5114.5207    6564.1363    8687.5831    581.00759    353.11707    406.91853   -3609.9277 
 3140000    247.86918   -4845.2401   -4349.4711   -4845.2401            0       7157.9    17.673661     23.27202    19.416129    7985.8887    9415.9985    6596.1333    5461.5681   -989.05513    -114.2958   -346.46829   -3515.8191 
 3141000    235.69905   -4854.9682    -4383.541   -4854.9682            0    5965.7942    18.087981    22.947184    19.293636    8008.1753    4818.6496    6524.8601    6553.8727   -754.18782    124.85282    76.269077   -3686.7898 
 3142000    249.20495   -4866.9463   -4368.5057   -4866.9463            0    6953.6438    18.081031    22.832857     19.19953    7926.3641    4847.5626     7954.466     8058.903   -284.02695     402.0228    -244.8234   -3564.6791 
 3143000    244.42998   -4873.7587   -4384.8686   -4873.7587            0    7010.1787    18.122825    22.598222    19.441538    7962.1575    8170.0316    7742.5957     5117.909    148.44262   -30.011863    -434.9727   -3570.8473 
 3144000    234.30033   -4835.1352   -4366.5056   -4835.1352            0    7000.6251    18.081938    22.654536    19.411402    7951.6462    7658.9693    7428.2694    5914.6367    181.24218    374.37413   -793.47681   -3554.6669 
 3145000    237.76429   -4844.4784   -4368.9204   -4844.4784            0    7939.0351    18.024623    22.727957    19.399899     7947.418    8021.6347    8120.5347     7674.936    158.85595   -414.23144     341.8058    -3448.747 
 3146000    234.68158   -4847.6293   -4378.2371   -4847.6293            0    7514.3349    18.113687    22.792523    19.292359    7964.9785    8751.7525    6600.6506    7190.6017    996.60746   -588.64276    804.00978   -3505.3641 
 3147000    235.85466     -4872.56   -4400.8215     -4872.56            0    7508.3705    17.749138    22.978647    19.372873    7901.2492     7355.074    8485.8832    6684.1544    154.17576    463.13981      1786.54   -3535.6199 
 3148000    241.80048   -4858.7995   -4375.1687   -4858.7995            0    7206.5175    17.933888    23.145676    19.175695    7959.6766    8386.1682    4852.7415    8380.6427   -1619.1717    -686.9035   -1695.7676   -3538.6093 
 3149000     254.9558   -4847.9109   -4337.9678   -4847.9109            0    7617.4629    17.869715     23.07719    19.264815    7944.4787    9720.8453      6450.65    6680.8934    2293.4486    1067.5792    127.06348   -3455.3927 
 3150000    240.66989   -4866.1317   -4384.7622   -4866.1317            0    6821.5872    17.936101    23.098883    19.244977    7973.2691    6771.9105    6354.9269    7337.9243   -100.44798    39.760072   -2406.7906   -3591.5347 
 3151000    258.23138   -4844.9614   -4328.4667   -4844.9614            0    6174.2817    18.054362    22.925893    19.335715    8003.2919    5428.6533    6373.4633    6720.7286    1419.8377   -373.91301    1493.7386   -3607.8058 
 3152000    250.33167   -4858.0074   -4357.3132   -4858.0074            0    7519.9423    17.986116    22.763738     19.36058    7926.8262    7487.1302    7307.1827     7765.514   -1402.4614    532.99317   -1867.2501    -3487.973 
 3153000    259.93318    -4863.589   -4343.6905    -4863.589            0    9455.6173      18.0494    22.685606    19.280382    7894.5754    9166.4595    9626.1317    9574.2608    605.32369    238.35142   -1457.1011   -3255.0248 
 3154000    240.10333    -4846.408   -4366.1717    -4846.408            0    8181.8367    17.982116    22.568098    19.524987    7923.6721    8355.7944    8129.3841    8060.3314    320.15676   -1009.2046     409.7219   -3420.6899 
 3155000    245.11507   -4866.3539   -4376.0935   -4866.3539            0    7341.8024    18.266504    22.386441    19.403994    7934.7199    7088.3424    8197.4334    6739.6315    991.30514   -545.59921   -81.986525   -3526.5019 
 3156000     237.4042    -4877.807   -4402.9693    -4877.807            0    6186.4624    18.139056    22.609176     19.54332    8014.8935    5474.1961      6925.09     6160.101    498.80233    120.91623    2109.1111   -3679.8399 
 3157000    251.42857   -4874.4783   -4371.5901   -4874.4783            0    7290.3452    18.046717    22.740664    19.324365    7930.6102    6001.2919    8691.6696     7178.074    972.59841    1190.7945    -912.3023   -3528.3901 
 3158000    232.37882   -4857.3411   -4392.5548   -4857.3411            0    8345.5548     18.01445    22.728828    19.328183    7913.8726    7654.8839    8888.9653    8492.8152   -380.32057   -731.42198     1810.803   -3429.3466 
 3159000    243.56268   -4877.5477   -4390.3922   -4877.5477            0     6182.358    17.976184    22.781518    19.490962    7982.0315    6111.8328    7664.5754    4770.6658   -772.75359    866.45072   -387.51118   -3670.7055 
 3160000    244.35295   -4842.6642   -4353.9281   -4842.6642            0    7842.8511    18.214847     22.76424    19.151989    7941.3179    6628.4069    7766.3381    9133.8082    431.85722    21.386739   -776.70728   -3445.6007 
 3161000     240.7737   -4870.9431   -4389.3659   -4870.9431            0    8218.0367    17.928428    22.737437    19.461034    7933.2223    8870.5538    8103.4943    7680.0621    667.23068   -367.16593     944.0073   -3438.5562 
 3162000    248.46146   -4860.8572   -4363.9036   -4860.8572            0    5741.8514    18.100999    22.621094    19.547019    8003.8083    5915.2005    6311.5854    4998.7682      267.402    8.8149966   -1506.8502   -3693.6726 
 3163000    240.51315   -4851.7621   -4370.7061   -4851.7621            0    7794.3135    18.071781    22.633062    19.389949    7930.8717    6870.3196    7125.0368     9387.584    977.57769    -867.3279    271.48578   -3469.1876 
 3164000    256.23526   -4895.7404   -4383.2382   -4895.7404            0    7263.8137    18.124635    22.458424    19.576837    7968.7659    6478.8646    9247.2282    6065.3482   -302.10536   -850.94536   -414.20995   -3539.0648 
 3165000    243.82975    -4875.297   -4387.6074    -4875.297            0    7553.1173    18.172515    22.521623    19.448263    7959.6787    5523.0399     7563.325     9572.987    480.11898    270.57099   -2068.8479   -3510.8132 
 3166000    253.50108   -4839.6813   -4332.6478   -4839.6813            0    6402.3046    18.156532    22.684049    19.441967    8007.4396    6637.5617    6477.2149    6092.1372   -53.105679   -1009.1812   -122.67823   -3584.9848 
 3167000    238.34425   -4856.4699    -4379.752   -4856.4699            0    6941.3947    17.929402    22.844634    19.453834    7968.1084    7108.1748    7427.6668    6288.3424    1137.8214    954.73232    1600.9532   -3573.1155 
 3168000    245.67041   -4831.3766   -4340.0054   -4831.3766            0    9709.3121    18.013258    22.880444     19.18599    7907.5313    8347.2892    9456.6829    11323.964   -901.91642    902.50051    169.97869   -3220.2962 
 3169000    251.39526    -4820.414   -4317.5925    -4820.414            0    10694.248    17.724128     22.90708    19.431708    7889.4291      13431.7    9811.0019     8840.043   -1721.1582    7.9607436   -1703.5997   -3087.1205 
 3170000    250.12984   -4848.5923   -4348.3017   -4848.5923            0    8725.1038    17.979258    22.932522    19.146959    7894.4772    9172.2438    7103.7823    9899.2854   -47.418895   -424.41817   -1723.0128   -3343.7556 
 3171000    253.14985   -4852.0902   -4345.7593   -4852.0902            0    8329.0628    17.796805    22.921026    19.361059    7897.7829    8083.9364    8611.1992    8292.0528   -1004.0182   -64.867023   -1546.2384    -3386.409 
 3172000    249.98838   -4883.8937    -4383.886   -4883.8937            0    6231.8607    17.995376    23.122182     19.15329    7969.5376    5309.5668    6361.7268    7024.2884   -749.55287    294.54972   -2133.5648   -3659.5722 
 3173000    247.00907   -4892.5378   -4398.4891   -4892.5378            0    7587.4521    17.919233    22.920601    19.328855    7938.7394    8390.3735    7556.0624    6815.9204   -1385.9247   -27.231363   -1912.2242   -3520.0263 
 3174000    229.24333   -4840.3886   -4381.8736   -4840.3886            0    5852.2062    18.105947    22.887526    19.277664    7988.6705    6087.0144    5913.6393    5555.9651   -1123.6473    435.47236   -371.80441   -3700.0531 
 3175000    244.06669    -4867.149   -4378.9855    -4867.149            0    7068.8528    18.015148     22.55574    19.539916     7939.947    7021.9313    8103.8383    6080.7888    922.78916    517.79888    427.54144   -3560.4408 
 3176000    244.76575   -4865.1087   -4375.5469   -4865.1087            0    8938.9157    18.088505    22.652246    19.332533    7921.4138    7244.0507    9600.2122    9972.4842    412.07038    731.48156      1687.12   -3342.8725 
 3177000    256.52793   -4864.9864   -4351.8988   -4864.9864            0    6627.8389    18.007692    22.823234    19.405435    7975.5127    7794.8028    6641.2301    5447.4839   -748.42225    693.05282    52.866124   -3580.9839 
 3178000    250.02255   -4862.1241   -4362.0481   -4862.1241            0    6613.6888    17.994369    22.952493    19.262087    7955.5431    4350.1544    7648.4094    7842.5025      625.207   -197.72714   -1799.0721   -3594.7052 
 3179000    252.87373   -4849.9415   -4344.1628   -4849.9415            0    7955.9944    17.853149    22.882638     19.33755     7899.914    9145.6995    8701.0639    6021.2199    735.64393    282.81434    746.37639   -3427.5356 
 3180000    242.28617   -4839.6332   -4355.0309   -4839.6332            0    8193.0401    17.921218    22.970223     19.23723    7919.0896    6824.2823    9178.2826    8576.5553    -950.6072   -357.18651   -893.09164    -3408.802 
 3181000    242.59636   -4854.6651   -4369.4424   -4854.6651            0    10434.136    18.038097    22.824605    19.038422    7838.3554    8894.6652    10388.714    12019.029     879.3494    715.91743   -379.53871   -3176.6707 
 3182000    246.74274   -4855.9301   -4362.4142   -4855.9301            0    6138.7299    18.069337    22.758759    19.422734    7987.3211    7303.3363     5884.385    5228.4684     972.8017    743.28756    -1144.192   -3647.3326 
 3183000    239.23115   -4867.5855   -4389.0937   -4867.5855            0    8048.7421    18.003027     22.69149    19.350599    7905.0198    6936.3022    9057.0943    8152.8297   -117.56123   -55.203163   -166.54073   -3461.1815 
 3184000    236.68187   -4860.3632   -4386.9702   -4860.3632            0    8057.0074    18.084315    22.934122    19.143998    7939.9329    6395.1707    8116.1829    9659.6687    273.76292   -779.25886    -1483.051   -3454.0028 
 3185000    254.77858   -4851.1373   -4341.5487   -4851.1373            0    6930.9679    17.952309    22.799561    19.503991    7983.0762    6047.8323    7449.3278    7295.7437    495.58366   -665.40221    25.085881   -3534.6109 
 3186000    243.10236   -4831.6484   -4345.4137   -4831.6484            0    7400.7218    18.032062     22.80877    19.273004    7926.7773    5913.7699    7980.9141    8307.4815    965.72687   -598.04714    110.35562   -3489.8613 
 3187000    244.24852   -4866.8462    -4378.319   -4866.8462            0    7438.3754    18.046609    22.709394    19.339302    7925.7788    6527.2922    7811.8498    7975.9841   -138.43679   -303.20055   -415.18488    -3518.522 
 3188000    258.44829   -4861.4404   -4344.5119   -4861.4404            0    10077.514    17.987379    22.777324    19.288533    7902.5963     10182.97    9055.9479    10993.625   -125.82928   -803.03891   -2069.1859   -3183.0657 
 3189000    235.29529   -4864.0975   -4393.4779   -4864.0975            0    8125.9611    17.984915    22.868365    19.270614    7925.7259    7728.1815    8472.5228     8177.179    1147.5437    1343.3144   -705.85079   -3454.2096 
 3190000     249.3188   -4815.6308   -4316.9624   -4815.6308            0    8041.0606    17.861323    23.010012    19.317452    7939.2651    8552.3548    7897.6537    7673.1732    63.208066   -107.76257   -1314.6874   -3385.9199 
 3191000    253.78659   -4867.9488   -4360.3443   -4867.9488            0     6378.898    17.943688    23.111592    19.297419    8002.7789    7016.4316      5022.06    7098.2024    -89.68547   -875.92211    987.25258   -3615.8483 
 3192000    259.82008   -4875.6369   -4355.9646   -4875.6369            0    7994.8016    17.943179    22.969356    19.226698    7924.1539    10631.719     6995.678    6357.0076   -678.00539   -626.58387   -1971.5075   -3432.0401 
 3193000    236.79559   -4838.5366   -4364.9162   -4838.5366            0    9934.6039     17.92722    23.042678    19.108918    7893.7252     10853.32    8112.4675    10838.024    265.81005    20.616694   -60.112678   -3221.2259 
 3194000    258.20916   -4867.3842    -4350.934   -4867.3842            0    8994.7821    17.790053    23.100284    19.206135    7892.8625    9921.3843    8076.9662    8985.9956   -861.69735    97.603587   -147.61577   -3315.5509 
 3195000    248.50028   -4857.8567   -4360.8255   -4857.8567            0     6188.191    17.810206    23.269031     19.20664    7959.7357    5700.2641    5933.5673    6930.7414   -1079.5884   -965.70569   -1990.8441   -3642.4719 
 3196000    234.67308    -4847.306   -4377.9308    -4847.306            0    6438.1116    17.826985    23.043652     19.37447    7959.0099     8738.172     5560.339    5015.8237     1046.371   -1089.2744    611.07186   -3630.6335 
 3197000    248.21582   -4863.6786   -4367.2163   -4863.6786            0    6572.0137    17.848125    23.107021    19.290041     7955.541    6558.7578    6727.4044     6429.879   -717.02793     398.2758    232.86271   -3604.7089 
 3198000    238.27475    -4836.536   -4359.9571    -4836.536            0    9247.9655    17.765156    23.118964    19.277395    7917.4573    10503.948     9128.372    8111.5763    1653.1205   -891.90604    558.77193   -3292.1131 
 3199000    256.62896   -4860.8498   -4347.5602   -4860.8498            0    7310.5098    18.103175    23.037459    19.124572     7975.925    6114.9689    7103.6481    8712.9122    450.86118   -433.89066   -781.17158   -3497.1967 
 3200000    249.43985   -4870.6516   -4371.7411   -4870.6516            0    8691.6707    17.847922    22.970045    19.355459    7935.1106    9004.0214     8383.139    8687.8518    204.95877    936.09754    905.42922   -3365.8936 
 3201000    243.89717   -4856.3036   -4368.4792   -4856.3036            0    7573.9058    18.144145     22.90443    19.159172    7962.1936      4983.69    7882.5068    9855.5205   -231.75302   -499.07408   -1026.3261    -3488.994 
 3202000    244.66918   -4852.3629   -4362.9943   -4852.3629            0    8538.7822    17.820379    22.697586    19.513036    7892.6249    9435.2627    8670.1169    7510.9671    268.96865   -765.33776   -429.82234   -3380.1307 
 3203000    248.15491   -4895.2399   -4398.8994   -4895.2399            0    7531.8818    18.088919    22.847017     19.22135    7943.7585    7764.5306    6989.0281    7842.0867    1126.1806     -1187.71    1981.5403   -3526.3191 
 3204000    254.45405   -4901.9194   -4392.9799   -4901.9194            0    9628.4135    17.967507    22.679704    19.298449    7864.0746    10166.162    8654.0591     10065.02    36.813726   -1193.1917    -220.7723   -3288.7023 
 3205000    250.00719   -4890.7672   -4390.7219   -4890.7672            0    8207.7872    17.910371    22.880116    19.266587    7895.2811    11439.617    6542.4959    6641.2484   -833.32566   -252.84827    201.84579   -3445.6398 
 3206000    243.71667   -4871.6494   -4384.1859   -4871.6494            0      6973.83    18.083969    22.852641    19.234372    7948.9208    8556.5142    6265.5786     6099.397    898.84364    532.31638     825.1278   -3575.7318 
 3207000    244.04068   -4858.2795   -4370.1679   -4858.2795            0    5250.1867    17.761785    23.142594     19.50503    8017.6163    6196.3551    5542.2337    4011.9714   -7.1849868    175.47502    1386.2757   -3756.2704 
 3208000    253.03689   -4855.5274   -4349.4224   -4855.5274            0    6389.1291    18.053198    22.975878    19.212996    7969.3215    5620.9234    6402.6049    7143.8591    1536.1901   -920.47384    932.93127   -3606.8498 
 3209000    244.39749   -4857.8219   -4368.9967   -4857.8219            0    7618.9644    17.795896    23.094335    19.382826     7966.039    8510.8833    6673.8681    7672.1418   -275.68353   -696.91752    670.55036    -3483.852 
 3210000    256.17829   -4858.1077   -4345.7195   -4858.1077            0    8655.5209    17.871485    22.912734    19.307706    7906.2076    9298.0379    8927.5133    7741.0115   -32.053254   -160.94789   -1361.6248   -3347.7039 
 3211000    245.90523   -4856.9466   -4365.1057   -4856.9466            0    7749.5826    17.962678    22.968019    19.262553    7947.0966    8100.2029    7888.4335    7260.1113   -1484.8849   -4.7378267   -187.52811   -3466.9272 
 3212000    250.42467   -4866.5408   -4365.6605   -4866.5408            0    9182.3697    17.846475     22.77293    19.475984    7915.3617    9220.7088     9873.432    8452.9683   -258.56794    392.09133   -683.49285   -3305.6714 
 3213000    245.98607   -4852.9762   -4360.9737   -4852.9762            0    8709.8613    17.975633    22.815589    19.215825    7880.8836    6854.8191     10113.32    9161.4449    2561.5163    -422.4558    1063.9855   -3359.9092 
 3214000    245.20905   -4859.8723   -4369.4239   -4859.8723            0    7153.1509     18.01694    22.861809    19.323471    7959.3344    8380.7416    6575.1162    6503.5948    679.81758   -91.508765   -1370.0351   -3539.0952 
 3215000    246.48588    -4912.354   -4419.3518    -4912.354            0    6248.3241    17.910637    22.962845    19.348995    7957.8389    4991.5196    7590.6331    6162.8195    1091.2239    244.68415    -483.4715   -3694.1906 
 3216000       251.67    -4875.931   -4372.5599    -4875.931            0    7830.3781     18.06799     22.78706    19.300302    7946.2506    6010.7109    7816.8752    9663.5482    805.36572    694.36704   -1374.7987   -3465.1137 
 3217000     240.8349   -4885.4477   -4403.7481   -4885.4477            0     6372.865    17.934352    22.835462    19.416709    7951.9034    7761.0015    6344.4107    5013.1827     557.9147   -799.85282    -870.9885   -3664.6847 
 3218000    246.60495   -4843.7018   -4350.4614   -4843.7018            0    7831.5172    18.037639      22.8648    19.330286    7972.3318    8095.4444    7706.6883     7692.419    256.70646   -415.19386    2000.1948   -3439.9043 
 3219000     252.2482   -4868.0691   -4363.5415   -4868.0691            0    9459.1411    17.966569     22.76743    19.276005    7884.8996    7432.0903    10248.081    10697.252    1829.5242    128.23024   -1258.9377   -3275.8048 
 3220000    240.09942   -4875.4054   -4395.1769   -4875.4054            0    8802.6945    18.002317    22.875856    19.189183    7902.4592     7887.663    8416.0541    10104.366    865.12914    673.72931    2116.0429   -3380.6729 
 3221000      243.118   -4864.5993   -4378.3332   -4864.5993            0    6684.7748    17.895121    22.994548    19.368729    7970.0425    8882.9561    6738.8432    4432.5252     2295.161   -591.27782    394.88135   -3601.3291 
 3222000     235.4703   -4880.0177    -4409.048   -4880.0177            0    7531.2114    17.860981    22.975176    19.317279    7927.0228    9880.0368    6777.8517    5935.7457    -230.9531    951.25302   -285.26048   -3538.3835 
 3223000    249.69343   -4895.0149   -4395.5972   -4895.0149            0    7805.8315    18.065781    22.811874    19.165074    7898.2015    4976.4946    8610.9078    9830.0921   -195.30902   -526.26646   -387.82052   -3496.4655 
 3224000    260.52167   -4884.5112   -4363.4357   -4884.5112            0    7467.9514     17.99447    22.643852    19.417473    7911.9235    6887.6288    8776.8696    6739.3558     905.6838     397.7684   -153.50512   -3501.7291 
 3225000    244.79975     -4874.17   -4384.5402     -4874.17            0    8761.1641    18.039959    22.746296    19.294471    7917.3365    7884.2638    8871.7724    9527.4561   -724.51213   -709.59837    527.73265   -3372.9216 
 3226000    240.05694   -4845.5156    -4365.372   -4845.5156            0     9987.352    18.040055    22.769054    19.190018    7882.3958    9642.5299    10081.227    10238.299    99.141549   -1062.7323   -280.30382   -3217.2594 
 3227000    265.16297   -4830.0068   -4299.6481   -4830.0068            0     9064.187    17.872371    22.713686    19.484386    7909.6361    8690.4269    9040.1625    9461.9716    1045.0144   -690.82249    163.86902   -3254.0585 
 3228000    250.83283    -4840.327   -4338.6303    -4840.327            0    9623.7078    18.134025    22.744537    19.143919    7895.9092     9390.876    10187.079    9293.1686   -111.61907    633.19587    4.8743061   -3230.4244 
 3229000    245.46777   -4841.1835   -4350.2176   -4841.1835            0    6333.3188    18.055085    22.953138    19.326004    8009.0988    6011.3256    6953.1393    6035.4915   -1021.9445   -210.25153   -70.468937   -3610.4575 
 3230000    258.29415     -4845.12   -4328.4998     -4845.12            0    6831.8292    17.974359    22.901299    19.390951    7982.0168    7325.1671    7566.2205    5604.1001    632.56504    1031.8195   -233.55715   -3533.2097 
 3231000    265.74533   -4870.2151   -4338.6916   -4870.2151            0    8648.2553    18.010412    22.880121     19.21341      7917.47    7081.7552    8743.7585    10119.252    1502.9753    413.80463    1546.0651   -3340.0933 
 3232000    237.12976   -4839.4775   -4365.1886   -4839.4775            0    7674.9693    17.982826    22.821086    19.407695     7964.678    6846.8375    8447.2798    7730.7906    550.49877   -493.27371     1127.916   -3473.6898 
 3233000    238.91059   -4852.3405   -4374.4898   -4852.3405            0    8203.2573    17.933589    23.019766    19.231958    7939.4718    7848.9042    7801.2681    8959.5997   -657.85699   -1067.5023   -1283.8187   -3424.6424 
 3234000    259.22298    -4857.886    -4339.408    -4857.886            0     10305.67    17.902809    22.812507    19.277734    7873.1795    10331.737    9667.7453    10917.528    1554.1276   -606.43603    535.90758   -3156.0878 
 3235000     240.0458   -4870.6889   -4390.5677   -4870.6889            0    8987.1046      18.0698    22.681072    19.318749    7917.6433    8775.6679    9110.0801    9075.5657    391.21727   -79.776143   -569.30049   -3352.8203 
 3236000    245.12861   -4865.2948   -4375.0073   -4865.2948            0    7204.7772    18.037034     22.82662    19.373119    7976.3881    5490.3013    8035.7952    8088.2352    2353.4881   -939.77473    2021.0981   -3536.8941 
 3237000    247.03646   -4867.7322   -4373.6287   -4867.7322            0    6835.8148    17.971281     22.95341    19.427666    8013.9541    7093.6675    5925.4277    7488.3492   -755.38834     -1095.68   -1748.2007   -3574.6908 
 3238000    245.58464   -4843.8644   -4352.6648   -4843.8644            0    6893.5399    18.012867    22.842155    19.358204    7964.9854    8417.5933    5707.0303    6555.9963   -245.84444   -387.34381    1565.3541   -3551.9033 
 3239000    251.84863    -4862.966   -4359.2376    -4862.966            0    7542.0207    17.960904    22.938043    19.255154     7932.892    7123.7752    7947.4024    7554.8844   -769.53469     587.0628    388.03527   -3486.6779 
 3240000    245.75679   -4840.0918   -4348.5478   -4840.0918            0     8177.262    17.993829    22.784678    19.420231    7961.9764     7215.427    8635.0801     8681.279    333.71664    241.45211   -182.97248   -3399.0266 
 3241000     241.8529   -4870.0157     -4386.28   -4870.0157            0    6802.5278     17.98661    22.948653    19.291159     7962.782    7950.8138    6646.9523    5809.8172   -554.71899   -257.76872    540.55841   -3596.3092 
 3242000    239.52864   -4843.1262   -4364.0393   -4843.1262            0    7845.2231    18.072417    22.934494    19.161483    7942.0846    9075.4574    6298.2535    8161.9584    -952.7392   -1681.8149    163.36064   -3455.3494 
 3243000    252.75284   -4843.2978   -4337.7609   -4843.2978            0    5879.8858    17.995242    22.895586    19.458937    8017.3078    6190.3557     5801.001    5648.3007    193.40524   -784.13687    510.28388   -3650.2599 
 3244000    244.25027   -4834.8304   -4346.2997   -4834.8304            0    7863.1546    18.133749    22.689193    19.273846    7930.0339    7472.1694    8084.3402    8032.9543    279.01749    760.53885   -2385.7466   -3436.9148 
 3245000    259.11715   -4849.0393   -4330.7729   -4849.0393            0    9066.8836    17.898143     22.70552    19.485102    7918.4853    8410.1957    9901.3024    8889.1526    2106.0653    688.53174    2558.0055   -3283.7022 
 3246000    236.36798   -4836.6568   -4363.8916   -4836.6568            0    7641.9154    18.294048    22.718355    19.092741    7935.1471    5211.3845    8516.7884    9197.5731   -1556.5914   -1368.6588   -1476.2105   -3479.5234 
 3247000    242.90998   -4852.3626   -4366.5126   -4852.3626            0    6845.9365    17.980255    22.668738    19.569248    7976.2239    7445.3467    7637.4453    5455.0175   -141.49657   -519.18364   -651.70588   -3570.1587 
 3248000    252.82504    -4849.322   -4343.6407    -4849.322            0    7681.4303    18.310712     22.53603    19.276079    7954.2887    8018.6818     8251.626    6773.9833    165.73605    125.65033    475.44854   -3452.5553 
 3249000    252.32023   -4888.4757    -4383.804   -4888.4757            0    7721.0882    18.019383    22.612881     19.46271    7930.4739    7221.8758    8309.0056    7632.3834     506.2569   -567.52315   -493.12891   -3490.7998 
 3250000    260.18402   -4860.4561   -4340.0559   -4860.4561            0     6995.752    17.973444    22.964282    19.349015    7986.2528     7319.329    6391.7252    7276.2018   -461.81729   -822.98895    1069.5872   -3525.2516 
Loop time of 429.549 on 64 procs for 250000 steps with 1008 atoms

Performance: 100.571 ns/day, 0.239 hours/ns, 582.006 timesteps/s
195.3% CPU use with 32 MPI tasks x 2 OpenMP threads

MPI task timing breakdown:
Section |  min time  |  avg time  |  max time  |%varavg| %total
---------------------------------------------------------------
Pair    | 36.295     | 39.998     | 45.013     |  30.6 |  9.31
Bond    | 1.0274     | 1.2421     | 1.7031     |  12.6 |  0.29
Kspace  | 206.76     | 214.31     | 218.78     |  20.2 | 49.89
Neigh   | 3.2969     | 3.5169     | 3.7169     |   6.9 |  0.82
Comm    | 69.398     | 72.63      | 77.173     |  23.6 | 16.91
Output  | 0.57273    | 0.57298    | 0.57444    |   0.0 |  0.13
Modify  | 83.357     | 85.66      | 87.994     |  11.0 | 19.94
Other   |            | 11.62      |            |       |  2.70

Nlocal:        31.5000 ave          36 max          28 min
Histogram: 2 6 5 5 0 4 2 2 5 1
Nghost:        2884.38 ave        2911 max        2864 min
Histogram: 5 1 3 5 6 5 1 5 0 1
Neighs:        10472.5 ave       11916 max        9281 min
Histogram: 2 6 4 4 4 2 2 2 1 5

Total # of neighbors = 335120
Ave neighs/atom = 332.46032
Ave special neighs/atom = 2.0000000
Neighbor list builds = 8271
Dangerous builds = 0

unfix		3
unfix		2
unfix		1

write_data	data.final.${pid}
write_data	data.final.0
System init for write_data ...
PPPM initialization ...
  extracting TIP4P info from pair style
  using 12-bit tables for long-range coulomb (../kspace.cpp:340)
  G vector (1/distance) = 0.38333208
  grid = 24 30 32
  stencil order = 5
  estimated absolute RMS force accuracy = 0.0019509523
  estimated relative force accuracy = 5.8752348e-06
  using double precision FFTW3
  3d grid and FFT values/proc = 5712 768
Last active /omp style is kspace_style pppm/tip4p/omp
WARNING: Not all mixed pair coeffs generated from mixing. Use write_data with 'pair ij' option to store all pair coeffs. (../write_data.cpp:312)

write_restart   restart.lmp.${pid}
write_restart   restart.lmp.0
System init for write_restart ...
PPPM initialization ...
  extracting TIP4P info from pair style
  using 12-bit tables for long-range coulomb (../kspace.cpp:340)
  G vector (1/distance) = 0.38333208
  grid = 24 30 32
  stencil order = 5
  estimated absolute RMS force accuracy = 0.0019509523
  estimated relative force accuracy = 5.8752348e-06
  using double precision FFTW3
  3d grid and FFT values/proc = 5712 768
Last active /omp style is kspace_style pppm/tip4p/omp
Total wall time: 0:07:09
