LAMMPS data file via write_data, version 30 Jul 2021, timestep = 25250000

1296 atoms
2 atom types
864 bonds
1 bond types
432 angles
1 angle types

-10.592678307210333 12.572678307210333 xlo xhi
-9.341607394081521 12.331605394081521 ylo yhi
0.09717934426497976 21.762819655746863 zlo zhi
-8.990536001236267 1.740307780224019 2.738579728146697 xy xz yz

Masses

1 1.008
2 15.999

Pair Coeffs # lj/cut/tip4p/long/omp

1 0 0
2 0.21084 3.1668

Bond Coeffs # harmonic/omp

1 450 0.9572

Angle Coeffs # harmonic/omp

1 55 104.52

Atoms # full

299 100 1 0.5897 -6.3290636328228915 -8.134782687983757 4.240223176348259 1 1 0
270 90 1 0.5897 -8.427482500881666 -7.47667526353959 2.404607066284889 1 1 0
269 90 1 0.5897 -9.456440753849169 -6.366250438029118 2.4047252191565542 1 1 0
268 90 2 -1.1794 -9.190775967101711 -7.152107098344935 2.8823269802353924 1 1 0
165 55 1 0.5897 -7.527614192998657 -8.56414154078757 0.5603008107025781 1 1 0
281 94 1 0.5897 -8.87524934989955 -4.045436895714807 1.503126585248284 1 1 0
163 55 2 -1.1794 -7.203653556835212 -7.999926863320248 1.2623243431350641 1 1 0
282 94 1 0.5897 -10.354022927670824 -4.280924556260239 1.7253213618039327 1 1 0
164 55 1 0.5897 -6.287652007117699 -8.255025084063378 1.3717405797355018 1 1 0
261 87 1 0.5897 -6.657630409410557 -5.088970645810267 1.1364155853829343 1 1 0
280 94 2 -1.1794 -9.526050274856392 -4.741854890163652 1.5906022956082677 1 1 0
314 105 1 0.5897 -8.883703613263824 -6.843606374927585 4.800768816816174 1 1 0
73 25 2 -1.1794 -8.526252034113485 -3.9756466618526343 4.84991439464731 1 0 0
298 100 2 -1.1794 -5.829072650196291 -7.323267591529175 4.1525994703380125 1 1 0
323 108 1 0.5897 -6.2094460227476445 -5.789233211527625 3.2761458767782146 1 1 0
322 108 2 -1.1794 -6.413546539323831 -4.909178857126246 2.959735006536243 1 1 0
75 25 1 0.5897 -9.267980054708172 -3.63927482011705 4.347116382346232 1 0 0
275 92 1 0.5897 -10.288268061263565 -8.329619508376172 3.4437944607929296 1 1 0
324 108 1 0.5897 -7.0161731501460505 -4.5531838681225025 3.6126534326111046 1 1 0
1141 381 2 -1.1794 -10.364629373596394 -9.108567816613666 0.19548629216754856 0 0 1
260 87 1 0.5897 -6.94171122182232 -6.352536127406614 0.3525229434641795 1 1 0
259 87 2 -1.1794 -6.773542527159862 -5.416414505028473 0.24450959685700513 1 1 0
419 140 1 0.5897 -8.880703421135165 -5.854603634494119 8.902847623683844 1 0 0
418 140 2 -1.1794 -9.515721247638918 -6.309701772834521 9.455884325800577 1 0 0
626 209 1 0.5897 -10.62300582566929 -6.6249020156120455 7.795381508969817 1 1 0
429 143 1 0.5897 -6.359648190654308 -7.39299378167561 8.84561884983314 1 0 0
618 206 1 0.5897 -7.499633302327677 -7.776816090589255 6.832824728286711 1 1 0
420 140 1 0.5897 -9.012308175152793 -7.007577377066882 9.875105171000083 1 0 0
414 138 1 0.5897 -7.02510335439307 -5.125141800335358 7.3503046137525185 1 0 0
413 138 1 0.5897 -7.674053426777454 -3.7823595930848795 7.610373466414676 1 0 0
412 138 2 -1.1794 -7.724448131403566 -4.70705262470685 7.852584829659962 1 0 0
627 209 1 0.5897 -10.1134748523075 -6.95294391191162 6.408106626772017 1 1 0
350 117 1 0.5897 -7.318444853357149 -4.681619514911477 9.514681484898933 0 0 0
427 143 2 -1.1794 -5.995411099042375 -7.215237869374727 9.712713437623123 1 0 0
631 211 2 -1.1794 -5.656694062531061 -5.797137282200561 6.4357810250909795 1 1 0
428 143 1 0.5897 -6.695836331798716 -7.452314122229065 10.32050714757035 1 0 0
616 206 2 -1.1794 -7.197638113126496 -8.283002763654649 7.586998670514969 1 1 0
349 117 2 -1.1794 -7.116233526528306 -4.547992453663333 10.440641489002125 0 0 0
351 117 1 0.5897 -7.030242531523603 -3.5991325775174303 10.532957713836938 0 0 0
633 211 1 0.5897 -5.740622336521635 -6.337784076656285 5.6504057209397835 1 1 0
327 109 1 0.5897 -4.38585336718135 -8.106964447782232 9.85196254272024 0 0 0
313 105 2 -1.1794 -8.606605865606152 -6.597542612164791 5.683265420711004 1 1 0
315 105 1 0.5897 -8.567620198913241 -5.641298684690291 5.66466209442594 1 1 0
661 221 2 -1.1794 -9.514340985215743 -4.4335166834212245 12.213208410915216 0 0 0
682 228 2 -1.1794 -7.858440156104434 -6.965703609853963 13.817155461677713 0 0 0
780 260 1 0.5897 -7.636757053256405 -4.333787120636664 15.212363347664127 0 0 0
779 260 1 0.5897 -7.265830058258042 -3.4283303513255525 14.057136884877952 0 0 0
778 260 2 -1.1794 -8.018590080153263 -3.7699441057030008 14.539689050488805 0 0 0
788 263 1 0.5897 -4.867433150932572 -4.528534912962012 15.951704751025567 0 0 0
662 221 1 0.5897 -9.213352351267398 -4.17378446089404 13.083880714987163 0 0 0
652 218 2 -1.1794 -5.727739357568944 -5.380824929287074 12.9689433464852 0 0 0
654 218 1 0.5897 -6.033268107155053 -5.346851067426883 12.062498659017656 0 0 0
653 218 1 0.5897 -6.399363685200384 -5.883412298059131 13.429978357993503 0 0 0
768 256 1 0.5897 -9.383655814625152 -2.846249087488993 15.054137798551674 0 0 0
740 247 1 0.5897 -11.088223624828808 -3.547441204433559 12.083795928686973 1 0 0
684 228 1 0.5897 -8.550645265052243 -6.621118399035129 14.381338001557049 0 0 0
729 243 1 0.5897 -7.817638330902085 -7.710299544116665 12.052359803569148 1 0 0
663 221 1 0.5897 -8.71025389905871 -4.5808605781723415 11.715314599848508 0 0 0
757 253 2 -1.1794 -9.712465560127205 -6.278877429800306 15.753502793885561 0 0 0
766 256 2 -1.1794 -10.273960423901027 -2.5022407359140617 15.125893078321809 0 0 0
767 256 1 0.5897 -10.819440489917227 -3.27593441897441 15.26749018719066 0 0 0
772 258 2 -1.1794 -5.969639737133178 -2.2841247994530143 13.636041325257574 0 0 0
1130 377 1 0.5897 -7.6382173434213225 -1.8687384957751103 18.55497582498462 0 0 0
1089 363 1 0.5897 -6.603153864474058 -4.629798861148412 17.33591430312674 0 0 0
1227 409 1 0.5897 -9.069430286269164 -3.2302350770768653 20.62074444629786 0 0 0
1131 377 1 0.5897 -7.499743031809645 -2.1366398288689794 17.07145870550422 0 0 0
1121 374 1 0.5897 -4.828640140968964 -3.6309233848558016 18.581351759634643 0 0 0
1143 381 1 0.5897 -8.568445856776275 -5.428078915874224 21.700013608233377 0 0 0
1152 384 1 0.5897 -6.96332266366982 -4.055808432750368 20.010031785859447 0 0 0
1097 366 1 0.5897 -9.231359760759815 -6.218843571031294 18.95852620420304 0 0 0
1151 384 1 0.5897 -6.156394402456306 -5.267095240493339 19.59350816436072 0 0 0
1150 384 2 -1.1794 -6.334643621561229 -4.35753750556888 19.35435206737876 0 0 0
1109 370 1 0.5897 -8.912436970820893 -3.8223073966492294 17.84054091840443 0 0 0
1108 370 2 -1.1794 -9.364696802137239 -4.665828720725359 17.852844300095313 0 0 0
1219 407 2 -1.1794 -10.678571156751417 -2.0840763304560594 20.066861936885314 0 0 0
1087 363 2 -1.1794 -6.523550307591503 -5.1414801005423545 16.530915272813896 0 0 0
1225 409 2 -1.1794 -8.379544201550093 -3.687122723841912 21.10182800440791 0 0 0
1088 363 1 0.5897 -6.592212639746627 -6.052173607860009 16.81763271884709 0 0 0
1129 377 2 -1.1794 -8.122601555772256 -2.193537771949888 17.796043794372874 0 0 0
1248 416 1 0.5897 -6.052533422210157 -1.7348286134589168 20.713861295853857 0 0 0
1226 409 1 0.5897 -8.031125140490172 -3.029647382164093 21.70388763688955 0 0 0
758 253 1 0.5897 -9.381342185514653 -5.695305425777535 16.436097922950786 0 0 0
301 101 2 -1.1794 -8.211722320250914 -2.3261261747017024 1.5485482730564044 1 1 0
67 23 2 -1.1794 -10.758363588942297 -2.215865085307861 3.961285992816251 1 0 0
272 91 1 0.5897 -9.629529872264062 -0.8910336068060865 1.5282324091189192 1 1 0
271 91 2 -1.1794 -10.4526896151124 -0.7374955650222841 1.0646545644667507 1 1 0
302 101 1 0.5897 -7.752253315530398 -2.3336264389085777 2.3881616069068574 1 1 0
83 28 1 0.5897 -9.35733856697339 -0.9360171839410878 3.914004523028602 1 0 0
68 23 1 0.5897 -11.244020375507665 -2.5034669278621164 4.73437103425288 1 0 0
273 91 1 0.5897 -10.449073455189307 -1.3758403454007828 0.3514340106805011 1 1 0
98 33 1 0.5897 -11.647647313123844 0.5590496225562855 4.871542060123884 1 0 0
54 18 1 0.5897 -11.573956107309762 -0.2984423222903718 2.424579764344387 1 0 0
53 18 1 0.5897 -12.148578845860303 1.09719952578088 2.5423445589271463 1 0 0
52 18 2 -1.1794 -12.005513970669607 0.2928937623390837 3.0412263797378007 1 0 0
82 28 2 -1.1794 -8.682883071777557 -0.25733220722865013 3.9399369220266864 1 0 0
258 86 1 0.5897 -12.08274344048021 -2.7466706026319994 1.0398167329915684 1 1 0
69 23 1 0.5897 -11.2940421991513 -2.501563770199607 3.2213393485695874 1 0 0
107 36 1 0.5897 -9.191310758791913 1.4125588801909075 3.132353213893925 1 0 0
59 20 1 0.5897 -13.149583704812155 -1.0046751649673045 3.2848319028812822 1 0 0
256 86 2 -1.1794 -11.975141291699005 -3.3910447272249895 1.7394290360246534 1 1 0
44 15 1 0.5897 -9.87766328853074 0.9347717781282281 0.1683244879439073 1 0 0
74 25 1 0.5897 -8.242877192147105 -3.2340957421758274 5.384656206682256 1 0 0
426 142 1 0.5897 -8.568033301487617 -1.7417291773185344 6.979217236465016 1 0 0
417 139 1 0.5897 -9.0282861685589 1.146372246009907 5.71774421560295 1 0 0
528 176 1 0.5897 -12.316505714002059 0.5912344039529369 10.096463428559158 1 0 0
402 134 1 0.5897 -10.79985229486952 -0.5150086087154246 6.843165363264283 1 0 0
401 134 1 0.5897 -11.015352964654245 -1.601410801420692 7.875298508886899 1 0 0
400 134 2 -1.1794 -10.327816053059815 -1.1257247297282156 7.409208154234469 1 0 0
527 176 1 0.5897 -12.016819213754635 1.7101396264698998 9.121660793917401 1 0 0
526 176 2 -1.1794 -12.726844106077124 1.1513594725157112 9.437616596536936 1 0 0
424 142 2 -1.1794 -7.764964118175831 -2.18410641255858 6.704393702688975 1 0 0
537 179 1 0.5897 -9.256452340064776 -0.010844161977894728 8.589907258566763 1 0 0
536 179 1 0.5897 -9.376113639102938 -0.010037846829300534 10.099033527183831 1 0 0
535 179 2 -1.1794 -8.732532148156817 0.006795464193269041 9.390715544850334 1 0 0
435 145 1 0.5897 -7.193232642284306 -1.3469935890953195 9.614301637072195 0 0 0
411 137 1 0.5897 -13.366664745660637 0.43707969165276594 6.455126383742484 1 0 0
522 174 1 0.5897 -9.831362799188582 2.3273145162425894 7.726986920543403 1 0 0
97 33 2 -1.1794 -11.605715934422566 0.8890088301451051 5.769055160126932 1 0 0
415 139 2 -1.1794 -8.675804688940604 1.7510142035811587 6.370658916432145 1 0 0
99 33 1 0.5897 -11.25540859672251 1.7756091282138158 5.682635677351862 1 0 0
520 174 2 -1.1794 -10.588509389955256 2.5129887702991827 8.282357279641337 1 0 0
760 254 2 -1.1794 -8.494886272728705 1.370401164196009 12.627548839488457 0 0 0
790 264 2 -1.1794 -10.495636410794237 -0.11130108953528506 13.89351208579169 0 0 0
791 264 1 0.5897 -10.485348610871704 -1.0030894836144189 14.241208052870363 0 0 0
836 279 1 0.5897 -11.01845527471713 -1.2855128109749145 11.088876625339601 1 0 0
762 254 1 0.5897 -9.013011543719509 1.8938931212103718 12.016266065504103 0 0 0
761 254 1 0.5897 -9.143255842696654 0.881572391426559 13.134398908535625 0 0 0
837 279 1 0.5897 -10.92314125519136 -0.13579914704885 12.069101399573777 1 0 0
792 264 1 0.5897 -11.126474873383954 0.35337926228831407 14.443339217952971 0 0 0
865 289 2 -1.1794 -12.737835705244411 1.10901617781796 15.595283432098851 0 0 0
888 296 1 0.5897 -10.439588274772564 2.9890891943832845 15.132912703660566 0 0 0
896 299 1 0.5897 -7.903390830772375 2.5918856102049563 15.337617497632513 0 0 0
769 257 2 -1.1794 -12.263769034166398 2.22077382732642 12.513995085515226 0 0 0
770 257 1 0.5897 -11.745472990705473 2.7003926244065397 13.160093742509696 0 0 0
835 279 2 -1.1794 -11.031432263527408 -0.3296495597024105 11.138061224843126 1 0 0
771 257 1 0.5897 -11.789529119403959 2.3382056294508597 11.69087288454541 0 0 0
1100 367 1 0.5897 -9.466584884725359 -0.7100341390511584 17.328000231556405 0 0 0
1218 406 1 0.5897 -13.074760253090389 3.3806047629937463 17.795201883370034 0 0 0
1249 417 2 -1.1794 -11.660359929948573 1.170474632652665 21.351985492328208 0 0 0
1259 420 1 0.5897 -9.047451526526718 2.079691772167097 19.458667071723035 0 0 0
1258 420 2 -1.1794 -9.156871639224423 2.943733319053301 19.061523790464804 0 0 0
1236 412 1 0.5897 -7.971122404377058 -0.029975266505090303 20.250530635904237 0 0 0
1205 402 1 0.5897 -12.520064904371122 1.413553600863402 18.4811998497642 0 0 0
1009 337 2 -1.1794 -11.015852182172365 3.9299659249341765 20.818894194143482 0 -1 0
1234 412 2 -1.1794 -8.818769510870345 0.4132697504840763 20.284800562421715 0 0 0
1206 402 1 0.5897 -11.963197708660477 0.037200859864793046 18.18548031615685 0 0 0
1216 406 2 -1.1794 -12.222155935533706 2.974622526837244 17.639010433271864 0 0 0
1196 399 1 0.5897 -9.883686912384224 1.271521350720569 16.546795306972765 0 0 0
1250 417 1 0.5897 -11.743315264968038 0.9476017233714149 20.424836425123587 0 0 0
1260 420 1 0.5897 -9.974880573285729 3.2759205963805123 19.431214593633904 0 0 0
1197 399 1 0.5897 -9.290934089146333 2.4188596437972514 17.336710804179578 0 0 0
1099 367 2 -1.1794 -10.355932941445122 -0.4085521002578716 17.142893191299976 0 0 0
1235 412 1 0.5897 -9.457988986896211 -0.2776799519411828 20.111184851143587 0 0 0
1101 367 1 0.5897 -10.73444764647285 -1.0982419373888135 16.597727423459588 0 0 0
1246 416 2 -1.1794 -6.489630135941228 -1.1268343982481763 20.117627215441008 0 0 0
1195 399 2 -1.1794 -9.451995524291382 2.119400900651753 16.44198820774273 0 0 0
1251 417 1 0.5897 -11.390267876413558 2.0887840547173653 21.354784274894456 0 0 0
1217 406 1 0.5897 -11.593605359212003 3.688944996522828 17.74314722662552 0 0 0
866 289 1 0.5897 -12.48752979139935 1.460120096967625 16.44979730300084 0 0 0
108 36 1 0.5897 -10.028965193309704 2.623426365445445 3.484480660874074 1 0 0
66 22 1 0.5897 -13.27719274973796 2.8944380337467077 1.4386063777868956 1 0 0
191 64 1 0.5897 -12.658145401802443 6.507555881866134 4.313948072210087 1 0 0
56 19 1 0.5897 -12.623523528639092 5.925469336805401 1.358048156893558 1 0 0
65 22 1 0.5897 -11.826864213615748 3.32793767445429 1.452061892573562 1 0 0
64 22 2 -1.1794 -12.384279330849147 2.5498356294649156 1.4472816182384716 1 0 0
177 59 1 0.5897 -13.976993739363825 4.053373722949605 3.3740568157827115 1 0 0
192 64 1 0.5897 -11.155506081493618 6.689743876901847 4.292677678915987 1 0 0
40 14 2 -1.1794 -14.89314043194944 3.5925988117780907 1.9162435833510723 1 0 0
183 61 1 0.5897 -12.040981886477017 3.9712161319908645 4.476020039697544 1 0 0
55 19 2 -1.1794 -13.467381687418834 6.120168811170716 0.9505174227283643 1 0 0
190 64 2 -1.1794 -11.977790865224252 7.174694967776343 4.223273561301381 1 0 0
42 14 1 0.5897 -15.32806401491086 4.337672222359203 1.5015967271247548 1 0 0
175 59 2 -1.1794 -13.620908693040974 4.587620450073604 4.0839260919653615 1 0 0
176 59 1 0.5897 -14.277785114622388 4.533181563221001 4.778014547664927 1 0 0
181 61 2 -1.1794 -11.204646347093373 3.5645934084515467 4.702570072813063 1 0 0
106 36 2 -1.1794 -9.42723626008094 2.2863581452345283 2.8207752431014113 1 0 0
162 54 1 0.5897 -14.738626205463397 6.8558777016154195 2.0474290117631604 1 0 0
85 29 2 -1.1794 -11.058640679839321 4.969623276725173 1.7576986711499778 1 0 0
86 29 1 0.5897 -10.605479089519452 5.012464630505679 2.5996743220613454 1 0 0
1035 345 1 0.5897 -15.929756117890427 6.068335428700374 0.1192626088385681 0 -1 1
57 19 1 0.5897 -13.474765822963663 5.594037015335241 0.15096387046454313 1 0 0
508 170 2 -1.1794 -13.454578854179111 6.3660943938027295 7.004421211751259 1 0 0
182 61 1 0.5897 -10.981768725898068 3.934241543938029 5.556867632560959 1 0 0
510 170 1 0.5897 -14.007103828009015 6.821676606373334 6.3693443958663964 1 0 0
509 170 1 0.5897 -14.0721760685525 5.966606276068644 7.616972628722895 1 0 0
644 215 1 0.5897 -12.703016507057987 7.250989912471574 9.848150284820976 1 0 0
643 215 2 -1.1794 -12.06197702275481 7.474220611693333 9.173287630068335 1 0 0
533 178 1 0.5897 -10.556446160507965 5.7654590202873255 6.941618096572971 1 0 0
521 174 1 0.5897 -10.834400903248888 3.4110704383981716 8.06044064342564 1 0 0
534 178 1 0.5897 -12.023873482657422 5.418991839136419 7.076638705414142 1 0 0
532 178 2 -1.1794 -11.146339739339263 5.056904857751256 7.198911809658848 1 0 0
645 215 1 0.5897 -12.337911699823437 6.973999541069631 8.405320349317744 1 0 0
543 181 1 0.5897 -10.750815396999862 6.333950981764676 9.713893504312189 0 0 0
539 180 1 0.5897 -14.960937074459878 4.178306144600134 9.022669502696074 1 0 0
519 173 1 0.5897 -16.21584359602609 7.415839397162426 6.723868543640786 1 0 0
458 153 1 0.5897 -10.102390753867217 2.8112303764506734 10.102504010756824 0 0 0
636 212 1 0.5897 -14.735341628618478 7.836889247718954 10.124325863164634 1 0 0
541 181 2 -1.1794 -10.036576163145154 5.906009724073483 10.185959683519359 0 0 0
538 180 2 -1.1794 -15.02440016787618 5.097852841015918 8.764432360012696 1 0 0
518 173 1 0.5897 -16.48834440544091 7.6039193385086215 8.201080736915303 1 0 0
900 300 1 0.5897 -14.809874222091615 7.875080478113603 14.317034265421338 0 0 0
898 300 2 -1.1794 -14.009179927980295 7.555481633498001 13.901206167005046 0 0 0
943 315 2 -1.1794 -13.822515050066487 6.71065648359637 11.119164171318964 1 0 0
887 296 1 0.5897 -10.299094376399129 4.06587310788942 14.078020676437609 0 0 0
899 300 1 0.5897 -13.743910514399456 6.806646999130319 14.435169761497395 0 0 0
945 315 1 0.5897 -13.793519843622303 7.018997417043458 12.02483824520418 1 0 0
874 292 2 -1.1794 -13.676196130653832 5.012156917653673 15.040630666900732 0 0 0
876 292 1 0.5897 -12.872377938585785 4.492954038262138 15.01916047047015 0 0 0
886 296 2 -1.1794 -10.942007715783955 3.4876406051872095 14.488554606517269 0 0 0
848 283 1 0.5897 -13.65826259795467 3.526882737133203 12.363006186756573 1 0 0
894 298 1 0.5897 -10.401183210028004 8.00456386387706 12.321959633570877 0 0 0
847 283 2 -1.1794 -14.385275001965745 4.093275689054568 12.104527030288944 1 0 0
944 315 1 0.5897 -14.159481196945523 5.816831522401392 11.180668308480953 1 0 0
459 153 1 0.5897 -9.99604218686909 4.035799655948658 10.98618441307176 0 0 0
457 153 2 -1.1794 -10.029269902928064 3.0797018271703536 11.018325725348683 0 0 0
990 330 1 0.5897 -14.120393322572632 7.293864205591053 18.576226274895117 0 -1 0
1208 403 1 0.5897 -12.08260372810716 6.508486844144169 17.330240303925525 0 0 0
1032 344 1 0.5897 -8.644738411963052 5.735141540930853 20.86370067986284 0 -1 0
1207 403 2 -1.1794 -12.974802164531367 6.80815177842673 17.156292718141554 0 0 0
1018 340 2 -1.1794 -11.517992128225817 7.322676474188359 20.150935238488557 0 -1 0
1019 340 1 0.5897 -11.955903828816266 6.48075554074879 20.275977279552357 0 -1 0
1020 340 1 0.5897 -10.584705239635813 7.11037907635783 20.153354628220722 0 -1 0
1030 344 2 -1.1794 -8.944363356048349 6.369807060328842 20.212814411617785 0 -1 0
1237 413 2 -1.1794 -10.550672387968877 5.405388886863822 17.85620762920057 0 0 0
1043 348 1 0.5897 -12.207629471206442 9.111478232684963 19.6168761480763 0 -1 0
1239 413 1 0.5897 -9.977652214764925 5.613938312374003 17.118396378558874 0 0 0
1238 413 1 0.5897 -9.98481031198341 5.470315379734057 18.62541454331047 0 0 0
1011 337 1 0.5897 -11.911662416387896 4.197662433958353 20.614047894470545 0 -1 0
989 330 1 0.5897 -15.116295312491815 8.40747229169056 18.820908199985055 0 -1 0
1010 337 1 0.5897 -10.802961485172132 4.401016896238097 21.624456741235132 0 -1 0
1034 345 1 0.5897 -14.47017875045423 7.6905056171569335 20.80176341977436 0 -1 0
988 330 2 -1.1794 -14.957603283859541 7.480805466495859 19.00083644664014 0 -1 0
1003 335 2 -1.1794 -13.337385449240237 5.068765021347408 20.13214641383744 0 -1 0
1209 403 1 0.5897 -13.33477062474342 6.154641973547713 16.55671536679808 0 0 0
980 327 1 0.5897 -12.641276255456265 8.5319255872901 16.534446439705118 0 -1 0
1033 345 2 -1.1794 -14.437838548411658 7.883652402554208 21.73868068212017 0 -1 0
650 217 1 0.5897 -15.65126541378232 8.579411217798043 16.61057340125847 0 -1 0
174 58 1 0.5897 -16.394838844233288 10.126130924719902 1.6309883860763221 1 0 0
173 58 1 0.5897 -14.96903225677702 10.590027381264829 1.4223746785371765 1 0 0
172 58 2 -1.1794 -15.51087911162373 9.801820199187294 1.4590038180792524 1 0 0
161 54 1 0.5897 -15.388915663675906 8.20400949409532 2.274503994249089 1 0 0
206 69 1 0.5897 -14.783791546564554 7.721181773834797 4.417259773315128 1 0 0
151 51 2 -1.1794 -12.526604134580992 8.763695629321745 0.23382994592690984 1 0 0
148 50 2 -1.1794 -17.896423820919033 11.084024546979947 1.8962141854083179 1 0 0
160 54 2 -1.1794 -15.390587839114977 7.300088103698702 2.58947503111947 1 0 0
283 95 2 -1.1794 -16.595695931048628 12.161209664531093 4.054443809447136 1 0 0
291 97 1 0.5897 -15.106702833153633 11.045461712199597 4.459468576260235 1 0 0
289 97 2 -1.1794 -14.302363530017665 10.66420893235944 4.811313008467309 1 0 0
284 95 1 0.5897 -17.295577401826556 11.880058802368577 4.643796799478611 1 0 0
150 50 1 0.5897 -18.38957609020231 11.614947446650351 1.2708298666783482 1 0 0
285 95 1 0.5897 -16.932060601182798 11.977307281551301 3.1774265042144574 1 0 0
216 72 1 0.5897 -12.957147084343802 10.172753055073848 3.4318372537891606 1 0 0
149 50 1 0.5897 -18.563064568833102 10.712665329417323 2.474061357927559 1 0 0
207 69 1 0.5897 -14.550919081918538 8.97275404256613 5.236477370511588 1 0 0
215 72 1 0.5897 -12.17308181499394 8.878109381487523 3.400149300571974 1 0 0
205 69 2 -1.1794 -14.77767625338392 8.046324204609547 5.317489346362502 1 0 0
152 51 1 0.5897 -12.901056725540787 7.895120293923419 0.3808460991917606 1 0 0
153 51 1 0.5897 -12.401183002259186 9.122723984866969 1.112189737539757 1 0 0
1118 373 1 0.5897 -15.709559172797007 8.738899168724576 0.13957986526327426 0 -1 1
635 212 1 0.5897 -14.793550885995499 8.976564821728857 9.129474767068201 1 0 0
640 214 2 -1.1794 -13.638958506705755 12.560537148080094 6.845610696059678 1 0 0
566 189 1 0.5897 -13.123247511385681 10.03372766186514 10.001177344877009 0 0 0
630 210 1 0.5897 -12.922256146571684 9.587322221239624 7.406173646714919 1 0 0
629 210 1 0.5897 -13.619651097893758 10.853812516232267 7.8550776360665155 1 0 0
628 210 2 -1.1794 -13.647527741667957 9.90133993137967 7.946134508966895 1 0 0
634 212 2 -1.1794 -15.346425153533868 8.431480663086148 9.689340942725233 1 0 0
642 214 1 0.5897 -14.480162403738944 12.913765250855299 7.135005446921631 1 0 0
565 189 2 -1.1794 -13.060749091375932 10.497003967949407 10.836420519690346 0 0 0
617 206 1 0.5897 -16.95886303391679 12.898204863763034 7.870100696734006 1 0 0
525 175 1 0.5897 -11.911063542034 8.541304781084758 5.5204046372997695 1 0 0
551 184 1 0.5897 -11.138123159055652 8.917100802560991 9.508221684747562 0 0 0
567 189 1 0.5897 -12.744461421731852 11.369937453837895 10.603571415722538 0 0 0
290 97 1 0.5897 -14.172452799032841 11.108895210338183 5.6488786817030885 1 0 0
868 290 2 -1.1794 -11.896642524540596 8.8730653858468 12.811337009962026 0 0 0
659 220 1 0.5897 -17.124150129147413 11.46422646616504 14.801049776065666 0 -1 0
877 293 2 -1.1794 -15.600754976424017 9.80206409907926 12.24818691809847 0 0 0
658 220 2 -1.1794 -16.56342305567471 12.236211954207569 14.877316614408464 0 -1 0
672 224 1 0.5897 -13.619017403867982 10.493694619636429 15.062583943877783 0 -1 0
671 224 1 0.5897 -13.444051314454088 11.804867062174448 14.326211934462394 0 -1 0
670 224 2 -1.1794 -14.111476873235452 11.184526007671373 14.619364773633674 0 -1 0
660 220 1 0.5897 -15.674392643208172 11.89868875981455 14.768496156732507 0 -1 0
879 293 1 0.5897 -15.106284759709997 9.627759521802624 11.447367470052628 0 0 0
878 293 1 0.5897 -14.953403236120579 10.156479149888664 12.857610536444806 0 0 0
956 319 1 0.5897 -17.120605944090585 10.771039074565472 11.952749872351074 1 0 0
870 290 1 0.5897 -12.254631570311316 9.420766064213616 12.112714494572948 0 0 0
680 227 1 0.5897 -10.87936389610429 9.853116965049974 15.408217392662662 0 -1 0
683 228 1 0.5897 -16.64086051046211 13.850330608034326 14.188907137576763 0 -1 0
728 243 1 0.5897 -17.260089398341975 12.703411538860262 11.344413748528826 1 -1 0
727 243 2 -1.1794 -16.986501269480875 13.606241958836534 11.182228484342016 1 -1 0
869 290 1 0.5897 -12.662692111603482 8.58849521252035 13.309694692661186 0 0 0
1022 341 1 0.5897 -13.100734428124255 12.591996333317894 18.554245680119358 0 -1 0
991 331 2 -1.1794 -16.24474741554402 13.787998833221074 17.20189068463585 0 -1 0
992 331 1 0.5897 -15.39838985848295 13.396035567974572 17.41674933718113 0 -1 0
1042 348 2 -1.1794 -12.3391844219216 9.976199513467652 19.228024658416793 0 -1 0
1119 373 1 0.5897 -15.144233194462444 11.214764307112244 20.8876703858316 0 -1 0
1044 348 1 0.5897 -13.178497240252158 10.272447882206276 19.58008154444873 0 -1 0
1117 373 2 -1.1794 -14.285354795415524 10.872058213383994 21.134632506421276 0 -1 0
1138 380 2 -1.1794 -12.3502321674906 13.416561284573692 20.244508752640574 0 -1 0
1127 376 1 0.5897 -15.435450739239496 13.793986701883043 20.359001699633062 0 -1 0
981 327 1 0.5897 -12.10693683363874 9.670086468880797 17.37751800699702 0 -1 0
1000 334 2 -1.1794 -15.538803485558457 10.03032875154797 17.89656805948268 0 -1 0
1111 371 2 -1.1794 -16.50963923750755 12.471292923517826 20.53230122292993 0 -1 0
1140 380 1 0.5897 -11.845296189515627 12.859992356071345 20.83734660384646 0 -1 0
1023 341 1 0.5897 -13.252674196566057 12.444669784389113 17.055273482599056 0 -1 0
1001 334 1 0.5897 -14.818852130988798 10.655726102399715 17.814568671004345 0 -1 0
1021 341 2 -1.1794 -13.758592245839699 12.49008328593807 17.866562325202406 0 -1 0
1128 376 1 0.5897 -14.00314555514784 14.281962221944625 20.31440629875434 0 -1 0
979 327 2 -1.1794 -12.245628719278681 9.401104780626689 16.469465034844898 0 -1 0
993 331 1 0.5897 -16.49366547227151 13.38140771375199 16.371914483035393 0 -1 0
1126 376 2 -1.1794 -14.908259070686505 14.592541868841924 20.334578587195082 0 -1 0
1098 366 1 0.5897 -17.324532654100217 14.287522280701623 18.604934450970468 0 -1 0
1096 366 2 -1.1794 -17.960276374791803 14.583173611080412 19.256554085090244 0 -1 0
1002 334 1 0.5897 -16.28569390979036 10.559609760874103 18.176184770399534 0 -1 0
1142 381 1 0.5897 -17.77468668444082 14.9212314894799 20.998176407634087 0 -1 0
311 104 1 0.5897 -2.857227955119958 -7.796314823503729 3.233844058818534 1 1 0
3 1 1 0.5897 -1.292056884559706 -3.8969010090277516 4.1705334093452695 0 0 0
305 102 1 0.5897 -1.2358097015397984 -5.940499283695501 2.6216008829279 1 1 0
304 102 2 -1.1794 -1.3614947551373042 -6.865650069452855 2.8327295036234514 1 1 0
316 106 2 -1.1794 -1.6557631052360513 -4.402350185974953 1.7008604738153843 1 1 0
242 81 1 0.5897 -1.0238993980654758 -6.935112887107417 4.412359389108026 0 1 0
306 102 1 0.5897 -0.7680920928802273 -7.32938505557974 2.2419527009832754 1 1 0
243 81 1 0.5897 -0.7451741845441475 -5.889768008934679 5.471268928206037 0 1 0
318 106 1 0.5897 -2.4717472538838514 -3.9048082733025433 1.648266401833714 1 1 0
300 100 1 0.5897 -4.917244921331623 -7.608380593033647 4.0942369280825 1 1 0
199 67 2 -1.1794 0.31613209431803035 -8.144521169021314 1.1503264919264062 1 1 0
293 98 1 0.5897 -4.884011796803058 -3.7318803189993996 2.319049824835734 1 1 0
201 67 1 0.5897 0.11312762619203909 -8.631271041202416 0.3515787325071644 1 1 0
310 104 2 -1.1794 -3.424357064737074 -8.465074305004396 3.6177321756253247 1 1 0
241 81 2 -1.1794 -1.0266239629567853 -6.797819230521374 5.359626159532963 0 1 0
1262 421 1 0.5897 -1.9827032487387264 -5.775864294186672 0.4281624002994391 0 0 1
194 65 1 0.5897 -4.158550618401336 -8.915339424309696 2.173043025126047 1 1 0
193 65 2 -1.1794 -4.500943561702176 -9.117887382925863 1.302496110035839 1 1 0
195 65 1 0.5897 -3.779403449654451 -8.914260486970566 0.7074109524057389 1 1 0
348 116 1 0.5897 -1.077006445577938 -6.787255300513797 9.573458560418807 0 0 0
347 116 1 0.5897 -1.2530821518092754 -5.658438285220797 8.580108045212784 0 0 0
346 116 2 -1.1794 -1.7424108166683236 -6.225568358058311 9.17607855940731 0 0 0
336 112 1 0.5897 -3.458475289750652 -5.352721783335986 9.727202501361376 0 0 0
546 182 1 0.5897 -0.06531372245750511 -7.726001247957829 6.35609593195526 0 1 0
334 112 2 -1.1794 -4.266085051729032 -4.965061233492556 9.390181006931892 0 0 0
359 120 1 0.5897 -4.331929496882278 -3.4127255306819473 8.570171058987743 0 0 0
356 119 1 0.5897 1.2178563210242785 -7.266256438531101 10.070683737238816 0 0 0
554 185 1 0.5897 -2.6903494293886903 -6.676606619873901 7.898908822378863 0 1 0
555 185 1 0.5897 -2.526621693534116 -6.728455620923173 6.3948211185040105 0 1 0
553 185 2 -1.1794 -3.1887339333967253 -6.75503612545489 7.085549851030142 0 1 0
544 182 2 -1.1794 0.47116265507006894 -8.158557983756216 7.020361321681463 0 1 0
632 211 1 0.5897 -4.76465755737117 -5.957641989150542 6.743339662806255 1 1 0
404 135 1 0.5897 -5.142164863551235 -4.0270600473989475 5.741536379057393 1 0 0
335 112 1 0.5897 -4.933660581875266 -5.634861889078062 9.538085624704442 0 0 0
340 114 2 -1.1794 -0.031131616767002157 -4.693943418432487 7.564355709300043 0 0 0
641 214 1 0.5897 -4.042728339734605 -8.374469590818215 6.911669442665479 1 1 0
669 223 1 0.5897 -4.428638098659471 -3.5201593794187014 10.90538552332165 0 0 0
326 109 1 0.5897 -3.248493353453182 -7.911517195217807 10.831614814932754 0 0 0
804 268 1 0.5897 -1.7558991332139922 -2.7132276317237194 14.727173113157122 0 0 0
802 268 2 -1.1794 -2.6052687751078247 -2.28335787263698 14.826798418229453 0 0 0
793 265 2 -1.1794 -1.9511022990864735 -5.919542785191643 15.553382675221735 0 0 0
795 265 1 0.5897 -2.8004945850036016 -5.617585720360752 15.231736077082164 0 0 0
655 219 2 -1.1794 -0.014784932535160777 -7.747766825765269 11.117284790696209 0 0 0
699 233 1 0.5897 -1.1200491018205643 -4.4430139622195055 11.385839715108224 0 0 0
667 223 2 -1.1794 -4.007812048160633 -3.0421485656910336 11.619896807764007 0 0 0
697 233 2 -1.1794 -1.7399330353793712 -4.368268443908924 12.111336862023181 0 0 0
720 240 1 0.5897 -0.6089678905857028 -6.354271695206485 14.279794036062185 0 0 0
677 226 1 0.5897 -2.7271834418361802 -6.031068915489196 12.113287339611059 0 0 0
668 223 1 0.5897 -3.178971403645206 -3.50005514137941 11.759446691125428 0 0 0
676 226 2 -1.1794 -3.306194338514884 -6.77168627502233 12.293441344181133 0 0 0
789 263 1 0.5897 -4.812261676250401 -4.55344638219069 14.43905373331092 0 0 0
657 219 1 0.5897 -0.1368351590622492 -7.28992058396376 11.9489447640086 0 0 0
814 272 2 -1.1794 -0.22022491690068868 -3.487653510260797 14.240540848262315 0 0 0