LAMMPS (30 Jul 2021)
Processor partition = 1
  using 1 OpenMP thread(s) per MPI task
using multi-threaded neighbor list subroutines
variable        pid world 0 1
variable        phase world IceII IceIII

shell cd ${phase}
shell cd IceIII
include Restart.lmp
echo both
log log.lammps
#include		in.partitions
include		in.temp
variable        temperature equal 92.67
variable	tempDamp equal 100.0
include		in.pressure
variable        pressure equal 1668.8
variable        pressureDamp equal 1000.0 # This is 1 ps
include		in.seed
variable        seed equal 745823

units		real
atom_style	full

read_restart	restart.lmp.${pid}
read_restart	restart.lmp.1
Reading restart file ...
  restart file = 30 Jul 2021, LAMMPS = 30 Jul 2021
  restoring atom style full from restart
  orthogonal box = (0.039747324 -0.0077103866 -0.066026882) to (19.960254 20.007711 20.766025)
  4 by 4 by 4 MPI processor grid
  restoring pair style lj/cut/tip4p/long/omp from restart
  restoring bond style harmonic/omp from restart
  restoring angle style harmonic/omp from restart
  972 atoms
  648 bonds
  324 angles
Finding 1-2 1-3 1-4 neighbors ...
  special bond factors lj:    0        0        0       
  special bond factors coul:  0        0        0       
     2 = max # of 1-2 neighbors
     1 = max # of 1-3 neighbors
     1 = max # of 1-4 neighbors
     2 = max # of special neighbors
  special bonds CPU = 0.007 seconds
  read_restart CPU = 0.018 seconds
include 	in.setup
variable	out_freq equal 1000
variable	out_freq2 equal 10000
variable	out_freq3 equal 1000

timestep	2.0

neigh_modify    delay 7 every 1

include		in.tip4p
# This is TIP4P/Ice

# create groups ###
group ox type 2
324 atoms in group ox
group hy type 1
648 atoms in group hy

# set charges - beside manually ###
set group ox charge -1.1794
Setting atom values ...
  324 settings made for charge
set group hy charge 0.5897
Setting atom values ...
  648 settings made for charge

# ### TIP3P Potential Parameters ###
pair_style lj/cut/tip4p/long/omp 2 1 1 1 0.1577 8.5
pair_coeff 1 1*2 0.000 0.000
pair_coeff 2 2 0.21084 3.1668
bond_style  harmonic
bond_coeff  1 450 0.9572
angle_style harmonic
angle_coeff 1 55 104.52
kspace_style pppm/tip4p/omp 1.0e-5
pair_modify tail yes

thermo          ${out_freq}
thermo          1000
thermo_style    custom step temp pe etotal epair emol press lx ly lz vol pxx pyy pzz pxy pxz pyz enthalpy

restart 	${out_freq3} restart.lmp.${pid} restart2.lmp.${pid}
restart 	1000 restart.lmp.${pid} restart2.lmp.${pid}
restart 	1000 restart.lmp.1 restart2.lmp.${pid}
restart 	1000 restart.lmp.1 restart2.lmp.1


include         in.dump
dump            myDump all atom ${out_freq2} dump.water.${pid}
dump            myDump all atom 10000 dump.water.${pid}
dump            myDump all atom 10000 dump.water.1
dump            myDump2 all dcd ${out_freq2} dump.dcd
dump            myDump2 all dcd 10000 dump.dcd
dump_modify     myDump append yes
dump_modify     myDump2 append yes


variable natoms 	equal  "count(all)"                        # NUMBER ATOMS
variable H      	equal  "enthalpy/v_natoms"                 # ENTHALPY-per-atom
variable Vol      	equal  "vol/v_natoms"                 # volume-per-atom
fix AVG all 		ave/time ${out_freq} 1 ${out_freq} v_Vol v_H file vol_enthalpy.dat
fix AVG all 		ave/time 1000 1 ${out_freq} v_Vol v_H file vol_enthalpy.dat
fix AVG all 		ave/time 1000 1 1000 v_Vol v_H file vol_enthalpy.dat


timer           timeout 02:55:00 every 1000
New timer settings: style=normal  mode=nosync  timeout=02:55:00

fix 		1 all shake 1e-6 200 0 b 1 a 1
Finding SHAKE clusters ...
       0 = # of size 2 clusters
       0 = # of size 3 clusters
       0 = # of size 4 clusters
     324 = # of frozen angles
  find clusters CPU = 0.004 seconds
fix             2 all nph aniso ${pressure} ${pressure} ${pressureDamp}
fix             2 all nph aniso 1668.8 ${pressure} ${pressureDamp}
fix             2 all nph aniso 1668.8 1668.8 ${pressureDamp}
fix             2 all nph aniso 1668.8 1668.8 1000
fix             3 all temp/csvr ${temperature} ${temperature} ${tempDamp} ${seed}
fix             3 all temp/csvr 92.67 ${temperature} ${tempDamp} ${seed}
fix             3 all temp/csvr 92.67 92.67 ${tempDamp} ${seed}
fix             3 all temp/csvr 92.67 92.67 100 ${seed}
fix             3 all temp/csvr 92.67 92.67 100 745823


run             250000
PPPM initialization ...
  extracting TIP4P info from pair style
  using 12-bit tables for long-range coulomb (../kspace.cpp:340)
  G vector (1/distance) = 0.37244381
  grid = 24 24 25
  stencil order = 5
  estimated absolute RMS force accuracy = 0.0034030463
  estimated relative force accuracy = 1.0248173e-05
  using double precision FFTW3
  3d grid and FFT values/proc = 2366 288
Last active /omp style is kspace_style pppm/tip4p/omp
Neighbor list info ...
  update every 1 steps, delay 7 steps, check yes
  max neighbors/atom: 2000, page size: 100000
  master list distance cutoff = 10.8154
  ghost atom cutoff = 10.8154
  binsize = 5.4077, bins = 4 4 4
  1 neighbor lists, perpetual/occasional/extra = 1 0 0
  (1) pair lj/cut/tip4p/long/omp, perpetual
      attributes: half, newton on, omp
      pair build: half/bin/newton/omp
      stencil: half/bin/3d
      bin: standard
Setting up Verlet run ...
  Unit style    : real
  Current step  : 1750000
  Time step     : 2
  Walltime left : 2:54:59.91
Per MPI rank memory allocation (min/avg/max) = 9.229 | 9.232 | 9.239 Mbytes
Step Temp PotEng TotEng E_pair E_mol Press Lx Ly Lz Volume Pxx Pyy Pzz Pxy Pxz Pyz Enthalpy 
 1750000    98.497353    -5064.133   -4874.1726    -5064.133            0    1274.1948    19.920506    20.015422    20.832052    8306.1002    2271.2072    29.496735    1521.8804   -340.06468   -134.00901   -405.86848   -4719.8218 
 1751000    92.681171   -5069.6868   -4890.9433   -5069.6868            0    1648.2549    19.879873     19.89147    20.975151    8294.4115    2702.8743    1209.4645     1032.426   -277.83783   -13.693909    227.91798   -4691.5614 
 1752000    92.859728   -5068.0848    -4888.997   -5068.0848            0    1176.0021    19.934273    19.988585    20.799997    8287.9233    491.44501    1256.0677    1780.4935   -476.35535    223.27209   -425.58101   -4746.8526 
 1753000    93.297545   -5071.6133   -4891.6811   -5071.6133            0    2213.0872    19.886532     19.96301    20.901472    8297.7809    2848.3064    1937.6527    1853.3025   -88.350712   -625.43163   -98.310608   -4623.8652 
 1754000    88.926266   -5076.9608    -4905.459   -5076.9608            0    1667.1939    19.950037    19.965754    20.887622    8319.9059    1678.6386    2038.6292    1284.3138    -248.9545    7.0675475   -70.156406   -4703.1662 
 1755000    94.050161   -5071.6177   -4890.2341   -5071.6177            0    912.05438    20.008076    19.981399    20.787966    8310.8072    804.32377    805.17229    1126.6671   -2.3191468     151.9009   -502.14789   -4779.6889 
 1756000    97.227251   -5070.4622   -4882.9512   -5070.4622            0     1777.274    19.948043    19.983556    20.789998    8287.5757    1633.2664    2255.3316    1443.2239   -336.00608    365.79871    282.33945   -4668.1396 
 1757000    94.025628   -5070.6792   -4889.3428   -5070.6792            0    1867.0388    20.021267    19.994468    20.701834     8287.246    1329.4245    1508.7044    2762.9874   -261.28237    68.641102    265.05766   -4663.6907 
 1758000    98.773398   -5074.9593   -4884.4665   -5074.9593            0    1578.5496    20.090628    19.938728     20.66533    8278.1502    261.63135    2112.2016    2361.8159    104.03855   -280.15157   -170.14524   -4693.8909 
 1759000    97.048164   -5062.0174   -4874.8519   -5062.0174            0    2186.6087    20.024067    19.930717    20.695596    8259.4883    1689.6604    2452.4765    2417.6893    145.29877    27.015764    557.55468   -4611.4614 
 1760000    94.896982    -5066.912   -4883.8951    -5066.912            0    1924.7872     19.99144    20.079078     20.60875    8272.5516    2538.0336    1188.7733    2047.5546    -550.0751    -5.661626   -107.47091    -4651.676 
 1761000    93.138716   -5071.1865   -4891.5606   -5071.1865            0     1786.034    20.019343    19.948869    20.656997    8249.6456    2020.5047    1217.6061    2119.9914   -1.2569203    816.20778   -269.87073   -4676.6782 
 1762000    98.476189   -5062.3967   -4872.4771   -5062.3967            0    1192.4204    20.052087    20.050358     20.70755    8325.5019    1494.8234    286.04418    1796.3936    4.2979907    88.088289    582.51148   -4727.6947 
 1763000     95.92019   -5059.7881    -4874.798   -5059.7881            0    850.37022    19.920756    20.158776    20.731535    8325.3293    876.40858    14.729205    1659.9729   -84.148787    83.275434   -643.41798   -4771.5491 
 1764000    89.963382   -5067.0465   -4893.5446   -5067.0465            0    2611.9419    19.947707    19.932447    20.711286     8234.944    2509.1979    2111.1013    3215.5264    24.633424    796.66425   -493.14194    -4579.855 
 1765000    94.529548   -5072.6269   -4890.3187   -5072.6269            0    3029.8225    19.878592     20.06454    20.627568    8227.4046    2763.9385    2385.2705    3940.2584    208.68621    727.02895   -269.38301   -4526.7756 
 1766000    92.316417   -5066.4496   -4888.4096   -5066.4496            0    2543.8101    19.875628    20.050964    20.657845    8232.6779     3379.848    1265.5811    2986.0011    512.09196   -1471.7606    -385.8288   -4582.9867 
 1767000    94.643558   -5071.7686   -4889.2405   -5071.7686            0    934.89831    20.056821    19.866007    20.813867    8293.2634    381.14721    2321.3223    102.22544    143.40802    122.27269    114.94234   -4776.1658 
 1768000     89.00647   -5070.3627   -4898.7062   -5070.3627            0    1983.0564    19.951717     20.01281    20.697645    8264.3611    2398.6856    1620.9482    1929.5353    153.12882    740.21565    677.47035   -4659.6939 
 1769000    88.943591   -5061.1489   -4889.6137   -5061.1489            0    2983.8298    19.858485    20.055529     20.64651    8222.9352    3533.2327    1713.5138    3704.7429    88.537986   -39.035323     247.0451   -4531.7836 
 1770000    91.266192   -5069.1649   -4893.1504   -5069.1649            0    252.18636    20.096773    19.952915    20.704166    8302.1471    241.19224   -179.91547    695.28231    -190.4227   -412.56806   -26.152459   -4862.6161 
 1771000    88.890864   -5069.2779   -4897.8444   -5069.2779            0     1580.159    19.943625     20.06857    20.679464    8276.7498    1436.9604    1063.3629    2240.1536    198.50111    514.93322   -208.07137   -4707.1067 
 1772000    89.852007   -5059.7049   -4886.4178   -5059.7049            0    2121.8584    19.990267    19.988331    20.665544     8257.374    2263.9042    1191.0671     2910.604   -95.187593    -415.8129   -11.747111   -4630.8923 
 1773000    89.257083     -5069.41   -4897.2702     -5069.41            0    2097.3798    19.967224    19.965741    20.742562    8269.2383     2730.473    970.59559    2591.0707   -210.86007    350.00843    379.07688   -4644.3297 
 1774000    97.510698   -5057.6137   -4869.5561   -5057.6137            0    1023.6916    20.085707    20.041154      20.6815    8325.1467    342.82859    632.13279    2096.1135   -844.38501    435.15871    710.88568   -4745.2659 
 1775000    95.699322   -5062.5932    -4878.029   -5062.5932            0     1470.803    20.006901    20.040608    20.688256    8294.9656    1303.5691    914.78587    2194.0541    61.344593    542.74575   -235.49362   -4700.1007 
 1776000    96.808954   -5063.9774   -4877.2732   -5063.9774            0    1553.3491    19.989986    19.956588    20.806457    8300.3596    1503.2575    1300.5995    1856.1904   -128.40562    509.95716    -396.7202   -4689.2369 
 1777000    98.749475   -5063.5758   -4873.1291   -5063.5758            0    2148.5926    19.917762    19.815209    20.853567    8230.3736    2436.4621     2618.018    1391.2978   -186.56005   -891.72707    770.45807   -4615.2302 
 1778000    94.290645   -5074.7113   -4892.8639   -5074.7113            0    2348.3365    19.891833    19.963806    20.727143    8231.0945    2172.1941    1985.7326    2887.0828   -277.17312    919.76582    586.69696   -4610.9647 
 1779000    96.131629   -5073.3228   -4887.9249   -5073.3228            0    678.52347    20.144755    19.881271    20.800298    8330.5888   -15.684115    1082.8522    968.40232   -28.849582   -302.57707   -221.79003    -4805.489 
 1780000    93.125381   -5060.1518   -4880.5517   -5060.1518            0    1327.1249    19.957025    20.001466     20.83437    8316.4502    2302.2572    1310.5354    368.58215   -570.57433    313.06939    260.61108   -4719.5888 
 1781000    97.366533   -5066.8317   -4879.0522   -5066.8317            0    1498.1748    20.073185    19.972217    20.806196    8341.3291     1582.334    1086.2771    1825.9134   -43.061068    1328.1107    556.57551   -4696.7996 
 1782000    96.719965    -5069.856   -4883.3234    -5069.856            0    814.20751    20.021902    19.875564    20.930818    8329.3476    813.58156    854.83478    774.20619   -366.97511    15.779219   -23.996773   -4784.4176 
 1783000    92.400924   -5062.7593   -4884.5564   -5062.7593            0    2613.6222     19.95644    19.916345    20.800362    8267.2978    2775.1999    2709.1827    2356.4839   -68.780691   -492.84514     530.3028   -4569.4318 
 1784000    89.677276   -5066.5642    -4893.614   -5066.5642            0     1818.891    19.957442    19.918323    20.817919    8275.5136    2508.2777    1327.5054      1620.89   -595.19586    651.25583    1389.1112   -4674.0923 
 1785000     90.05996    -5079.242   -4905.5538    -5079.242            0    1189.7352    20.005687    19.957395    20.873617    8334.0294    1085.1384    1247.7854     1236.282    223.68696    1060.2758    282.24287   -4760.9495 
 1786000    89.094117    -5070.724   -4898.8985    -5070.724            0    1698.1017    19.938383    19.958684    20.807547    8280.2363    1739.0313     1539.015    1816.2588   -134.14682    453.44196   -248.05047   -4693.8379 
 1787000    87.320864   -5056.7799   -4888.3743   -5056.7799            0    1001.2652    20.046753    19.957805    20.729536    8293.6632    1605.6726    413.56703    984.55582   -138.01431   -20.680641     186.8839   -4767.2667 
 1788000     94.83438   -5065.2833   -4882.3872   -5065.2833            0    1794.7286    19.922099    19.945099    20.819424    8272.5613    2902.3962    1379.5135    1102.2761   -26.662313    479.33261   -113.62931   -4665.8589 
 1789000    88.839422   -5069.6368   -4898.3025   -5069.6368            0    1173.2639    20.028302    19.948992     20.78305    8303.7518    295.84304    1558.8033    1665.1452   -278.20634    455.18355    555.11746   -4756.2183 
 1790000    92.277408   -5067.8845   -4889.9198   -5067.8845            0    1360.7119    19.966488    19.982081      20.7417    8275.3574    1073.1822    1323.3116    1685.6419    118.35707   -275.80839   -118.35574   -4725.6987 
 1791000    95.037717   -5069.8662   -4886.5779   -5069.8662            0    2077.5088    19.957575    19.941637    20.801764    8278.8261     1710.282     3606.359    915.88559  -0.20316655    549.66656   -597.37776   -4635.7433 
 1792000    91.039576   -5070.7051   -4895.1276   -5070.7051            0     1817.198    20.002995    19.971939    20.742926      8286.77    1887.6429    1944.8296    1619.1214    153.50964    1725.1859   -868.10511   -4675.5119 
 1793000    98.362156   -5075.4175   -4885.7178   -5075.4175            0    1335.1238    19.997386    20.006545    20.880545    8353.8593    2005.3522    1026.6826    973.33669    79.844757    888.10462   -349.57484   -4723.0563 
 1794000    89.292735   -5071.8911   -4899.6825   -5071.8911            0    1880.3346    19.989942    19.906744    20.774392    8266.8507    1669.1504    2376.5945    1595.2589    123.32953   -47.557548   -270.78723   -4672.9827 
 1795000    92.360706   -5077.8314    -4899.706   -5077.8314            0    2814.7673     19.95216    19.966911    20.700587     8246.762    2504.5336    2719.9642    3219.8043     -138.815    564.85635   -310.05358   -4561.1724 
 1796000     92.10482   -5071.8044   -4894.1725   -5071.8044            0    718.63799    19.975529    19.927999    20.819865     8287.812    185.12942    786.80446    1183.9801   -259.82872    30.845707   -609.21718   -4807.3113 
 1797000    98.951014   -5081.2196   -4890.3842   -5081.2196            0    2232.3658    19.913962    19.957539    20.740575    8243.0029     2523.131    2004.9076    2169.0588   -357.15825   -74.815349    699.64413   -4622.0187 
 1798000    91.450948    -5078.003   -4901.6322    -5078.003            0    1146.4742    19.958447    19.925692    20.857312    8294.6583    729.53382    2012.2424    697.64631   -513.04412    183.89042   -625.55623   -4762.9443 
 1799000     92.77793   -5064.3916   -4885.4616   -5064.3916            0    2511.0425    19.858031    19.936431     20.83918    8250.1954    2931.9512     2420.486    2180.6902    -223.8146   -1004.0392   -681.85669   -4583.3313 
 1800000    92.848696   -5079.3671   -4900.3005   -5079.3671            0    2407.0495    19.942598    19.947742    20.796278    8272.9634     3952.897     812.6303    2455.6213   -280.71619    85.405735    302.19734   -4609.8836 
 1801000    100.26581   -5058.6954   -4865.3243   -5058.6954            0    1970.5249    19.890691    19.868566    20.942252    8276.3679    2032.0576    2768.2376    1111.2795   -136.25732   -425.24195   -275.93775   -4627.4774 
 1802000    88.559068   -5068.2433   -4897.4497   -5068.2433            0     1331.424    19.863024    19.978819     20.98109    8326.1312    2323.5303    1154.3525    516.38931    -221.1542    1092.0851   -643.17358   -4735.7774 
 1803000    85.742115   -5067.8445   -4902.4836   -5067.8445            0    1750.5761    19.886222    20.032673    20.858551    8309.5081    3069.9332    357.44425    1824.3509    275.93574   -192.15865   -14.069339   -4690.3389 
 1804000    94.200414    -5062.117   -4880.4435    -5062.117            0    1105.7414    19.952698    19.984762    20.846835    8312.6734    1833.1295    279.31238    1204.7822   -30.143533    218.28886   -29.335473   -4746.3925 
 1805000    95.056554   -5069.6326   -4886.3081   -5069.6326            0    2431.8835    19.962046    19.791262    20.865188     8243.295    2783.3898    2300.3365    2211.9242    66.059964    -105.5558   -573.62956    -4593.947 
 1806000    95.273551   -5053.1193   -4869.3763   -5053.1193            0    2603.5411    19.914764    19.991722    20.696843     8240.043    1883.9302    2877.5764    3049.1167   -305.61473    22.873663   -458.74878   -4556.5021 
 1807000    89.635625   -5073.2102   -4900.3403   -5073.2102            0    1615.5659    20.045631    19.804441    20.918437     8304.463     776.8391    1418.8322    2651.0264    78.858918    310.58065    923.92853   -4704.6758 
 1808000    91.038321   -5062.3661    -4886.791   -5062.3661            0     1258.466    19.866169    19.857347    21.138367    8338.8622    2557.4882    962.64895    255.26077   -34.280051     250.2929   -572.96503   -4733.7442 
 1809000    95.609736    -5075.671   -4891.2796    -5075.671            0    1997.2407    19.995064     19.92675    20.793241    8284.7892    2103.3196    1705.0327      2183.37   -107.72471    163.12172    25.814166   -4649.9627 
 1810000    94.988645   -5072.8763   -4889.6827   -5072.8763            0    1905.6641    19.934563    19.836875    20.964734    8290.2825     2355.076    1902.6166    1459.2997   -273.08934   -114.76904    416.71297   -4659.2779 
 1811000    94.777309   -5066.9864   -4884.2004   -5066.9864            0    2170.4024     19.90534    19.863597    20.965935    8289.7559    3542.8998    1873.3736    1094.9337   -338.60504    693.50398   -396.50677    -4621.804 
 1812000    101.18946   -5069.2637   -4874.1113   -5069.2637            0    1882.8401    19.947624    20.044538    20.782928     8309.865    2779.8686    1039.9273    1828.7245   -276.45785    989.79778   -281.11146   -4645.9283 
 1813000    98.213356   -5068.4751   -4879.0623   -5068.4751            0    2020.1519    19.959537    19.899606     20.80962     8265.309    2308.1548    2208.9688    1543.3323   -314.22004   -792.26768   -357.91055   -4635.5511 
 1814000    90.389181    -5063.937   -4889.6139    -5063.937            0    1629.4702    19.781174    20.134263    20.919406    8331.7675    3523.5968   -562.56828    1927.3821   -195.50674    639.86475     91.66216   -4691.6165 
 1815000     93.79038    -5072.892   -4892.0094    -5072.892            0    1465.6445    19.864175    19.984559    20.807686    8260.1678    2573.1835    1068.6382     755.1117   -241.94709   -206.04633   -262.90963   -4715.4489 
 1816000    97.259543   -5058.4994   -4870.9261   -5058.4994            0    2169.6263    19.842664    20.004476    20.768933    8244.0639    1971.7374    2391.2889    2145.8526    -315.0216   -706.95624   -722.77301   -4610.0693 
 1817000    94.677635    -5076.578   -4893.9842    -5076.578            0    1686.1552     19.84505    20.009494    20.904611    8300.9993    3053.8979    708.91306    1295.6546   -962.16393    89.071118    584.02191   -4689.8556 
 1818000    92.555873   -5069.7449   -4891.2431   -5069.7449            0    1219.2408    19.939612    19.944881    21.007626    8354.5899    1714.9992    1085.6088    857.11434   -179.40375   -98.894774    11.540136    -4742.687 
 1819000     89.88512   -5076.4165   -4903.0655   -5076.4165            0     1592.109    19.949509    19.889685    20.906274    8295.3888     1763.648    1874.6534    1138.0257    151.19742    945.89654    1022.8037   -4710.4526 
 1820000    92.828005   -5063.4959   -4884.4693   -5063.4959            0    1089.6682    19.954009    19.958736    20.832665    8296.7506     1561.452    615.73402    1091.8186   -763.59828   -436.75872    290.99266   -4752.6199 
 1821000    94.149789   -5067.2845   -4885.7087   -5067.2845            0    1094.7452    19.959683    20.001789    20.784297    8297.7013    1999.3319    262.28251    1022.6211   -136.07056   -8.4674593     -653.645   -4753.2298 
 1822000    96.038729   -5053.1687     -4867.95   -5053.1687            0    691.32441    19.965271    20.090142    20.794115    8340.6261    1572.3713   -328.19104    829.79296   -100.40886   -380.98675    218.79263   -4783.8576 
 1823000    88.295489   -5071.7767   -4901.4914   -5071.7767            0    2049.2343    20.011358    19.980679    20.684704     8270.583    1619.0142    2165.7739    2362.9149    222.52038   -493.56203   -155.58441    -4654.317 
 1824000     85.39587   -5062.7111   -4898.0179   -5062.7111            0    1814.8886    20.047165    19.962051    20.750554    8304.0096     1445.359    2001.9362    1997.3706   -81.532649    85.882151   -439.54099    -4678.225 
 1825000    93.256932   -5074.7025   -4894.8486   -5074.7025            0    1434.0683    20.078829    19.980373    20.684783    8298.3728   -308.03404    2316.9253    2293.3135    320.06276    335.88723    768.04745    -4721.293 
 1826000    93.592205   -5072.0967   -4891.5963   -5072.0967            0    2445.4598    20.002637    19.890519    20.789074    8271.1993    1778.0623    2803.2709    2755.0462    384.35745   -14.432471   -632.12792   -4596.6079 
 1827000    90.192253   -5077.8299   -4903.8865   -5077.8299            0    2136.0363    19.944334     19.99064    20.649795    8233.0736    1940.5939    2556.3233    1911.1917    36.878018    441.77174    144.88107   -4647.4107 
 1828000    95.129327   -5059.0979    -4875.633   -5059.0979            0    1825.0104    19.948074    20.032504      20.6902    8268.0081    1612.5077    1885.4034      1977.12   -52.622859   -221.06738   -400.36178   -4655.5724 
 1829000    92.094996   -5073.7609    -4896.148   -5073.7609            0    1459.6894    19.963164    19.945179    20.766363    8268.5192    1041.1751    1281.4093    2056.4837     -209.791    935.01098    370.26944   -4720.1272 
 1830000    97.052389   -5067.1172   -4879.9435   -5067.1172            0    1811.5509    19.910059    19.794293    20.983366    8269.6607    1685.3654    2449.9898    1299.2975   -432.27506   -37.328506   -164.72259   -4661.4623 
 1831000    90.682448   -5060.0074   -4885.1187   -5060.0074            0    1742.8383    19.841348    20.021954    20.817148    8269.8736    3465.4981    493.97004    1269.0466    218.13444    719.14743    75.964814   -4674.9191 
 1832000    90.230373   -5073.3417   -4899.3249   -5073.3417            0    2709.2997    20.007545    19.802155    20.932199    8293.1805    2303.2378    3240.7106    2583.9508   -501.10584    824.77633   -49.056693   -4571.6417 
 1833000    95.114647   -5068.5119   -4885.0753   -5068.5119            0    1436.7829    19.973084    19.938792    20.822763    8292.4397    1220.3902    1899.9254     1190.033     112.2181    400.84011   -635.35494   -4711.3155 
 1834000    97.848141   -5064.5388   -4875.8304   -5064.5388            0    1979.9011    20.003477    20.025279    20.657451     8274.863     2366.198    1318.4622    2255.0429    175.45611   -63.711725    427.96471   -4636.8952 
 1835000    89.278091   -5066.6225   -4894.4422   -5066.6225            0    1332.4893    20.018188     19.94664     20.73521    8279.4783    948.89048    1683.7114    1364.8659   -275.34706    373.08597   -251.43194   -4733.5472 
 1836000    88.841493   -5064.8617   -4893.5234   -5064.8617            0    401.28837    19.980081    20.041794    20.858639     8352.564    212.79542     595.0826    395.98708   -289.72499   -290.41648    13.564948    -4844.641 
 1837000     89.68459   -5062.9292    -4889.965   -5062.9292            0    2195.1449    20.005046     20.01251    20.615395    8253.3974    2583.1107    1252.4005    2749.9236   -536.77863    634.62989   -232.86563   -4625.7412 
 1838000    94.543627   -5070.0312   -4887.6959   -5070.0312            0    1327.4022    20.039467     20.03022    20.682195    8301.7284    1821.6449     965.4161    1195.1457    155.01998    183.58693    282.20074   -4726.9844 
 1839000    86.861345   -5072.0972   -4904.5778   -5072.0972            0    1245.3423    20.079763     19.96262    20.663425     8282.824    1040.3644    1228.2004    1467.4619   -133.27173    586.07405    719.73607   -4754.1448 
 1840000    91.069061   -5069.6043   -4893.9699   -5069.6043            0    1466.5311    20.036297    19.921426    20.859873     8326.252    1204.8895     1714.466    1480.2378    227.45762   -462.33635    836.88946   -4715.8893 
 1841000    91.766844   -5071.5352   -4894.5551   -5071.5352            0    30.407853    20.025783    20.010658    20.718586    8302.5401   -1250.3976    872.59286    469.02826   -205.34763    485.61684    527.36148   -4890.8732 
 1842000    91.543234   -5067.9257   -4891.3768   -5067.9257            0    3052.3671    19.932504    19.861714    20.743348    8212.1603    2056.9172    4172.2184    2927.9658   -95.332757   -82.385709    600.40975   -4525.8072 
 1843000    94.440506   -5060.1875    -4878.051   -5060.1875            0    2119.3383     20.09902    19.864924    20.675407    8254.9768    888.97256    2980.7776    2488.2647    356.81163    282.06419   -818.07078   -4622.9031 
 1844000    89.883362    -5063.075   -4889.7274    -5063.075            0    2787.3148    19.963922    19.974695    20.676941    8245.4112    4485.8253    990.97296    2885.1462    37.787304   -121.46878   -339.64615   -4554.5504 
 1845000    87.819358   -5074.2508   -4904.8837   -5074.2508            0    924.88685    20.023254     19.94836    20.797104    8307.0095    1124.8877    909.39721    740.37562   -17.329179    164.63021    -360.4699   -4792.8344 
 1846000    96.930757   -5070.7387   -4883.7996   -5070.7387            0    1660.1723    20.014024    20.048505    20.646212    8284.3186    1243.4709    1735.4592    2001.5869   -109.72228   -568.45077   -164.24511   -4683.2204 
 1847000    91.571288   -5066.3643   -4889.7614   -5066.3643            0    1598.6996    19.985618    20.038117    20.681098    8282.2449    1497.1614    1350.3808    1948.5566   -261.80172    273.61777   -347.30471   -4696.6576 
 1848000    91.760111   -5066.1446   -4889.1775   -5066.1446            0    2099.3779    19.952102    19.985083    20.708107    8257.2419    2793.3604    1047.3463     2457.427   -175.12724   -297.10748    32.638304   -4636.3632 
 1849000    90.428368   -5065.5304   -4891.1317   -5065.5304            0    1860.7993    19.956593     20.00105    20.689728    8258.3633    2055.9458    1314.8089     2211.643   -468.82677    566.71357   -65.674559   -4667.0175 
 1850000    93.809067   -5070.4764   -4889.5577   -5070.4764            0    1908.7711    20.034745    19.981422    20.698072    8285.9077    1076.6656    2031.0358    2618.6118    348.68579    580.75154    -958.0206    -4658.899 
 1851000    88.342833   -5076.5107   -4906.1341   -5076.5107            0    1434.1999    20.014317    19.986944    20.660569    8264.7445    926.53476    1495.7675    1880.2973   -244.51442    229.92344    385.48063    -4733.266 
 1852000    88.564648   -5057.4743   -4886.6699   -5057.4743            0    3043.6836    19.927382    19.921998     20.75251    8238.6065    2261.3909    3320.4039    3549.2559    93.822863    184.57193   -33.079969   -4520.9664 
 1853000    95.667805   -5067.2254    -4882.722   -5067.2254            0    1474.6623    20.033034    19.993703    20.640794    8267.3506    1384.7463    1164.1394    1875.1013   -163.37101   -355.71537    426.60533   -4704.9207 
 1854000    92.930539   -5059.8826   -4880.6583   -5059.8826            0    1813.7685    20.014344    19.947872    20.642989    8241.5812     1379.105    1931.4074    2130.7931   -173.01626    537.52181     256.6869   -4662.6524 
 1855000    96.712875   -5057.3012   -4870.7823   -5057.3012            0    1782.5616    19.958369    19.914571    20.815779    8273.4883    1311.5398    2312.6485    1723.4967   -176.97661    928.16785   -1310.5835   -4655.6978 
 1856000    91.306105   -5074.7986   -4898.7071   -5074.7986            0    770.08684    20.039308    19.839728    20.948668    8328.6547    1125.5506    1216.5315   -31.821641   -329.72157    625.36451    177.95909   -4805.1686 
 1857000    95.107122   -5069.8599   -4886.4378   -5069.8599            0    1618.7432    19.966749    19.871373    20.845223    8270.6904    2257.0539    1999.9695    599.20617   -197.83602   -304.06162   -484.04462   -4691.1858 
 1858000     96.46853    -5068.645   -4882.5973    -5068.645            0    1842.6588    20.006665    19.995902    20.714006    8286.6654    1282.6556     2259.003    1986.3177   -527.15717    331.37181    94.680024   -4659.9074 
 1859000    96.247094    -5075.277   -4889.6564    -5075.277            0    2543.9204    19.890809    19.989597    20.692913     8227.694    3423.1397    1818.5376    2390.0839   -125.80871   -731.54908   -343.47455   -4584.4051 
 1860000    96.764667    -5068.256   -4881.6372    -5068.256            0    860.03763    19.961165    20.056549    20.694699    8285.1659    2066.3381   -406.93364    920.70844   -734.06126    646.73642    794.97528   -4777.7183 
 1861000    94.727897   -5060.2394   -4877.5487   -5060.2394            0    2396.8823    20.003624    19.842997    20.718298    8223.7526    2256.8603    2379.5265    2554.2602   -201.23901    332.56102    142.91525   -4590.0786 
 1862000    92.989367   -5062.0222   -4882.6843   -5062.0222            0     1851.372    19.869022    20.161129    20.612202    8256.8752    2356.7987    767.08433    2430.2329   -537.88002    540.44263    222.41843   -4659.7457 
 1863000    93.240238   -5079.0947   -4899.2731   -5079.0947            0     1078.736    20.082146    19.903871    20.743119    8291.2826    627.83427    1488.2452    1120.1285    86.327787    1088.5194    764.65128   -4768.8325 
 1864000    99.698206   -5076.4955   -4884.2191   -5076.4955            0    2310.5134    19.846029    20.038838    20.819159    8279.5994    3700.0076    1728.0544    1503.4783   -390.10589    261.36011   -623.36487   -4605.2259 
 1865000    90.154088   -5065.8009   -4891.9311   -5065.8009            0    1160.8694    20.074293    19.958812    20.824872    8343.6735     730.0348    1719.6824     1032.891   -655.01564      374.155    407.87488    -4750.672 
 1866000    90.670497   -5073.8851   -4899.0194   -5073.8851            0    2263.3316    19.982578    19.865396    20.797842    8255.9492    2233.6525    2397.6456    2158.6966   -111.20064    219.72873   -180.78655    -4626.504 
 1867000    91.484412   -5077.9278   -4901.4924   -5077.9278            0    687.49397    19.902754    20.001499    20.816799    8286.8536    623.21024    928.55057     510.7211    253.18521    602.41627   -179.20509   -4818.4052 
 1868000    90.457766   -5067.9157   -4893.4603   -5067.9157            0    1559.2112    20.019234    20.018192    20.603596    8256.8677    1346.9969     691.8011    2638.8354   -153.18109    187.59183    424.19512   -4705.7033 
 1869000    89.636175   -5069.4212   -4896.5503   -5069.4212            0    2475.4756    20.009029     19.94822    20.727813    8273.3929    1398.6113    3680.7332    2347.0824     195.5858    454.43082    178.71668    -4597.862 
 1870000    94.521137     -5068.92    -4886.628     -5068.92            0    1688.2617    19.908363    19.970669    20.769483    8257.6004    2649.8256     1528.547    886.41245    48.104812   -8.8914418   -528.86377    -4683.313 
 1871000    87.912882   -5072.0277   -4902.4803   -5072.0277            0    2112.3857    20.090745    19.951271    20.578205    8248.4836    924.45488     2609.264    2803.4383    -62.34476    823.60617    344.43344   -4648.3695 
 1872000    93.162933   -5059.8883   -4880.2157   -5059.8883            0    1527.7533    19.993257    20.023079    20.669543    8274.5673    1500.3435    1003.3303    2079.5862   -59.184655    449.90305    703.08513   -4695.8524 
 1873000    90.996098   -5063.0492   -4887.5556   -5063.0492            0    2753.1591    19.985294    19.891297    20.791074    8265.1468    2163.2061    2738.5953    3357.6758   -1.7506996   -692.69123   -174.77859   -4555.6934 
 1874000     90.90089   -5059.2843   -4883.9743   -5059.2843            0    1052.6823    19.968167    19.963183    20.740169    8267.6154    690.06247    1564.6057    903.37872   -86.176737   -300.80048    803.32995   -4757.0474 
 1875000    93.653087   -5059.8204   -4879.2026   -5059.8204            0    2144.2349    19.981824    19.941195    20.733654    8261.5616    1836.4155    2288.9226    2307.3667   -89.729152    541.20397   -561.67653   -4620.8514 
 1876000    90.703056   -5077.0399   -4902.1114   -5077.0399            0    1285.3365    19.952731    19.970023    20.813137    8293.1294    1847.9178    582.25399    1425.8376    77.382878    726.62664   -434.66885   -4746.6541 
 1877000    96.893435   -5080.2036   -4893.3365   -5080.2036            0    436.30523    20.034855    19.975506    20.803069    8325.5208    582.28707    69.919433    656.70918    34.345734    440.11077     436.7338   -4840.3606 
 1878000    87.747195   -5065.6391   -4896.4113   -5065.6391            0    1707.6023    19.987922    20.066921    20.694757    8300.5852    1998.1183     1184.556    1940.1327      198.987    239.99199    228.62874   -4689.6966 
 1879000    95.338192   -5059.5434   -4875.6756   -5059.5434            0    965.65083    19.995723     19.96557    20.822776    8312.9935    121.52727    1023.9195    1751.5057   -45.029762   -779.73488    365.10193   -4758.6035 
 1880000    90.719853   -5081.2372   -4906.2763   -5081.2372            0    1412.5884    19.965732    19.851701    20.990644    8319.7206    940.56469    2273.8105      1023.39   -205.43112   -17.591681    223.67379   -4734.8805 
 1881000     87.84347   -5074.6463   -4905.2327   -5074.6463            0    1116.6286    19.930387    19.947952    20.857932     8292.496    1345.7012    1201.9423    802.24237   -297.97163   -51.228419   -726.38913   -4770.1904 
 1882000    94.794817   -5062.5809   -4879.7611   -5062.5809            0      1642.92    19.958554    19.947342    20.791937    8277.6884    2439.1943    783.80721    1705.7585   -130.92556    677.94677    1228.7035   -4681.4252 
 1883000    95.432761   -5061.7966   -4877.7465   -5061.7966            0    2095.2145    19.988198    19.959231     20.84432    8315.8221    798.58765    3238.3265    2248.7294   -195.57799   -289.79726   -93.671053   -4623.6436 
 1884000    88.341371   -5066.1897   -4895.8159   -5066.1897            0    1208.8529     20.07689    19.967168     20.68124    8290.6674    694.06083    1110.3348     1822.163   -204.39674    98.191779    455.61226   -4749.6525 
 1885000    92.200113   -5068.6983   -4890.8826   -5068.6983            0    2261.4755    20.079097    19.843822    20.756422     8270.314    2853.6414    1887.9505    2042.8346    286.77279    211.93879    1136.3784   -4618.1169 
 1886000    97.689328   -5071.7598   -4883.3577   -5071.7598            0    2261.3305    19.858098    20.005594    20.699502    8223.3542    3067.6553    1653.7916    2062.5446   -8.1268088    99.209255    267.25664   -4612.1582 
 1887000    91.250108   -5070.5561   -4894.5726   -5070.5561            0    1793.1037     20.07313    19.839219    20.744512    8261.1952      1771.54    1736.6042    1871.1668    224.22505    71.763131     170.1533   -4678.5376 
 1888000    92.933985   -5072.9626   -4893.7316   -5072.9626            0    2659.5515    19.975598    19.912185    20.770444    8261.6061    2199.2537      3181.19    2598.2107   -61.133484    -377.6373    584.25998   -4573.2901 
 1889000    88.786654    -5081.137   -4909.9045    -5081.137            0    1600.6266    19.968824    19.995999    20.845919    8323.7043    1900.0097    1724.6106    1177.2596    218.79756   -173.54627    53.067429   -4715.6001 
 1890000    97.315651   -5070.8011   -4883.1197   -5070.8011            0    2498.3482    20.029048    19.787138    20.858751    8266.6889    1775.8478     3909.184    1810.0126   -7.4362482   -125.74748    64.291222   -4581.9159 
 1891000    92.530782   -5069.5558   -4891.1024   -5069.5558            0    1305.7904    19.946369    19.960263     20.91851    8328.3861    927.62727    1746.3242    1243.4198   -482.69851    870.67642    505.65185   -4732.4998 
 1892000     90.51655   -5066.2255   -4891.6567   -5066.2255            0    1541.0845    19.961326    19.928038    20.869879    8301.8302    533.07297    2625.3031    1464.8775   -113.12896    425.85747   -240.96077   -4705.0719 
 1893000    95.214292   -5078.1098    -4894.481   -5078.1098            0    1478.7447    20.020052    19.851796     20.83747    8281.5188   -24.925801    2732.5293    1728.6306   -68.211694    -62.06388    304.16572    -4715.882 
 1894000    93.986488   -5068.1197   -4886.8588   -5068.1197            0    2660.0535    19.909832    19.939159    20.796116    8255.7524    2925.2333    2692.1024    2362.8248   -256.53439    831.92853    588.96445   -4566.5839 
 1895000    92.176564   -5069.8873    -4892.117   -5069.8873            0    684.44065    19.956573    20.019904    20.737934    8285.3992    1929.8859    -500.1514    623.58743   -43.958521    912.72472   -134.48123   -4809.4133 
 1896000    89.839624   -5067.8544   -4894.5911   -5067.8544            0    1889.4786    19.925928    19.970652    20.785693     8271.329    2641.7019    1234.3619    1792.3721    240.23738   -574.35629   -562.32686   -4666.6655 
 1897000    91.110297   -5078.5887   -4902.8749   -5078.5887            0    1748.9544    19.975103    20.044794    20.810591    8332.4948    1221.9376    2277.6119    1747.3139   -142.64113   -356.52697    219.00808   -4690.3404 
 1898000    90.477573   -5070.3696    -4895.876   -5070.3696            0    1776.7661    19.920378    19.938416    20.879978    8293.1259    1443.9564    1946.5312    1939.8107    366.63616    137.17755   -322.05971   -4680.9819 
 1899000    93.630992   -5063.5468   -4882.9716   -5063.5468            0    1794.6208    19.995958    19.889044    20.896343    8310.4858    2147.7763    1579.6618    1656.4244    -312.9119    74.189748    375.91997   -4665.4637 
 1900000    90.959422   -5069.2741   -4893.8512   -5069.2741            0    1301.7128    19.946868     19.95517    20.893909    8316.6772    325.81089    2219.5207    1359.8067   -105.87134    413.80097   -202.95742   -4735.9662 
 1901000    97.083534   -5060.9931   -4873.7594   -5060.9931            0    1983.1062     19.94969    19.870496     20.86447    8270.8897    1900.5808     2505.972    1542.7657   -225.27714    -39.53037    702.00097   -4634.5522 
 1902000    94.310783   -5063.5846   -4881.6983   -5063.5846            0    2612.7007    19.888017    19.991275    20.754105    8251.5585    2413.8616    3297.0146     2127.226   -641.82492    349.71459   -405.46357   -4567.2846 
 1903000    92.895799   -5071.5689   -4892.4115   -5071.5689            0    1910.6246    19.997367    19.822138    20.884534    8278.4327    1285.9083    2723.7293    1722.2364   -221.71614     386.5074    155.51207   -4661.7371 
 1904000    93.181368   -5070.5424   -4890.8343   -5070.5424            0    779.24919    19.996785    20.117751    20.721685     8336.134    1546.9783   -205.58303    996.35235   -210.75782    7.2970185   -29.956747   -4796.0979 
 1905000    90.222737   -5067.3169   -4893.3148   -5067.3169            0    1076.0963      19.9441    19.974056    20.907956    8328.9888    1541.6251    501.43721    1185.2267   -154.34223    876.78062   -273.95238   -4762.6017 
 1906000    93.178586   -5078.0109   -4898.3082   -5078.0109            0    2316.1835    19.962667    19.844681    20.875099    8269.7283    2960.2045    2265.8209    1722.5252   -105.60673   -125.24043    507.44143   -4618.9637 
 1907000    93.850457   -5069.0929   -4888.0944   -5069.0929            0    754.26012    20.019576    20.014902    20.863111    8359.6367    329.26637     955.9011    977.61288    14.434918    195.20863   -52.322913   -4796.1375 
 1908000    87.879752   -5071.8807   -4902.3972   -5071.8807            0    1797.3907    19.987675    19.879737    20.795451     8263.067    2617.7512    1583.3532    1191.0676   -53.871322    658.19442   -193.02876   -4685.7966 
 1909000    88.159598   -5066.6305   -4896.6073   -5066.6305            0    1883.9892    19.952471    19.969117    20.808906    8290.9596    1270.5339    2557.6933    1823.7406   -346.75272    112.61443    395.59437   -4668.8044 
 1910000    90.760463    -5065.057   -4890.0178    -5065.057            0    1452.9794    19.955778    19.873224    20.864097    8274.4017      2487.83    549.17209    1321.9361   -131.22759   -95.995696   -47.175126   -4714.6814 
 1911000    90.185944   -5072.0407   -4898.1095   -5072.0407            0    1298.1932       19.942    19.877437    20.925718    8294.8675     1183.822    1306.9678    1403.7897   -42.661521   -430.03634    947.98709   -4741.0643 
 1912000    92.600977   -5064.3315   -4885.7427   -5064.3315            0    2084.5398     19.91876    19.855711    20.906701     8268.624    1538.4922    3374.8828    1340.2444   -47.290599   -991.70506    1045.8805   -4634.3693 
 1913000    95.177827   -5070.6948   -4887.1364   -5070.6948            0    1308.3039    19.875736    20.004785     20.81021    8274.3437    781.31686     1984.307     1159.288   -436.85068   -619.83786    77.116889   -4729.2597 
 1914000    91.075153   -5073.7153   -4898.0692   -5073.7153            0    1658.8253     19.97022    19.852174    20.861432    8270.5622    926.02662    2602.9284    1447.5209    -25.57088    96.284034    204.85205   -4697.9856 
 1915000    94.455818   -5073.0963   -4890.9303   -5073.0963            0    2047.3467    19.967003    19.949468     20.82681    8295.9662    2314.7664    2223.5254    1603.7484    16.270919    865.66745   -376.54078   -4643.2256 
 1916000    91.651293   -5060.6087   -4883.8515   -5060.6087            0    1596.4328    19.913928    20.045879    20.839597    8319.0045    1616.3243    1416.1093    1756.8647   -249.91006    447.24455    136.84331   -4690.1656 
 1917000    93.057023   -5068.9739   -4889.5057   -5068.9739            0    1643.4952    20.052339    19.901213    20.705795     8262.976    1534.4117    1783.8393    1612.2346   -240.44522    407.13187   -82.742525   -4691.4529 
 1918000    93.898261   -5056.0408   -4874.9501   -5056.0408            0    2229.7717    19.934235    19.924316    20.796608    8259.9135    1690.9799    2621.3328    2377.0024   -472.79662    560.30146    245.19939   -4606.3466 
 1919000    94.558862   -5059.7222   -4877.3575   -5059.7222            0    1999.7056    19.962927    19.924783    20.792419      8270.33      2225.97    2684.5438     1088.603   -175.19696   -232.39123   -133.36882   -4636.1644 
 1920000    95.953587   -5071.0657   -4886.0112   -5071.0657            0    2359.2504    20.025997    19.883127    20.660128     8226.438    2402.8143    2390.2694    2284.6676    134.93001   -254.73781    98.855644   -4602.9621 
 1921000    93.801537    -5064.077   -4883.1728    -5064.077            0    2153.4702    19.977989    19.982892    20.729742    8275.6862    2520.9364    1711.7788    2227.6955   -234.08047   -115.98659    703.34719   -4623.2653 
 1922000    92.978114   -5070.3231    -4891.007   -5070.3231            0    1494.5074    19.909533    19.900228    20.806512    8243.6281    1847.7282    1785.6147    850.17921    -31.05009   -435.93505    667.39496   -4711.3301 
 1923000    88.573428   -5071.4998   -4900.6785   -5071.4998            0    1458.4834    20.046961    19.947813    20.733237    8291.0772    1589.6293    1596.7802    1189.0406   -951.02837   -133.86071   -284.57969   -4724.3232 
 1924000    91.536042   -5067.2121   -4890.6772   -5067.2121            0    1906.8407    19.856696      20.0009    20.857733    8283.6858    3009.2315    1134.2892    1577.0015    114.60514    759.08145    452.73891   -4660.3136 
 1925000     92.46829   -5070.8787   -4892.5458   -5070.8787            0    1070.3983    19.995505    19.885298    20.870979    8298.6469    848.13641    1376.8198     986.2386   -102.30162    116.55523    296.93396   -4762.9985 
 1926000    92.233925   -5076.2307   -4898.3498   -5076.2307            0    1914.6105    19.959045    19.977452    20.852128    8314.3873    1565.3428    1457.0602    2721.4285    287.48734    846.65564    71.781256   -4666.1903 
 1927000    92.312995   -5066.1262   -4888.0928   -5066.1262            0    2195.8815    20.008618    19.969335    20.758125    8294.0912    957.79543    3458.2958    2171.5532   -319.84079    131.81883    -223.6539   -4622.4772 
 1928000    92.684834   -5068.0666   -4889.3161   -5068.0666            0    2055.6618    19.987064    19.985676    20.616539    8235.3797    1113.7745    3049.6919    2003.5191   -309.18336   -153.28358    1115.5814   -4642.4217 
 1929000    92.749716   -5059.5025   -4880.6268   -5059.5025            0    1290.6695    20.011496    19.942361    20.764101    8286.4644    -117.2845    2431.9759    1557.3172   -26.242396    561.53755    401.33679     -4724.65 
 1930000    93.291935   -5063.1031   -4883.1818   -5063.1031            0    1825.1101    19.976712    20.005613    20.658098    8255.9337    1074.3398    2206.7793    2194.2112   -413.98563    112.53123   -192.90373   -4663.4306 
 1931000    94.511057    -5076.256   -4893.9834    -5076.256            0    2511.3734     20.04782    19.913903    20.724035    8273.6639    1324.4314    4036.9868     2172.702    213.86222    345.84872   -111.12831   -4590.9538 
 1932000     92.57809   -5068.1162   -4889.5716   -5068.1162            0    1939.1366    19.926079    19.937818    20.826923    8274.1729    2564.8939    2195.1987    1057.3172   -268.56409    473.85496   -163.79961   -4655.5754 
 1933000    87.269063   -5069.1957     -4900.89   -5069.1957            0    1745.7448    20.042259    19.888682    20.717395    8258.2462    1916.5857    1334.2402    1986.4087   -507.40339    56.861163    315.79166   -4690.6359 
 1934000    92.632646   -5077.3516   -4898.7018   -5077.3516            0    996.46706    20.023052    20.043688    20.633343     8280.899    1555.8266    452.06196    981.51264   -703.33733    371.45021   -153.86206     -4778.36 
 1935000    91.268048   -5056.9236   -4880.9055   -5056.9236            0    1485.6959    20.052199    19.968321    20.734734    8302.3689   -478.90793    3396.2653    1539.7303   -131.60031   -118.52437    944.36264   -4701.0152 
 1936000    92.736494   -5057.3352   -4878.4851   -5057.3352            0    1590.1846    20.033736    19.974509    20.629509    8255.1878    974.55832    2181.8631    1614.1323    243.33467    86.856564   -272.39802   -4687.0373 
 1937000    93.650985   -5074.4175   -4893.8037   -5074.4175            0    1420.2504    20.063522    20.074094     20.57309    8285.9563    1107.7086     499.5034    2653.5391   -57.737438   -278.97688    188.06194   -4722.1775 
 1938000    95.608339   -5066.7907    -4882.402   -5066.7907            0    1939.0466    19.904545    20.001855    20.729669     8253.058    1478.3416    2178.3757    2160.4226   -161.52232   -40.353509    494.56614   -4649.0137 
 1939000    86.745954   -5069.4847   -4902.1878   -5069.4847            0    821.76944    19.955874    19.967358     20.78065    8280.3843     1414.214    312.52732    738.56695   -98.052556    284.17641   -345.57339   -4802.9502 
 1940000    96.111243   -5062.0371   -4876.6785   -5062.0371            0    1273.6861    19.961713    20.090828    20.611731    8266.2799    1504.5632    149.72112     2166.774    8.1537859   -535.65945   -829.77988    -4723.129 
 1941000    90.718412   -5064.3904   -4889.4323   -5064.3904            0    1958.5625    20.018856    20.003646    20.643881    8266.8443    2675.3219    1133.9236     2066.442    -435.6908    637.64014     -519.596   -4653.3013 
 1942000    91.986495   -5062.0254   -4884.6217   -5062.0254            0    2262.9589    20.038151    19.983739    20.631562    8261.6443    875.09398    3138.6589    2775.1239   -265.45834   -334.99223      239.677   -4611.9632 
 1943000     91.79575    -5065.749   -4888.7131    -5065.749            0    732.99432    20.086671    20.044362    20.648712    8313.6774   -448.04639    1093.5857    1553.4437    46.449962    293.81021    572.53395   -4799.8402 
 1944000    96.252403   -5066.9572   -4881.3263   -5066.9572            0    1253.6445    19.956417    20.043858    20.749846     8300.013    1956.4664     617.3804    1187.0868   -327.98979   -82.735099   -936.10438   -4729.5762 
 1945000    92.095056   -5066.3237   -4888.7107   -5066.3237            0    1576.0207    20.041042    19.936989    20.747962    8290.0148    1384.5363    1967.3836    1376.1423   -170.21136    533.37126   -524.35285   -4698.1676 
 1946000    93.060057   -5071.4254   -4891.9512   -5071.4254            0    1942.9841    19.977386    19.991562    20.752332    8288.0486    3672.8359    566.86634    1589.2499    33.875959   -84.300545   -171.48746   -4657.0975 
 1947000    92.194102   -5067.2673   -4889.4632   -5067.2673            0    1718.2385    19.992015    19.916618    20.760558    8266.3005    2648.8092    883.71393    1622.1923   -397.30954    613.86595    383.19912   -4682.3201 
 1948000    93.075103    -5068.501   -4888.9978    -5068.501            0    1162.2538    19.997182    19.966061    20.746918     8283.517    1148.4592    1394.1511    944.15109    65.481773   -294.42922    52.796751   -4748.5899 
 1949000    95.842559    -5064.873   -4880.0326    -5064.873            0       1607.3    20.036493    19.971373    20.696176    8281.7046    1689.1229    1072.4423    2060.3346    225.87545    479.76026    186.52275   -4685.9026 
 1950000    87.753985   -5061.5241   -4892.2831   -5061.5241            0    1583.1772    19.991967    19.954101    20.787633    8292.6381    3687.3164     517.7615    544.45368   -142.97964    223.68349    270.02892   -4700.8143 
 1951000    91.215738   -5067.0723    -4891.155   -5067.0723            0    659.38902    20.082583    19.937927    20.707753    8291.4895     528.8646    124.91903    1324.3834    426.89761     513.1651   -474.65064   -4811.4198 
 1952000    97.430398   -5077.0996   -4889.1969   -5077.0996            0    1382.7847    19.981265    20.012199    20.699117    8276.9363     1666.172    1253.8827    1228.2995    210.32351    92.686486    542.36812   -4722.2801 
 1953000    88.147805   -5066.0442   -4896.0437   -5066.0442            0    2347.7359    19.913828    20.035187    20.714562    8264.6394    3658.8411    1031.7107    2352.6557   -91.021257   -309.44114   -461.58163   -4613.0681 
 1954000    91.722666   -5073.1401   -4896.2452   -5073.1401            0    1937.0445    19.945503    19.998818    20.739595    8272.7439    3114.3811    470.60893    2226.1434   -15.874856    398.99888   -179.63024   -4662.5418 
 1955000    91.236224   -5076.8205   -4900.8637   -5076.8205            0    2158.5564    19.978463    19.946832     20.70551    8251.2911    3240.1981     1089.252     2146.219     74.73059    435.80245   -102.29453   -4641.1104 
 1956000    87.997153   -5070.3796   -4900.6697   -5070.3796            0    1130.7141    19.986843    20.057936    20.706581    8301.1608    1239.8085    614.29394    1538.0398    268.80428   -389.05508    523.75005    -4763.781 
 1957000    94.055361   -5074.2602   -4892.8666   -5074.2602            0    2071.4411    19.946184    19.900345     20.89969    8295.8385    2588.7648    2124.7161    1500.8424   -22.955985    763.93775    117.46019   -4642.2506 
 1958000    92.983362   -5065.7114   -4886.3851   -5065.7114            0    389.61311    20.032679    19.875074    20.851749    8302.1442    104.94443    800.34272     263.5522   -27.735608    250.67723    338.40742   -4839.2115 
 1959000    90.828756    -5064.552   -4889.3811    -5064.552            0    2221.0037    19.990548    19.920167    20.792608    8279.9294    1343.8309    2396.7446    2922.4357   -75.734362    1043.8907   -169.56525   -4621.1854 
 1960000    96.318372   -5061.8572   -4876.0991   -5061.8572            0    3608.5958    19.978338    19.852889    20.711332    8214.6884    3197.8487    3750.0666    3877.8721    9.4310979   -144.39439   -215.08892   -4443.7792 
 1961000    91.404458   -5063.5277   -4887.2465   -5063.5277            0    1894.7321    19.998586    19.917378    20.772077    8273.9209    2291.9346    2204.2627     1187.999     395.4387    710.06747    89.807748   -4658.6155 
 1962000    87.555556   -5058.3613    -4889.503   -5058.3613            0    1914.7911    20.048832    19.993913    20.686212    8292.1633     2236.495    2087.5947    1420.2837   -414.64577    501.22688    60.668082   -4657.9422 
 1963000    95.290424   -5063.4646    -4879.689   -5063.4646            0    1423.9292    20.076786    19.926317    20.859318    8344.9033    1273.4668    906.11062    2092.2103   -496.81764   -558.77189    654.01371   -4706.3942 
 1964000    90.820073   -5063.4973   -4888.3431   -5063.4973            0    1647.0902    19.991576    19.913293    20.898819    8319.7802    1678.0034    1917.8438    1345.4233   -298.02876    707.31714   -176.32253   -4688.4927 
 1965000    87.552967   -5075.1225   -4906.2693   -5075.1225            0    1852.3506     19.98954    19.945995    20.762228     8278.134    2231.9996    1955.2084    1369.8437    161.63812    983.16031   -342.65288   -4682.6385 
 1966000    91.111338   -5071.5014   -4895.7855   -5071.5014            0    1814.0666    20.012318    19.865204    20.849711    8288.7771    1171.0702    2691.9675    1579.1621    64.985003    858.27308   -746.45304   -4676.4951 
 1967000    87.539629   -5072.5304   -4903.7029   -5072.5304            0    1728.8211    20.017717    19.871109    20.906374    8316.0168    1304.4639    1754.6987    2127.3005   -366.68277    547.21098    254.25124   -4694.0305 
 1968000     95.80659   -5066.0781   -4881.3071   -5066.0781            0    1471.5374    19.980378    20.049552    20.624435       8262.1    967.03701    1418.5039    2029.0713   -64.149088   -254.22788    503.28391   -4703.9953 
 1969000    93.101597   -5065.5124   -4885.9581   -5065.5124            0    1851.0428    20.015923     20.02684    20.635957    8272.0408    1732.8155    2438.7415    1381.5714    -231.0729    415.13571   -440.31467   -4662.6498 
 1970000    92.231419   -5077.8918   -4900.0157   -5077.8918            0    1259.9456    19.957462    19.999563    20.782061    8294.9627    842.73078     1522.647    1414.4591    342.32641    -187.6411    374.53169   -4747.5957 
 1971000    93.295969   -5072.1152   -4892.1861   -5072.1152            0     2243.183    20.033247    19.905028    20.769871    8282.2422    1606.0643    2656.9945    2466.4901     115.4937    388.91313   -184.13463   -4621.2365 
 1972000     89.75811   -5072.1036   -4898.9975   -5072.1036            0    1911.9509    19.978272    19.915296     20.80143    8276.3315    1277.6758    2642.0173    1816.1595   -105.27295    840.56745    62.849288   -4668.2216 
 1973000    93.314536   -5075.7288   -4895.7639   -5075.7288            0    1301.4087    19.858724    19.907621     20.96642    8288.8635    1645.2633    1241.2046    1017.7582   -261.76302    151.00416    211.40836   -4738.4436 
 1974000    94.783214   -5075.9185   -4893.1211   -5075.9185            0    1650.5191    19.948617    20.013259    20.754704    8286.0423    2194.7858    855.06183    1901.7097   -282.37987    200.35557    640.40255   -4693.6667 
 1975000     88.03724   -5064.2809   -4894.4937   -5064.2809            0    1295.3072    19.966826    19.986475    20.681834    8253.4264    1839.8006    587.63167    1458.4895   -236.37002    585.20778    560.59313   -4738.5805 
 1976000    90.089147   -5064.5277   -4890.7832   -5064.5277            0    1961.1827    19.970239    19.887251    20.796412    8259.3607    2527.2314    1944.7479    1411.5689   -129.52842    164.97641    445.93394   -4654.5503 
 1977000    97.746083   -5057.0608   -4868.5492   -5057.0608            0    1589.4619    19.988499    19.965953    20.805169    8303.1228    1644.5436    1441.1616    1682.6806    -407.4082    689.41743   -1142.1173   -4676.0773 
 1978000    99.561147   -5072.7871    -4880.775   -5072.7871            0    1358.7053    20.033635    19.877516    20.852951    8304.0397    2104.2456    1415.2301    556.64012   -58.143337    1038.9659   -685.21695   -4716.2278 
 1979000    98.827748   -5075.3828   -4884.7852   -5075.3828            0    2623.7718    19.936428    19.856345    20.942616    8290.4401    3166.7122    2331.1046    2373.4987    90.584535    856.39002    551.00812   -4567.5513 
 1980000    97.356335   -5067.5616   -4879.8018   -5067.5616            0    962.02442    20.058725    19.920667     20.83862    8326.7624    424.58501    1996.1155    465.37279    463.87273   -70.173502    287.65324   -4762.9761 
 1981000     93.75393   -5063.6408   -4882.8284   -5063.6408            0    637.04724    19.972358    19.965325    20.829544     8305.877    390.24787    494.77246    1026.1214   -197.41196   -772.57547   -15.969834   -4805.6612 
 1982000    93.242649   -5069.3465   -4889.5202   -5069.3465            0    1118.0229    20.029552    19.952013    20.831001    8324.6903    967.33743    1298.9133    1087.8181    141.42522    332.72165   -276.59741   -4753.7843 
 1983000    92.028143   -5074.6789   -4897.1949   -5074.6789            0    1125.0569    20.041065    19.962104    20.720747    8289.5797    1774.1897    442.02294     1158.958   -253.67799    15.283289   -1113.8701   -4761.1812 
 1984000    93.115021   -5063.6538   -4884.0737   -5063.6538            0    2332.0659    20.029138    19.911691    20.744014    8273.0034     2345.019    2043.6115    2607.5674    -176.6335    587.97344    730.60373   -4602.7023 
 1985000    86.792027   -5067.1638    -4899.778   -5067.1638            0    971.11862    20.030779    19.917816    20.822312    8307.4648   -9.5424174    2439.4703    483.42795    92.976203   -559.63028   -902.43427   -4782.1213 
 1986000    93.165565   -5080.1429   -4900.4652   -5080.1429            0    1604.2928    19.912689    20.033761    20.717959    8264.9337    2971.9087   -265.56573    2106.5354   -256.13502   -143.44457    184.36504   -4707.0909 
 1987000    91.761015    -5064.381   -4887.4121    -5064.381            0    2542.0245     19.92135    20.057523    20.560562    8215.4441    1642.8081    2746.6783    3236.5873   -97.252769   -138.78844    394.72405   -4582.8424 
 1988000    92.587229     -5062.76   -4884.1978     -5062.76            0    1875.3402    20.002357    19.898378     20.78978    8274.6333    2198.7035    1440.1163    1987.2009    379.33951   -284.53179   -372.10276   -4657.8872 
 1989000    91.487208   -5068.6748    -4892.234   -5068.6748            0    1345.8598     19.96852    20.030232    20.708922    8283.0323    938.36819    1560.9639    1538.2473   -28.571721    1080.4767   -429.40227   -4729.6548 
 1990000    96.186523   -5071.1659   -4885.6621   -5071.1659            0    1006.2852    20.006297     19.98049    20.762923    8299.6797    1253.5359    540.54576    1224.7739      110.811   -5.9744415   -226.61262    -4763.859 
 1991000    91.571389   -5074.6308   -4898.0277   -5074.6308            0    1649.4915    19.864034    19.990088    20.855297    8281.3004    928.80396    2895.1302    1124.5403    10.887647    463.21149   -85.629817   -4698.8115 
 1992000    93.849364   -5071.1299   -4890.1335   -5071.1299            0    2446.0379    19.952025    20.021713    20.689719    8264.9993    3102.8787    998.13038    3237.1045   -89.577166   -899.81389    535.34052   -4595.2966 
 1993000    92.121713   -5059.9789   -4882.3144   -5059.9789            0    2132.6501    19.938704    20.004734    20.696301    8255.1014    2305.8986    2303.8566     1788.195    262.25213    494.17827    -165.0932     -4625.56 
 1994000    95.099442   -5068.7185   -4885.3113   -5068.7185            0    964.78648    19.985983     20.08117    20.765599    8334.1058    1666.3632    243.86332    984.13294    -185.6605   -128.37165     26.33194   -4768.0469 
 1995000    97.150847   -5062.7984   -4875.4348   -5062.7984            0    2040.2522    20.006386     20.03641    20.659183    8281.3604    2337.0778    1531.8314    2251.8473   -152.56005    659.30345   -175.60944    -4629.023 
 1996000     95.10375   -5063.8261   -4880.4105   -5063.8261            0    2551.8819    19.997567    19.957969    20.721198    8270.0542    2837.9255    1852.9144    2964.8059   0.35242998    804.93595   -275.29778   -4572.6274 
 1997000    91.237419   -5068.1255   -4892.1665   -5068.1255            0    808.34102    20.132842    19.917532    20.779324    8332.4368   -905.67062     2730.239     600.4547    238.35538   -8.5636863    84.944142   -4793.9368 
 1998000    94.317943   -5064.9531    -4883.053   -5064.9531            0    1973.2715    19.930153    19.950196    20.807589    8273.3152    1398.9428     2474.608    2046.2636    502.14646    15.109898    453.65482   -4644.9624 
 1999000    91.174977   -5072.3084   -4896.4698   -5072.3084            0    3107.8877     19.91831    19.867575    20.845794    8249.2753    3070.1272    3993.1722    2260.3637   -148.66769     1207.961    794.43832   -4522.5685 
 2000000    98.838908   -5064.1701   -4873.5509   -5064.1701            0     2022.685      19.9575    19.911087    20.865034    8291.2536    1514.7686    3085.7711    1467.5154   -512.61294     1182.879   -707.79731    -4628.969 
Loop time of 351.645 on 64 procs for 250000 steps with 972 atoms

Performance: 122.851 ns/day, 0.195 hours/ns, 710.945 timesteps/s
99.1% CPU use with 64 MPI tasks x 1 OpenMP threads

MPI task timing breakdown:
Section |  min time  |  avg time  |  max time  |%varavg| %total
---------------------------------------------------------------
Pair    | 18.268     | 27.327     | 36.894     |  86.4 |  7.77
Bond    | 0.25694    | 0.27421    | 0.28679    |   1.1 |  0.08
Kspace  | 140.08     | 149.67     | 159.36     |  37.3 | 42.56
Neigh   | 0.42335    | 0.44111    | 0.45249    |   1.1 |  0.13
Comm    | 81.913     | 82.959     | 83.957     |   4.4 | 23.59
Output  | 0.56205    | 0.56273    | 0.5643     |   0.0 |  0.16
Modify  | 81.311     | 82.861     | 85.947     |  11.7 | 23.56
Other   |            | 7.545      |            |       |  2.15

Nlocal:        15.1875 ave          19 max          11 min
Histogram: 2 4 12 7 0 12 6 11 5 5
Nghost:        2251.27 ave        2286 max        2217 min
Histogram: 1 6 4 10 11 11 9 7 4 1
Neighs:        4754.19 ave        6602 max        3115 min
Histogram: 3 5 6 13 10 8 6 8 3 2

Total # of neighbors = 304268
Ave neighs/atom = 313.03292
Ave special neighs/atom = 2.0000000
Neighbor list builds = 1248
Dangerous builds = 0

unfix		3
unfix		2
unfix		1

write_data	data.final.${pid}
write_data	data.final.1
System init for write_data ...
PPPM initialization ...
  extracting TIP4P info from pair style
  using 12-bit tables for long-range coulomb (../kspace.cpp:340)
  G vector (1/distance) = 0.3724981
  grid = 24 24 25
  stencil order = 5
  estimated absolute RMS force accuracy = 0.0033961338
  estimated relative force accuracy = 1.0227356e-05
  using double precision FFTW3
  3d grid and FFT values/proc = 2366 288
Last active /omp style is kspace_style pppm/tip4p/omp
WARNING: Not all mixed pair coeffs generated from mixing. Use write_data with 'pair ij' option to store all pair coeffs. (../write_data.cpp:312)

write_restart   restart.lmp.${pid}
write_restart   restart.lmp.1
System init for write_restart ...
PPPM initialization ...
  extracting TIP4P info from pair style
  using 12-bit tables for long-range coulomb (../kspace.cpp:340)
  G vector (1/distance) = 0.3724981
  grid = 24 24 25
  stencil order = 5
  estimated absolute RMS force accuracy = 0.0033961338
  estimated relative force accuracy = 1.0227356e-05
  using double precision FFTW3
  3d grid and FFT values/proc = 2366 288
Last active /omp style is kspace_style pppm/tip4p/omp
Total wall time: 0:05:51
