LAMMPS data file via write_data, version 30 Jul 2021, timestep = 11750000

1920 atoms
2 atom types
1280 bonds
1 bond types
640 angles
1 angle types

-0.020915897719511634 24.750916897720607 xlo xhi
-0.07379287137494117 24.803793871368498 ylo yhi
-0.11669262083519705 22.926692620841802 zlo zhi

Masses

1 1.008
2 15.999

Pair Coeffs # lj/cut/tip4p/long/omp

1 0 0
2 0.21084 3.1668

Bond Coeffs # harmonic/omp

1 450 0.9572

Angle Coeffs # harmonic/omp

1 55 104.52

Atoms # full

1 1 2 -1.1794 4.588535653573724 1.3813970843704906 3.978326079907239 0 0 0
2 1 1 0.5897 4.6302084486583395 2.012276073675288 4.6970007350794925 0 0 0
3 1 1 0.5897 5.354572854143664 1.580044950956122 3.4398554515413062 0 0 0
4 2 2 -1.1794 2.759341468961025 1.2311939973831636 1.8390830510750527 0 0 0
5 2 1 0.5897 3.1720444652545665 1.4043391675289023 2.685225632193357 0 0 0
6 2 1 0.5897 1.8579763560867435 1.5353737876576399 1.94500465879517 0 0 0
10 4 2 -1.1794 3.428338063240453 4.51876525417868 3.3796556805256297 0 0 0
11 4 1 0.5897 2.781732459573829 5.028244122446164 3.8680726454861656 0 0 0
12 4 1 0.5897 3.0520213104892355 4.429654004028476 2.50403681927339 0 0 0
13 5 2 -1.1794 1.3821786906228861 3.0250890757437943 4.912389691092804 0 0 0
14 5 1 0.5897 2.116209448751569 3.3828537731052974 4.412967768286965 0 0 0
15 5 1 0.5897 1.5724012248806478 2.08956814527719 4.981745423780315 0 0 0
22 8 2 -1.1794 1.5301803468234907 4.477209176786084 1.1413707476219306 0 0 0
24 8 1 0.5897 1.2937613303384599 5.132726244307943 0.4851425882451853 0 0 0
23 8 1 0.5897 0.7153214252933762 4.305228174400801 1.6132247656738665 0 0 0
20 7 1 0.5897 3.838430583275679 2.9335546509143144 1.0910464830071251 0 0 0
9 3 1 0.5897 5.222991350901008 4.465687518452857 3.369213107240125 0 0 0
21 7 1 0.5897 5.3521874859048495 2.922361991510491 1.0757636306464693 0 0 0
27 9 1 0.5897 4.712188699545198 4.956120817888134 0.3143402710447093 0 0 0
19 7 2 -1.1794 4.592353739047485 3.2208956945841543 0.5760124585074441 0 0 0
98 33 1 0.5897 0.1307499913383021 5.216236259418363 3.7837326911151585 1 0 0
867 289 1 0.5897 4.509131638405514 0.04057297012102806 5.581641263503649 0 1 0
47 16 1 0.5897 5.9813335977245385 0.8161342853235009 1.574177235708529 0 0 0
28 10 2 -1.1794 1.5604882775907385 0.1401744307833056 4.98532414764387 0 0 0
25 9 2 -1.1794 4.724473872345596 5.891128259765218 0.5188116769365415 0 0 0
387 129 1 0.5897 4.069161996545053 0.008746685365108961 1.1444415565154804 0 1 0
148 50 2 -1.1794 1.6032744693682515 6.0194030555104945 4.745312126308332 0 0 0
26 9 1 0.5897 5.405973819373068 5.982226992984807 1.184767009228998 0 0 0
7 3 2 -1.1794 6.179390016780423 4.454490646671424 3.406326110547077 0 0 0
58 20 2 -1.1794 7.545562744109306 0.08206979345519266 4.774341924595842 0 0 0
8 3 1 0.5897 6.405658258051906 5.182896123456991 3.9846409544973023 0 0 0
46 16 2 -1.1794 6.371462900252365 1.612125057440006 1.935288516965615 0 0 0
31 11 2 -1.1794 10.754168253266482 1.5428694179866533 4.394996476104542 0 0 0
32 11 1 0.5897 10.82274151070503 2.241025065004954 5.046231364058677 0 0 0
34 12 2 -1.1794 9.01082336025951 1.273110280455343 1.995922518050509 0 0 0
36 12 1 0.5897 9.566696189194875 1.9110862683553584 1.5484794782476723 0 0 0
39 13 1 0.5897 11.146526395254265 4.710861504794443 3.490923990289088 0 0 0
40 14 2 -1.1794 9.327545190947527 4.802684589458148 3.716990576164358 0 0 0
41 14 1 0.5897 8.913434644785553 4.928073424250908 2.8631436177845027 0 0 0
42 14 1 0.5897 8.894590218249434 4.0313408996706395 4.082757903763689 0 0 0
43 15 2 -1.1794 7.942786647927192 2.7982147989097874 4.9414376305562335 0 0 0
45 15 1 0.5897 7.090876053564743 3.062710940132681 4.5943066483248485 0 0 0
48 16 1 0.5897 7.313545434196597 1.4940588020720678 1.813863566648571 0 0 0
49 17 2 -1.1794 10.951650163760208 3.050077120491512 0.8375767394649817 0 0 0
52 18 2 -1.1794 7.949870826687801 4.644128550380595 1.3868190766471586 0 0 0
53 18 1 0.5897 7.803297784699959 3.971184223263598 0.7220692376469311 0 0 0
54 18 1 0.5897 7.1756728004528565 4.599834521126644 1.9479665716833985 0 0 0
35 12 1 0.5897 9.369659512667322 1.2216855645620823 2.881843107218964 0 0 0
33 11 1 0.5897 10.927305890947892 0.739350085070377 4.885499200102646 0 0 0
59 20 1 0.5897 7.707331448153512 1.0207198878256096 4.868995298925629 0 0 0
50 17 1 0.5897 11.571928397953425 2.604484290246816 1.4145855320692893 0 0 0
56 19 1 0.5897 11.111986801966871 4.845165994805419 0.5509308471132803 0 0 0
37 13 2 -1.1794 12.084839535436465 4.57520175515943 3.3591383102246652 0 0 0
78 26 1 0.5897 12.206968337001614 1.3680464416090474 3.2316819296558164 0 0 0
416 139 1 0.5897 10.18585166564949 0.15735090836613613 0.9953583015473688 0 1 0
77 26 1 0.5897 12.007740235666226 0.7602450570515166 1.859510387391464 0 0 0
51 17 1 0.5897 11.134218606667874 2.6938744848395118 -0.03193636900815473 0 0 0
180 60 1 0.5897 8.074605961163389 5.875921102367877 4.447323156113841 0 0 0
55 19 2 -1.1794 10.99165509984615 5.785645020590192 0.41973908748359645 0 0 0
415 139 2 -1.1794 11.006431148080882 -0.06251577741798542 0.5543096647273755 0 1 0
1619 540 1 0.5897 7.714710481514003 6.003030200338427 0.0542090381475262 0 0 1
629 210 1 0.5897 2.167531562795946 5.9560907802236756 10.37067308519648 0 0 0
1347 449 1 0.5897 4.52421986818329 0.3474018429380245 11.305946086173067 0 1 0
494 165 1 0.5897 1.5230470497421909 2.0051395445319455 10.802332431411818 0 0 0
504 168 1 0.5897 1.3006231784156896 4.000296637660461 6.506034436292111 0 0 0
501 167 1 0.5897 4.734212568890575 3.9630721125891206 6.240967150814018 0 0 0
499 167 2 -1.1794 4.575954796337832 3.0339432502108803 6.074009781569388 0 0 0
483 161 1 0.5897 4.824943844618973 2.2076320362034023 10.514528932911865 0 0 0
492 164 1 0.5897 2.674986238727159 4.026191811742947 9.65563007242698 0 0 0
493 165 2 -1.1794 1.6632766136508208 2.9502513234775765 10.744943680153067 0 0 0
491 164 1 0.5897 2.803887513830109 4.8440291993201985 8.388165386536883 0 0 0
485 162 1 0.5897 3.2840745027875147 1.6098023677668671 8.673975588846433 0 0 0
481 161 2 -1.1794 4.638552605676786 1.470110218865526 9.933544833540454 0 0 0
482 161 1 0.5897 5.369866920999125 1.4602313291881999 9.316039603803045 0 0 0
502 168 2 -1.1794 1.4822788580982316 4.705782732555378 7.126935618740457 0 0 0
500 167 1 0.5897 3.8676893964228984 2.7995998439831586 6.67373951126489 0 0 0
490 164 2 -1.1794 3.151662471319998 4.764560409601703 9.27642275601372 0 0 0
503 168 1 0.5897 0.7381330425046824 4.693275373054519 7.728868253362148 0 0 0
498 166 1 0.5897 1.0836915804102996 1.1194619712342047 7.771439064154181 0 0 0
484 162 2 -1.1794 2.925037915382916 1.6094885774487833 7.786640942727029 0 0 0
489 163 1 0.5897 4.87904401090815 4.853283182030977 9.200926684409097 0 0 0
486 162 1 0.5897 3.4131187755809016 0.9239903285888268 7.330482469935199 0 0 0
527 176 1 0.5897 5.975389703674455 0.6421224011792205 7.400099248671244 0 0 0
487 163 2 -1.1794 5.831350664393755 4.777991258468698 9.140552928885395 0 0 0
528 176 1 0.5897 5.7184712846713985 2.122429781054885 7.214423397338424 0 0 0
578 193 1 0.5897 0.18343408194875602 3.8931810771826068 9.76184566045011 1 0 0
505 169 2 -1.1794 4.600676198838217 5.823311693309659 6.491998910172868 0 0 0
150 50 1 0.5897 1.5142374275882977 5.80785397500295 5.674606833005858 0 0 0
496 166 2 -1.1794 0.14660204618569495 1.3139258238963523 7.755686674901813 0 0 0
508 170 2 -1.1794 1.2865058470252813 0.11067432481292941 10.648241630731112 0 0 0
488 163 1 0.5897 6.055645522838321 4.0750908154002 9.750346518332478 0 0 0
558 186 1 0.5897 12.061948371847087 1.8600264139717912 7.321682018426907 0 0 0
515 172 1 0.5897 7.958520394123553 1.4130985324099377 7.735196906995349 0 0 0
896 299 1 0.5897 11.360194858300275 0.02660208109629636 7.067609888495472 0 1 0
529 177 2 -1.1794 10.90679299614106 3.1707651769911265 6.658430141744107 0 0 0
535 179 2 -1.1794 10.95091553047158 6.040109201848361 6.403196250415656 0 0 0
518 173 1 0.5897 12.257967386171154 4.220658443739102 9.99830176712671 0 0 0
538 180 2 -1.1794 7.672776935560245 0.18930715590716762 10.676869240805846 0 0 0
513 171 1 0.5897 11.370236459696578 1.2309693445723053 9.507487519512475 0 0 0
44 15 1 0.5897 7.923324474247428 3.070905731403182 5.858785835102477 0 0 0
524 175 1 0.5897 8.170798089824867 3.5286287394037967 10.296037714258732 0 0 0
512 171 1 0.5897 9.864576213601564 1.2158855558909976 9.35070590792378 0 0 0
522 174 1 0.5897 8.97897975680067 4.444754405062709 8.392888266286565 0 0 0
526 176 2 -1.1794 6.281718448218862 1.5045406807947015 7.6804476740017575 0 0 0
514 172 2 -1.1794 8.91456000709729 1.4560552864858647 7.753843756773207 0 0 0
525 175 1 0.5897 7.7452424112601115 2.134990762771424 10.706501305675229 0 0 0
516 172 1 0.5897 9.196425106580696 0.8124166798792104 7.103833293160394 0 0 0
530 177 1 0.5897 10.058926392466159 2.974725610638971 7.057059168620252 0 0 0
534 178 1 0.5897 6.959768110516227 4.449675791734752 7.687595207278631 0 0 0
511 171 2 -1.1794 10.55660639455195 1.237831149183477 10.011650819008315 0 0 0
519 173 1 0.5897 11.142422204589021 5.003915980505012 9.339582717728929 0 0 0
532 178 2 -1.1794 7.771254156138192 4.450794339437569 7.17993381280664 0 0 0
531 177 1 0.5897 10.958494527110942 4.126541335349716 6.662190205771649 0 0 0
521 174 1 0.5897 8.969267428727967 5.392859413387365 9.573108330201713 0 0 0
517 173 2 -1.1794 12.09022578823437 5.003226799260556 9.473264971107659 0 0 0
533 178 1 0.5897 7.651185656865528 5.1496956269055945 6.537012940733377 0 0 0
520 174 2 -1.1794 9.315300020588888 4.5488773609515505 9.283007294073855 0 0 0
523 175 2 -1.1794 7.454197537531631 3.0468443334451902 10.709049431762367 0 0 0
1010 337 1 0.5897 10.474910156025818 2.620626022229257 11.256409795210075 0 0 0
961 321 2 -1.1794 4.288144591941264 1.4738603217425603 15.698391101609436 0 0 0
962 321 1 0.5897 5.071004634918747 1.40872968766454 15.151478877582704 0 0 0
963 321 1 0.5897 4.405061135983808 0.798215320093364 16.366271523888024 0 0 0
964 322 2 -1.1794 2.593203651953583 1.6674666957201323 13.549525499531489 0 0 0
965 322 1 0.5897 2.89296355594222 1.7149737258719475 14.457354601710042 0 0 0
966 322 1 0.5897 1.6549514280884279 1.4899293454614488 13.615597813571933 0 0 0
970 324 2 -1.1794 3.0850942634699376 4.604355300585582 14.999305979014133 0 0 0
971 324 1 0.5897 4.012240084534314 4.372928547202707 14.944118407469277 0 0 0
972 324 1 0.5897 2.699559928032315 3.921507133965389 15.548215659123699 0 0 0
973 325 2 -1.1794 1.3174391164710513 2.876600854937943 16.431545025489214 0 0 0
975 325 1 0.5897 0.5808211008968047 3.3747654404790333 16.07736796272885 0 0 0
982 328 2 -1.1794 1.1345601328984747 4.504191512583851 13.066763865758462 0 0 0
983 328 1 0.5897 1.369489690629671 5.079413853797414 12.338638321624181 0 0 0
984 328 1 0.5897 1.9051818903661029 4.5087398130591785 13.634522123221512 0 0 0
980 327 1 0.5897 3.7158638673093707 2.9558287365004055 12.116970984542043 0 0 0
981 327 1 0.5897 5.1832970355841 2.8829543192822813 12.48187985153662 0 0 0
979 327 2 -1.1794 4.560075288396047 3.373170793117621 11.945685395911992 0 0 0
990 330 1 0.5897 1.4510679570040501 1.078017325424237 16.416089889785106 0 0 0
986 329 1 0.5897 4.621465013657302 5.0264622710366424 11.988326105413421 0 0 0
967 323 2 -1.1794 5.956875752035951 4.629347955246587 14.91378633538493 0 0 0
1008 336 1 0.5897 5.532699099706325 0.8158189146400653 13.264929126652845 0 0 0
1109 370 1 0.5897 0.9395434557865384 5.939913977827818 16.004160811748605 0 0 0
988 330 2 -1.1794 1.3289182799404151 0.1289672996525845 16.440081149360672 0 0 0
985 329 2 -1.1794 4.68055155888284 5.979735477878905 12.051331058994146 0 0 0
495 165 1 0.5897 1.4430502051852874 3.2788981261931536 11.616584403751999 0 0 0
968 323 1 0.5897 6.132355946778312 5.4189906212387156 15.425540727279984 0 0 0
1006 336 2 -1.1794 6.012770087486871 1.5821739026226755 13.578670098121075 0 0 0
1110 370 1 0.5897 2.4398117678384503 6.009744688750872 16.194273135811585 0 0 0
1346 449 1 0.5897 3.7298338614032276 0.35894568537398586 12.594657721004841 0 1 0
1460 487 1 0.5897 4.598874282929952 2.634223238138377 17.112861877630614 0 0 0
1497 499 1 0.5897 10.852772628720324 5.92724948547867 17.14873013799508 0 0 0
1038 346 1 0.5897 11.834778966817492 0.7606893603803913 13.039264953406843 0 0 0
1018 340 2 -1.1794 7.469610153748495 0.09038498674583198 16.735448666154582 0 0 0
997 333 2 -1.1794 12.044780629414138 4.305693195129017 15.202932347604266 0 0 0
969 323 1 0.5897 6.4994955148043525 3.9540467477659664 15.32089890090773 0 0 0
1017 339 1 0.5897 10.543785033592057 4.8995920015439145 12.265231038455182 0 0 0
991 331 2 -1.1794 10.481535536353876 1.4360202966413464 15.8162831615896 0 0 0
992 331 1 0.5897 11.278240899624377 1.5913031969454294 15.308965027185597 0 0 0
993 331 1 0.5897 10.657489396283577 0.6278456575091662 16.29805627429637 0 0 0
994 332 2 -1.1794 8.67164256223234 1.1688505017152218 13.452099069339459 0 0 0
995 332 1 0.5897 8.984694752906737 1.8237318277172803 12.828109909814904 0 0 0
998 333 1 0.5897 11.126921722132737 4.544775938485631 15.074167097297412 0 0 0
1000 334 2 -1.1794 9.418534323599895 4.662064779004712 15.046731066441854 0 0 0
1001 334 1 0.5897 8.926730856830604 4.049998696987586 15.594203389250977 0 0 0
1002 334 1 0.5897 8.989028022624474 4.618373549346529 14.192404243362853 0 0 0
1003 335 2 -1.1794 7.619867769559735 2.8705370921789153 16.269507201916397 0 0 0
1004 335 1 0.5897 7.771889979359049 1.9426487935804446 16.44868560481047 0 0 0
1007 336 1 0.5897 6.93281833622593 1.3207651643210128 13.541551108890914 0 0 0
1012 338 2 -1.1794 7.864361515371833 4.749074778367452 12.844123550913775 0 0 0
1014 338 1 0.5897 7.709788695213666 4.067014144724016 12.190571375679568 0 0 0
1011 337 1 0.5897 11.021059051422816 2.650362159857155 12.668081951392264 0 0 0
1009 337 2 -1.1794 10.411487468294364 3.099730348251366 12.082659579546853 0 0 0
996 332 1 0.5897 9.172614011949426 1.3386872366856475 14.249874932407288 0 0 0
1013 338 1 0.5897 7.102585514080251 4.704801818166072 13.422021131007169 0 0 0
1377 459 1 0.5897 10.567668327971056 0.11401569566391254 11.555527749568347 0 1 0
1015 339 2 -1.1794 10.6781464086845 5.8466900672187325 12.231447457607722 0 0 0
1005 335 1 0.5897 7.6446258592722725 3.288367701969681 17.130358423595013 0 0 0
660 220 1 0.5897 7.503869741414912 6.060450291913549 11.511359514903154 0 0 0
1036 346 2 -1.1794 12.184538157213877 1.4584930200110264 13.593302846771506 0 0 0
1139 380 1 0.5897 8.487211084995122 6.003552859475385 16.051604437872918 0 0 0
974 325 1 0.5897 1.5942063689690602 3.372508608543542 17.202082374522462 0 0 0
1539 513 1 0.5897 0.25531011195905506 5.278758481584989 21.021116366830057 1 0 0
1538 513 1 0.5897 0.2369012869602552 3.780970952156399 20.801820815973628 1 0 0
1455 485 1 0.5897 1.7110550799043263 3.2763683932397747 22.798275571309425 0 0 0
1454 485 1 0.5897 2.4897495554858677 3.1996871390440806 21.502240823085423 0 0 0
1464 488 1 0.5897 0.98214700115852 4.50079688151622 19.13214088888912 0 0 0
1443 481 1 0.5897 4.632733891178524 2.077802506105261 22.24623684978873 0 0 0
1450 484 2 -1.1794 3.3426197032447527 4.92932588076716 20.773503818365057 0 0 0
1469 490 1 0.5897 1.428309217570131 0.9303163626154427 21.929640695563698 0 0 0
1442 481 1 0.5897 4.02260442408192 1.6212278853231634 20.938095005676857 0 0 0
1453 485 2 -1.1794 1.766351163698225 2.789340158444532 21.97608385080992 0 0 0
1444 482 2 -1.1794 2.8491203592698198 1.6431586518036103 19.468455710754803 0 0 0
1463 488 1 0.5897 1.6545550466998862 5.3869062659187374 18.105211855408008 0 0 0
1452 484 1 0.5897 3.1186372057575453 4.940767411044143 19.842927221753314 0 0 0
1441 481 2 -1.1794 4.680783319473088 1.382019695391975 21.590640868743243 0 0 0
1451 484 1 0.5897 4.292804046989429 4.8149903081604055 20.790245111566314 0 0 0
1445 482 1 0.5897 1.8925103674707546 1.6222427815508296 19.494229679947566 0 0 0
1446 482 1 0.5897 3.057414074775383 2.358216607642909 18.86718327472753 0 0 0
1461 487 1 0.5897 5.365592515160795 2.532675069436457 18.41431608692548 0 0 0
1459 487 2 -1.1794 4.781583597036186 3.110325547701937 17.922920788489364 0 0 0
1462 488 2 -1.1794 1.7356885241435018 4.539657348563634 18.543163738612833 0 0 0
1466 489 1 0.5897 4.674040502841079 4.9810567019274465 17.999187612894026 0 0 0
1447 483 2 -1.1794 5.9903540406288025 4.666646524272793 20.97606385008121 0 0 0
1488 496 1 0.5897 6.040529169729002 0.5369866266581176 18.70926782705751 0 0 0
1487 496 1 0.5897 5.916774683079669 1.155080887406026 20.085719517531928 0 0 0
1456 486 2 -1.1794 0.1597351515513019 1.6266702864799363 19.265401266827467 0 0 0
1590 530 1 0.5897 2.1815648910901744 6.13128213106889 21.612110574988165 0 0 0
1468 490 2 -1.1794 1.281408880051466 -0.008525785399715685 22.044522489806383 0 0 0
1465 489 2 -1.1794 4.473858667562726 5.905889417265528 17.854949796091745 0 0 0
1826 609 1 0.5897 3.8271956398812077 0.0828213737600218 18.4545429635696 0 1 0
386 129 1 0.5897 4.784600517038788 0.21238344898513523 22.86925082277724 0 1 -1
1620 540 1 0.5897 8.49633573880859 6.0498054483877475 21.801899638759792 0 0 0
1856 619 1 0.5897 11.48416024356583 -0.005712738583657714 18.280741672934944 0 1 0
1517 506 1 0.5897 12.027081603367058 2.034330533568631 18.62793166721486 0 0 0
1486 496 2 -1.1794 6.326434306146988 1.2870336115750614 19.23071601932851 0 0 0
1490 497 1 0.5897 10.738593548587037 2.585272440290747 17.262448606022126 0 0 0
1498 500 2 -1.1794 7.7575261197903 0.11597877395491271 22.249948296115413 0 0 0
1449 483 1 0.5897 6.367605200317642 3.8499701853753554 21.303055434451494 0 0 0
1484 495 1 0.5897 8.485205264268243 3.0899902397956946 21.83546241755812 0 0 0
1477 493 2 -1.1794 12.17568779174476 4.504733732115343 20.615953664600077 0 0 0
1495 499 2 -1.1794 10.75969035532467 5.810038879877892 18.09417768581546 0 0 0
1472 491 1 0.5897 11.111104387597067 1.034302876237405 22.226759926399637 0 0 0
1489 497 2 -1.1794 10.698756571853592 3.024837396400073 18.111832206146744 0 0 0
1492 498 2 -1.1794 7.776588727767547 4.401794336593796 18.52282478827462 0 0 0
1476 492 1 0.5897 9.69351124408676 0.7873299836331188 19.15425060555298 0 0 0
1474 492 2 -1.1794 9.138609631549706 1.3626754779986687 19.680827078232262 0 0 0
1482 494 1 0.5897 9.135272087452345 4.484544497479085 19.982068254894145 0 0 0
1491 497 1 0.5897 9.914699129180004 2.668783597237671 18.529800529487098 0 0 0
1481 494 1 0.5897 10.389483598165883 4.806346838129303 20.766464089009673 0 0 0
1483 495 2 -1.1794 7.626850559704025 2.8511030948046523 22.185279980057416 0 0 0
1518 506 1 0.5897 12.307671544093134 1.5042972013626845 20.01800408896959 0 0 0
1471 491 2 -1.1794 11.220643957740167 1.7159569215296906 21.563749006209335 0 0 0
1485 495 1 0.5897 7.615157431031306 1.8943346009512416 22.159861378099535 0 0 0
1480 494 2 -1.1794 9.445246178159971 4.684516669169344 20.865353395410835 0 0 0
1494 498 1 0.5897 6.949175428917635 4.463711547124793 19.00008144857471 0 0 0
1448 483 1 0.5897 6.41520672006691 5.35112107436167 21.492990052235633 0 0 0
1475 492 1 0.5897 8.250312164813845 1.1914111230483486 19.36807150116921 0 0 0
1496 499 1 0.5897 10.534963449965083 4.885696793581205 18.20043134780947 0 0 0
1493 498 1 0.5897 7.8202496201396885 5.210288343946927 18.012271036429 0 0 0
1473 491 1 0.5897 10.54373604492358 1.5290930003455154 20.91327435308554 0 0 0
121 41 2 -1.1794 4.614981707027675 7.384688980267376 4.031557448594898 0 0 0
122 41 1 0.5897 3.8324564882702727 7.151393770823163 3.5321089206046574 0 0 0
123 41 1 0.5897 5.285558802159425 7.542625560744991 3.367012115515046 0 0 0
124 42 2 -1.1794 2.9575491771045668 7.429110914772814 1.9056502148924843 0 0 0
125 42 1 0.5897 3.340253752033756 6.654538845039363 1.493602417624987 0 0 0
126 42 1 0.5897 3.5332819141407676 8.148308376039832 1.645866282246709 0 0 0
129 43 1 0.5897 5.0895154246499565 10.46130114048729 3.1270607814971534 0 0 0
130 44 2 -1.1794 3.323016800057793 10.77883638587942 3.3017784692228918 0 0 0
132 44 1 0.5897 2.9763344745314706 9.966380874757876 3.670484872241717 0 0 0
133 45 2 -1.1794 1.491277958100855 8.828207973351919 4.887384935723059 0 0 0
135 45 1 0.5897 0.7901598033363132 9.323812592260953 4.46427156320835 0 0 0
137 46 1 0.5897 1.0229979537069602 7.294415452940548 1.6962669732924074 0 0 0
139 47 2 -1.1794 4.460805742189437 9.44241693355199 0.8277091781893668 0 0 0
142 48 2 -1.1794 1.2800461406088968 10.788620146407355 1.3019230023687955 0 0 0
143 48 1 0.5897 1.9778429045081083 10.96685395318556 1.932437276685734 0 0 0
144 48 1 0.5897 1.3195694172535248 11.520934865520882 0.6867994941771844 0 0 0
149 50 1 0.5897 1.5946820558591943 6.9760657595087645 4.715081966884929 0 0 0
131 44 1 0.5897 3.03908227159188 11.459562297611614 3.911877427548034 0 0 0
140 47 1 0.5897 4.561763289602469 10.385980635545623 0.7024612282840653 0 0 0
621 207 1 0.5897 4.557309513455453 8.576995118909092 5.415044848016984 0 0 0
270 90 1 0.5897 0.7531226801130941 12.175533745888597 4.4986877859298495 0 0 0
1574 525 1 0.5897 1.3854336430856549 9.504560846527175 0.014956305677488069 0 0 1
127 43 2 -1.1794 5.993051319407069 10.708236248926326 3.3241698945490823 0 0 0
128 43 1 0.5897 5.914935302823565 11.39961091580378 3.9815348668105015 0 0 0
218 73 1 0.5897 0.10772862833798413 10.587296349615654 2.6821161144403454 1 0 0
136 46 2 -1.1794 0.1175611209053859 7.487738167217298 1.9392017769611782 0 0 0
145 49 2 -1.1794 4.743046395642559 12.194439289368685 0.4794485567421196 0 0 0
141 47 1 0.5897 4.414490822402058 9.086170166037702 -0.05954054988691837 0 0 0
168 56 1 0.5897 6.215768561770001 8.303417212271787 1.415210674541793 0 0 0
300 100 1 0.5897 8.60424621828585 12.003857855169802 4.666071864686356 0 0 0
175 59 2 -1.1794 10.8392708197961 12.164221760905546 0.5347451767238263 0 0 0
166 56 2 -1.1794 6.48634759597944 7.5439479594490155 1.9311653092369325 0 0 0
151 51 2 -1.1794 11.053252921933163 7.658097246148395 4.244268536441496 0 0 0
152 51 1 0.5897 10.442573115361013 7.577910228028111 3.511544943678247 0 0 0
153 51 1 0.5897 10.882156677541095 6.886886200599469 4.7848067568878125 0 0 0
154 52 2 -1.1794 9.283037001096124 7.450300328820063 2.0518003086669987 0 0 0
155 52 1 0.5897 9.630150303660317 8.188878985545255 1.55157212710353 0 0 0
156 52 1 0.5897 9.753118582353466 6.688626306156911 1.7125637410264805 0 0 0
158 53 1 0.5897 11.40561889031425 10.922217559618533 3.543010572502974 0 0 0
160 54 2 -1.1794 9.628977926466483 10.769497464508813 3.6549716559219503 0 0 0
161 54 1 0.5897 9.195393919924287 10.906928400369972 2.8127278007948227 0 0 0
162 54 1 0.5897 9.13728475963103 10.057772995186923 4.064722955587474 0 0 0
163 55 2 -1.1794 7.854682218400129 8.985281690013535 4.91845379420183 0 0 0
164 55 1 0.5897 7.288659737876792 9.49543564362531 4.339153474483496 0 0 0
167 56 1 0.5897 7.442592875608954 7.585963967877132 1.936746581875167 0 0 0
169 57 2 -1.1794 10.753376887641954 9.391628117853621 0.7504570339129158 0 0 0
172 58 2 -1.1794 8.078403407913214 11.243178258081427 1.5066664203059235 0 0 0
173 58 1 0.5897 7.868662232583671 10.518079219414222 0.9180556112584795 0 0 0
174 58 1 0.5897 7.306092251176281 11.329778810316196 2.0654797243749847 0 0 0
179 60 1 0.5897 7.521820543024867 7.246440025402054 4.775832772552888 0 0 0
171 57 1 0.5897 10.751399400129857 10.347070002489486 0.8080476335995411 0 0 0
178 60 2 -1.1794 7.399156482078599 6.315883909714913 4.963487753437129 0 0 0
57 19 1 0.5897 11.602959361906438 6.19363818991157 1.032990946093586 0 0 0
197 66 1 0.5897 12.227406488605252 8.361180848457334 1.607089381096816 0 0 0
157 53 2 -1.1794 12.34416306275744 10.82138468659885 3.7016657496385035 0 0 0
1739 580 1 0.5897 7.873891159164566 12.323219311652784 0.07835762118413825 0 0 1
507 169 1 0.5897 4.834257964072933 6.3232940837745915 5.709881023306111 0 0 0
506 169 1 0.5897 3.773601951557057 6.20671779853514 6.783823608414757 0 0 0
618 206 1 0.5897 -0.011236496083029124 7.0317365687101665 7.218676779067824 0 0 0
616 206 2 -1.1794 0.3861375449711578 7.675271191377663 7.805344905481791 0 0 0
625 209 2 -1.1794 4.581930052185156 12.069085970453981 6.149447221939073 0 0 0
698 233 1 0.5897 0.4720136572175288 11.300459554769164 9.720730854863655 1 0 0
134 45 1 0.5897 1.6633575221846535 9.302536454284354 5.700807694304057 0 0 0
699 233 1 0.5897 0.3212563568815723 10.650115126429087 8.361949705551101 1 0 0
628 210 2 -1.1794 1.5426016775701359 6.170674215711566 11.063247134090803 0 0 0
630 210 1 0.5897 1.3735372655342577 7.106271183725214 10.952471924541102 0 0 0
614 205 1 0.5897 2.2868293324619278 9.23767439042872 10.13591597133127 0 0 0
605 202 1 0.5897 3.2968171130726067 8.244337151193276 7.329149422993109 0 0 0
623 208 1 0.5897 2.402094185096305 10.435550716716357 7.478023656134348 0 0 0
601 201 2 -1.1794 4.665002029706043 7.839520210182273 10.123705415283377 0 0 0
619 207 2 -1.1794 4.577092097132553 9.187813269829801 6.151759629823545 0 0 0
613 205 2 -1.1794 1.5021956157670713 8.903711950675463 10.570707534726104 0 0 0
622 208 2 -1.1794 1.5703431392538612 10.577809581573963 7.026163726444444 0 0 0
603 201 1 0.5897 4.020498537441407 7.608842030890775 9.454644091942253 0 0 0
606 202 1 0.5897 2.043623985477473 7.58270435029814 7.861685266947307 0 0 0
626 209 1 0.5897 4.649600681116925 11.118309910888462 6.062044151817081 0 0 0
611 204 1 0.5897 4.192811334293842 10.552458060797463 9.393735161421464 0 0 0
624 208 1 0.5897 1.7380284093534943 11.317214827696512 6.441884937799336 0 0 0
604 202 2 -1.1794 2.9882842588963836 7.640554744892781 8.004789619670184 0 0 0
602 201 1 0.5897 4.745647957317149 7.051522314456227 10.66107965390673 0 0 0
610 204 2 -1.1794 3.3094033255667608 10.533259718541798 9.025721591604274 0 0 0
615 205 1 0.5897 0.7906560630620826 9.447362192365077 10.232522779995685 0 0 0
612 204 1 0.5897 2.873917665842819 11.295528526229942 9.407174883437001 0 0 0
620 207 1 0.5897 5.345415437994164 8.926726637654275 6.659441701890139 0 0 0
607 203 2 -1.1794 6.044868678694879 10.853948647690991 9.519169888132883 0 0 0
648 216 1 0.5897 5.918777853510333 7.05670012757606 7.391215600824945 0 0 0
647 216 1 0.5897 5.823193321764311 7.8501792601066365 8.676984741545576 0 0 0
627 209 1 0.5897 5.312131815915763 12.310262347503205 6.7194228445121595 0 0 0
1101 367 1 0.5897 4.544983837964241 9.026764717772009 11.331404872269207 0 0 0
750 250 1 0.5897 1.7025915000236023 11.98784995430281 11.388831649466425 0 0 0
650 217 1 0.5897 10.950136328725012 8.901705685256395 5.765037815970878 0 0 0
658 220 2 -1.1794 7.623181586349224 6.433414920146347 10.637905165050647 0 0 0
299 100 1 0.5897 7.824698190837779 11.96104449647712 5.963154911444461 0 0 0
652 218 2 -1.1794 7.5308289623472024 10.810985317002674 7.356739197870604 0 0 0
649 217 2 -1.1794 10.814368924109294 9.540194813041902 6.46513661514288 0 0 0
651 217 1 0.5897 10.101706904462155 9.17414849443004 6.98891611963951 0 0 0
634 212 2 -1.1794 9.087418153533884 7.742413348632384 7.744941039780986 0 0 0
653 218 1 0.5897 6.897971459082901 10.860625677245842 8.073166814352753 0 0 0
636 212 1 0.5897 8.150267460674556 7.810011940868676 7.927666721639783 0 0 0
165 55 1 0.5897 7.725148682474096 9.37370023334549 5.783676464848728 0 0 0
609 203 1 0.5897 6.4263610159431925 10.00486873452114 9.74217160000374 0 0 0
635 212 1 0.5897 9.505360584778542 7.820404594149786 8.602554693870903 0 0 0
779 260 1 0.5897 8.481374073493035 12.0348445670049 10.37488917892838 0 0 0
632 211 1 0.5897 11.72273714762893 7.859084796441108 9.425841574012551 0 0 0
646 216 2 -1.1794 6.204144928111545 7.8742268649704386 7.799166242787314 0 0 0
645 215 1 0.5897 7.891869861304713 8.224101062079999 11.198140001627618 0 0 0
654 218 1 0.5897 8.380207811829095 10.945309541124836 7.777136475618778 0 0 0
643 215 2 -1.1794 8.088972578881341 9.12332756611952 10.935960652485615 0 0 0
608 203 1 0.5897 6.663485166283764 11.494572529189066 9.870061251928641 0 0 0
641 214 1 0.5897 10.436618495402465 11.115719098300023 9.224059181360028 0 0 0
657 219 1 0.5897 11.27496514948745 11.470182941609018 6.4848442055971836 0 0 0
537 179 1 0.5897 10.280563198707817 6.588059131992198 6.81135155257844 0 0 0
640 214 2 -1.1794 9.482258541123365 11.064611389002579 9.276847360202446 0 0 0
631 211 2 -1.1794 10.942690136669402 7.836571672781985 9.980141061445012 0 0 0
642 214 1 0.5897 9.308304724450398 10.19819160172162 9.64462305264346 0 0 0
633 211 1 0.5897 11.068511463412772 7.070857870747845 10.540560213860783 0 0 0
637 213 2 -1.1794 12.327424862074809 10.996235889568691 9.294512445457297 0 0 0
536 179 1 0.5897 11.780364432514864 6.430005648625057 6.679251795178748 0 0 0
659 220 1 0.5897 6.8202904904619155 6.206994336797266 10.168524537473544 0 0 0
1081 361 2 -1.1794 5.04855039947393 7.604656103211682 15.938833258527536 0 0 0
1082 361 1 0.5897 5.056871503858321 8.38562966961285 16.49221255538442 0 0 0
1083 361 1 0.5897 5.022453685336156 6.873502561265013 16.55605158110839 0 0 0
1084 362 2 -1.1794 3.173931296008185 7.756611140224357 13.925877334306142 0 0 0
1085 362 1 0.5897 3.6577393565434058 7.639884121566303 14.743531683596478 0 0 0
1086 362 1 0.5897 3.699397508584967 8.378721247951402 13.422792361259528 0 0 0
1089 363 1 0.5897 5.088373600554532 11.061409381813156 15.294593409741717 0 0 0
1090 364 2 -1.1794 3.1333892611838445 11.031668892431048 15.055866882899165 0 0 0
1091 364 1 0.5897 2.574623990111336 11.730140860972137 15.396634841609227 0 0 0
1092 364 1 0.5897 2.8730880330782527 10.253859641139451 15.549292636150307 0 0 0
1095 365 1 0.5897 0.6618498951378954 9.514071602169317 16.026683811106608 0 0 0
1097 366 1 0.5897 1.3308848856737592 8.06338120470133 13.454861762347633 0 0 0
1099 367 2 -1.1794 4.608032035676125 9.461544574237275 12.18184624439614 0 0 0
1102 368 2 -1.1794 1.5589570248923545 10.698902784703728 12.949807749210061 0 0 0
1104 368 1 0.5897 2.1131154773664043 10.589650025659914 13.722612384526395 0 0 0
1093 365 2 -1.1794 1.3533439024544276 9.185014537953363 16.60095211807026 0 0 0
1103 368 1 0.5897 1.7193750293810013 9.913658561072273 12.426477842845172 0 0 0
1100 367 1 0.5897 5.374872889800506 9.06676977309631 12.596961394417647 0 0 0