LAMMPS data file via write_data, version 30 Jul 2021, timestep = 39500000

972 atoms
2 atom types
648 bonds
1 bond types
324 angles
1 angle types

0.019808101055364347 19.980192898908683 xlo xhi
0.08770004187894997 19.912300958098047 ylo yhi
-0.04977484784883046 20.749772847835622 zlo zhi

Masses

1 1.008
2 15.999

Pair Coeffs # lj/cut/tip4p/long/omp

1 0 0
2 0.21084 3.1668

Bond Coeffs # harmonic/omp

1 450 0.9572

Angle Coeffs # harmonic/omp

1 55 104.52

Atoms # full

10 4 2 -1.1794 1.4602849290517799 4.168827964929085 3.934019449129994 0 0 0
11 4 1 0.5897 1.2600852152663369 3.4202490676357775 3.372055611506568 0 0 0
12 4 1 0.5897 2.4055531662658565 4.289737831749681 3.844968640331935 0 0 0
33 11 1 0.5897 1.595737885554596 2.5208441026975352 1.4042982036352756 0 0 0
31 11 2 -1.1794 0.9266144592976358 2.322610384697266 2.0593224159164762 0 0 0
18 6 1 0.5897 4.283930137723141 3.308652211997388 3.3673762569007195 0 0 0
4 2 2 -1.1794 4.277994515904378 1.491851433668764 3.2773355196301863 0 0 0
16 6 2 -1.1794 4.219465008921756 4.248571912582622 3.536977670237129 0 0 0
23 8 1 0.5897 2.8066494254187324 1.1100831027492628 4.2693047489703195 0 0 0
5 2 1 0.5897 4.199174318408337 0.865308056406058 2.5580116172237704 0 0 0
17 6 1 0.5897 4.489943177937501 4.6597554152912615 2.7160746867162415 0 0 0
32 11 1 0.5897 0.09673045017526705 2.430298433328504 1.5948148783150145 0 0 0
37 13 2 -1.1794 9.288284113114198 2.698066859557208 0.18014315669828873 0 0 0
6 2 1 0.5897 5.008174952262907 1.1639293428020814 3.8021324284796516 0 0 0
47 16 1 0.5897 7.8280382656130865 3.413221930917598 3.3026053831562465 0 0 0
3 1 1 0.5897 3.49436858021754 2.7326135156870848 0.1642187938998336 0 0 0
236 79 1 0.5897 1.0529586351313616 0.4956197913455903 1.9982066141830561 0 1 0
9 3 1 0.5897 5.369595624364973 4.59625262246569 4.866589400035298 0 0 0
58 20 2 -1.1794 8.855620904820126 0.8730864392594255 4.7949484147781405 0 0 0
34 12 2 -1.1794 5.208209004213487 2.626155080370949 0.3686804017945667 0 0 0
69 23 1 0.5897 6.557247566003872 2.4068815902554164 1.56909708919995 0 0 0
48 16 1 0.5897 7.532878246793656 4.208940866156636 4.5561538559375485 0 0 0
67 23 2 -1.1794 7.378562762575003 2.233485133714254 2.0289431762340513 0 0 0
46 16 2 -1.1794 8.212999126832356 4.053582285009796 3.9008885244244156 0 0 0
68 23 1 0.5897 8.059630056393393 2.4265198305596583 1.3847678828291516 0 0 0
273 91 1 0.5897 7.522158450175491 0.44610704223481085 1.9801531840463897 0 1 0
22 8 2 -1.1794 2.123045847906932 0.936260906458219 4.916258739345897 0 0 0
29 10 1 0.5897 7.103561906086887 0.702684333990696 4.896315425143744 0 0 0
81 27 1 0.5897 0.10036711557362368 4.392541004503402 5.142655980088924 1 0 0
28 10 2 -1.1794 6.16864255624273 0.5933828725662699 5.069695162906587 0 0 0
53 18 1 0.5897 9.949980740472189 4.058441647364402 3.752189044218181 0 0 0
325 109 2 -1.1794 2.76520629110962 2.6771484768956393 7.052065398528721 0 0 0
326 109 1 0.5897 2.455339046983205 2.142879971221004 6.320834542928968 0 0 0
327 109 1 0.5897 3.6897781191811125 2.4467930107471845 7.142612722402142 0 0 0
355 119 2 -1.1794 0.9722308843442242 1.9610187478245213 9.071869018533507 0 0 0
356 119 1 0.5897 1.713298047201368 2.1793669963252493 8.506888532587231 0 0 0
27 9 1 0.5897 2.7039546896367574 4.412365839212968 6.649620797084656 0 0 0
329 110 1 0.5897 4.189236068718116 0.7859250895175434 9.360483714956196 0 0 0
342 114 1 0.5897 4.097057392853484 4.837381535135984 9.753811997237909 0 0 0
561 187 1 0.5897 0.9819973349018739 0.09003612474658935 8.917590675810649 0 1 0
371 124 1 0.5897 7.725774891881909 3.3637116781720744 10.019518444417795 0 0 0
357 119 1 0.5897 0.20006173879221387 2.166059687533494 8.544803140039967 0 0 0
328 110 2 -1.1794 4.1040022600036234 1.4830585156734182 10.010844302374586 0 0 0
361 121 2 -1.1794 9.274263032553428 2.7640932559232483 6.8045636422462215 0 0 0
391 131 2 -1.1794 7.594433794128727 2.1094389978802983 8.835337544535347 0 0 0
59 20 1 0.5897 8.94445093297849 1.6223417607667523 5.38400295272332 0 0 0
359 120 1 0.5897 6.177660925035451 2.270289166130604 7.777259056077171 0 0 0
360 120 1 0.5897 5.759224555881477 1.8140355758416957 6.395860579930855 0 0 0
8 3 1 0.5897 5.835928340223576 3.868816444922902 6.109565629670213 0 0 0
358 120 2 -1.1794 5.5138412916816675 2.4113980768422367 7.102349703590191 0 0 0
393 131 1 0.5897 7.620504526336046 1.162484213078839 8.973083514517974 0 0 0
392 131 1 0.5897 8.201708799936322 2.263491592132532 8.111770396491261 0 0 0
7 3 2 -1.1794 6.044981600459058 4.612666709972644 5.544555691149149 0 0 0
362 121 1 0.5897 9.25826189303434 3.7136894944728516 6.6845868045380845 0 0 0
24 8 1 0.5897 2.391293102103866 0.11834597763420301 5.335019263126552 0 0 0
341 114 1 0.5897 4.095195940477869 3.3675315880838315 10.116829606621737 0 0 0
335 112 1 0.5897 1.1520642112851902 3.328467017701443 10.227537096643262 0 0 0
102 34 1 0.5897 0.3585767568446394 0.9564477257300773 5.215635577837437 1 0 0
60 20 1 0.5897 9.018803563847406 0.11052334664324803 5.350035540532738 0 0 0
649 217 2 -1.1794 2.6783333262618827 2.53667258996576 13.915895917910513 0 0 0
650 217 1 0.5897 2.369239556502172 1.965306587385103 13.21291955647367 0 0 0
651 217 1 0.5897 2.057119297861238 2.3957436493947064 14.630241030006083 0 0 0
348 116 1 0.5897 2.6123796377002715 1.0599285475144296 11.15514175629103 0 0 0
346 116 2 -1.1794 2.1203624843883686 0.7485082238022728 11.914766653672752 0 0 0
350 117 1 0.5897 2.520012132273276 4.3009307243291275 13.480505300696544 0 0 0
347 116 1 0.5897 1.2103538364175894 0.9713558142069225 11.719036536337644 0 0 0
683 228 1 0.5897 4.482252205344398 2.609883430863238 14.150544756927701 0 0 0
336 112 1 0.5897 2.2959201943364316 4.21016015461426 10.6813937072419 0 0 0
330 110 1 0.5897 4.740379131504579 1.2573825833554038 10.689202666786638 0 0 0
334 112 2 -1.1794 1.3462212625485586 4.109799923169531 10.745315646143712 0 0 0
370 124 2 -1.1794 7.935888409999871 4.17018250565218 10.490416732713182 0 0 0
332 111 1 0.5897 5.269871009292124 4.497799493099178 11.74678449417842 0 0 0
682 228 2 -1.1794 5.438198080096007 2.6536152780420035 14.16891709217083 0 0 0
685 229 2 -1.1794 9.147365888134587 2.711772225299713 13.875937210031678 0 0 0
386 129 1 0.5897 8.990965938144642 4.570537153097172 13.818292370428917 0 0 0
331 111 2 -1.1794 6.006893476393498 4.66467930353106 12.33416909086953 0 0 0
372 124 1 0.5897 7.227299542530009 4.268314795250357 11.126292501623366 0 0 0
340 114 2 -1.1794 4.00214831043893 4.2412623255266 10.496652067002824 0 0 0
382 128 2 -1.1794 8.517073268425424 0.9847079493333114 11.898967138140708 0 0 0
684 228 1 0.5897 5.648279549174521 3.489044285750949 13.751502768087585 0 0 0
354 118 1 0.5897 5.688367040075857 1.5975333339775137 12.824783045870852 0 0 0
384 128 1 0.5897 9.225566292574634 1.1147608837161216 11.268734392650094 0 0 0
353 118 1 0.5897 6.752499820908572 1.0608646735506904 11.891404570571957 0 0 0
686 229 1 0.5897 8.653983494665791 2.5415346955526217 14.678220606857487 0 0 0
383 128 1 0.5897 8.718375620346166 1.5881696539809305 12.614157653590095 0 0 0
352 118 2 -1.1794 5.8094239596536825 1.0433280878327142 12.053831393887545 0 0 0
680 227 1 0.5897 0.022759304821285298 2.473885530167069 15.253368814378021 0 0 0
377 126 1 0.5897 9.739689659280995 4.2322979068336215 10.395476664620109 0 0 0
717 239 1 0.5897 6.651669187689376 2.480555180905923 15.525177617072442 0 0 0
653 218 1 0.5897 3.3254117871160256 1.2446864410186755 17.49876410186729 0 0 0
652 218 2 -1.1794 4.1707909668290775 1.4095121824138472 17.081346520458304 0 0 0
664 222 2 -1.1794 3.8724917222594217 4.192870058398439 17.279823444867688 0 0 0
671 224 1 0.5897 2.208640272029203 1.6826692937638987 19.39554133094167 0 0 0
666 222 1 0.5897 4.024056325617517 3.258833553063837 17.135020783626604 0 0 0
670 224 2 -1.1794 2.023347733822546 1.0190946492499842 18.731052482092156 0 0 0
665 222 1 0.5897 2.9351472229360867 4.258450934029261 17.4619355747088 0 0 0
681 227 1 0.5897 0.8797396935391084 2.8367054220889307 16.447288738011842 0 0 0
672 224 1 0.5897 1.071166903311629 1.0347930581126317 18.635266057622008 0 0 0
658 220 2 -1.1794 1.1211494939894537 4.288933909401023 17.497350264748544 0 0 0
659 220 1 0.5897 0.5379301520360413 4.459355047223859 18.23686356765213 0 0 0
654 218 1 0.5897 4.251490008097338 0.7199554392811052 16.42239209298738 0 0 0
710 237 1 0.5897 9.200486090168514 4.44454690236897 20.723517181264086 0 0 0
660 220 1 0.5897 0.9744000330973152 5.023771359951163 16.90176755586336 0 0 0
35 12 1 0.5897 5.4345471223550215 1.9212852739564452 20.56146475767296 0 0 -1
38 13 1 0.5897 9.079513881833583 2.225729834632752 20.17380868825721 0 0 -1
707 236 1 0.5897 8.829809338476766 0.2578561624642712 19.41317102703252 0 0 0
702 234 1 0.5897 9.798118981611475 4.17129864704365 17.80636997359423 0 0 0
656 219 1 0.5897 4.998369522246154 4.458411091965823 18.649108395814633 0 0 0
694 232 2 -1.1794 7.983786142492886 4.148069764852387 18.00188015682218 0 0 0
677 226 1 0.5897 5.233554488414492 0.8863259227280994 18.43749024801563 0 0 0
695 232 1 0.5897 7.8212857409576015 3.3783895451144916 17.45648698884828 0 0 0
708 236 1 0.5897 7.629067304468646 0.9888646590621762 18.85145261740876 0 0 0
715 239 2 -1.1794 7.442784676047047 2.2702712578887576 16.02116567212122 0 0 0
655 219 2 -1.1794 5.660706785539849 4.672205751902953 19.30613230798819 0 0 0
657 219 1 0.5897 6.491019957863339 4.425458205262809 18.898957256132057 0 0 0
706 236 2 -1.1794 8.58607895026527 1.0003142574902435 18.86035488933751 0 0 0
716 239 1 0.5897 7.443867105155058 1.3146510053830374 16.077493218899292 0 0 0
676 226 2 -1.1794 5.829086118302037 0.7352407407830605 19.17136353939518 0 0 0
679 227 2 -1.1794 0.7589559705015759 2.161775251178562 15.779387442782719 0 0 0
696 232 1 0.5897 7.785272829502111 4.891803128940129 17.432931434740567 0 0 0
36 12 1 0.5897 5.421016725278941 3.429505400282059 20.693225238215398 0 0 -1
2 1 1 0.5897 2.546370607081696 3.8443503763083307 20.56719522255197 0 0 -1
1 1 2 -1.1794 2.5868011820462904 2.8985015543007373 20.70903009774876 0 0 -1
689 230 1 0.5897 9.902069571276733 1.166942333000949 17.517836478266748 0 0 0
884 295 1 0.5897 0.677507507235948 0.3909606506038484 15.63056341698944 0 1 0
138 46 1 0.5897 6.97835384890661 7.550172472953543 5.01936016434965 0 0 0
126 42 1 0.5897 4.212982603469897 9.638158096079477 3.5128214607822996 0 0 0
13 5 2 -1.1794 4.930015611257213 5.890380087177006 1.5466817780558804 0 0 0
15 5 1 0.5897 4.686059132205735 6.665845207519691 2.052066890762641 0 0 0
19 7 2 -1.1794 0.9157321476689281 5.975052952878736 1.9290577790019567 0 0 0
20 7 1 0.5897 1.0242984356047744 5.418308667130554 2.7000325608954494 0 0 0
110 37 1 0.5897 2.027052679196973 9.151866081984952 0.5352904745318849 0 0 0
674 225 1 0.5897 1.9679038749679185 5.768371505841695 0.49381392353561804 0 0 1
114 38 1 0.5897 3.4400671359393273 7.591435952041796 3.737944046801404 0 0 0
14 5 1 0.5897 4.284163977851736 5.850635729769988 0.8414489956644657 0 0 0
139 47 2 -1.1794 0.9103174325446511 8.799799378295416 1.9450641953252525 0 0 0
141 47 1 0.5897 1.129337471993962 7.895889041672823 2.1716237390330146 0 0 0
112 38 2 -1.1794 4.213412690085339 7.8813510801757936 3.254235799501884 0 0 0
140 47 1 0.5897 1.1644485251718741 9.308607612682144 2.71492083156667 0 0 0
113 38 1 0.5897 4.939748500050457 7.754093047659178 3.864407470756808 0 0 0
166 56 2 -1.1794 8.769629165805794 7.560215740899187 4.917066355995865 0 0 0
176 59 1 0.5897 7.356166407054247 7.930443649210185 2.170808125368557 0 0 0
177 59 1 0.5897 7.923990397468605 9.019640039487376 1.2858854531897608 0 0 0
55 19 2 -1.1794 7.647547819914389 6.0716982011588225 2.0891670055019365 0 0 0
143 48 1 0.5897 5.784422628469927 9.007588949975066 0.9082217652400607 0 0 0
57 19 1 0.5897 7.895751217152359 5.44019099620253 2.764291430149682 0 0 0
56 19 1 0.5897 6.743916242110147 5.845262843514819 1.8694524843565241 0 0 0
175 59 2 -1.1794 7.2876349458486525 8.866864589211353 1.98429356270699 0 0 0
711 237 1 0.5897 8.690208179963578 5.6524176540381905 0.6807047992689474 0 0 1
142 48 2 -1.1794 5.136937483371642 9.084175519937302 0.2075338664645312 0 0 0
132 44 1 0.5897 1.0701617827845615 7.416004442638082 4.813926807705313 0 0 0
111 37 1 0.5897 3.4291553923180533 9.336346973061225 -0.0047051174854230784 0 0 0
145 49 2 -1.1794 9.138865289417867 9.419127312470891 0.004525194364829496 0 0 0
130 44 2 -1.1794 2.0253494025491263 7.421155126252066 4.874446827710066 0 0 0
26 9 1 0.5897 1.934481508662511 5.539284358957958 7.305287193664745 0 0 0
381 127 1 0.5897 7.499678105967738 5.395189725149201 9.239708019439028 0 0 0
131 44 1 0.5897 2.2347905360006965 6.6687717879144905 5.427898957487089 0 0 0
343 115 2 -1.1794 0.7833020461945828 5.82570748492939 8.668689772573549 0 0 0
25 9 2 -1.1794 2.6122202961508454 5.365237375731217 6.652251865719744 0 0 0
464 155 1 0.5897 1.6661567881510684 8.72353397279372 8.512193794644071 0 0 0
337 113 2 -1.1794 4.495459263453664 6.023825170106093 8.475716131462681 0 0 0
344 115 1 0.5897 1.0463152472305484 5.343898831465376 9.452794784241478 0 0 0
433 145 2 -1.1794 2.763721539683023 9.146338482186032 7.123880302242915 0 0 0
345 115 1 0.5897 0.8269707526174658 6.746504028226374 8.926727432153461 0 0 0
435 145 1 0.5897 2.481493156897223 8.753508344405546 6.297962178123776 0 0 0
468 156 1 0.5897 4.569723445717557 8.991226571987275 7.352121694054269 0 0 0
339 113 1 0.5897 3.9940457920839103 5.688169108315788 7.732743610163876 0 0 0
437 146 1 0.5897 4.304975607503575 7.495720065327302 9.524580529433353 0 0 0
463 155 2 -1.1794 0.9476974373950365 8.528103853792395 9.113610207790032 0 0 0
438 146 1 0.5897 4.174402704149883 8.917314038612226 10.02875256324041 0 0 0
379 127 2 -1.1794 7.305598282724152 5.979017790257318 8.506461392421759 0 0 0
137 46 1 0.5897 6.027595352482722 6.4193400142741535 5.3498504536858364 0 0 0
338 113 1 0.5897 5.40689062855423 5.988595705853756 8.185665011448018 0 0 0
380 127 1 0.5897 7.474130890946432 6.85735175364091 8.847725290689743 0 0 0
467 156 1 0.5897 5.705468338254483 8.325424882546262 6.604835564263466 0 0 0
500 167 1 0.5897 7.6228460040409765 9.382770205503416 9.575447091265245 0 0 0
466 156 2 -1.1794 5.524349928757471 8.97374858007006 7.285333397347367 0 0 0
470 157 1 0.5897 8.772939295468206 9.101720162485533 7.614464299608892 0 0 0
168 56 1 0.5897 8.932367414894983 8.310213615693968 5.489150172073084 0 0 0
62 21 1 0.5897 8.509196241889779 5.5995931836177935 7.343873217402985 0 0 0
469 157 2 -1.1794 9.246538489305511 9.409972279260032 6.841953137577544 0 0 0
61 21 2 -1.1794 9.204294658143816 5.447243091734786 6.703795060923581 0 0 0
499 167 2 -1.1794 7.580149604405522 8.667138138397203 8.941188168662698 0 0 0
167 56 1 0.5897 8.974284538653459 6.7970947686189644 5.4574624061911665 0 0 0
501 167 1 0.5897 6.799904269567268 8.855051528428094 8.41966209207569 0 0 0
136 46 2 -1.1794 6.0506581287909516 7.355712853331538 5.152242801541083 0 0 0
465 155 1 0.5897 0.158164995013294 8.776906661557954 8.633161391424883 0 0 0
443 148 1 0.5897 1.1694282460573837 9.87776722483078 10.336321169849922 0 0 0
436 146 2 -1.1794 4.1111314809215065 8.004949359137559 10.311500241499509 0 0 0
705 235 1 0.5897 7.755309871773014 5.870251681377106 15.386193466829058 0 0 0
351 117 1 0.5897 3.2441383407505424 5.504707256046242 14.044906440775287 0 0 0
759 253 1 0.5897 2.446724009736151 8.78745183923866 13.340194533846553 0 0 0
668 223 1 0.5897 1.135905228719603 5.757176673431901 14.653946874387037 0 0 0
455 152 1 0.5897 2.6282349633617104 7.758718486077294 11.323105935844453 0 0 0
456 152 1 0.5897 2.2584181894818576 6.792465572652879 12.428262059574124 0 0 0
454 152 2 -1.1794 1.960848284605008 7.588482422911633 11.987697244369377 0 0 0
792 264 1 0.5897 4.520025461612287 9.257461667331045 14.231580939410428 0 0 0
349 117 2 -1.1794 2.508037775398022 5.258126773404666 13.485046795941459 0 0 0
757 253 2 -1.1794 2.710292134324987 9.279796990442065 14.117534051949402 0 0 0
533 178 1 0.5897 0.15061320280715124 7.43320100106476 11.887067034793848 1 0 0
462 154 1 0.5897 5.489911788305065 7.624778608004718 11.474912103643213 0 0 0
789 263 1 0.5897 1.4260247195392308 8.791638113848217 15.285265362360786 0 0 0
492 164 1 0.5897 8.117221350225154 7.623053026450514 11.831955233865335 0 0 0
490 164 2 -1.1794 9.001753268345436 7.507289036756864 12.178751023776728 0 0 0
491 164 1 0.5897 9.57415676317428 7.6271351725907275 11.421092343493441 0 0 0
794 265 1 0.5897 9.171981148277567 8.605338511924991 13.53142174500691 0 0 0
461 154 1 0.5897 6.054760676529745 8.02791406183642 12.820251002200555 0 0 0
791 264 1 0.5897 5.851151597270405 9.193700017021301 14.949586768782037 0 0 0
790 264 2 -1.1794 5.464520961111388 9.28058450082437 14.078375811527273 0 0 0
387 129 1 0.5897 8.976866130276132 5.978510586868182 13.261899445058843 0 0 0
333 111 1 0.5897 6.107252776574827 5.616666670964755 12.328874462940144 0 0 0
385 129 2 -1.1794 8.961776934272521 5.4895555394290305 14.084593488979902 0 0 0
460 154 2 -1.1794 6.227578889330509 7.467163445110113 12.06404434888913 0 0 0
793 265 2 -1.1794 9.249392674916963 9.213830480763775 14.266214140836233 0 0 0
661 221 2 -1.1794 4.514920503607455 5.831342113165741 15.211832706685511 0 0 0
824 275 1 0.5897 7.974822015126983 8.871901353523578 15.44969196028882 0 0 0
667 223 2 -1.1794 0.4865835654484492 5.942815687886243 15.332173858855807 0 0 0
669 223 1 0.5897 0.6132870365676042 6.868909270539682 15.53872379841855 0 0 0
673 225 2 -1.1794 2.6787443800844533 5.610603154132627 20.672160757527514 0 0 0
663 221 1 0.5897 4.308239115510011 6.702237082204273 15.551181621466892 0 0 0
787 263 2 -1.1794 0.6788819603698292 8.559693379079777 15.836685583250082 0 0 0
858 286 1 0.5897 0.3462035006017535 7.559085719045721 18.734358101122194 1 0 0
780 260 1 0.5897 2.6966837666742345 7.671027119672745 17.972054913806097 0 0 0
761 254 1 0.5897 4.11616758282913 8.98678120997171 16.977841368185867 0 0 0
778 260 2 -1.1794 2.1129617920219768 7.495364489554203 18.70994493889321 0 0 0
760 254 2 -1.1794 4.155370087028787 8.034999400203008 16.883215252972374 0 0 0
788 263 1 0.5897 0.7159472006716138 9.180388344806486 16.564389873235587 0 0 0
779 260 1 0.5897 2.239224328455199 8.239824621202263 19.298239589056788 0 0 0
675 225 1 0.5897 2.4953553315955026 6.20220990433702 19.94240044039556 0 0 0
704 235 1 0.5897 6.278389332857507 5.84909393455963 15.717504996713762 0 0 0
703 235 2 -1.1794 7.141264195938733 5.970363408358057 16.113510214152733 0 0 0
762 254 1 0.5897 4.749167156257201 7.749048671976062 17.577275897138605 0 0 0
797 266 1 0.5897 9.988338025282712 7.544642795463302 17.601570363842566 0 0 0
784 262 2 -1.1794 5.930919876145138 7.429155315446008 18.94203864676099 0 0 0
815 272 1 0.5897 8.788121419884444 6.6051736862246475 19.39585426518978 0 0 0
823 275 2 -1.1794 7.297288945551238 8.733089200503091 16.111319405286974 0 0 0
786 262 1 0.5897 6.8670807267633105 7.551528369361267 18.784864767567917 0 0 0
825 275 1 0.5897 7.179095950312998 7.7835171246147254 16.138273517064782 0 0 0
816 272 1 0.5897 8.90281428222305 8.11352924045509 19.45891717094651 0 0 0
144 48 1 0.5897 5.430365078186932 8.463271165056227 20.340323729173445 0 0 -1
785 262 1 0.5897 5.832121871590411 6.4873015666846205 19.081751638296147 0 0 0
814 272 2 -1.1794 8.664848295754913 7.396342966543283 18.871331453603183 0 0 0
662 221 1 0.5897 4.211970254501608 5.230327856082445 15.89239811689728 0 0 0
109 37 2 -1.1794 2.508430285198863 9.47546683864604 20.573488794148727 0 0 -1
709 237 2 -1.1794 9.250827489487165 5.400223085746212 20.74663995905559 0 0 0
120 40 1 0.5897 1.1970515817397696 11.328589509796805 3.3508748882996136 0 0 0
129 43 1 0.5897 0.9247184097199802 13.548673402960196 2.159179195003127 0 0 0
118 40 2 -1.1794 1.3724054280969502 10.595147273820908 3.9404033577878272 0 0 0
119 40 1 0.5897 2.325143817349169 10.582630712381006 4.031043671909323 0 0 0
240 80 1 0.5897 2.6096117795199105 13.922487298246224 4.3628914363367155 0 0 0
127 43 2 -1.1794 0.8593442918825249 12.59857963394584 2.062054455761497 0 0 0
123 41 1 0.5897 4.061238527844693 12.157291610899982 0.9232256918563302 0 0 0
222 74 1 0.5897 4.170921147274117 13.738722726656585 2.51026330831597 0 0 0
124 42 2 -1.1794 4.091086029526214 10.568603708958898 3.7019851354199917 0 0 0
783 261 1 0.5897 1.9132539776213302 12.346859201454386 0.6407074839135797 0 0 1
220 74 2 -1.1794 3.9706256661880497 14.280346344191816 3.273602138847245 0 0 0
122 41 1 0.5897 4.500886172148068 11.633945553156451 2.2739140048430273 0 0 0
121 41 2 -1.1794 4.76501592130723 12.22443060801829 1.568404086406648 0 0 0
125 42 1 0.5897 4.711635800914179 10.753506868731067 4.406827238233733 0 0 0
155 52 1 0.5897 7.707470278656961 10.177060739952482 3.276638493941039 0 0 0
116 39 1 0.5897 6.8008770796180285 10.936362536816775 5.054817022591907 0 0 0
156 52 1 0.5897 9.039471378662384 10.764719372393829 3.6914447124388152 0 0 0
163 55 2 -1.1794 7.402050366269441 12.823432261217949 2.1139871404852135 0 0 0
165 55 1 0.5897 7.5838927580596005 12.167393939125379 2.786854263397216 0 0 0
285 95 1 0.5897 7.687950426959263 14.752912859836194 2.2417857916341264 0 0 0
164 55 1 0.5897 6.511470524799916 12.627996800978913 1.8228577574547231 0 0 0
276 92 1 0.5897 9.232732027127234 14.391772597817859 4.3299139057959914 0 0 0
154 52 2 -1.1794 8.099079563438945 10.829340551018085 3.8574878772374332 0 0 0
819 273 1 0.5897 8.367906330239052 12.440135303267683 0.6172222080236324 0 0 1
246 82 1 0.5897 5.285955272849212 14.042506896073055 4.426033288202155 0 0 0
275 92 1 0.5897 7.846247300013416 14.166697441528111 4.894298404436831 0 0 0
238 80 2 -1.1794 1.8961652981949821 13.8393486497064 4.995465507413547 0 0 0
244 82 2 -1.1794 5.990288109557489 13.959634467182399 5.068775126658668 0 0 0
317 106 1 0.5897 0.12889451600012264 13.880952667344905 5.055666944896872 1 0 0
133 45 2 -1.1794 2.549779004628335 11.873844624647617 6.857996008030342 0 0 0
134 45 1 0.5897 1.8379164365392944 12.03592183969629 7.476914632780793 0 0 0
135 45 1 0.5897 3.334870489430911 12.185111405305232 7.308387948246282 0 0 0
453 151 1 0.5897 0.8363040562192876 11.744821190087722 9.547580096483614 0 0 0
451 151 2 -1.1794 0.7240666969450795 12.36722761450649 8.829104854852437 0 0 0
450 150 1 0.5897 4.28190627957976 11.495538464543456 9.76205897786764 0 0 0
446 149 1 0.5897 4.418882610606968 13.427706930856447 8.993147609392489 0 0 0
573 191 1 0.5897 1.1056037038328579 14.304239418430576 9.41920569367972 0 0 0
445 149 2 -1.1794 4.6025473831827535 12.648999257499879 8.467642503060018 0 0 0
239 80 1 0.5897 2.1610950514474783 13.114823238158843 5.5621401362735945 0 0 0
480 160 1 0.5897 7.736531418926926 11.521937388746174 10.061773234740194 0 0 0
489 163 1 0.5897 7.478592086909385 13.596150238681922 9.069197390139317 0 0 0
575 192 1 0.5897 5.659032880193416 14.891319855576548 6.549713195189051 0 0 0
245 82 1 0.5897 5.935953068977179 13.05218849512949 5.368684314975603 0 0 0
488 163 1 0.5897 8.121742437923924 12.56370758716783 8.167936847532118 0 0 0
169 57 2 -1.1794 9.48485509115087 12.192688801736608 6.975252299822528 0 0 0
115 39 2 -1.1794 6.042448927710431 11.172609013949502 5.588729940734396 0 0 0
117 39 1 0.5897 5.9703741624668165 10.465127728528978 6.229441110007771 0 0 0
487 163 2 -1.1794 7.432658699223838 12.672146666037552 8.823280625835805 0 0 0
171 57 1 0.5897 9.320903263085588 11.300518288088503 6.669481222679059 0 0 0
170 57 1 0.5897 9.287430964502686 12.745671962434205 6.219343939329728 0 0 0
447 149 1 0.5897 5.554134672598931 12.553283087097151 8.504943376508631 0 0 0
544 182 2 -1.1794 4.269679285091473 14.730017447946537 10.286250186727537 0 0 0
274 92 2 -1.1794 8.760429057114566 14.278776232262716 5.15466930943797 0 0 0
434 145 1 0.5897 2.74231373209659 10.089393185491016 6.960896551603004 0 0 0
457 153 2 -1.1794 2.455136529171574 11.990018162649644 13.59731895391469 0 0 0
458 153 1 0.5897 1.7604974328810314 12.241309546996924 14.205936887202057 0 0 0
459 153 1 0.5897 3.266330917840558 12.213285280051473 14.053611784733922 0 0 0
562 188 2 -1.1794 1.9936167872318464 13.980449759118882 11.76706341576147 0 0 0
563 188 1 0.5897 2.2113762722559733 13.187169620205214 12.256523972784068 0 0 0
449 150 1 0.5897 4.632979093543225 10.975972966062912 11.139862435792942 0 0 0
442 148 2 -1.1794 1.3381514693083596 10.686750830758363 10.819406231243383 0 0 0
444 148 1 0.5897 2.287758720824743 10.798394448305203 10.776290846962583 0 0 0
600 200 1 0.5897 8.853948787641462 14.76216982020459 12.551775931179135 0 0 0
769 257 2 -1.1794 4.487827311719123 12.515458812025248 15.386050185467576 0 0 0
440 147 1 0.5897 6.658560074631351 11.18609328408347 11.974118308543462 0 0 0
545 182 1 0.5897 3.4806652234444737 14.417001782109555 10.728498941194598 0 0 0
642 214 1 0.5897 0.18609346139256674 14.029196254994892 11.953690079621222 1 0 0
598 200 2 -1.1794 8.75406951343711 14.119038309681564 11.849913855624198 0 0 0
546 182 1 0.5897 4.983980956271833 14.50560997283454 10.882484892949813 0 0 0
758 253 1 0.5897 2.5696480528173073 10.196475669549825 13.880295976901971 0 0 0
770 257 1 0.5897 5.424488028732039 12.588691960189575 15.203346352885427 0 0 0
568 190 2 -1.1794 6.082170804539629 14.091887657907247 12.230962756795027 0 0 0
441 147 1 0.5897 5.806027119322817 10.689806551074339 13.122348703956929 0 0 0
478 160 2 -1.1794 7.925892996505746 10.81598886850527 10.679832492346618 0 0 0
479 160 1 0.5897 8.87400108218304 10.854575278454707 10.80503791539418 0 0 0
569 190 1 0.5897 5.974764621502627 13.170894314989006 12.468869660407591 0 0 0
599 200 1 0.5897 8.91001168766222 13.27497208181326 12.273640586962236 0 0 0
439 147 2 -1.1794 5.844676577398856 11.36496823855786 12.444940738480947 0 0 0
570 190 1 0.5897 7.0069575167824 14.173298680935625 11.998110228924677 0 0 0
494 165 1 0.5897 8.365385623612209 12.073471390037403 13.88523261621464 0 0 0
493 165 2 -1.1794 9.136733696533197 11.828351374029737 13.37432138228075 0 0 0
775 259 2 -1.1794 0.5803034397842993 12.73215305033846 15.48519769376837 0 0 0
795 265 1 0.5897 9.212279162130757 10.081776632069046 13.864193322902091 0 0 0
448 150 2 -1.1794 4.015615061033058 10.85232650867181 10.419001815955763 0 0 0
564 188 1 0.5897 2.18697927349426 14.696585808333074 12.372039003444106 0 0 0
495 165 1 0.5897 9.877058601728697 12.024626425338548 13.94832230667189 0 0 0
811 271 2 -1.1794 7.206377221448026 12.663232495081035 15.260450801000069 0 0 0
768 256 1 0.5897 0.9630237547592657 11.520968338132022 16.730233256917913 0 0 0
888 296 1 0.5897 2.193847093232576 13.379998041606388 19.33627416028072 0 0 0
766 256 2 -1.1794 1.1459990568392107 10.859311570716798 17.397273370905705 0 0 0
773 258 1 0.5897 3.048494268979535 10.8065714702675 17.517338689473693 0 0 0
886 296 2 -1.1794 2.0556420894768466 14.137810132518442 18.768046388762944 0 0 0
774 258 1 0.5897 4.142113566259285 11.344924685170257 16.619696025334942 0 0 0
772 258 2 -1.1794 3.969597097002185 10.682482538825552 17.288741964806214 0 0 0
869 290 1 0.5897 3.260537528915653 14.499959482848725 17.562483548665313 0 0 0
767 256 1 0.5897 0.6524382244716378 11.14917925651681 18.164387398697194 0 0 0
868 290 2 -1.1794 4.056211791934683 14.69182595610721 17.066324905251484 0 0 0
923 308 1 0.5897 9.00576344473444 14.869946318814474 19.484798347332344 0 0 0
870 290 1 0.5897 4.77036597193879 14.492192090418051 17.671476811553138 0 0 0
887 296 1 0.5897 2.2054254649914813 14.893984759967173 19.335514023516875 0 0 0
771 257 1 0.5897 4.265966072754975 13.332315178245516 15.833044713779861 0 0 0
965 322 1 0.5897 0.23234547988607906 14.230362206335549 18.827338967930263 1 0 0
804 268 1 0.5897 7.571300131655844 10.143245827947291 17.082457123420806 0 0 0
782 261 1 0.5897 2.4523635541872255 11.23063538888676 20.571166462416436 0 0 0
781 261 2 -1.1794 2.4938389050777934 12.17854304556753 20.698189092649503 0 0 0
818 273 1 0.5897 8.897018071051727 12.860485785827098 20.062201615004636 0 0 0
765 255 1 0.5897 5.593800045031537 10.649009767484793 20.027985466003738 0 0 0
922 308 2 -1.1794 8.73385804681071 14.206272149720556 18.850906481100985 0 0 0
803 268 1 0.5897 7.163362657174215 11.07685954871689 18.202152625321588 0 0 0
893 298 1 0.5897 6.889601675656227 14.125314203137124 18.814567403058433 0 0 0
894 298 1 0.5897 5.942895543529349 13.02334506875822 19.240403589204757 0 0 0
802 268 2 -1.1794 7.755468536404545 11.006227612795714 17.45350029172517 0 0 0
924 308 1 0.5897 9.389257681748385 14.256221209168995 18.15519106859547 0 0 0
763 255 2 -1.1794 5.749470824602499 11.257514331548553 19.3057129267483 0 0 0
892 298 2 -1.1794 5.9776487191915 13.961806281492972 19.054768326044393 0 0 0
813 271 1 0.5897 7.421433284485201 12.143116396004373 16.034648484924407 0 0 0
764 255 1 0.5897 5.068801706766726 11.049456888803837 18.665812181667036 0 0 0
810 270 1 0.5897 9.532380767369602 10.694728123619667 17.517456467922983 0 0 0
777 259 1 0.5897 0.6976261458946902 13.664432405546895 15.668109835508504 0 0 0
146 49 1 0.5897 9.045322805355854 10.365281375744097 20.692639747871016 0 0 -1
817 273 2 -1.1794 8.96043030004784 12.16531969916299 20.717146289431142 0 0 0
252 84 1 0.5897 5.547905122511131 14.87726765834862 20.49108465837004 0 0 -1
812 271 1 0.5897 7.267985091044612 13.571443363911609 15.556599586898766 0 0 0
224 75 1 0.5897 5.353923522021337 17.584447529701666 4.8183113250010265 0 0 0
247 83 2 -1.1794 0.9799121275424718 15.336413478757347 1.981545376282377 0 0 0
248 83 1 0.5897 1.096106991745152 16.027973881557195 2.6330561536946124 0 0 0
890 297 1 0.5897 2.0131618597478376 19.029062159495087 0.37260878404241665 0 0 1
226 76 2 -1.1794 1.495243080788244 17.401629497786757 3.6539877899385345 0 0 0
228 76 1 0.5897 0.8873750141789384 17.529910875123214 4.382073346755062 0 0 0
221 74 1 0.5897 4.150289860568396 15.17570630947258 2.9865575124111237 0 0 0
232 78 2 -1.1794 4.271321485504491 17.203236122651575 3.389466969134784 0 0 0
233 78 1 0.5897 4.390567836573912 17.83977523409759 2.6846267290540036 0 0 0
227 76 1 0.5897 1.3244260746734098 18.137636961092312 3.066309894306261 0 0 0