#include		in.partitions
include		in.temp
variable        temperature equal 157.60
variable	tempDamp equal 100.0
include		in.pressure
variable        pressure equal 2073.8
variable        pressureDamp equal 1000.0 # This is 1 ps
include		in.seed
variable        seed equal 745823

units		real
atom_style	full
#include		in.box
read_restart	restart.lmp.${pid}
read_restart	restart.lmp.1
Reading restart file ...
  restart file = 30 Jul 2021, LAMMPS = 30 Jul 2021
  restoring atom style full from restart
  orthogonal box = (0.11951686 0.17476624 0.13239797) to (18.088056 23.454412 22.080798)
  2 by 4 by 4 MPI processor grid
  restoring pair style lj/cut/tip4p/long/omp from restart
  restoring bond style harmonic/omp from restart
  restoring angle style harmonic/omp from restart
  864 atoms
  576 bonds
  288 angles
Finding 1-2 1-3 1-4 neighbors ...
  special bond factors lj:    0        0        0       
  special bond factors coul:  0        0        0       
     2 = max # of 1-2 neighbors
     1 = max # of 1-3 neighbors
     1 = max # of 1-4 neighbors
     2 = max # of special neighbors
  special bonds CPU = 0.002 seconds
  read_restart CPU = 0.008 seconds
include 	in.setup
variable	out_freq equal 1000
variable	out_freq2 equal 10000
variable	out_freq3 equal 1000

timestep	2.0

neigh_modify    delay 7 every 1

include		in.tip4p
# This is TIP4P/Ice

# create groups ###
group ox type 2
288 atoms in group ox
group hy type 1
576 atoms in group hy

# set charges - beside manually ###
set group ox charge -1.1794
Setting atom values ...
  288 settings made for charge
set group hy charge 0.5897
Setting atom values ...
  576 settings made for charge

# ### TIP3P Potential Parameters ###
pair_style lj/cut/tip4p/long/omp 2 1 1 1 0.1577 8.5
pair_coeff 1 1*2 0.000 0.000
pair_coeff 2 2 0.21084 3.1668
bond_style  harmonic
bond_coeff  1 450 0.9572
angle_style harmonic
angle_coeff 1 55 104.52
kspace_style pppm/tip4p/omp 1.0e-5
pair_modify tail yes

thermo          ${out_freq}
thermo          1000
thermo_style    custom step temp pe etotal epair emol press lx ly lz vol pxx pyy pzz pxy pxz pyz enthalpy

restart 	${out_freq3} restart.lmp.${pid} restart2.lmp.${pid}
restart 	1000 restart.lmp.${pid} restart2.lmp.${pid}
restart 	1000 restart.lmp.1 restart2.lmp.${pid}
restart 	1000 restart.lmp.1 restart2.lmp.1


include         in.dump
dump            myDump all atom ${out_freq2} dump.water.${pid}
dump            myDump all atom 10000 dump.water.${pid}
dump            myDump all atom 10000 dump.water.1
dump            myDump2 all dcd ${out_freq2} dump.dcd
dump            myDump2 all dcd 10000 dump.dcd
dump_modify     myDump append yes
dump_modify     myDump2 append yes


variable natoms 	equal  "count(all)"                        # NUMBER ATOMS
variable H      	equal  "enthalpy/v_natoms"                 # ENTHALPY-per-atom
variable Vol      	equal  "vol/v_natoms"                 # volume-per-atom
fix AVG all 		ave/time ${out_freq} 1 ${out_freq} v_Vol v_H file vol_enthalpy.dat
fix AVG all 		ave/time 1000 1 ${out_freq} v_Vol v_H file vol_enthalpy.dat
fix AVG all 		ave/time 1000 1 1000 v_Vol v_H file vol_enthalpy.dat


timer           timeout 23:50:00 every 1000
New timer settings: style=normal  mode=nosync  timeout=23:50:00

fix 		1 all shake 1e-6 200 0 b 1 a 1
       0 = # of size 2 clusters
       0 = # of size 3 clusters
       0 = # of size 4 clusters
     288 = # of frozen angles
  find clusters CPU = 0.000 seconds
fix             2 all nph aniso ${pressure} ${pressure} ${pressureDamp}
fix             2 all nph aniso 2073.8 ${pressure} ${pressureDamp}
fix             2 all nph aniso 2073.8 2073.8 ${pressureDamp}
fix             2 all nph aniso 2073.8 2073.8 1000
fix             3 all temp/csvr ${temperature} ${temperature} ${tempDamp} ${seed}
fix             3 all temp/csvr 157.6 ${temperature} ${tempDamp} ${seed}
fix             3 all temp/csvr 157.6 157.6 ${tempDamp} ${seed}
fix             3 all temp/csvr 157.6 157.6 100 ${seed}
fix             3 all temp/csvr 157.6 157.6 100 745823


run             250000
PPPM initialization ...
  extracting TIP4P info from pair style
  using 12-bit tables for long-range coulomb (../kspace.cpp:340)
  G vector (1/distance) = 0.3719968
  grid = 24 27 25
  stencil order = 5
  estimated absolute RMS force accuracy = 0.003124751
  estimated relative force accuracy = 9.4100947e-06
  using double precision FFTW3
  3d grid and FFT values/proc = 4410 672
Last active /omp style is kspace_style pppm/tip4p/omp
Neighbor list info ...
  update every 1 steps, delay 7 steps, check yes
  max neighbors/atom: 2000, page size: 100000
  master list distance cutoff = 10.8154
  ghost atom cutoff = 10.8154
  binsize = 5.4077, bins = 4 5 5
  1 neighbor lists, perpetual/occasional/extra = 1 0 0
  (1) pair lj/cut/tip4p/long/omp, perpetual
      attributes: half, newton on, omp
      pair build: half/bin/newton/omp
      stencil: half/bin/3d
      bin: standard
Per MPI rank memory allocation (min/avg/max) = 10.19 | 10.22 | 10.23 Mbytes
Step Temp PotEng TotEng E_pair E_mol Press Lx Ly Lz Volume Pxx Pyy Pzz Pxy Pxz Pyz Enthalpy 
16750000    161.92345   -4433.5998   -4156.0685   -4433.5998            0     3240.783    17.968539    23.279645      21.9484    9181.0422     2739.438    3873.9178    3108.9931    -137.5065   -986.89374    236.93156   -3722.1404 
16751000    155.31252   -4440.8558   -4174.6554   -4440.8558            0     1042.095    17.774621    23.599448     22.03795    9244.2864    1270.3656    670.42569    1185.4936   -413.07184    596.95378   -86.888541   -4034.1618 
16752000     155.4222   -4446.6018   -4180.2135   -4446.6018            0    1256.0439     18.09791    23.248449    22.024533    9266.7858    915.94013    1076.1074    1776.0841    87.841818   -996.14122    256.04471   -4010.4635 
16753000    155.42814   -4449.2072   -4182.8087   -4449.2072            0    3243.6073    17.733601    23.624053    21.892812    9171.7641    4970.1636    2211.4002    2549.2582   -1164.0199   -750.04424   -379.38161   -3748.9412 
16754000    143.73431   -4449.7041   -4203.3485   -4449.7041            0    2346.4244    18.124741    23.236048    21.830361    9193.7985    2802.1501    2461.2424    1775.8807   -322.10656    225.32205    43.226623   -3888.7349 
16755000    159.20355   -4442.2099   -4169.3405   -4442.2099            0    2472.9146    17.854529    23.560516    21.778231    9161.2723    3203.3872    1254.9483    2960.4083    394.03034    29.787015    154.96956   -3838.9399 
16756000    159.27304   -4444.2727   -4171.2842   -4444.2727            0     2064.694    18.104049    23.136592     22.05391     9237.633    2713.8108    2679.9517    800.31962    380.29262   -470.34911    -65.48631   -3893.1257 
16757000    160.86919   -4449.8192   -4174.0949   -4449.8192            0    2263.5764     17.63841    23.613418    22.072991    9193.4704    2323.6235    2151.5948    2315.5109    1113.0558   -531.16357    640.32747   -3870.6006 
16758000    157.35962   -4435.6986   -4165.9896   -4435.6986            0    2210.9155    18.102297    23.165354    21.932868    9197.4634     1303.722    3110.1285     2218.896    702.48391   -103.45924    268.02038   -3869.4272 
16759000    162.24356   -4440.1205   -4162.0406   -4440.1205            0    2708.2177    17.782736    23.647541    21.896333    9207.8015    3006.2073    926.82163    4191.6242   -518.38438    16.293515   -77.786001    -3798.364 
16760000    154.52357   -4437.3529   -4172.5048   -4437.3529            0    2754.4896    18.086674    23.026323    22.045072    9181.1024    2584.7564    3987.5992    1691.1131     803.4026    724.55298    61.910802    -3803.687 
16761000    148.59446   -4436.6857   -4181.9999   -4436.6857            0    2089.0087    17.895402    23.566879    21.897506    9235.0271    2713.6572    2120.8502    1432.5188    425.70336    127.00143    -161.7627   -3900.6451 
16762000     161.7568   -4429.5748   -4152.3292   -4429.5748            0    2115.2736    18.106609    23.179479    21.987201    9228.0669    2487.4214    2115.3528    1743.0467   -29.590173   -265.99088    412.86851   -3867.6517 
16763000    159.37331   -4436.1091   -4162.9487   -4436.1091            0    1406.1566    17.925291    23.422624    22.032455    9250.4881    2209.9158    1510.9137    497.64024    1525.7516    485.82212    221.63115   -3973.2457 
16764000    159.01503   -4463.2469   -4190.7006   -4463.2469            0    3031.4872    17.889195    23.336392    21.930218     9155.192    3742.5345    3195.4618    2156.4653   -529.77963   -307.18491    148.06657   -3785.9392 
16765000    158.10898   -4448.9133   -4177.9199   -4448.9133            0    1409.6536    17.992001    23.316259    22.053826     9251.716    1174.2183    1494.2851    1560.4573   -292.31833     37.67132    332.93533   -3987.7199 
16766000    161.03661   -4452.1901   -4176.1788   -4452.1901            0    2014.9103    17.988617    23.346744    21.899691    9197.3364     1574.769     1044.701     3425.261   -424.75559    375.11645    105.55682   -3905.9114 
16767000    159.45318   -4449.8638   -4176.5665   -4449.8638            0    2557.5821    17.969614    23.422049    21.868771    9204.2413    2267.8922    2668.9503    2735.9038    -327.4765    25.188486   -491.63842    -3833.251 
16768000    154.04353   -4462.4133    -4198.388   -4462.4133            0    1626.6206    18.052838    23.322675    21.996756    9261.5241     2319.126    1532.7415    1027.9943   -377.75519   -199.55363    878.94371   -3978.6806 
16769000    157.63563   -4449.7502   -4179.5682   -4449.7502            0    1730.1183    17.868756    23.533196    21.957615    9233.3732    2166.5468    1399.2477    1624.5605    860.15881   -157.21836    262.30526   -3946.5917 
16770000     156.1608   -4461.1975   -4193.5432   -4461.1975            0    2445.4627    18.033609    23.284102    21.950844      9217.08    1911.6636    1733.3701    3691.3543    43.283551   -353.31776   -232.02186   -3864.8201 
16771000    163.57909   -4472.6736   -4192.3046   -4472.6736            0     3373.606    17.848234     23.36702     21.98678    9169.8072    3074.8027    3235.4382    3810.5773   -1118.3638    -383.1135    1037.5636   -3741.1447 
16772000    164.97679    -4451.225   -4168.4604    -4451.225            0    1242.9953    17.947276    23.210657    22.200208    9247.8976    1095.5617    1938.7612    694.66285   -782.49458   -247.34053   -272.70085   -4000.8163 
16773000    153.66502   -4459.3675   -4195.9909   -4459.3675            0    1885.6003    17.963137    23.410392    21.905948    9211.9788    1242.7189     1800.206     2613.876     115.1336    325.66637    778.35649   -3942.6656 
16774000    167.50893   -4427.3256   -4140.2211   -4427.3256            0    3291.8301    18.103446    23.108369    21.848743    9140.2277    1649.1947    4003.5851    4222.7106   -725.54512    303.02577    731.37133   -3701.4173 
16775000    152.76755   -4436.1167   -4174.2783   -4436.1167            0     1821.455    17.960232    23.444225    21.961213    9247.0701    2417.6924    1741.7143    1304.9583   -293.50032    370.09747    498.66674   -3928.6386 
16776000    151.25915   -4418.3785   -4159.1255   -4418.3785            0    3047.5076    17.982878     23.16334    22.117652    9212.9644    3062.0053    3614.5276      2465.99    41.054633    263.22528    657.70808   -3749.6574 
16777000    161.60102   -4441.5564   -4164.5778   -4441.5564            0    2243.3844    17.763058    23.480423    22.033288    9189.7343    2637.2244     2000.344    2092.5849    -29.29093   -101.27463   -18.039243    -3863.913 
16778000    153.82163   -4449.7383   -4186.0933   -4449.7383            0    2428.3056    18.117764    23.212478    21.860405     9193.573    1065.4562    3282.2708    2937.1899   -1044.6153   -121.09908   -36.294043   -3860.5089 
16779000    152.20059   -4462.1237   -4201.2571   -4462.1237            0    1052.6273    18.054307    23.433735    21.906949    9268.3887    898.22262     1114.017    1145.6422   -695.90687     -92.3392   -472.20314   -4058.9735 
16780000    165.55098   -4447.5141   -4163.7653   -4447.5141            0    2624.6313    17.916504    23.247115    22.089171    9200.2949    3536.3068    2856.9891    1480.5979   -39.623301    785.32348   -278.05897   -3811.6005 
16781000    163.49717    -4438.753   -4158.5244    -4438.753            0    1764.4373    17.967193    23.231364    22.097191    9223.4206    1749.1623    3146.5262    397.62339   -79.504293   -295.55741   -368.12026   -3921.1827 
16782000     149.3168   -4426.8588   -4170.9349   -4426.8588            0    1880.8165     17.92555    23.459475    21.912849     9214.879    1647.2606     2293.513    1701.6758    159.34379   -96.173461    -467.6149   -3918.1728 
16783000    156.08215   -4438.2055   -4170.6861   -4438.2055            0    2789.2869     18.04369    23.176688    21.922503    9167.8366    2967.1622    2646.5941    2754.1042    598.16594    463.29436    392.98838   -3797.7487 
16784000    158.36948    -4463.493   -4192.0531    -4463.493            0    3097.8551    17.887533    23.334005    21.910473     9145.164    1809.5088     3006.592    4477.4643   -119.11239    434.15681   -70.312443   -3778.8834 
16785000     144.6713   -4446.6717     -4198.71   -4446.6717            0    1838.5339    18.157235    23.165461    21.941345    9228.9841    1163.3835    3032.2445    1319.9736    3.6386276    -73.64576    147.52613    -3951.252 
16786000    152.77336   -4454.2624   -4192.4141   -4454.2624            0    2275.7506    17.889719    23.477258    21.885275    9191.8495    2000.3176      2391.77    2435.1641    777.90452    46.911499    347.35186   -3887.3414 
16787000    160.24553   -4452.1205   -4177.4651   -4452.1205            0    1628.2452     18.04681    23.340978    21.956689    9248.8204    822.19814    2244.9317    1817.6058   -476.08083   -519.87046    702.02905     -3957.84 
16788000    161.49464    -4454.016   -4177.2197    -4454.016            0    3124.1525    17.901224    23.343205      21.9917    9189.7145    2513.0606    2992.4179    3866.9788     386.7535    176.55906    806.82352   -3758.5128 
16789000    158.36567   -4448.7429   -4177.3096   -4448.7429            0    1506.6372     18.08301    23.239873    21.990534    9241.4527    1553.3531    1880.9463    1085.6122   -329.88003    202.06687     605.6932   -3974.2494 
16790000    150.96863   -4441.4539   -4182.6988   -4441.4539            0    2543.4755     17.91008    23.607192      21.8661    9245.1335    3682.1158    1440.8451    2507.4656   -655.57286    294.19691   -221.79318     -3839.76 
16791000    154.63079   -4450.4836   -4185.4517   -4450.4836            0    2816.2645     18.01327    23.202244    22.055641     9218.117    3427.2951    2027.1863    2994.3119   -224.27357    718.73942    645.57185   -3806.8422 
16792000    158.66895    -4456.782   -4184.8288    -4456.782            0    2181.5288    17.744867    23.558791    22.060639    9222.3978     2390.328    1576.7643     2577.494   -350.05897   -398.00008   -365.51925   -3891.4149 
16793000    165.86931   -4456.2988   -4172.0045   -4456.2988            0    2740.2515    18.114579    23.256203    21.854977    9206.9844    2234.1302    3185.0464     2801.578    13.576774    56.742445     383.9017   -3804.0588 
16794000    160.91238   -4451.2207   -4175.4224   -4451.2207            0    2945.4997    17.877321    23.318194    22.033543    9185.0533    4308.4575    3032.4776     1495.564   -185.98769    537.11404   -84.887242   -3780.8592 
16795000    156.99144   -4477.2956   -4208.2176   -4477.2956            0    2994.2399    17.946276    23.157459    22.064016    9169.5878    3339.2845    2944.9425    2698.4928   -227.56565    967.71598   -181.47268   -3807.8008 
16796000    160.42092   -4443.6609   -4168.7049   -4443.6609            0    3289.8746    17.981326    23.457443     21.75348    9175.5291    2929.0688    2689.4415    4251.1135    52.041746    124.31604   -47.428568   -3728.4681 
16797000     154.0538   -4453.8859   -4189.8429   -4453.8859            0    2292.8131    18.014637    23.382782     21.84044    9199.8996    2150.0551    2815.5078    1912.8766    193.15511    176.21323   -216.56642   -3882.2137 
16798000     151.4828   -4433.8324    -4174.196   -4433.8324            0    3056.7815    17.888531    23.346384    22.023591    9197.7679    3785.6057    2822.4073    2562.3314   -265.22693   -80.970396    334.38853   -3764.1593 
16799000    158.13884   -4442.1346     -4171.09   -4442.1346            0    1244.3556    18.034667    23.258271    22.156571    9293.6883    915.33645    2157.3008    660.42963      648.986   -241.05211   -116.46214   -4002.4314 
16800000    156.73501   -4458.8244    -4190.186   -4458.8244            0    2199.1708    18.068413    23.403554    21.786377    9212.6981    1450.8476    2377.7787    2768.8862    220.16554   -690.40626    64.042415   -3894.7103 
16801000     160.0924   -4440.7823   -4166.3894   -4440.7823            0    1995.7316    17.948873    23.337144    22.046743    9234.8393    2381.0895    2777.8695    828.23577    584.25635   -394.88173   -707.68801   -3897.6029 
16802000     151.2359   -4442.7432   -4183.5301   -4442.7432            0    1446.4466    17.937037    23.345556    22.086858    9248.8744    1720.6494     1858.228    760.46245    725.88738    498.68399   -128.43927   -3988.4256 
16803000    155.89277   -4458.3965   -4191.2016   -4458.3965            0    2158.8903    18.030031    23.471802    21.807159    9228.7314    3344.2409    1519.9066    1612.5235   -629.19644   -41.999441   -410.30417   -3900.6331 
16804000    160.01883   -4438.4724   -4164.2056   -4438.4724            0    2708.1646    17.952132    23.297068    21.923373     9169.057    2800.3056    2195.3021    3128.8861   -548.55629   -191.32342    147.86937   -3802.0664 
16805000    149.57193   -4439.7475   -4183.3863   -4439.7475            0    1264.6269    17.953774    23.588091    21.855112     9255.536    929.70862    114.08049    2750.0916    594.73059    874.00653    39.285864   -4012.6838 
16806000    161.93288    -4436.511   -4158.9636    -4436.511            0    1542.1036    18.084315    23.320813    21.931586    9249.4476     1035.138    2537.9696    1053.2033    6.6133651    275.70611   -221.08742   -3950.9435 
16807000    151.93555   -4441.2312   -4180.8189   -4441.2312            0    1908.7327     17.88558    23.398831     22.08044    9240.7009    1830.8407    1107.6542    2787.7032   -219.07663   -803.45922   -230.20946   -3923.5864 
16808000    153.65054   -4441.6069   -4178.2552   -4441.6069            0    2932.9044    17.939588    23.287759    21.957963    9173.4403    2105.3983    3894.7689    2798.5461    618.73624    609.11842    287.91175   -3785.8759 
16809000    160.90685    -4451.373   -4175.5842    -4451.373            0    2618.7001    17.959887    23.331926    21.911708    9181.8548    1605.1628    3763.1469    2487.7907    30.566127    796.51567    241.09648   -3824.9195 
16810000    154.01583   -4465.3148    -4201.337   -4465.3148            0    1120.5681    18.025627    23.414069    21.912639    9248.3013    1251.9098    -132.4738    2242.2684   -251.80783    290.75641    103.41489   -4050.1981 
16811000    158.26838   -4449.4269   -4178.1603   -4449.4269            0    1706.1661    17.926411    23.297275    22.094625    9227.5223    2985.1066     2430.298   -296.90624   -211.84957   -966.90186   -484.55745   -3948.5548 
16812000    155.77678   -4432.3845   -4165.3885   -4432.3845            0     3345.863    17.875309    23.373601    21.942079    9167.6274    3415.7106     3452.508    3169.3703    782.64923    153.17891    60.911397   -3718.0451 
16813000    161.72438   -4429.6609   -4152.4709   -4429.6609            0    2473.4967    18.273148    23.223102    21.689092    9203.9653    2596.0417    2774.2148    2050.2337   -565.33133    343.39746    32.458279   -3820.4524 
16814000    160.57843    -4457.073    -4181.847    -4457.073            0    1719.0507    17.826701    23.461451    22.061019    9226.8063    1516.7265      2519.83    1120.5957    156.97687    86.510746    474.62167   -3950.5255 
16815000    148.43051   -4451.9092   -4197.5044   -4451.9092            0    2070.9422    17.974824    23.161987    22.084287    9194.4092    2169.7113    3447.6394     595.4758   -1664.4037    389.47644    416.25151   -3919.8096 
16816000    165.97195   -4444.3008   -4159.8306   -4444.3008            0     3195.685    17.913733    23.338278     21.90349     9157.317    3095.0384    3015.2292    3476.7874   -397.89868   -141.59845   -990.44142   -3733.0466 
16817000     150.1265   -4462.8122   -4205.5005   -4462.8122            0    1684.8808    18.010614    23.175012    22.080543    9216.3341    1324.4189    2043.5895    1686.6342    -507.9778   -294.18247    28.623483   -3979.0343 
16818000    159.67384   -4455.7729   -4182.0974   -4455.7729            0    2935.1543    17.899642    23.332831    21.975308    9177.9728    3175.1087    2881.5609    2748.7935   -72.432614    259.70823   -822.85244   -3789.2232 
16819000    152.86831   -4469.8573   -4207.8463   -4469.8573            0    1682.9346    18.130453    23.295609    21.865848    9235.2586    265.57495    2050.1269    2733.1019    191.50392   -150.53074   -418.62377   -3981.1773 
16820000    156.94927   -4448.0186   -4179.0129   -4448.0186            0    2433.9445    17.975197    23.445512    21.872539    9217.9121    2312.8299    1869.3333    3119.6704   -2.8968648    230.17623    406.42115   -3851.8085 
16821000    158.71058   -4455.8292   -4183.8047   -4455.8292            0    1615.1448    18.009947     23.31177    22.003738    9238.1316    1278.5964    2308.3621     1258.476    99.589824   -676.91303    680.93989   -3966.1984 
16822000    169.69138   -4433.1187   -4142.2735   -4433.1187            0     3091.751    17.830544    23.394602    22.006854    9179.9056    4603.9705    2040.3789    2630.9037   -360.84395   -681.25361    375.21416   -3728.3514 
16823000    142.81373   -4446.5163   -4201.7385   -4446.5163            0    2776.0633    18.071874    23.228637    21.910006    9197.4922    3009.6868    1838.5054    3479.9978   -190.24259   -1.1819016    66.809022   -3829.3685 
16824000    158.30902   -4450.0063   -4178.6701   -4450.0063            0    1932.0972    17.865138    23.537308    21.910724    9213.3994    2117.2644    1007.0407    2671.9864    934.21179   -127.66283    19.062535   -3919.0581 
16825000    156.89014   -4453.4254   -4184.5211   -4453.4254            0    1952.2325     18.14292    23.142993    22.034665    9251.9474    1731.3537    2141.4453    1983.8985   -312.19921   -114.29054    -44.36553    -3921.106 
16826000    155.07127   -4451.9128   -4186.1259   -4451.9128            0    1401.4696    17.872905     23.54605    22.071999    9288.6987    1663.4492    1996.5646    544.39517   -1004.6662    346.44637   -4.0523976   -3996.2742 
16827000    158.01513   -4461.4136   -4190.5811   -4461.4136            0    1444.1348    18.054939    23.369218    21.934625    9254.8721    2898.6458    1215.8383    217.92025    403.25202    141.46901    234.01422   -3995.6622 
16828000    165.06754   -4434.9063   -4151.9862   -4434.9063            0     3874.722    17.979704     23.36379    21.794844    9155.4477     3064.939    4925.3869    3633.8399   -403.29755    262.62813    231.49576   -3634.6224 
16829000    157.43349   -4457.8607   -4188.0251   -4457.8607            0    2526.3569    18.022926    23.242526    21.988139    9210.7942    450.60779    3443.7064    3684.7566   -178.84108   -111.18571     320.6752   -3848.6596 
16830000    166.25104   -4441.9974   -4157.0488   -4441.9974            0    874.54314    17.925565        23.45    22.116115    9296.6085    1093.7325    870.64098    659.25597   -263.13826   -715.17577   -72.085727   -4038.4769 
16831000    154.96441   -4443.3699   -4177.7662   -4443.3699            0    3233.5872    17.912521    23.261504    21.986449    9161.1417    4126.8829    2784.0066    2789.8722    -196.8891    107.26336   -370.87007   -3745.7401 
16832000    157.58396   -4460.3806   -4190.2871   -4460.3806            0    3619.8846    18.089456    23.324521    21.701204    9156.3436     2594.516    2288.5035    5976.6344   -760.50852    147.29447   -209.14554   -3706.9026 
16833000    149.23236   -4446.7645   -4190.9854   -4446.7645            0    2335.1618     17.96805    23.357954    21.922423    9200.7725    2729.7027    2390.3675    1885.4153   -620.31628   -133.31137     388.0768   -3877.6444 
16834000    156.83317   -4424.8956   -4156.0889   -4424.8956            0    2371.9722    17.858596    23.272698    22.181341    9218.9583     2472.278    2290.8135     2352.825    498.48025    257.06343    342.37122   -3837.1795 
16835000    157.28597    -4449.642   -4180.0593    -4449.642            0    2719.9941    17.950963    23.358327    21.900983    9183.1799     3025.732    2419.5367    2714.7136    417.64534    456.78688   -195.37186   -3815.7779 
16836000    159.75373   -4454.3063   -4180.4939   -4454.3063            0    1595.4828    18.193918    23.461083    21.645319    9239.2832    1250.2441     732.8798    2803.3246   -77.443751   -573.59089    295.58897   -3965.5098 
16837000    160.53085   -4465.8506   -4190.7063   -4465.8506            0    728.35127     17.94957    23.420154    22.071764    9278.5656   -467.62132      555.888    2096.7871   -351.02062    457.44854    307.76897    -4092.147 
16838000    163.69719   -4441.4075   -4160.8361   -4441.4075            0    1531.0444    18.050465    23.133732    22.125747    9239.1507    1806.8039    2264.2541    522.07515    776.22924   -296.75085   -29.574208   -3954.5377 
16839000    146.69278   -4450.1929   -4198.7664   -4450.1929            0     1591.494    18.042384    23.525383     21.82921    9265.4955     1480.724    1608.1453    1685.6127    209.51259   -570.86361   -97.391258   -3983.7114 
16840000    155.54155   -4448.3719    -4181.779   -4448.3719            0    892.18872    18.010531    23.433079    22.046348    9304.4893    530.95706    1627.8382    517.77093   -162.36839   -27.975704   -470.81626   -4060.7122 
16841000    159.44969   -4471.2023    -4197.911   -4471.2023            0    2040.3927    17.988763    23.319338    22.014615     9234.824    2359.4829    1511.3519    2250.3433   -706.58824   -88.613487    307.28992     -3923.11 
16842000    161.70967   -4445.4859   -4168.3211   -4445.4859            0    1156.8793    17.966309    23.474801    21.946454    9256.0385    1292.4696    1341.3377    836.83067   -1398.2351    117.79707    290.07867   -4012.1541 
16843000    149.56334   -4449.9907   -4193.6443   -4449.9907            0    2507.5508     18.05719    23.446975    21.784437    9223.2361    1193.1926    2167.9989    4161.4609   -349.79969    641.70731    308.11372     -3856.35 
16844000    155.50908   -4451.8213   -4185.2841   -4451.8213            0    2155.5053    17.910043     23.28656    22.089544     9212.738    2776.2751    1417.8162    2272.4247   -17.802105    74.605421   -50.129845    -3895.674 
16845000    165.26401   -4473.3052   -4190.0484   -4473.3052            0    2000.0222    17.802747    23.329435    22.183078    9213.2541    1082.4613     1885.618    3031.9873    150.04153     357.8818   -83.275402   -3921.3137 
16846000    151.51031    -4429.591   -4169.9075    -4429.591            0    3104.2649    18.028837    23.313423    21.813979    9168.7186    2380.1492    3818.7462    3113.8994   -560.73301    121.99014    370.27908   -3754.8165 
16847000    165.69283   -4464.4581   -4180.4663   -4464.4581            0    2194.5651    17.988395    23.462414    21.873774     9231.852    2622.8774    3018.7003     942.1176   -1030.1325   -366.38366    81.227932   -3884.9964 
16848000    153.23033   -4461.3766   -4198.7451   -4461.3766            0    2261.7646     17.92339    23.215871     22.14408    9214.3087      1906.19    3252.9271    1626.1768   -432.31425    389.01308   -166.52747   -3894.8064 
16849000    157.56119   -4446.7738   -4176.7193   -4446.7738            0    2200.1384    18.013564    23.447007    21.888919    9245.0948    2391.6705    265.16002    3943.5847   -101.49172   -89.829398    208.92697   -3880.0741 
16850000    152.67015   -4454.9009   -4193.2295   -4454.9009            0    2090.7322    18.139252     23.41177    21.782721    9250.5114     2635.442    1427.2868    2209.4677   -1077.8509    122.30086    323.24595   -3911.1705 
16851000     150.9023   -4461.0299   -4202.3885   -4461.0299            0    2359.4943    17.954671    23.351146    21.999354    9223.4958    2594.2957    2241.0467    2243.1405     -572.197    89.163966    494.25467   -3885.0006 
16852000     162.2012   -4451.8343    -4173.827   -4451.8343            0    2373.4083     18.02635    23.386347    21.918021    9239.9905    1594.6942    2408.0642    3117.4667   -763.74765    15.402925    380.71615   -3853.9965 
16853000    159.33605   -4445.2915   -4172.1949   -4445.2915            0    1452.7357    18.063273    23.263315    22.055722    9268.0705    740.73702    1702.1348    1915.3352     74.00756   -819.15437    728.77718   -3975.8355 
16854000    148.88987    -4437.067   -4181.8749    -4437.067            0     1790.154    17.916027    23.423512    22.077329    9264.8899    2192.6742    2504.9361     672.8519   -636.51197    458.73904    394.51113   -3939.9912 
16855000    166.49325   -4455.5884   -4170.2247   -4455.5884            0    2114.2339    17.951124    23.367726    21.995377    9226.5537    2080.5016    3562.1316    700.06853    395.56015   -620.99067    412.41406   -3885.7338 
16856000     151.2732   -4460.7684   -4201.4913   -4460.7684            0    1778.6211    18.121508    23.436122    21.707206    9219.0045    2026.7648    1067.1627    2241.9357    335.28892    937.44521   -177.37539   -3962.3561 
16857000    158.03477   -4465.6727   -4194.8065   -4465.6727            0     2418.075    17.971684    23.378859    21.915981    9208.1629    2507.2784    1687.7353    3059.2114    326.65303    293.68628    181.37451   -3870.0793 
16858000    154.32335   -4448.4068   -4183.9019   -4448.4068            0     1181.955    17.984607    23.443761    22.063729    9302.6599    579.77394    603.32105    2362.7701   -47.298542   -69.231267      435.716   -4023.5463 
16859000     156.6101   -4456.8172   -4188.3929   -4456.8172            0    1521.8635    18.141658    23.176344    21.971693    9238.1588    1167.1336    1736.4381    1662.0188     521.8878   -600.21289    238.73477   -3983.3536 
16860000    161.87186   -4465.8034   -4188.3605   -4465.8034            0    2132.4311    17.865644     23.58019    21.926417    9237.0572    710.43449    3098.9102    2587.9486    145.63358    -688.0848    28.875439   -3901.0943 
16861000    162.17187   -4455.7821   -4177.8251   -4455.7821            0    2183.5783    18.022188     23.21545    22.086064    9240.6594     1942.411    2719.9713    1888.3527    380.68686    51.450522    542.95365    -3883.554 
16862000    154.80536   -4443.6337   -4178.3026   -4443.6337            0    3909.6124    17.913828    23.434382    21.752721    9131.7814    3509.6395     4449.548    3769.6497   -53.902711   -563.97908   -669.74884   -3657.6295 
16863000    157.65579   -4456.2722   -4186.0556   -4456.2722            0    2990.0036     18.04519    23.399608    21.768369     9191.702    2322.7153    1988.1926    4659.1031    501.99818   -673.06705    388.95146   -3785.2409 
16864000    163.36001   -4436.0238   -4156.0303   -4436.0238            0    2656.4112    17.812151    23.346603    22.072882    9179.0788    3544.9967    2943.0619    1481.1751   -1015.2515   -246.86936    57.549312   -3800.4233 
16865000    161.80022   -4441.0648   -4163.7448   -4441.0648            0     2079.567    18.005361    23.114205    22.129699    9209.9294    1705.8439    2606.3784    1926.4786   -675.30747   -1021.1996    678.95072   -3884.4228 
16866000    151.88697    -4452.462   -4192.1329    -4452.462            0    2669.5903     17.96228    23.480023    21.739518    9168.7445     2813.345    1191.7994    4003.6265    35.851511    -225.8032    743.00554   -3835.1641 
16867000     152.1456   -4463.8922   -4203.1198   -4463.8922            0    2812.6311    17.980808    23.315887    21.937511    9197.0489    3284.4844    2121.7402    3031.6688   -2.0139594   -88.457155    30.253628   -3825.8629 
16868000    153.28172    -4454.828   -4192.1083    -4454.828            0    908.44681    17.854956    23.380335    22.258794    9292.0414    1275.8156    1471.7493   -22.224416     184.9625   -84.852671    272.04919   -4069.0003 
16869000    160.80883    -4451.433   -4175.8121    -4451.433            0    1454.1421    18.049299    23.313552     21.91805    9222.9684   -50.958956    1692.8465    2720.5388   -364.34025       70.078    809.14253   -3980.2191 
16870000    151.61596   -4448.2433   -4188.3787   -4448.2433            0    2360.2346    18.009224     23.41699     21.81593    9200.2539    1733.3921     2743.896    2603.4156    615.01304   -33.341293    348.41393   -3871.6913 
16871000    157.75885   -4456.5673    -4186.174   -4456.5673            0    2967.6193    17.874111    23.418905    21.867048    9153.3737    2429.7293    3151.2048    3321.9236   -805.57671    35.732678   -230.34695   -3790.0189 
16872000    164.83126   -4448.8317   -4166.3166   -4448.8317            0    1627.4157    18.002885    23.293083    22.024106    9235.6479    865.05623    1131.1584    2886.0325   -35.884092   -476.98454    30.626143   -3947.1159 
16873000    152.39113   -4463.1945   -4202.0013   -4463.1945            0    2307.6826    17.911517    23.392352    21.919645     9184.167     2546.882    2943.9885    1432.1773    567.11089   -162.52254   -690.66619   -3892.9065 
16874000    160.02613   -4442.4222   -4168.1429   -4442.4222            0    2186.8404    18.039979    23.207461    22.040892    9227.6863    3832.9702    1935.6334    791.91751   -909.07076     162.6769    9.1489169   -3873.8459 
16875000    160.13324   -4430.2018   -4155.7389   -4430.2018            0    2203.3352    17.761459    23.581373    22.004936    9216.5385    2149.2911    2399.7907    2060.9238   -368.62356    654.71006   -218.81643   -3859.5804 
16876000    152.85865   -4438.7395    -4176.745   -4438.7395            0    2962.0564    18.072201    23.107206    22.023136    9196.8192    2892.7136    3725.3621    2268.0935    211.43896   -80.314198    484.20073   -3779.4557 
16877000    162.93688   -4455.5421   -4176.2738   -4455.5421            0    1573.1432    17.934559    23.561255    21.883456    9247.0891    1182.5911    442.23457     3094.604    165.41599    136.39195    1.7136942   -3964.1208 
16878000    155.45662   -4451.8127   -4185.3654   -4451.8127            0    1115.2431    18.076714    23.396171    21.937389    9277.8901    1619.3159    27.998241    1698.4151    97.194199   -25.398589   -442.93929   -4034.4635 
16879000    164.67343   -4447.0038   -4164.7592   -4447.0038            0     238.9998    17.933294    23.498869    22.153346    9335.6887    1485.6696    500.78928   -1269.4594    277.99299   -294.10884    -240.9011    -4132.219 
16880000    152.42277   -4461.2855   -4200.0381   -4461.2855            0    2263.2968    18.056625    23.256242    21.947498     9216.396     2889.257    2776.3161    1124.3173    29.773839   -58.524492    48.507463   -3895.8245 
16881000    156.91917   -4469.6181    -4200.664   -4469.6181            0    2056.1791    17.848125    23.604204    21.919295    9234.3965    2806.9497    619.24843    2742.3393   -910.71544    48.469439    571.14164   -3923.7497 
16882000    159.82067   -4438.3454   -4164.4183   -4438.3454            0    2517.8542    17.990553    23.244667    22.058824    9224.6566    2653.2295     2337.592     2562.741   -61.588425   -120.26769    220.25332   -3825.6859 
16883000    149.54441   -4449.4422   -4193.1282   -4449.4422            0    1427.8109    17.869644    23.396428    22.099031    9239.2921    2420.2425     1006.898    856.29207   -415.59961    504.13905   -253.15535    -4000.737 
16884000    155.53754   -4468.7243   -4202.1383   -4468.7243            0    2178.1978    18.027325     23.31161    21.858555    9185.9697    1383.1145    2793.6506    2357.8284    14.863519   -306.13374   -276.05654   -3910.3296 
16885000    148.83037   -4461.9496   -4206.8594   -4461.9496            0    1334.8136    18.044789    23.455977    21.854717    9250.1872    2269.5183    1444.1829    290.73949    881.99861    1036.2393    181.16619   -4026.7871 
16886000    159.55269   -4454.6007   -4181.1328   -4454.6007            0    1938.5774    17.914851     23.42244     22.05238    9253.3885     2671.309    2171.0122    973.41104    369.73331   -39.580161    260.05352   -3919.5195 
16887000     153.7447   -4457.4284   -4193.9152   -4457.4284            0    2424.0216    18.001872    23.235439    21.999877    9202.1394    2117.2821    3142.5347    2012.2481   -636.57375   -439.12813    527.95816   -3868.6024 
16888000    161.89411   -4460.1152   -4182.6343   -4460.1152            0    2164.4881    17.847744    23.403866    22.113632    9237.0011     2814.078    2165.4543    1513.9321    1217.4673    247.53977   -227.94314   -3891.0513 
16889000    146.63839   -4463.4975   -4212.1643   -4463.4975            0    1912.8771     17.98617     23.25834    22.044467    9221.8277    1702.4088    2764.2225    1271.9999   -35.331818    201.20406    460.97259   -3954.8997 
16890000    159.21624   -4457.5789   -4184.6877   -4457.5789            0    1441.0255    17.963552    23.431551    21.985162    9253.8597    1720.4475     1072.564    1530.0651    1044.7101   -150.98787    18.870141   -3990.2098 
16891000    155.46001    -4466.521   -4200.0679    -4466.521            0    3374.7721    18.101017     23.28792    21.753355    9169.8014    3843.4864    2969.3464    3311.4835    174.94817   -297.68391   -412.51047   -3748.7524 
16892000    151.59926   -4453.8846   -4194.0487   -4453.8846            0    2049.7056    17.929003    23.518878    21.884999    9228.2484    1467.8825    1959.3191    2721.9153    484.46428    183.77548    415.88715     -3918.19 
16893000    145.97531   -4441.8179   -4191.6213   -4441.8179            0    1979.1853    18.013221    23.279064    22.000508    9225.4938    1633.4715    1508.7884     2795.296    -1051.908   -205.69975   -104.62646    -3925.333 
16894000    148.04737   -4441.3347   -4187.5865   -4441.3347            0    2298.2006     17.77153     23.67311    21.928399    9225.4391    3070.1598    3099.3861    725.05591     973.9401   -483.20202   -606.98363   -3878.3784 
16895000    160.01831   -4443.7708   -4169.5049   -4443.7708            0    1338.5644    18.060094     23.23449    22.101124    9274.0089    1067.1803    1635.4366    1313.0762    914.88895   -249.56224    493.68981   -3988.4615 
16896000    160.82785   -4468.3534   -4192.6999   -4468.3534            0    3318.7582    17.927407     23.28891    21.926129    9154.3732    2383.0766    3363.9354    4209.2626      530.236    537.66141    528.35048    -3749.622 
16897000    148.71785   -4456.7544   -4201.8571   -4456.7544            0    2611.7155    18.116183    23.037459    21.963989    9166.6888    1929.0523     3757.852    2148.2424   -74.885914   -352.36493    243.49473   -3852.7053 
16898000    152.95089   -4468.2371   -4206.0845   -4468.2371            0    1026.2975    17.794875    23.679585    21.939207    9244.6388    2171.2866    152.68603       754.92   -179.37263   -22.264727   -459.21632   -4067.7154 
16899000    159.24472   -4434.9037   -4161.9637   -4434.9037            0    1151.8792    18.059278    23.349968    22.000505    9277.2516    1372.9915    1050.9277    1031.7183    267.51052     389.8335    317.92714   -4006.1154 
16900000    148.53702   -4441.4691   -4186.8817   -4441.4691            0    2347.9575    17.803143    23.592635     21.94345    9216.7549    2684.1863    2207.3045    2152.3817   -729.30597   -398.34407   -454.62957   -3871.2765 
16901000    160.42357   -4441.3368   -4166.3763   -4441.3368            0    2000.9838    17.975878    23.252857    22.037586    9211.5024     2302.756     2235.402    1464.7934   -325.15573     382.7537   -9.3220435   -3897.5635 
16902000    153.47033   -4467.0961   -4204.0532   -4467.0961            0    1902.3836    17.908553    23.599062    21.911561    9260.3748     3088.389    981.64537    1637.1163    60.662186    432.66489    246.89479   -3947.1305 
16903000    159.07749   -4449.4671   -4176.8137   -4449.4671            0    1578.0766    18.065805    23.318794    21.933456    9239.9683    1321.5361    1617.4444    1795.2493   -44.487523   -535.36681   -201.22332   -3964.1593 
16904000    146.87319   -4446.1421   -4194.4065   -4446.1421            0    1679.8934    18.054089    23.533307    21.706695     9222.576    1275.2172    2164.6709    1599.7922   -516.38213    -156.4714   -587.44541   -3968.4578 
16905000    157.00256   -4455.1479   -4186.0509   -4455.1479            0    1602.1239    18.032096    23.132401    22.068685    9205.4148    1797.3385    2503.9146    505.11862   -175.16969   -417.00531    102.69124   -3970.9633 
16906000    142.20822   -4455.3097   -4211.5697   -4455.3097            0    2387.8956     17.86292    23.416607    22.040066    9219.1169    2005.2428    2712.2224    2446.2217    -25.42469    586.33119    184.60483   -3890.5139 
16907000    148.75557   -4445.0544   -4190.0924   -4445.0544            0    1210.2756    18.246919    22.988953    22.027151    9239.8953    526.86483    2150.6696    953.29233   -658.23974    190.77951    88.080795   -4027.0025 
16908000    157.01891   -4457.2831   -4188.1581   -4457.2831            0    2156.6896    17.797791    23.477471    22.011484    9197.4351    2572.1296    2139.6775    1758.2617   -64.789954    85.403703    115.40694   -3898.8702 
16909000    154.68444   -4451.0498    -4185.926   -4451.0498            0    2993.5464    17.990946    23.223429    21.970392    9179.4819    2901.5011    2300.4455    3778.6926     -261.831   -510.74842   -525.75126     -3785.17 
16910000    166.11712   -4448.5131   -4163.7941   -4448.5131            0    1813.3535     17.93626    23.583782    21.803371    9222.9316    861.48932    899.69588    3678.8753    689.94957   -156.86725   -525.24795   -3919.8853 
16911000    154.82891   -4467.9913   -4202.6198   -4467.9913            0    2913.6733    18.024406    23.258164    21.941242    9198.0885    2391.9472    3987.3728    2361.6998   -1204.2398   -150.00281   -224.65211   -3811.7661 
16912000    152.05365   -4452.2895   -4191.6747   -4452.2895            0    2330.1125    17.901559    23.333958    22.060402    9214.9434     3080.315    2110.7273    1799.2951   -475.57011    -389.2967   -286.81295   -3878.5298 
16913000    155.24634   -4449.6852   -4183.5983   -4449.6852            0    1589.4845    17.920486    23.404668     22.11054    9273.6697    2317.3587    1349.0811    1102.0138    215.37468     -151.728     255.0092   -3968.6254 
16914000    156.22074   -4457.8358   -4190.0788   -4457.8358            0    2259.3184    18.089385    23.348757    21.837691    9223.4691    1694.7303    2028.5493    3054.6755   -223.84989    365.81934    467.58397   -3886.1669 
16915000    154.59609   -4452.1368   -4187.1644   -4452.1368            0    1057.4184    17.904591    23.558651    21.999898    9279.7332    2213.7595   -135.90355    1094.3993   -41.628025    -869.2653    -783.8981   -4044.0582 
16916000    159.79789   -4448.0091   -4174.1209   -4448.0091            0    1214.8743    18.063141     23.27914    22.005737    9253.2888      1603.11    1145.8713    895.64172   -630.42467    47.608106     184.0504    -4010.174 
16917000    148.89614   -4451.9275   -4196.7246   -4451.9275            0    3077.5499    17.856451     23.44426     21.84369    9144.4519    3431.6923    3141.4913     2659.466   -304.94455    477.66676   -262.38779    -3786.295 
16918000    160.80516   -4435.0909   -4159.4763   -4435.0909            0    914.50037    18.192494    23.216416    22.007149    9295.0385    131.79443    1308.1261    1303.5806   -919.04975   -584.76032    588.23722   -4035.5079 
16919000    160.96803   -4435.0315   -4159.1378   -4435.0315            0    2857.0296    17.708034     23.60285    21.979114    9186.3916    3357.0056    3197.2665    2016.8167    659.23795    -663.2725    186.49786   -3776.3698 
16920000    161.13473   -4458.3113   -4182.1319   -4458.3113            0    1208.8722     18.12203    23.214766    22.013731    9261.1481    967.25776    692.48188     1966.877   -123.94268   -97.913668   -539.36984   -4018.8564 
16921000    149.25307   -4439.2804   -4183.4657   -4439.2804            0    1967.1579    17.701432    23.532602    22.134451    9220.3435    2039.4378    1511.0426    2350.9932   -416.87555   -479.25673   -119.03957   -3918.9435 
16922000     153.4211   -4449.8798   -4186.9213   -4449.8798            0    2761.2514    17.967599    23.141404     22.12767    9200.5854    3247.4446     3603.363    1432.9467    94.147947    261.97903   -150.79438   -3816.4136 
16923000    147.17924   -4443.3697   -4191.1095   -4443.3697            0    2164.4705    17.989664    23.472813    21.866437    9233.4972    1291.3831    2604.7566    2597.2719   -251.93892   -171.39784    744.05551   -3899.6395 
16924000    154.83573   -4460.0109   -4194.6277   -4460.0109            0    2606.4547    17.991941    23.346669    21.882873    9191.9423    2961.0892    2223.7103    2634.5647    90.924869   -545.53813   -648.14983   -3845.2193 
16925000    163.60108   -4454.1098   -4173.7031   -4454.1098            0    1867.2176    17.859743    23.530412    21.962137    9229.5245    2375.8203     1979.452    1246.3804    284.61145    108.47208   -599.21118   -3922.3697 
16926000    158.19023   -4458.4074   -4187.2748   -4458.4074            0     1221.761    18.029942    23.209399    22.115126    9254.3865    749.24665    1525.8633     1390.173    -846.7709   -13.267409   -491.03497   -4022.3789 
16927000     165.5557   -4450.6549   -4166.8981   -4450.6549            0    900.22813    17.990158    23.668232    21.901808     9325.685    1155.4278    363.12169    1182.1349    455.49324    426.10234   -5.2552955    -4044.462 
16928000    157.51589   -4438.2627   -4168.2859   -4438.2627            0    2850.0347    18.041136    23.348016    21.828469    9194.6909    3278.5831    2299.8566    2971.6644    76.809055    397.87277    435.96105   -3786.1101 
16929000    152.17008   -4446.4593    -4185.645   -4446.4593            0    2224.7142    17.686003    23.604662    22.019816    9192.6592     2899.752    1529.2349    2245.1557    514.00362   -58.132136   -375.17613   -3887.3876 
16930000    152.27526   -4446.9365   -4185.9419   -4446.9365            0    2286.3142    18.103234    23.100581    22.057353    9224.2797    1614.0714    2747.9441     2496.927    232.74292      323.238   -810.97133   -3878.3717 
16931000    162.35838   -4455.9006   -4177.6239   -4455.9006            0    1982.6992    17.871185    23.552145    21.964412    9244.9253    2280.9308    2534.8362    1132.3306    168.96597   -402.23029   -16.713973    -3910.301 
16932000    155.53061   -4427.2299   -4160.6557   -4427.2299            0    1854.9451    18.237018    23.117136    21.944075    9251.3506    1796.5474    3180.6077    587.68022    683.23479    590.72723   -73.080969   -3910.3838 
16933000    146.72658   -4441.6011   -4190.1167   -4441.6011            0    2442.6953    17.809217    23.471718    22.055113     9219.322    3098.9123    2931.9773    1297.1963     398.3132    438.35429    455.24199   -3861.6857 
16934000    155.19528   -4461.4484    -4195.449   -4461.4484            0    1936.6077    18.080054    23.238956    21.977181    9233.9668    2468.9308     1452.108    1888.7843   -196.88949    76.145493    412.85681   -3934.6501 
16935000    162.16367    -4448.046    -4170.103    -4448.046            0    912.73939    17.978851    23.515787    21.924779    9269.5076    268.89113    409.01149    2060.3156    269.59539   -126.29727   -537.15282   -4046.7132 
16936000    155.42247    -4434.021   -4167.6322    -4434.021            0    1878.6473    18.056369    23.182168    21.998624     9208.311    1875.4333     1833.496    1927.0125   -763.81918    62.083171    295.91994   -3915.3416 
16937000    156.16617   -4455.5194   -4187.8559   -4455.5194            0    1216.9304    17.744157     23.47056     22.16382    9230.4622    2836.8803    289.88321    524.02764   -423.03094    67.989845    103.86886   -4024.0366 
16938000    163.84979   -4446.9657   -4166.1327   -4446.9657            0    1680.9394    18.027325    23.499604    21.859814    9260.5822    2020.7414   -143.10887    3165.1858    189.97394    642.71608   -24.287845   -3939.1116 
16939000    142.85407   -4444.9639   -4200.1169   -4444.9639            0     2120.374    17.958989    23.350836     21.95995    9209.0675    2980.6144    2210.6011    1169.9065    1164.9449    398.85559    369.67864   -3915.3405 
16940000    163.40617   -4437.9622   -4157.8896   -4437.9622            0    1452.7769    17.885758    23.397581    22.140511    9265.4381    2360.1666    794.57085    1203.5932    325.86836    130.94412    26.515985   -3961.5804 
16941000    161.03104   -4451.9844   -4175.9828   -4451.9844            0    966.08272    18.013411    23.395502    21.952646    9251.5649   -284.48095    1617.9136    1564.8155      568.503   -346.54854    711.67287   -4045.6344 
16942000    165.99193   -4458.6512   -4174.1467   -4458.6512            0    2613.1706    17.999539    23.399485    21.740456     9156.644    1832.3324    2705.5065    3301.6729   -393.89559   -64.219956   -970.64738   -3825.1832 
16943000    158.51372   -4449.8212   -4178.1341   -4449.8212            0    2071.2216      18.0283    23.326063    21.877632    9200.1842     1122.478    3789.5629    1301.6239   -752.22362    799.57345    -69.65642   -3900.2274 
16944000    160.77643   -4442.3615   -4166.7962   -4442.3615            0    1196.1919    17.828334     23.46473    22.109752    9249.3285    1187.0569    2104.0402    297.47859      84.8975    202.18583     110.2794   -4005.4396 
16945000    153.17409   -4447.8408   -4185.3057   -4447.8408            0    2363.1188    18.017501    23.146572    22.051605    9196.4758    2597.7059    2124.7059    2366.9447    570.99976    520.48375   -366.76677   -3868.3614 
16946000    157.80822    -4453.248   -4182.7701    -4453.248            0    1731.6369    17.971225    23.594499     21.75985     9226.656    1567.1072     650.1489    2977.6546     234.8803    376.95255   -148.58646   -3949.7588 
16947000    155.45821   -4447.8062   -4181.3561   -4447.8062            0    1937.7953    18.023117    23.438474    21.893369    9248.5113    1547.7438    2835.9165    1429.7254   -163.60001    318.48258   -73.132871   -3919.9862 
16948000    156.92462   -4449.3044    -4180.341   -4449.3044            0    1783.4671     17.93716    23.393758     22.04641     9251.061    2160.3988    1601.1751    1588.8275   -292.12941    97.508495   -577.65094   -3939.7206 
16949000    160.63826   -4446.8111   -4171.4826   -4446.8111            0    1790.3226    17.926384    23.443906    22.042673    9263.7518    1372.1658    1073.1514    2925.6507   -305.23287    607.88138    124.33797   -3929.6059 
16950000    155.38414   -4450.4365   -4184.1134   -4450.4365            0    1441.4401    18.058751    23.361075    21.936718    9254.4839    2481.4203     561.3968    1281.5033    -1255.528     128.2151   -72.399763   -3989.5663 
16951000    159.31708   -4453.1769   -4180.1129   -4453.1769            0    2002.0007    18.126526    23.193975    21.934702    9221.9229    714.19264    2200.8843    3090.9252    259.82497    371.29101   -358.85549   -3910.8592 
16952000    164.04235   -4458.0282   -4176.8653   -4458.0282            0    1818.3644    17.876052    23.559855    21.937591    9239.1741    1723.0836    1011.6181    2720.3914     27.80531   -726.31028    304.49577   -3931.8518 
16953000    147.78196   -4447.8033     -4194.51   -4447.8033            0    1714.0109    18.037147     23.19867    22.074047    9236.6163    1376.2954    1573.4607    2192.2765   -118.71691    726.61468   -225.46803   -3963.6215 
16954000    152.71914   -4457.5442   -4195.7889   -4457.5442            0    1078.4201    17.896548     23.57101    22.021114    9289.3808    1402.6703    537.07641    1295.5136   -464.09206   -417.49319    46.316188   -4049.6887 
16955000    149.23194   -4452.2521   -4196.4736   -4452.2521            0    2200.4064    18.123912     23.21416    21.872913    9202.6211    2103.0414    2417.7288    2080.4489   -330.18629     213.7785   -253.64031   -3901.1554 
16956000    158.71054   -4467.8648   -4195.8403   -4467.8648            0    1398.5634    17.720348    23.645228    22.064797     9245.187    1955.4119    834.53809    1405.7402   -1121.4546    39.446423    405.43881   -4007.2698 
16957000    152.33951   -4447.8404   -4186.7357   -4447.8404            0    1744.2466    18.029172    23.212362     22.06609    9234.6512    1409.0822    1333.7783    2489.8793   -669.90233    373.78889     149.0857   -3951.8242 
16958000    163.62751   -4454.6352   -4174.1833   -4454.6352            0    1795.6608      17.8886    23.486983    21.975588    9233.0266     2640.334    1459.6115     1287.037    -38.27878     934.1579   -869.07688     -3932.39 
16959000    152.40154    -4448.306    -4187.095    -4448.306            0    2300.7207    18.082664     23.28607    21.854397    9202.3223    2143.3212    2188.0726    2570.7683   -171.77057   -20.219556   -272.84004   -3878.3235 
16960000    165.68468   -4451.4008   -4167.4229   -4451.4008            0    1367.1036    17.855541    23.402819    22.169276    9263.8754     1313.698    806.71499    1980.8979   -764.88148    -131.0979    95.865306   -3982.7216 
16961000    160.10301   -4462.5585   -4188.1474   -4462.5585            0    2539.1401    17.959331    23.188987    22.026027    9172.9303    2663.4587    2429.5368    2524.4247   -611.87001    224.12181    108.02169   -3848.4669 
16962000    153.32069   -4446.0764     -4183.29   -4446.0764            0    1584.5998    18.002619    23.414608    21.973955    9262.5547     2906.123    924.58425    923.09199   -873.77498    34.207631   -237.83011   -3969.2346 
16963000    162.26965   -4449.4025   -4171.2778   -4449.4025            0    2180.6009    17.948747    23.411185    21.922436    9211.8392    2523.3129    1265.3441    2753.1456    112.73505    3.4393378    346.39129   -3878.3245 
16964000    156.26101   -4455.5679   -4187.7419   -4455.5679            0    2164.4364    18.124342    23.171366    21.946259    9216.6772    2183.3676    1749.5955    2560.3461    115.42413    242.22331   -264.93313   -3896.8075 
16965000    151.28569   -4476.1922   -4216.8937   -4476.1922            0    2614.2981    17.854635    23.483749    21.940452    9199.4946    2602.4088    1265.3019    3975.1835    -52.50874    683.99846   -682.14349   -3866.1459 
16966000    153.68025   -4456.2415   -4192.8389   -4456.2415            0    1902.6782    18.039281    23.204913    22.005341    9211.4345    1928.4984    3209.2759    570.26018   -1431.7144   -474.67031    216.59984   -3937.2344 
16967000    153.91201   -4464.8163   -4201.0164   -4464.8163            0    1442.5274    17.892755    23.517534    21.963723    9242.1914    1911.5029    2144.7129    271.36657   -141.95199    243.06014    206.13654   -4006.5812 
16968000    154.83684   -4444.9623   -4179.5773   -4444.9623            0     1865.834    18.060704     23.17671    22.066591    9236.8036    1327.6524    2715.9038    1553.9458   -563.25087    490.58415   -468.09687   -3928.2321 
16969000    154.27933   -4438.2466   -4173.8171   -4438.2466            0    1788.8663    17.789062    23.767414     21.84712    9236.9624    1146.1932    1800.1247    2420.2811   -696.07279    64.058103    770.98656    -3932.836 
16970000     156.8811   -4468.4549   -4199.5661   -4468.4549            0    1674.4483    18.091504    23.273587    22.004092    9264.9152    1657.9703    1730.3313    1635.0434   -391.78688    57.968188    39.284074   -3973.3158 
16971000     155.4101   -4454.2664   -4187.8988   -4454.2664            0    1217.0633     17.94226    23.632207    21.861352    9269.5452    2021.3094    115.74304    1514.1375    62.809822   -12.515301   -120.11226   -4023.3679 
16972000    158.11235   -4466.6622   -4195.6631   -4466.6622            0    2445.9925    17.954066     23.25998     21.98926    9182.9612    2475.6701    2899.4656    1962.8418   -352.43743    -5.223971   -16.735017   -3868.0858 
16973000    149.55199   -4446.1463   -4189.8193   -4446.1463            0    1766.6253    17.914312     23.42699    22.025877    9243.7851    2893.7536    461.15541    1944.9669   -682.02315    504.17974   -580.35346   -3951.6586 
16974000    154.62381   -4446.4922   -4181.4722   -4446.4922            0    1665.8354    18.032546    23.310283      22.0408    9264.7123    1757.0826    1561.1307     1679.293   -173.35828   -397.52627   -569.88592   -3956.3907 
16975000    155.20163   -4455.8576   -4189.8473   -4455.8576            0    3819.0179    18.062488    23.336729    21.685106    9140.6925    3053.5211    3359.2483    5044.2842     367.5784   -251.02044   -516.26909   -3680.7431 
16976000    156.36613   -4447.5732    -4179.567   -4447.5732            0    2281.4042    17.923068    23.460155     21.95284    9230.6852    3071.8527     1950.564     1821.796    282.07875   -216.63693   -117.72937   -3872.4442 
16977000    168.14486   -4433.9273   -4145.7328   -4433.9273            0    2101.0549    17.981435    23.245667    22.124721    9247.9223    3082.5865    1933.2563     1287.322   -539.74901    482.38437     607.8935   -3862.3605 
16978000    161.35094     -4440.82     -4164.27     -4440.82            0    2312.4716    17.751227    23.549572    22.013023    9202.1875    3848.6291    1013.2567    2075.5291    234.81462     225.1797    303.10077    -3853.926 
16979000    162.97758   -4454.9122   -4175.5742   -4454.9122            0    1878.7603    18.116557    23.219488    21.919146     9220.446     1704.616    1755.2894    2176.3755    404.10537    602.67163    729.35703   -3922.9359 
16980000    163.18334   -4441.5274   -4161.8368   -4441.5274            0    239.32421    17.882288    23.647227    22.046016    9322.5224   -218.17683    621.27675    314.87273   -218.26454   -456.59138   -345.81519   -4129.2984 
16981000     166.0976   -4453.6898   -4169.0042   -4453.6898            0    3426.5047    17.998957    23.210794    21.967522    9177.3738    3350.8823    4446.2819    2482.3501   -559.95761   -77.680772   -271.00338   -3710.3919 
16982000    160.58392   -4455.3184    -4180.083   -4455.3184            0    1770.5816    17.909111    23.487123     21.96586    9239.5764    1791.4159    1148.8854    2371.4435   -411.58752    411.85584    210.24237   -3941.4976 
16983000    157.93597   -4463.5134   -4192.8166   -4463.5134            0    2238.4126    17.959971    23.232456    22.090773    9217.4686    1718.5325    2153.8684    2842.8369     5.120809    -504.5444   -84.739576   -3891.9127 
16984000    156.36448    -4433.573   -4165.5696    -4433.573            0    3552.4518    17.981279     23.40603    21.730297    9145.6378     4389.884    2282.4975     3984.974   -727.94401    -403.7428   -30.846333   -3691.7445 
16985000    152.91497   -4457.2063   -4195.1152   -4457.2063            0    2336.1859    18.000137    23.461189    21.817421    9213.5978     1789.578    1935.1353    3283.8443     157.4675   -356.62058    36.112772   -3881.1999 
16986000    158.80277   -4456.0759   -4183.8934   -4456.0759            0     3175.546    17.806511    23.281225    22.067487    9148.2398    3764.3836    4012.1287    1750.1255   -617.68421    236.29648   -78.334746   -3760.2193 
16987000    159.26426   -4459.6275    -4186.654   -4459.6275            0    809.29116    18.038135    23.526763    21.910442    9298.3302    1589.8013    162.13281    675.93933    -578.5571   -444.91331    126.89516   -4076.9088 
16988000    162.62553   -4452.5201   -4173.7855   -4452.5201            0     1076.473    18.126177    23.381378    21.907349    9284.6627   -361.22254    1092.9426     2497.699   -69.556475   -346.20411    260.27264   -4028.0232 
16989000    155.21879   -4443.2613   -4177.2216   -4443.2613            0    1657.7233    17.937065    23.264125    22.117477    9229.4044    1209.5679    1802.9004    1960.7015    530.82941   -243.05956   -72.564719   -3954.0897 
16990000    147.52593   -4432.0079   -4179.1535   -4432.0079            0    1785.1573    17.972276    23.270839    22.010301    9205.3672    2122.2751    1491.1975    1741.9992    303.48967   -62.251138    26.575113   -3939.4946 
16991000    157.07924   -4459.7129   -4190.4844   -4459.7129            0    1960.8525     17.93449    23.343468    21.959835    9193.5553    1882.3541    2077.5865    1922.6169    352.82279   -66.659698    648.62601   -3927.5761 
16992000    170.23202   -4470.8437   -4179.0718   -4470.8437            0    3400.8694    17.841841    23.394009    21.921483    9149.8557    3404.6567    3224.2775     3573.674    120.89697   -172.01704   -14.025229   -3725.2555 
16993000    163.23455   -4445.3218   -4165.5434   -4445.3218            0    1551.8536    17.857227    23.443894    22.077935    9242.7712    1534.2187    1341.4455    1779.8967   -56.503743   -10.776756    120.22543   -3956.3592 
16994000     160.5419   -4448.7077   -4173.5444   -4448.7077            0    1886.2538    18.100629    23.319918    21.850496    9223.2077    1028.5916    1485.3552    3144.8148    689.07998    180.72955   -187.59882   -3919.8224 
16995000    165.84058   -4446.4338   -4162.1887   -4446.4338            0    3189.0144    17.946962    23.401127    21.907995    9200.9008    3436.4754    3213.4513    2917.1167   -52.307669   -616.76517    336.92217   -3734.2686 
16996000    157.97127   -4454.0674     -4183.31   -4454.0674            0    1627.8813    17.890832    23.270672     22.14174     9218.308    1167.1694    1827.7421    1888.7323   -791.47122    -35.23213    90.169595   -3964.4584 
16997000    151.72702   -4444.4509    -4184.396   -4444.4509            0    1884.1794    17.913187    23.345373    22.039024    9216.5002    1285.7948     1818.081    2548.6624    137.84229     58.02528    417.85444   -3931.1374 
16998000    160.77724   -4444.8865   -4169.3198   -4444.8865            0    1408.1295    18.122022    23.419918    21.855698    9275.9136    450.75958    2455.6506    1317.9782    -112.3657    559.37681    292.61997   -3978.8285 
16999000    149.92707   -4456.8405   -4199.8706   -4456.8405            0    1320.3925    17.932669    23.544427    21.954421    9269.4731    2144.7862   -120.58127    1936.9726   -449.78818    254.77048    249.15484   -4021.3724 
17000000    164.08366   -4437.2934   -4156.0597   -4437.2934            0    2321.5672      18.0378    23.152904    21.957741    9170.1556    1961.8941    2601.7053    2401.1022    928.45643   -477.86905    459.29933   -3845.5795 
Loop time of 439.548 on 64 procs for 250000 steps with 864 atoms

Performance: 98.283 ns/day, 0.244 hours/ns, 568.766 timesteps/s
192.2% CPU use with 32 MPI tasks x 2 OpenMP threads

MPI task timing breakdown:
Section |  min time  |  avg time  |  max time  |%varavg| %total
---------------------------------------------------------------
Pair    | 17.406     | 25.437     | 35.08      | 108.7 |  5.79
Bond    | 0.78615    | 1.0706     | 1.9772     |  19.9 |  0.24
Kspace  | 223.33     | 233.14     | 247.79     |  41.8 | 53.04
Neigh   | 1.0137     | 1.075      | 1.1811     |   4.4 |  0.24
Comm    | 65.357     | 71.703     | 76.392     |  33.5 | 16.31
Output  | 0.60339    | 0.60476    | 0.60659    |   0.1 |  0.14
Modify  | 77.488     | 80.855     | 86.845     |  22.8 | 18.40
Other   |            | 25.67      |            |       |  5.84

Nlocal:        27.0000 ave          38 max          17 min
Histogram: 3 4 7 2 1 4 2 1 1 7
Nghost:        2152.88 ave        2265 max        2033 min
Histogram: 6 2 8 0 0 0 0 3 5 8
Neighs:        6629.03 ave        9474 max        4142 min
Histogram: 1 7 5 4 0 6 1 1 3 4

Total # of neighbors = 212129
Ave neighs/atom = 245.51968
Ave special neighs/atom = 2.0000000
Neighbor list builds = 3377
Dangerous builds = 0

unfix		3
unfix		2
unfix		1

write_data	data.final.${pid} nocoeff
write_data	data.final.1 nocoeff
System init for write_data ...
PPPM initialization ...
  extracting TIP4P info from pair style
  using 12-bit tables for long-range coulomb (../kspace.cpp:340)
  G vector (1/distance) = 0.37207227
  grid = 24 27 25
  stencil order = 5
  estimated absolute RMS force accuracy = 0.003113877
  estimated relative force accuracy = 9.3773481e-06
  using double precision FFTW3
  3d grid and FFT values/proc = 4410 672
Last active /omp style is kspace_style pppm/tip4p/omp

write_restart   restart.lmp.${pid}
write_restart   restart.lmp.1
System init for write_restart ...
PPPM initialization ...
  extracting TIP4P info from pair style
  using 12-bit tables for long-range coulomb (../kspace.cpp:340)
  G vector (1/distance) = 0.37207227
  grid = 24 27 25
  stencil order = 5
  estimated absolute RMS force accuracy = 0.003113877
  estimated relative force accuracy = 9.3773481e-06
  using double precision FFTW3
  3d grid and FFT values/proc = 4410 672
Last active /omp style is kspace_style pppm/tip4p/omp
Total wall time: 0:07:19
