LAMMPS data file via write_data, version 30 Jul 2021, timestep = 25250000

1296 atoms
2 atom types
864 bonds
1 bond types
432 angles
1 angle types

-10.626307659040698 12.606307659040699 xlo xhi
-9.209703892841736 12.199701892841736 ylo yhi
0.08331662128137474 21.77668237872011 zlo zhi
-9.109000802697555 1.8654617152007367 2.9217720955006543 xy xz yz

Masses

1 1.008
2 15.999

Pair Coeffs # lj/cut/tip4p/long/omp

1 0 0
2 0.21084 3.1668

Bond Coeffs # harmonic/omp

1 450 0.9572

Angle Coeffs # harmonic/omp

1 55 104.52

Atoms # full

280 94 2 -1.1794 -9.67075719971562 -4.6233650650344424 1.285829601487846 1 1 0
270 90 1 0.5897 -8.497030620086733 -7.48178974785011 2.062875920972421 1 1 0
269 90 1 0.5897 -9.31262894939102 -6.212905063124588 2.192138895752368 1 1 0
268 90 2 -1.1794 -9.197105556427239 -7.081162005140767 2.578207692820972 1 1 0
314 105 1 0.5897 -8.875981126554814 -6.707215931155183 4.514705386356325 1 1 0
299 100 1 0.5897 -6.477245417287096 -7.896332080437043 4.147464685121119 1 1 0
163 55 2 -1.1794 -7.139205122675108 -8.028510154223195 0.9582182163245417 1 1 0
164 55 1 0.5897 -6.315974411409801 -8.446032993947318 1.2117950952800653 1 1 0
298 100 2 -1.1794 -5.8773854007612165 -7.177712155129502 4.347121486465997 1 1 0
73 25 2 -1.1794 -8.245132936964602 -3.5617669365432443 5.053679395339514 1 0 0
324 108 1 0.5897 -6.929632026816032 -4.270561424176641 3.867878658313192 1 1 0
107 36 1 0.5897 -9.110232090171563 1.6920611126505776 3.588216580898075 1 0 0
282 94 1 0.5897 -10.551139144876762 -4.250226104355704 1.3306296587428152 1 1 0
84 28 1 0.5897 -8.150283233157918 -0.4175865908454881 4.241311067067999 1 0 0
75 25 1 0.5897 -8.95118242794389 -3.1757780867317793 4.53520662653169 1 0 0
281 94 1 0.5897 -9.088407022754755 -3.887810650337869 1.4754163581775446 1 1 0
301 101 2 -1.1794 -7.945745330648724 -2.3398667843419654 1.490297141408437 1 1 0
53 18 1 0.5897 -12.251070877705079 0.9666682950397085 2.1305021549403076 1 0 0
310 104 2 -1.1794 -3.4529120922959295 -8.347749702921318 3.7606656787158173 1 1 0
260 87 1 0.5897 -6.922455381585294 -6.19029446615423 0.4278654304636001 1 1 0
322 108 2 -1.1794 -6.492149413666027 -4.752173748865993 3.165930591196084 1 1 0
300 100 1 0.5897 -5.004973084690847 -7.552815350486306 4.226765307739385 1 1 0
259 87 2 -1.1794 -6.805555564162932 -5.240999847185435 0.39091915064053756 1 1 0
256 86 2 -1.1794 -12.170233342143927 -3.252756650519351 1.7144214831529943 1 1 0
258 86 1 0.5897 -12.638108425037515 -2.7185011896320646 1.0725908249762293 1 1 0
307 103 2 -1.1794 -2.5753101422102667 -0.8456629991720526 0.8321417190399335 1 1 0
90 30 1 0.5897 -3.8141444056443037 -0.35892198690049426 2.2468014785205566 1 0 0
69 23 1 0.5897 -11.008915693328788 -2.8669567763184265 3.0759748595226593 1 0 0
272 91 1 0.5897 -9.239120053520498 -1.2410835778210547 1.0535592372453864 1 1 0
83 28 1 0.5897 -9.621948419211616 -0.7496101779130733 4.1152890792145005 1 0 0
82 28 2 -1.1794 -9.0211582839715 -0.021560614752759832 4.273807340512076 1 0 0
271 91 2 -1.1794 -10.0894247921995 -0.8731247567401557 0.8128939027923295 1 1 0
98 33 1 0.5897 -12.036209356562594 0.5300498599837002 4.437386086739697 1 0 0
54 18 1 0.5897 -11.336107130837123 -0.23645807608204983 2.044745015631297 1 0 0
67 23 2 -1.1794 -10.552929242413617 -2.702851607476598 3.901343642624171 1 0 0
68 23 1 0.5897 -11.241701789057895 -2.729976270804004 4.565418552975819 1 0 0
52 18 2 -1.1794 -11.966717276676228 0.19536661332247718 2.620942095975585 1 0 0
261 87 1 0.5897 -6.761538711509771 -4.968873777002809 1.3074401689419375 1 1 0
323 108 1 0.5897 -6.351553221439137 -5.627525796410733 3.5268445123989 1 1 0
317 106 1 0.5897 -1.3813823040916624 -3.757833922278385 1.4209693273590904 1 1 0
25 9 2 -1.1794 -4.064662791251431 0.8421628574986872 5.349671528033706 0 0 0
103 35 2 -1.1794 -2.8927322766123105 -2.1174012656365537 4.064969977318906 1 0 0
275 92 1 0.5897 -10.490156723588912 -8.112700803358726 3.2492596833278617 1 1 0
243 81 1 0.5897 -1.0194553865240845 -5.340516179897023 5.271588422174334 0 1 0
3 1 1 0.5897 -1.4800682070022582 -3.2083018804579986 4.450239567886646 0 0 0
88 30 2 -1.1794 -4.508251946886265 0.03418652849433634 2.7758053646016987 1 0 0
302 101 1 0.5897 -7.588359865325536 -2.023810420521305 2.3200093548617104 1 1 0
1010 337 1 0.5897 -12.958935234707514 1.3608657078542716 0.09610398056553895 0 -1 1
306 102 1 0.5897 -0.6129560185814675 -7.3667820264527935 2.190246792978325 1 1 0
304 102 2 -1.1794 -1.25052235085918 -6.8845685859608485 2.716685333043727 1 1 0
318 106 1 0.5897 -2.792851225829528 -4.169143643007457 1.7821288180023727 1 1 0
242 81 1 0.5897 -1.2630307544889252 -6.669872361794623 4.589697189893414 0 1 0
305 102 1 0.5897 -1.2266491821548087 -5.994092421513615 2.3663574234436524 1 1 0
316 106 2 -1.1794 -1.935373323064601 -4.527232702430601 1.5524061734145032 1 1 0
311 104 1 0.5897 -2.782452907230792 -7.828423837358475 3.3168558029615873 1 1 0
293 98 1 0.5897 -5.165969224146247 -3.7108806484064782 2.4149876800824055 1 1 0
303 101 1 0.5897 -7.26146298241599 -2.1530186408150147 0.8476449546752809 1 1 0
294 98 1 0.5897 -4.840050609908219 -2.6326478386012973 1.4035410197995404 1 1 0
315 105 1 0.5897 -8.69808828642633 -5.462415266588851 5.357471333614503 1 1 0
96 32 1 0.5897 -6.240711471321923 -1.8277213430467167 4.382962117823167 1 0 0
95 32 1 0.5897 -5.9542064219325805 -0.7678760472007671 3.3406206995105054 1 0 0
105 35 1 0.5897 -3.4336097332572297 -2.3908223721938864 3.3241728522970937 1 0 0
94 32 2 -1.1794 -6.644590602077412 -1.3495640301352818 3.6587350380392825 1 0 0
104 35 1 0.5897 -3.4560195856099565 -2.2354609441607014 4.829747794451348 1 0 0
26 9 1 0.5897 -4.115307555589335 0.5682888771216685 4.434010331367094 0 0 0
292 98 2 -1.1794 -4.430859857477145 -3.2658809434853344 1.9933526748079977 1 1 0
89 30 1 0.5897 -4.6793449790719865 0.878411695951014 2.358320844824317 1 0 0
99 33 1 0.5897 -11.719799837588194 1.7062229449121276 5.33621301707466 1 0 0
59 20 1 0.5897 -13.530881882368739 -0.8608350854889153 3.3075175226809796 1 0 0
44 15 1 0.5897 -9.922851390574913 0.9649102894280475 0.4098644268910667 1 0 0
97 33 2 -1.1794 -12.009199750917892 0.7940949637893002 5.356926424421111 1 0 0
1 1 2 -1.1794 -0.745716568607584 -3.698804001191447 4.819657931637125 0 0 0
27 9 1 0.5897 -3.903167949541296 1.7847593792590448 5.309565765261317 0 0 0
241 81 2 -1.1794 -1.215045660699774 -6.259752539092651 5.453118712315765 0 1 0
273 91 1 0.5897 -10.406027526916994 -1.4402573234049667 0.10994166044822808 1 1 0
313 105 2 -1.1794 -8.801112973400022 -6.411846186125787 5.421977362619018 1 1 0
309 103 1 0.5897 -2.8809658547900314 -1.3811424615341235 0.10012155113106733 1 1 0
165 55 1 0.5897 -7.413341674257316 -8.497429110173577 0.17020429174505627 1 1 0
1046 349 1 0.5897 -5.1170693739024955 1.4131179673586498 0.15018596700765724 0 -1 1
201 67 1 0.5897 0.3045642321387483 -8.60110271004675 0.29393345932065684 1 1 0
420 140 1 0.5897 -8.94174930470287 -6.365634708323591 9.841912243537108 1 0 0
618 206 1 0.5897 -7.836043781662793 -7.272562668914544 6.736740105762701 1 1 0
413 138 1 0.5897 -7.394709762551567 -3.4142120989707987 7.917008506208559 1 0 0
419 140 1 0.5897 -8.69467935909008 -5.258973773542813 8.838860211277177 1 0 0
418 140 2 -1.1794 -9.39490686583349 -5.714719440352421 9.305935866609557 1 0 0
414 138 1 0.5897 -6.709242000877186 -4.709945817422188 7.538810970769551 1 0 0
350 117 1 0.5897 -7.211081687650555 -4.201250893323078 9.894729826249407 0 0 0
412 138 2 -1.1794 -7.343468787808984 -4.340431383663214 8.153095889449622 1 0 0
429 143 1 0.5897 -6.472875426928309 -6.983469800015209 8.89094117390639 1 0 0
427 143 2 -1.1794 -5.936209188418651 -6.902771556792393 9.679358955011233 1 0 0
428 143 1 0.5897 -6.5479009002644855 -7.0455538651198815 10.401563615755878 1 0 0
442 148 2 -1.1794 -7.376504653556401 2.655699533388262 9.474949365553362 0 0 0
616 206 2 -1.1794 -7.424987354180931 -7.805696919850522 7.417237276638395 1 1 0
330 110 1 0.5897 -3.2014064465588934 -0.3352181321433463 6.6664443840066445 0 0 0
435 145 1 0.5897 -7.706684347290411 -0.8060493860080253 10.040920766748709 0 0 0
425 142 1 0.5897 -7.278273543626727 -1.0956237013603776 7.01393745515856 1 0 0
400 134 2 -1.1794 -10.467737269455762 -0.6472681880232365 7.280228151009848 1 0 0
536 179 1 0.5897 -9.536838386430862 0.079188270037994 10.081581722706309 1 0 0
402 134 1 0.5897 -10.881732552302424 -0.19538598945194963 6.544930785797116 1 0 0
526 176 2 -1.1794 -12.56624285775493 1.2458560460191421 9.36276744556758 1 0 0
405 135 1 0.5897 -5.314086529680405 -2.3723314832475726 6.59024380500104 1 0 0
537 179 1 0.5897 -9.42433078252773 0.1889689006780806 8.576003946621844 1 0 0
426 142 1 0.5897 -8.757746630370434 -1.3611253754379629 7.194429945640742 1 0 0
401 134 1 0.5897 -11.186008090760268 -1.1079110538062782 7.7139034526159 1 0 0
527 176 1 0.5897 -11.877764475263097 1.7582999410046156 8.938990358242211 1 0 0
535 179 2 -1.1794 -8.922337960747335 0.3034732953414707 9.382847736164377 1 0 0
424 142 2 -1.1794 -7.922208302825272 -1.803172652869236 7.043564499776161 1 0 0
528 176 1 0.5897 -12.097993532954204 0.6623597903165237 9.959907965530514 1 0 0
411 137 1 0.5897 -13.396740537986123 0.5235029165493277 6.340631796054964 1 0 0
337 113 2 -1.1794 -6.386549210889876 0.4296749490470617 6.939946697246492 0 0 0
633 211 1 0.5897 -5.816330547326544 -6.013109805846135 5.688435827674924 1 1 0
631 211 2 -1.1794 -5.537312314542321 -5.395919280371439 6.364633997411273 1 1 0
415 139 2 -1.1794 -8.639905257553032 1.7955107079020962 6.35959132054441 1 0 0
329 110 1 0.5897 -3.5884533878425566 -1.228925702332373 7.825432008907072 0 0 0
454 152 2 -1.1794 -4.9153536861853135 1.3064329775133796 9.17883062665474 0 0 0
335 112 1 0.5897 -4.894264499687642 -5.456354911135391 9.736856245939611 0 0 0
433 145 2 -1.1794 -6.976495813168716 -1.2201831760656878 10.500963224354344 0 0 0
626 209 1 0.5897 -10.449421974611429 -6.453517961878902 7.897729501398424 1 1 0
627 209 1 0.5897 -10.307456074049663 -6.803386136593634 6.431864229817923 1 1 0
555 185 1 0.5897 -2.7672792876248966 -6.840722476627198 6.346523543538366 0 1 0
416 139 1 0.5897 -7.772169185581891 1.5673146936835973 6.693166145611848 1 0 0
347 116 1 0.5897 -1.3250353361143965 -5.5656600303880515 8.728878181079263 0 0 0
348 116 1 0.5897 -1.4348022726158511 -6.491106205788845 9.921903992579288 0 0 0
336 112 1 0.5897 -3.439049245007358 -5.040957348972091 9.695808838879048 0 0 0
359 120 1 0.5897 -4.9274170682163465 -2.989225177424263 8.7878897610154 0 0 0
346 116 2 -1.1794 -1.9636561199176352 -5.98106821607436 9.308331747100906 0 0 0
632 211 1 0.5897 -4.712043054549475 -5.75459252052136 6.691151742956683 1 1 0
546 182 1 0.5897 -0.0465222293578158 -7.211962197587972 6.411787210156006 0 1 0
553 185 2 -1.1794 -3.399320121123546 -6.791594913233144 7.063624712874429 0 1 0
554 185 1 0.5897 -2.86877247686958 -6.60797237428578 7.838803785738931 0 1 0
334 112 2 -1.1794 -4.328224439048438 -4.689353800292789 9.650433031315332 0 0 0
522 174 1 0.5897 -9.890554373713284 2.357905045517658 7.5853342064075635 1 0 0
338 113 1 0.5897 -6.037196209465325 0.6195982057134426 7.81054013693074 0 0 0
356 119 1 0.5897 1.0860249922728276 -7.179709044256311 9.989953020138046 0 0 0
456 152 1 0.5897 -4.535605031531376 0.7616645312122721 9.868240210524577 0 0 0
360 120 1 0.5897 -5.661796874795659 -1.7010595904995283 9.093176453078316 0 0 0
328 110 2 -1.1794 -2.8333695632375946 -0.9334715231039059 7.316770684033021 0 0 0
339 113 1 0.5897 -5.6250086151576655 0.4711178294454772 6.36158536793657 0 0 0
455 152 1 0.5897 -4.159969861411878 1.6669085847269116 8.714460734655864 0 0 0
544 182 2 -1.1794 0.3696419386822587 -7.869281719965738 6.969498150207353 0 1 0
444 148 1 0.5897 -6.531781417924767 2.221238813953711 9.356683745232035 0 0 0
358 120 2 -1.1794 -5.034179053513649 -2.0881798305964265 8.482958693517993 0 0 0
443 148 1 0.5897 -8.004312330436626 1.938971065599036 9.566208443658278 0 0 0
354 118 1 0.5897 -1.2023263142365508 -1.812690563393133 7.191928905083073 0 0 0
351 117 1 0.5897 -7.17109090433353 -2.9661677595703084 10.7690198879123 0 0 0
464 155 1 0.5897 -1.8207158013730211 0.08998583566065932 10.102431669676413 0 0 0
403 135 2 -1.1794 -5.164267709058759 -2.6576923391818337 5.689059707724648 1 0 0
417 139 1 0.5897 -8.808538060157726 1.1531892790395517 5.670399860300684 1 0 0
404 135 1 0.5897 -5.196262976020094 -3.6133967353218113 5.731558986193127 1 0 0
340 114 2 -1.1794 0.1790481534830608 -4.699118935156857 8.063480124688333 0 0 0
410 137 1 0.5897 -13.681089281699212 0.7067497845422803 7.816083353795898 1 0 0
641 214 1 0.5897 -4.489935427587023 -8.249985277865493 6.976524840424513 1 1 0
349 117 2 -1.1794 -7.269647959557236 -3.917499665570661 10.806901961477761 0 0 0
74 25 1 0.5897 -8.133785040406604 -2.9621895559861615 5.791319733424288 1 0 0
652 218 2 -1.1794 -5.606214976892987 -5.274111511233748 12.583227193416379 0 0 0
780 260 1 0.5897 -7.451203900231522 -4.130619715909813 15.166226242577475 0 0 0
779 260 1 0.5897 -7.139148035715239 -3.067503757309341 14.134610529944986 0 0 0
778 260 2 -1.1794 -7.85502449691547 -3.4264749739309615 14.658863172760087 0 0 0
768 256 1 0.5897 -9.386786422735405 -2.4776467465043384 15.067131790547545 0 0 0
654 218 1 0.5897 -6.099866477767504 -4.714866369013159 11.983351795042642 0 0 0
653 218 1 0.5897 -6.276348421661187 -5.737036457878492 13.086014552244333 0 0 0
662 221 1 0.5897 -8.992512409663577 -4.097413329271159 13.340182030846774 0 0 0
661 221 2 -1.1794 -9.360272931337537 -4.473478779662558 12.540581311644338 0 0 0
663 221 1 0.5897 -8.663371042774083 -4.383621533952299 11.890654324969438 0 0 0
684 228 1 0.5897 -8.456193853800762 -6.5504897023495605 14.300186596731153 0 0 0
682 228 2 -1.1794 -7.693991442062081 -6.835469237260528 13.796189330138938 0 0 0
819 273 1 0.5897 -5.362563442670817 -0.546626670167857 16.147878111736503 0 0 0
770 257 1 0.5897 -11.799098527626821 2.9347292109433507 13.170967601624884 0 0 0
767 256 1 0.5897 -10.828786348945611 -2.9356881361185314 15.014993540377866 0 0 0
434 145 1 0.5897 -6.699991820082698 -0.5700188376725048 11.146604427415241 0 0 0
766 256 2 -1.1794 -10.284066592267074 -2.1486540802963567 15.012606503120768 0 0 0
729 243 1 0.5897 -8.101560016373732 -7.156426126207835 12.047184970347208 1 0 0
797 266 1 0.5897 -1.7686993057685854 1.460880380285035 13.089247560974611 0 0 0
790 264 2 -1.1794 -10.798783850971569 0.3607046243174832 13.913958853611286 0 0 0
762 254 1 0.5897 -9.074073076670516 2.13226218999152 11.961296802398769 0 0 0
761 254 1 0.5897 -9.47625865637499 1.2211474881889934 13.101422549696048 0 0 0
807 269 1 0.5897 -4.059471340844441 2.9342523505027334 11.774730505401001 0 0 0
792 264 1 0.5897 -11.455753217216298 0.70042075699393 14.5215093753301 0 0 0
888 296 1 0.5897 -10.623338001755204 3.2276196474970753 15.351794092381725 0 0 0
760 254 2 -1.1794 -8.710403968089484 1.5718058365865843 12.64679146585634 0 0 0
837 279 1 0.5897 -11.211813023006846 0.10407346554338837 12.072480895699808 1 0 0
791 264 1 0.5897 -10.595266153527689 -0.5140876018706724 14.2450162199937 0 0 0
806 269 1 0.5897 -4.159746502460013 2.9533916230915374 13.285030539689842 0 0 0
788 263 1 0.5897 -4.92900404502361 -4.670887712911057 15.422306461923874 0 0 0
655 219 2 -1.1794 -0.33816888927510647 -7.659795682323711 10.962473356360036 0 0 0
896 299 1 0.5897 -8.101798689673892 2.4564417159569807 15.679040995918868 0 0 0
763 255 2 -1.1794 -3.271553493335796 -0.16600920134636254 11.137330995465964 0 0 0
924 308 1 0.5897 -2.6468472555280433 3.276726310622635 15.435039211942952 0 0 0
769 257 2 -1.1794 -12.151564224217068 2.6226167573795536 12.337666806681176 0 0 0
897 299 1 0.5897 -7.836863705887541 2.4002893394177107 14.189719859755263 0 0 0
678 226 1 0.5897 -4.075613866436895 -6.225670470175554 12.229520182496477 0 0 0
802 268 2 -1.1794 -2.7083788643736764 -1.9970408411368714 14.793300196359672 0 0 0
816 272 1 0.5897 0.3270603881851901 -3.747840322395648 15.249673987456008 0 0 0
836 279 1 0.5897 -11.345747803176573 -1.2201858426178989 11.35145293498806 1 0 0
667 223 2 -1.1794 -3.6472845026022043 -2.8817459671492722 11.63188560444924 0 0 0
789 263 1 0.5897 -4.59284340383488 -4.565390781301787 13.950122168183443 0 0 0
676 226 2 -1.1794 -3.2564010645138017 -6.711344902120409 12.326141690749946 0 0 0
814 272 2 -1.1794 -0.2043551796880152 -3.292320591998614 14.596695975105805 0 0 0
785 262 1 0.5897 -5.6110330172540905 1.1493260295489272 12.485246281331644 0 0 0
657 219 1 0.5897 -0.39257828253258964 -7.287578917023035 11.842522061934133 0 0 0
803 268 1 0.5897 -3.3135656632926143 -2.7385963710786685 14.794533550357876 0 0 0
795 265 1 0.5897 -2.771357747702967 -5.546234127811982 15.252654887813831 0 0 0
720 240 1 0.5897 -0.5698473545632954 -6.586162639755688 14.224519502983377 0 0 0
804 268 1 0.5897 -1.8388154279518876 -2.396880893342191 14.810700052553914 0 0 0
698 233 1 0.5897 -1.2004457133778246 -4.127035655334943 13.40880022250883 0 0 0
699 233 1 0.5897 -0.8268454762453743 -4.192310609083393 11.943335947105865 0 0 0
697 233 2 -1.1794 -1.5535908292889555 -4.346738794800725 12.546788109750516 0 0 0
718 240 2 -1.1794 0.07801819104662222 -6.970773158297728 13.634188330008516 0 0 0
677 226 1 0.5897 -2.578109846401283 -6.036300191583733 12.345989286701297 0 0 0
668 223 1 0.5897 -2.8558674561555417 -3.2710887167963527 12.003907175543391 0 0 0
793 265 2 -1.1794 -1.887433278345437 -5.891453889638722 15.378463753113564 0 0 0
773 258 1 0.5897 -5.791028831773511 -1.2026522134824926 13.253182554682386 0 0 0
774 258 1 0.5897 -4.8869042943901855 -2.394874090489777 13.022696049146155 0 0 0
818 273 1 0.5897 -5.345413353134885 -1.8435733864791777 15.367420244750766 0 0 0
787 263 2 -1.1794 -4.202367080089803 -4.504714682494902 14.821866965035806 0 0 0
901 301 2 -1.1794 -5.14960751587053 1.2059073563881704 15.515351399223483 0 0 0
772 258 2 -1.1794 -5.642665115494633 -2.1056661991807104 13.533933526592127 0 0 0
827 276 1 0.5897 -2.8899194028380784 -0.42248494038788387 14.149092666924837 0 0 0
765 255 1 0.5897 -3.272248743262347 0.14707088102842647 12.041754024033855 0 0 0
784 262 2 -1.1794 -6.24398519896091 0.4364546651593475 12.571022040509728 0 0 0
828 276 1 0.5897 -3.776848627327171 0.7806121120009077 14.389657475958192 0 0 0
826 276 2 -1.1794 -3.0583230357348636 0.46770952071848804 13.84012659768782 0 0 0
740 247 1 0.5897 -10.846789436620318 -3.4368803947261988 12.013285870316292 1 0 0
895 299 2 -1.1794 -7.414562447367057 2.5924827838877125 15.026856348668217 0 0 0
903 301 1 0.5897 -5.996759968910055 1.5457092038419127 15.226910801927875 0 0 0
786 262 1 0.5897 -7.092137972674815 0.8752541671332725 12.637378421562635 0 0 0
835 279 2 -1.1794 -11.157543217818654 -0.29341783088164775 11.203541731148517 1 0 0
805 269 2 -1.1794 -4.65232913855778 2.725648569245333 12.496626789386262 0 0 0
669 223 1 0.5897 -4.000347707493824 -3.5597780685902523 11.055986563982568 0 0 0
865 289 2 -1.1794 -12.831731029685763 1.400511129309761 15.731532007501713 0 0 0
764 255 1 0.5897 -3.356657696926381 -1.1164404387886986 11.212387498466414 0 0 0
771 257 1 0.5897 -11.45210462537031 2.786066676075926 11.705054650545131 0 0 0
727 243 2 -1.1794 -8.106160061471146 -7.451670597622982 11.1367926290613 1 0 0
757 253 2 -1.1794 -9.668846511178398 -5.834522281935217 15.555691551378812 0 0 0
794 265 1 0.5897 -1.4965274071936978 -5.316344260003462 16.03609075436266 0 0 0
758 253 1 0.5897 -9.281159125548935 -5.229201155959461 16.187595296845046 0 0 0
902 301 1 0.5897 -4.850720829633471 1.8335189205591966 16.17321078269186 0 0 0
817 273 2 -1.1794 -5.3664723855799705 -1.4972918462083982 16.259409335016905 0 0 0
1150 384 2 -1.1794 -6.139261689809253 -4.489840893547299 19.14870237975554 0 0 0
1152 384 1 0.5897 -6.76021024944398 -4.102869819482226 19.765798908354697 0 0 0
1227 409 1 0.5897 -9.10071256780142 -3.1286640509211328 20.6306997244575 0 0 0
1109 370 1 0.5897 -8.695001243969084 -3.319843815511855 17.724510461153265 0 0 0
1089 363 1 0.5897 -6.257899208972978 -4.686124524937778 17.354943055786862 0 0 0
1151 384 1 0.5897 -5.934165920654107 -5.347659461403357 19.520677308910216 0 0 0
1108 370 2 -1.1794 -9.31769762823509 -4.044389125788742 17.66590778992719 0 0 0
1225 409 2 -1.1794 -8.176588736698925 -3.3304814131344624 20.77759774720785 0 0 0
1186 396 2 -1.1794 1.6213627609774726 -4.3813186853273915 19.351388371256938 0 0 0
1178 393 1 0.5897 -0.9363692640155605 -6.258525072801055 20.74177841433619 0 0 0
1179 393 1 0.5897 -0.6466027716866787 -4.976252495880836 21.492276199205897 0 0 0
1251 417 1 0.5897 -11.710326223036835 1.9797573049213373 21.46771588965006 0 0 0
1130 377 1 0.5897 -7.367252995038718 -1.413671821506762 18.511591549274762 0 0 0
1248 416 1 0.5897 -5.990347914267131 -1.2746468592897529 20.814459839545584 0 0 0
1231 411 2 -1.1794 -1.6794629397312235 2.276144339133639 16.7175696415334 0 0 0
1129 377 2 -1.1794 -7.702782326130792 -1.676938595176555 17.65476532899074 0 0 0
1047 349 1 0.5897 -4.327429205853541 4.251158634617747 20.781777661796582 0 -1 0
1131 377 1 0.5897 -6.937342026210598 -1.655513740307354 17.080475992696186 0 0 0
1253 418 1 0.5897 -3.9351798722036007 3.691839357460271 17.635022241673752 0 0 0
1246 416 2 -1.1794 -6.425349742696325 -0.7492300444252571 20.142904345981336 0 0 0
1087 363 2 -1.1794 -6.364543319562183 -5.10465427083934 16.500864048233623 0 0 0
1124 375 1 0.5897 1.1101553815844998 -5.826120892320749 16.52583028933776 0 0 0
1249 417 2 -1.1794 -11.744422822315512 1.0247054959592194 21.52174197092512 0 0 0
1121 374 1 0.5897 -4.655314409298451 -3.632100430957319 18.567312107745373 0 0 0
1196 399 1 0.5897 -9.77286258074661 1.376722645810986 16.80370034007497 0 0 0
1099 367 2 -1.1794 -10.02183695933969 -0.39112696242793277 17.234198453170073 0 0 0
1236 412 1 0.5897 -8.118076122902298 -0.04669036237457824 20.29754496004732 0 0 0
1009 337 2 -1.1794 -11.305047700810483 3.7280937695030136 21.038657597338528 0 -1 0
1100 367 1 0.5897 -9.221330036380394 -0.8187658038853911 17.538560976777383 0 0 0
1234 412 2 -1.1794 -8.983749263873811 0.3612699448481429 20.275257191929988 0 0 0
1259 420 1 0.5897 -9.07502182941181 2.0681253264432247 19.673391713960648 0 0 0
1258 420 2 -1.1794 -9.133509964964695 2.980250700112377 19.38902992071678 0 0 0
1260 420 1 0.5897 -9.94006328251622 3.305180147390228 19.789173024670312 0 0 0
1216 406 2 -1.1794 -12.442647880940406 2.9505000862890824 17.949657130175254 0 0 0
1197 399 1 0.5897 -9.183331725665061 2.564453339365677 17.533912951118957 0 0 0
1206 402 1 0.5897 -11.249481179647706 0.027147861134942275 18.477478711032163 0 0 0
1235 412 1 0.5897 -9.59613455048691 -0.3741595716599946 20.292237842275725 0 0 0
1101 367 1 0.5897 -10.333565009469513 -0.9461367426443541 16.519500546594514 0 0 0
1295 432 1 0.5897 -1.2917499223103555 2.0409321386412227 19.623831914392447 0 0 0
1132 378 2 -1.1794 -0.969250783859442 -6.661896017463059 18.90458085329859 0 0 0
1125 375 1 0.5897 1.1772235452491504 -4.559938524887263 17.352703479258324 0 0 0
1137 379 1 0.5897 -2.6508528135705625 -1.0682379904787016 16.48812889797265 0 0 0
1229 410 1 0.5897 -7.672034009805504 3.8237355362216654 18.83376712636369 0 0 0
1294 432 2 -1.1794 -1.4832634987224242 2.953337477769587 19.406783309473646 0 0 0
1045 349 2 -1.1794 -3.559450840433567 3.790093975876518 21.11936551234652 0 -1 0
1219 407 2 -1.1794 -10.56178860043665 -2.130519913671794 20.384213720636467 0 0 0
1097 366 1 0.5897 -8.945685517505439 -5.797001531242992 18.57936769828821 0 0 0
1250 417 1 0.5897 -11.733399706135021 0.7323388077879596 20.610477625526933 0 0 0
1195 399 2 -1.1794 -9.501286368034338 2.2855451157362108 16.675340878126917 0 0 0
1252 418 2 -1.1794 -4.621704341429876 3.036368078419562 17.511792725882444 0 0 0
1240 414 2 -1.1794 -4.333345640561606 0.6593816796402603 18.981875753608442 0 0 0
1287 429 1 0.5897 -3.683877321892604 1.9747298621322162 21.698842683948108 0 0 0
1187 396 1 0.5897 1.6765652387405936 -5.275805249897589 19.687692840177412 0 0 0
1247 416 1 0.5897 -5.713381434035875 -0.28418871513858157 19.70356180417459 0 0 0
1285 429 2 -1.1794 -3.805386598210001 1.0261725221693183 21.658293648132705 0 0 0
1145 382 1 0.5897 -0.9332711785949392 -3.525754367801979 17.754932571040285 0 0 0
1122 374 1 0.5897 -4.461450400124651 -2.5337732186616115 17.54361971220648 0 0 0
1242 414 1 0.5897 -3.570277740047711 0.34331963343130845 18.49811534163662 0 0 0
1270 424 2 -1.1794 -1.1838694142470612 0.39243089652455865 20.3815280098789 0 0 0
1271 424 1 0.5897 -1.8106452941240807 -0.3272291673088965 20.308100064414802 0 0 0
1144 382 2 -1.1794 -1.562843963849069 -4.242460654710985 17.676792274605845 0 0 0
1263 421 1 0.5897 -0.972866026551829 -3.0761702865992655 20.55087363890528 0 0 0
1133 378 1 0.5897 -1.2097329517580846 -5.817612966127502 18.52295958773648 0 0 0
1188 396 1 0.5897 1.050621110443318 -3.926784531548993 19.97088313913595 0 0 0
1257 419 1 0.5897 -3.1168617358473965 -2.2907900682826696 19.502998011938764 0 0 0
1255 419 2 -1.1794 -2.6036068806915633 -2.0279065293039817 20.26690046828083 0 0 0
1261 421 2 -1.1794 -0.20159575202776914 -3.4071251326339596 21.011219253037353 0 0 0
1256 419 1 0.5897 -3.210140884695928 -2.109003238679543 21.002877625026017 0 0 0
1120 374 2 -1.1794 -3.9823476036485346 -3.0849013873442725 18.16250057691326 0 0 0
1146 382 1 0.5897 -2.4186528715976863 -3.8150648258870383 17.71174191362232 0 0 0
1110 370 1 0.5897 -10.17519555616577 -3.6210650064060124 17.623437008281925 0 0 0
1218 406 1 0.5897 -13.286308267250991 3.3958137319288753 17.87066245542902 0 0 0
1296 432 1 0.5897 -2.2310821021314418 3.17969898271585 19.959680186437332 0 0 0
1254 418 1 0.5897 -5.436244636579652 3.504459770791664 17.69535483475658 0 0 0
1135 379 2 -1.1794 -2.344631104992091 -0.5503308425624951 17.232452718477248 0 0 0
1286 429 1 0.5897 -3.8319121981840567 0.827534334875681 20.722427716703542 0 0 0
1136 379 1 0.5897 -1.5321569506669626 -0.9774898878874847 17.504034557747254 0 0 0
1165 389 2 -1.1794 0.07404777422678599 -2.0553444155068625 17.881970038900214 0 0 0
1241 414 1 0.5897 -4.594803161005743 1.457686153400532 18.52291424753595 0 0 0
1272 424 1 0.5897 -0.33602639256902656 -0.006845381382339255 20.18654178141516 0 0 0
1177 393 2 -1.1794 -0.867081764770008 -5.898088213964888 21.625676961936726 0 0 0
1142 381 1 0.5897 -8.447906692468754 -6.299850976883716 20.590858821719813 0 0 0
1205 402 1 0.5897 -12.078907113205847 1.2899799875543039 18.573951513525756 0 0 0
1088 363 1 0.5897 -6.369518671155388 -6.042516756360241 16.692206672587098 0 0 0
1233 411 1 0.5897 -1.5527669880231958 2.4968110075806838 17.640212019787185 0 0 0
1232 411 1 0.5897 -1.8935807271054355 1.3432433613388302 16.721242890502857 0 0 0
1217 406 1 0.5897 -11.804219205379026 3.6587829545650283 18.032533312945844 0 0 0
1143 381 1 0.5897 -8.21321264307607 -5.094615970903369 21.476143842858093 0 0 0
1011 337 1 0.5897 -12.101031850999869 4.113532184989898 20.672361476922745 0 -1 0
1141 381 2 -1.1794 -8.424859350663786 -6.0275451065360315 21.50809666991683 0 0 0
1166 389 1 0.5897 0.3163241677826125 -1.7469926020185973 18.755034927280363 0 0 0
1262 421 1 0.5897 0.03716829492931062 -2.704271937202355 21.615370001757874 0 0 0
1226 409 1 0.5897 -7.926102430170225 -2.7811392281404768 21.52022189651288 0 0 0
866 289 1 0.5897 -12.569922268839065 2.015503910710706 16.41655126804472 0 0 0
1123 375 2 -1.1794 1.197463158962936 -4.875988598691974 16.449540415747336 0 0 0
40 14 2 -1.1794 -15.189737540103312 3.8878835387089605 1.789422314432044 1 0 0
177 59 1 0.5897 -14.1255511525236 4.657391337437396 3.191678542929129 1 0 0
56 19 1 0.5897 -12.490038094741392 5.805299146265783 1.303797534581645 1 0 0
66 22 1 0.5897 -13.553718134646953 3.012011328768727 1.536004467827559 1 0 0
65 22 1 0.5897 -12.060763284474865 3.2337388266715283 1.4183074104722602 1 0 0
64 22 2 -1.1794 -12.72022700486865 2.5436319889000227 1.4891857842617984 1 0 0
191 64 1 0.5897 -12.710580399064565 6.47458599873724 4.116113392902474 1 0 0
183 61 1 0.5897 -12.16678536341898 3.8241181089663314 4.395698978504946 1 0 0
175 59 2 -1.1794 -13.600796591623183 4.882202625927976 3.959908287522901 1 0 0
176 59 1 0.5897 -14.153011188399791 4.64593254432085 4.705138810928256 1 0 0
181 61 2 -1.1794 -11.36184133831099 3.4723939732186118 4.77606523922645 1 0 0
55 19 2 -1.1794 -13.212041618454633 6.370807814403548 1.029483424823022 1 0 0
42 14 1 0.5897 -15.626186054619305 4.488724912887989 1.1854356584605183 1 0 0
108 36 1 0.5897 -10.089401084601665 2.8457085714512864 3.5392751650753667 1 0 0
215 72 1 0.5897 -12.345052435237257 8.938578360807105 3.409762665351529 1 0 0
190 64 2 -1.1794 -12.158996368290957 7.255855350967051 4.077095570401513 1 0 0
152 51 1 0.5897 -12.836208458884505 8.004739833137437 0.5548295493093461 1 0 0
153 51 1 0.5897 -12.556938460538268 9.273114023737088 1.3324340813573095 1 0 0
216 72 1 0.5897 -13.064522807577438 10.270107958908829 3.3725533632317455 1 0 0
162 54 1 0.5897 -14.55399661806241 6.9156364964011185 2.284266608592295 1 0 0
193 65 2 -1.1794 -13.949465941176221 11.898762071746715 1.573994174674265 1 0 0
148 50 2 -1.1794 -18.05709891111965 10.860230663863417 1.7197235593950762 1 0 0
174 58 1 0.5897 -16.50464061809694 10.126700264417627 1.487825647118503 1 0 0
214 72 2 -1.1794 -12.325837037712779 9.797866671935955 2.988457307877016 1 0 0
135 45 1 0.5897 -7.0584428237682335 8.911789431251561 5.392691579077864 0 0 0
206 69 1 0.5897 -14.702319585424757 7.668289752179982 4.64161393067967 1 0 0
160 54 2 -1.1794 -15.252917444873336 7.31439841824343 2.8025914541106 1 0 0
173 58 1 0.5897 -15.006494361071217 10.344626611175679 1.4836640956333536 1 0 0
85 29 2 -1.1794 -10.972858218725634 4.67137522293825 1.5802933591400699 1 0 0
111 37 1 0.5897 -4.3622913495129145 3.8668614786496693 4.150404909115659 0 0 0
291 97 1 0.5897 -15.186550965581244 10.925592436072387 4.483864626549377 1 0 0
161 54 1 0.5897 -15.408767827431177 8.161164925869096 2.384295809644622 1 0 0
172 58 2 -1.1794 -15.671726616258123 9.658562425350864 1.4294513982227268 1 0 0
289 97 2 -1.1794 -14.37098078928502 10.636081765154875 4.892937125907682 1 0 0