LAMMPS data file via write_data, version 30 Jul 2021, timestep = 5250000

1920 atoms
2 atom types
1280 bonds
1 bond types
640 angles
1 angle types

-0.1418359483937479 24.8718369483825 xlo xhi
-0.07984750067625512 24.809848500678413 ylo yhi
-0.08783806893258372 22.897838068931314 zlo zhi

Masses

1 1.008
2 15.999

Pair Coeffs # lj/cut/tip4p/long/omp

1 0 0
2 0.21084 3.1668

Bond Coeffs # harmonic/omp

1 450 0.9572

Angle Coeffs # harmonic/omp

1 55 104.52

Atoms # full

1 1 2 -1.1794 4.655978982156842 1.5328639783518232 4.305367714826474 0 0 0
2 1 1 0.5897 4.793142040404687 2.1727690263632007 5.003819655743206 0 0 0
3 1 1 0.5897 5.470350973085066 1.5481022090353107 3.8026374001463155 0 0 0
4 2 2 -1.1794 3.168815388637755 1.4406849828385724 1.9456404867345247 0 0 0
5 2 1 0.5897 3.6091489654158364 1.4962421657378169 2.7936674229844725 0 0 0
6 2 1 0.5897 2.251300496975397 1.6333638622382112 2.1385545462612066 0 0 0
9 3 1 0.5897 5.161804604737008 4.56321951186017 3.3693381431450886 0 0 0
10 4 2 -1.1794 3.423029012997753 4.58094143537335 3.358017263492787 0 0 0
11 4 1 0.5897 3.01420518790292 5.258040960540324 3.8970296495457273 0 0 0
12 4 1 0.5897 2.9502189868177804 4.618096673886991 2.526632446014881 0 0 0
14 5 1 0.5897 2.117469804164879 3.0193532575515363 4.673043341497581 0 0 0
22 8 2 -1.1794 1.5455320291249137 4.793261031973644 1.423615506473895 0 0 0
20 7 1 0.5897 4.161575971531271 2.804248579986565 0.9309770373548552 0 0 0
24 8 1 0.5897 1.398658980271032 5.272089335026223 0.6079697882225346 0 0 0
19 7 2 -1.1794 4.5799015189199395 3.1576236696768936 0.14595244515417813 0 0 0
23 8 1 0.5897 0.6813357279018794 4.744577512539955 1.8322345958941295 0 0 0
21 7 1 0.5897 5.477065417993166 3.3503878914103447 0.4181854972726806 0 0 0
13 5 2 -1.1794 1.2829001284085695 2.7824531316035848 5.077459026387318 0 0 0
15 5 1 0.5897 1.3142622668231634 1.8286758339703768 5.151397196960003 0 0 0
27 9 1 0.5897 4.347918223020422 5.010877465840831 0.25540432252317613 0 0 0
17 6 1 0.5897 0.0274832726637739 1.5139962919344179 2.7125435884652314 0 0 0
867 289 1 0.5897 4.793621257048929 0.2267646495785926 5.5472708467968666 0 1 0
98 33 1 0.5897 0.42951146117056205 5.346639719019399 4.154117009057313 1 0 0
25 9 2 -1.1794 4.244556540683845 5.953632676499952 0.3844844469219031 0 0 0
16 6 2 -1.1794 0.25448715417356904 1.3112182663143426 1.8050895309129142 0 0 0
28 10 2 -1.1794 1.4883502725031754 0.005147642943470587 5.0186766103798695 0 0 0
387 129 1 0.5897 4.428251854181553 -0.022898247125917107 1.3811502760114924 0 1 0
7 3 2 -1.1794 6.065350640682154 4.564835048674008 3.6852214937854058 0 0 0
99 33 1 0.5897 0.1654588866238605 3.8721032030392437 3.9357697189641208 1 0 0
386 129 1 0.5897 4.882471752732139 0.34816370014793574 -0.014426193855676672 0 1 0
488 163 1 0.5897 4.928315237383137 5.199877043590631 9.062920281123427 0 0 0
579 193 1 0.5897 0.08578455311042149 5.1970759805373 9.794367933738569 1 0 0
150 50 1 0.5897 1.548102164441194 5.949194667912565 5.827168887599444 0 0 0
578 193 1 0.5897 -0.05362536194826362 3.693487290406795 9.687358710467068 1 0 0
482 161 1 0.5897 5.461930872535659 1.6267516597122127 9.362174738493637 0 0 0
504 168 1 0.5897 1.0851686452939235 4.070009150426471 6.4334940859952585 0 0 0
528 176 1 0.5897 6.104823030891615 2.2671610182324433 7.104752629056541 0 0 0
494 165 1 0.5897 1.653883213726594 2.0017236210769154 10.695506586308122 0 0 0
487 163 2 -1.1794 5.865763043322775 5.006569299460209 9.061044415856252 0 0 0
483 161 1 0.5897 4.666878476582183 2.3303085442827998 10.441327208993187 0 0 0
499 167 2 -1.1794 4.67292480078811 3.2536379240922186 6.420076875326868 0 0 0
498 166 1 0.5897 0.9977470369941894 1.2908148426076338 7.877361421724978 0 0 0
501 167 1 0.5897 4.4813826588282755 4.190504970877755 6.461856065346133 0 0 0
502 168 2 -1.1794 1.1791410155000996 4.794681862067098 7.051672650493239 0 0 0
493 165 2 -1.1794 1.5464531746248553 2.9519339186718914 10.736732673673787 0 0 0
490 164 2 -1.1794 3.1387711880923517 4.882717284920232 9.34589640829125 0 0 0
508 170 2 -1.1794 1.6034911824735036 0.26643933214857884 10.63764712831833 0 0 0
503 168 1 0.5897 0.47468741563714656 4.661930502294315 7.685924508447099 0 0 0
500 167 1 0.5897 3.9012282412058426 2.833779334476073 6.800052352482555 0 0 0
481 161 2 -1.1794 4.640583754488216 1.5772212317588334 9.851153574522108 0 0 0
485 162 1 0.5897 3.36976150398163 1.501760373163586 8.59915922917846 0 0 0
492 164 1 0.5897 2.6711805714993493 4.193726176925367 9.81790190997816 0 0 0
484 162 2 -1.1794 2.86790642932524 1.3997173446046565 7.790541689452769 0 0 0
486 162 1 0.5897 3.2178233106560734 0.6040697957061194 7.389741467748314 0 0 0
491 164 1 0.5897 2.675895046428666 4.958616886427539 8.511551932026997 0 0 0
527 176 1 0.5897 5.822513694690434 0.7798952303190585 7.105782586704323 0 0 0
496 166 2 -1.1794 0.05148239684150943 1.412390714042606 7.954711525576293 0 0 0
489 163 1 0.5897 5.960029844566412 4.269647334894456 9.664532161536487 0 0 0
629 210 1 0.5897 1.9341416902203021 6.03564201370604 10.20883231434404 0 0 0
505 169 2 -1.1794 4.280434143591585 5.891755015750648 6.387149760022406 0 0 0
961 321 2 -1.1794 4.471322306308735 1.7123784036359404 15.647253786581967 0 0 0
962 321 1 0.5897 5.321659911425693 1.8394389936598323 15.226602369144283 0 0 0
963 321 1 0.5897 4.496676589001161 0.8126237415038653 15.972755276733373 0 0 0
964 322 2 -1.1794 2.9565316061909823 1.555631749178653 13.393876797763928 0 0 0
965 322 1 0.5897 3.434774200744945 1.6865332032992026 14.212583518882784 0 0 0
966 322 1 0.5897 2.070193404986657 1.8643426695123448 13.581685635098658 0 0 0
970 324 2 -1.1794 3.2028884614689592 4.717864859901495 14.985970514655975 0 0 0
971 324 1 0.5897 4.088355047268706 4.367913696121294 14.887686592480174 0 0 0
972 324 1 0.5897 2.7210922685575 4.027359592524422 15.441179213723043 0 0 0
975 325 1 0.5897 0.8754520379725244 3.1449039440702946 15.899716176733032 0 0 0
982 328 2 -1.1794 1.5306079706267248 4.66069677512545 12.79316020183067 0 0 0
984 328 1 0.5897 2.274317123389729 4.898522093697061 13.346779578265833 0 0 0
973 325 2 -1.1794 1.6428037603403423 2.7713514198618467 16.333067150629812 0 0 0
983 328 1 0.5897 1.3924895782267799 5.425954342183333 12.235078642159754 0 0 0
980 327 1 0.5897 3.9840050666205453 3.0761516813070484 12.621024013930429 0 0 0
990 330 1 0.5897 1.8696035087194418 0.9921383651722016 16.64932484383197 0 0 0
981 327 1 0.5897 5.4961459394111 3.1060087295250813 12.555447491492579 0 0 0
979 327 2 -1.1794 4.71514361045601 3.546691477395958 12.220790672391296 0 0 0
987 329 1 0.5897 4.676792316744325 5.273680801757421 12.402172187616225 0 0 0
978 326 1 0.5897 0.061398238035855784 1.0149846784949874 13.166539298224192 0 0 0
988 330 2 -1.1794 1.7751752095093662 0.0544605114841227 16.482041254059254 0 0 0
1460 487 1 0.5897 4.332894176549795 2.8984679954733648 16.89769534981424 0 0 0
1346 449 1 0.5897 4.08054879094679 0.38995970809152225 12.727690923108472 0 1 0
976 326 2 -1.1794 0.1380930831406264 1.7501046057282668 13.774687418081264 0 0 0
1109 370 1 0.5897 0.38371075465572435 5.651087410460744 15.92350529734626 0 0 0
495 165 1 0.5897 1.429059466056231 3.139987158864836 11.667848193995018 0 0 0
1058 353 1 0.5897 0.05010330290542994 4.58460094527427 14.145117597634007 1 0 0
967 323 2 -1.1794 5.977810912196822 4.633385031668924 15.194888861153457 0 0 0
1347 449 1 0.5897 4.852511676079465 0.38982071145801606 11.425492727950028 0 1 0
1345 449 2 -1.1794 4.797363779055081 -0.052034325963756345 12.272749359741624 0 1 0
1454 485 1 0.5897 2.033867474518044 3.5267174971900235 21.69584972387715 0 0 0
1538 513 1 0.5897 0.04951628086939691 3.871590828963606 20.928662944112 1 0 0
974 325 1 0.5897 1.6968670002900605 3.236147248648838 17.16803688891031 0 0 0
1590 530 1 0.5897 1.8964260092169716 6.033101971946643 21.34806419985116 0 0 0
1466 489 1 0.5897 4.560207185735716 5.175818517058912 17.740198909805333 0 0 0
1447 483 2 -1.1794 5.835215653618646 4.6453128863713165 20.434552483919514 0 0 0
1539 513 1 0.5897 0.12998110423669879 5.380106539960994 21.02654706647345 1 0 0
1446 482 1 0.5897 3.109850072058902 2.084569587163473 18.56606319598436 0 0 0
1445 482 1 0.5897 1.8424135759846267 1.4845159193391522 19.13638204824294 0 0 0
1461 487 1 0.5897 5.259824360961882 2.8201706471739243 18.09199038413531 0 0 0
1462 488 2 -1.1794 1.3733000504469068 4.749993726151905 18.333164597598245 0 0 0
1456 486 2 -1.1794 0.041710881530003546 1.3971707800395048 19.515016178580073 0 0 0
1452 484 1 0.5897 2.6234686433974375 4.5851785551520505 19.709757443468384 0 0 0
1459 487 2 -1.1794 4.5039399999472005 3.2978815235358003 17.750534515821613 0 0 0
1464 488 1 0.5897 0.6389375937935753 4.781993154452318 18.946234784677706 0 0 0
1469 490 1 0.5897 1.6867979731646212 0.8551334179662611 21.921510343847288 0 0 0
1451 484 1 0.5897 3.932140653919518 4.473946066340923 20.462570604924895 0 0 0
1463 488 1 0.5897 1.173944118609138 5.424983648334791 17.684488197778183 0 0 0
1442 481 1 0.5897 3.904344367558142 1.2149096989704034 20.660575329728413 0 0 0
1450 484 2 -1.1794 2.9897236898409676 4.577616179199196 20.594023351740166 0 0 0
1444 482 2 -1.1794 2.7705820448260687 1.2987178127373624 18.994398863816958 0 0 0
1453 485 2 -1.1794 1.4533866536431534 2.8172892674568994 21.971352282029546 0 0 0
1443 481 1 0.5897 4.807523306087689 1.8290481490426729 21.708797848521602 0 0 0
1441 481 2 -1.1794 4.76893484131559 1.1251902932976077 21.061324860637995 0 0 0
1826 609 1 0.5897 4.077964785983409 0.17083047967131704 18.20400001770632 0 1 0
1487 496 1 0.5897 6.059227061563596 1.5064232341669284 19.73055746239999 0 0 0
1465 489 2 -1.1794 4.334694942575281 6.1053088403182185 17.7037505337525 0 0 0
1455 485 1 0.5897 1.1707062583446315 3.066494761241034 22.851188708829227 0 0 0
121 41 2 -1.1794 4.447421937244554 7.446659686028535 4.190516387868129 0 0 0
122 41 1 0.5897 3.530421119924764 7.4162049816863345 3.9178238318761602 0 0 0
124 42 2 -1.1794 2.812375880036079 8.009886558337175 1.783083668797342 0 0 0
125 42 1 0.5897 3.1037230517394003 7.291251692457387 1.2220004282308863 0 0 0
126 42 1 0.5897 3.3577658938330166 8.752669056287521 1.5242914301976291 0 0 0
129 43 1 0.5897 4.697715060298014 10.779973704447897 3.3824818596739985 0 0 0
130 44 2 -1.1794 2.9453928248326604 11.0527673301537 3.214917856024721 0 0 0
132 44 1 0.5897 2.8017871711846096 10.327689162426378 3.823001623913315 0 0 0
133 45 2 -1.1794 1.7171239707612993 9.163681826416841 4.838863354608838 0 0 0
137 46 1 0.5897 0.8669722862808726 7.876612013103077 1.9632458516767781 0 0 0
142 48 2 -1.1794 1.0119157193295947 10.917418210785234 1.2450751616403815 0 0 0
143 48 1 0.5897 1.7895787337285898 11.010343645903555 1.7953144286307336 0 0 0
149 50 1 0.5897 1.7662182792294843 7.3206833419092145 5.224597179446671 0 0 0
139 47 2 -1.1794 4.590395428788962 9.674023017605045 0.7270524394085149 0 0 0
135 45 1 0.5897 0.8885165671130701 9.337585122838645 4.392398704489374 0 0 0
123 41 1 0.5897 4.9227763144595 7.715394264722186 3.40441083127808 0 0 0
131 44 1 0.5897 2.485545748349541 11.792869375905326 3.611081470997528 0 0 0
144 48 1 0.5897 1.0478744142413061 11.666492262354534 0.6503288940889883 0 0 0
140 47 1 0.5897 4.495721383593429 10.613067353911509 0.5676952261566586 0 0 0
621 207 1 0.5897 4.154907821694128 8.746357320229892 5.601454399503233 0 0 0
26 9 1 0.5897 4.9496207830271 6.192172182372546 0.9862694258685121 0 0 0
134 45 1 0.5897 1.678390649362381 9.696789918916078 5.632853586507056 0 0 0
270 90 1 0.5897 0.7723859249839348 12.225111810343849 4.3476416904871105 0 0 0
1575 525 1 0.5897 1.2027126952313365 9.547802178605973 0.02685477912678766 0 0 1
136 46 2 -1.1794 -0.05658244187862525 8.036535498378719 2.1572698339336074 0 0 0
127 43 2 -1.1794 5.627273256129248 10.644567197260054 3.5662262699091025 0 0 0
168 56 1 0.5897 5.858522893439554 8.475015464439355 1.4876153257501725 0 0 0
128 43 1 0.5897 5.908312977385357 11.454657944642701 3.9915553799192676 0 0 0
148 50 2 -1.1794 1.6317102030707444 6.402894013219122 4.988545536839866 0 0 0
507 169 1 0.5897 4.457176790024738 6.401262635872605 5.596397046853691 0 0 0
218 73 1 0.5897 0.06861121432035588 10.931634162923398 2.7718403001822987 1 0 0
647 216 1 0.5897 5.838875217683342 7.537531735519353 8.776595775101232 0 0 0
620 207 1 0.5897 5.115112858705482 8.815289579519227 6.769752929992246 0 0 0
606 202 1 0.5897 1.91327058745178 7.60991275260989 7.852522169428061 0 0 0
625 209 2 -1.1794 4.462472517459948 11.858370019705543 6.073507069489006 0 0 0
627 209 1 0.5897 5.238004174612796 12.098922280302256 6.580307866956942 0 0 0
628 210 2 -1.1794 1.276275859840862 6.484826731747023 10.739496276662589 0 0 0
506 169 1 0.5897 3.6560799153711563 6.423499518858249 6.880688347194268 0 0 0
616 206 2 -1.1794 -0.0953367853536776 7.715103502318562 7.754902905717897 0 0 0
619 207 2 -1.1794 4.345110085643636 9.244180015084336 6.396513164826182 0 0 0
624 208 1 0.5897 1.525607976454089 11.576660400778186 6.298174724231666 0 0 0
611 204 1 0.5897 3.8034933900453396 11.03622206314458 9.41828831141832 0 0 0
610 204 2 -1.1794 2.883567298545426 11.053846928444335 9.154470934504198 0 0 0
615 205 1 0.5897 0.5773104182362796 9.413878020859615 10.343332215075213 0 0 0
607 203 2 -1.1794 5.691463390810333 10.693043869801137 9.06977552505177 0 0 0
623 208 1 0.5897 1.9704897114218722 10.946240303450992 7.600595712880362 0 0 0
604 202 2 -1.1794 2.8666184639864993 7.588188304321287 7.935205220113529 0 0 0
602 201 1 0.5897 4.393096512231721 7.070880039320493 10.63947072939308 0 0 0
603 201 1 0.5897 3.8801915215285847 7.822960708833743 9.429952344265008 0 0 0
605 202 1 0.5897 3.179217335483482 8.201519275536395 7.2701936018514886 0 0 0
622 208 2 -1.1794 1.3266193309490448 10.857742374255567 6.8979162802473 0 0 0
613 205 2 -1.1794 1.4919763072737957 9.180907905659623 10.502395860582284 0 0 0
626 209 1 0.5897 4.439525700739311 10.902165301245272 6.109264854345377 0 0 0
612 204 1 0.5897 2.4823389464024435 11.70799654342169 9.726519933993119 0 0 0
630 210 1 0.5897 1.494331111777857 7.413144034839777 10.656836446391464 0 0 0
601 201 2 -1.1794 4.591370327557443 7.81458052696467 10.070501926859636 0 0 0
614 205 1 0.5897 1.9692971111698552 9.567780172580894 9.768480792837764 0 0 0
609 203 1 0.5897 6.0178459608828465 9.861300071690726 9.413013431719918 0 0 0
699 233 1 0.5897 0.018550524958232728 10.786005959461278 8.318969229937677 1 0 0
1081 361 2 -1.1794 4.801533029881758 7.852793494602646 15.760620227815055 0 0 0
1082 361 1 0.5897 4.8386572834867225 8.50598975697919 16.45925297226408 0 0 0
1083 361 1 0.5897 4.538938250643436 7.0447164649408345 16.201302319153246 0 0 0
1084 362 2 -1.1794 2.9033082630131597 7.692016462980026 13.773478822640456 0 0 0
1086 362 1 0.5897 3.4411269496129777 8.28580644894889 13.249726746920013 0 0 0
1089 363 1 0.5897 4.848185849480963 10.861971731670595 14.729296966610226 0 0 0
1090 364 2 -1.1794 3.061350188615309 10.769976630531568 14.954772051826414 0 0 0
1092 364 1 0.5897 2.8837186648567563 9.845905871063154 15.129934389491595 0 0 0
1097 366 1 0.5897 1.1410207432077326 7.423948997332236 13.596924920614988 0 0 0
1102 368 2 -1.1794 1.5476610566890188 10.97755888283932 12.705021513227553 0 0 0
1103 368 1 0.5897 1.816164735009489 10.298465825817436 12.086258222607679 0 0 0
1104 368 1 0.5897 2.281357221884518 11.049640990879977 13.31546961524065 0 0 0
1099 367 2 -1.1794 4.779443357652857 9.332861917403424 12.344677398150372 0 0 0
1085 362 1 0.5897 3.3877666397557293 7.588855860279757 14.592498370879289 0 0 0
1100 367 1 0.5897 5.425806398042246 8.913211162343732 12.91235896697384 0 0 0
1091 364 1 0.5897 2.5989816495768587 11.239064585275933 15.64925983618303 0 0 0
1093 365 2 -1.1794 1.3234851142508164 8.947912858371874 16.462803560975935 0 0 0
1095 365 1 0.5897 0.838813085764039 9.321633926350485 15.726894003093264 0 0 0
1094 365 1 0.5897 1.0501440093920478 8.030999088093154 16.489290916770898 0 0 0
1107 369 1 0.5897 4.6279037923558395 11.232691939690964 11.95938404744406 0 0 0
1178 393 1 0.5897 0.22469114266738632 11.352407918299157 15.450609674687984 1 0 0
1127 376 1 0.5897 6.029308466357599 7.722090792769675 14.490670955576233 0 0 0
985 329 2 -1.1794 4.519614226770008 6.193575975889977 12.18950702614393 0 0 0
986 329 1 0.5897 3.907978739510966 6.494144830606513 12.861599954922964 0 0 0
1096 366 2 -1.1794 0.24089670271452812 7.707901848041664 13.437785279461314 0 0 0
1179 393 1 0.5897 0.3210381780248682 10.904335637912892 14.007845052085761 1 0 0
1105 369 2 -1.1794 4.440029259658416 12.163311448734358 12.080977270331102 0 0 0
1087 363 2 -1.1794 5.799024145698874 10.933026308481457 14.813200430209672 0 0 0
1128 376 1 0.5897 5.837735940043232 7.171500427903993 13.093613296809963 0 0 0
1108 370 2 -1.1794 0.9474734078838074 6.306124643807837 16.334897346792562 0 0 0
1110 370 1 0.5897 1.7926698931738443 6.204166687684547 15.897385871996695 0 0 0
1088 363 1 0.5897 6.047886901114565 10.188662978517408 15.36103319433572 0 0 0
1101 367 1 0.5897 4.846331345243848 8.860627502643664 11.51483375473229 0 0 0
750 250 1 0.5897 1.106972078977528 12.248764775262757 11.429305036996391 0 0 0
1658 553 1 0.5897 -0.026950790578976036 10.095444226902757 21.42472078461192 1 0 0
1576 526 2 -1.1794 -0.025290429926140653 7.563362796819745 19.23537757931285 0 0 0
1230 410 1 0.5897 1.1250131528221357 12.173222416516698 17.23735475501292 0 0 0
1467 489 1 0.5897 5.020541223120942 6.5387308796689405 18.211602361855338 0 0 0
1582 528 2 -1.1794 1.565483925061278 10.940417253541916 18.729144478637753 0 0 0
1588 530 2 -1.1794 1.24977095546891 6.287236754979538 22.0063983579543 0 0 0
1565 522 1 0.5897 1.6576738442999528 7.540311227174604 19.419345000543974 0 0 0
1587 529 1 0.5897 4.847227947108503 11.338106398680612 18.258028835257004 0 0 0
1564 522 2 -1.1794 2.6138374846072754 7.575208931841574 19.446108697576626 0 0 0
1572 524 1 0.5897 4.054173712957698 10.97197440941965 21.153452470624604 0 0 0
1584 528 1 0.5897 1.210935203270486 10.232036311545041 18.191904410464936 0 0 0
1562 521 1 0.5897 4.280301051615888 7.206907389701606 21.987321462635965 0 0 0
1581 527 1 0.5897 5.088222421041864 8.948373042782675 18.49898978490056 0 0 0
1571 524 1 0.5897 2.8130381272089244 10.793694153855641 20.30521431054823 0 0 0
1570 524 2 -1.1794 3.1078291737481223 10.842051952784255 21.214546372930435 0 0 0
1573 525 2 -1.1794 1.4800535112176778 9.00106199338032 22.277488607912833 0 0 0
1563 521 1 0.5897 3.780475309444998 8.032648931470654 20.821147560838217 0 0 0
1561 521 2 -1.1794 4.479410603714352 7.989627237645969 21.473670863774977 0 0 0
1589 530 1 0.5897 1.310328772218586 7.241634330508697 22.04634593748961 0 0 0
1583 528 1 0.5897 0.9799485316852459 10.984444024951928 19.485022037164025 0 0 0
1574 525 1 0.5897 2.206586354177733 9.482078619689936 21.881340747829682 0 0 0
1579 527 2 -1.1794 4.48531681520875 9.568834295701741 18.089501196911645 0 0 0
1566 522 1 0.5897 2.895871905851853 6.9165757592285955 18.811446358998058 0 0 0
1580 527 1 0.5897 3.6148489911804127 9.221113785706136 18.28326631643283 0 0 0
1608 536 1 0.5897 5.62413380526357 7.63163738851917 20.109480072752437 0 0 0
1567 523 2 -1.1794 5.915882535434582 10.851164197208531 20.846330122636886 0 0 0
141 47 1 0.5897 4.497464026553227 9.27338526984854 22.848453011739462 0 0 -1
1606 536 2 -1.1794 6.084800694768699 7.486528324897573 19.283117876470435 0 0 0
1657 553 2 -1.1794 -0.1253563518788064 10.899097017609568 20.91423380805952 1 0 0
1710 570 1 0.5897 2.23564036999672 12.20071749189538 21.976634809374993 0 0 0
1709 570 1 0.5897 0.7261674375189439 12.08810810705925 21.952783984464034 0 0 0
1585 529 2 -1.1794 4.819227238038819 12.232316592020263 17.917825142222547 0 0 0
241 81 2 -1.1794 4.430811723628515 13.907803392360622 4.136089709753101 0 0 0
242 81 1 0.5897 4.423464540799487 13.219828255231722 4.80149928361358 0 0 0
243 81 1 0.5897 3.605791967427115 13.794153903661499 3.66429400054858 0 0 0
244 82 2 -1.1794 2.556090619081456 13.916405756804823 2.03468470439845 0 0 0
245 82 1 0.5897 1.6890613914995483 14.32189507985913 2.030987556699093 0 0 0
246 82 1 0.5897 3.124588308936921 14.561634202747168 1.614391430797603 0 0 0
250 84 2 -1.1794 3.1219496762467323 17.212165196452382 3.8305773859383803 0 0 0
251 84 1 0.5897 2.8969983825973697 17.211656103917818 2.9002433746176353 0 0 0
252 84 1 0.5897 4.077127648141627 17.271820354603797 3.8464890726652916 0 0 0
253 85 2 -1.1794 1.385113082669539 15.334220815876973 4.556783149920297 0 0 0
255 85 1 0.5897 2.2349448304170907 15.748880505293707 4.408422127529662 0 0 0
259 87 2 -1.1794 4.268231668295853 15.622089002900339 0.7555870373626209 0 0 0
262 88 2 -1.1794 1.7786367973868202 17.397352639941367 1.3596906271825935 0 0 0
263 88 1 0.5897 1.75309709870794 16.560522023734887 0.8958013639294475 0 0 0
264 88 1 0.5897 1.6563838347233912 18.055047006575478 0.6751331947222973 0 0 0
269 90 1 0.5897 1.4599147565189239 13.513861562516711 4.745255251881373 0 0 0
254 85 1 0.5897 0.7772928041169972 15.829518242838342 4.007797684782339 0 0 0
260 87 1 0.5897 4.30268536339054 16.578395665613304 0.7761591527917209 0 0 0
268 90 2 -1.1794 1.47240936186372 12.569724480537628 4.902046714524433 0 0 0
247 83 2 -1.1794 5.943149230981732 16.91874756789231 3.9374485999764968 0 0 0
265 89 2 -1.1794 4.506515320351218 18.38014296235047 0.7894301186223931 0 0 0
339 113 1 0.5897 0.0474298076372385 17.949283974620208 3.784056259761333 1 0 0
145 49 2 -1.1794 4.3226454459007595 12.496054253756153 0.641090249518601 0 0 0
740 247 1 0.5897 4.5841501452805264 15.040825721186161 5.420506850449838 0 0 0
147 49 1 0.5897 3.6042335967027057 12.882552821743062 1.1417461947529615 0 0 0
287 96 1 0.5897 5.788010278343969 13.84666139004375 2.9623389375660603 0 0 0
146 49 1 0.5897 5.114367593215889 12.858684276947677 1.0383790517572642 0 0 0
288 96 1 0.5897 5.680754816489859 14.593375620431075 1.6498861869887465 0 0 0
338 113 1 0.5897 -0.03593807394240714 17.35986996396918 2.3922030674425345 1 0 0
389 130 1 0.5897 1.956510551398555 18.49153529693271 4.475129588602571 0 0 0
748 250 2 -1.1794 1.0870708271642922 12.60024808202894 10.539259487534155 0 0 0
735 245 1 0.5897 0.7475683718769638 15.905540388058814 10.195677594670661 0 0 0
736 246 2 -1.1794 -0.035266964944226015 14.158534254241065 7.590254791729381 0 0 0
737 246 1 0.5897 0.9057613859222102 13.989060425060039 7.634088117042117 0 0 0
726 242 1 0.5897 3.241396183694244 13.069391749770057 7.370119677225198 0 0 0
725 242 1 0.5897 3.361601443430763 14.533046087755448 7.002813734453693 0 0 0
742 248 2 -1.1794 1.4331478720763597 17.12100327827108 6.975018448138707 0 0 0
869 290 1 0.5897 0.5040075232030258 18.425555790499203 10.284296482622885 0 0 0
723 241 1 0.5897 5.33810030596807 13.799590582926585 9.139460033717882 0 0 0
731 244 1 0.5897 2.4937673588852554 17.120869843519554 8.710850750143425 0 0 0
732 244 1 0.5897 2.877345216106908 16.414458226230767 9.993614352598259 0 0 0
739 247 2 -1.1794 4.685902329535748 15.414139389554702 6.295950987985817 0 0 0
743 248 1 0.5897 1.328464133299621 17.782952381324943 6.291650928049493 0 0 0
721 241 2 -1.1794 4.680636452771781 13.941241635830094 9.820505959664146 0 0 0
870 290 1 0.5897 2.014768648774719 18.33022549915231 10.300802116153061 0 0 0
1221 407 1 0.5897 4.329541161365604 15.0077498280318 11.211194153708036 0 0 0
749 250 1 0.5897 0.9843943986148045 13.544632663759474 10.65642881817154 0 0 0
728 243 1 0.5897 5.186789069588571 16.568070358983302 8.63211334637608 0 0 0
722 241 1 0.5897 3.8452020609314843 13.930749684778219 9.353492561473328 0 0 0
741 247 1 0.5897 4.581941973128413 16.35702777588725 6.168332663502015 0 0 0
744 248 1 0.5897 1.4375561073269882 16.288011280445485 6.50358295393176 0 0 0
724 242 2 -1.1794 2.8233436368667193 13.920036180956046 7.50345352061353 0 0 0
733 245 2 -1.1794 1.2520227005002666 15.386776075960235 10.822224086672236 0 0 0
730 244 2 -1.1794 3.088989498554763 17.17906687107413 9.458156073459186 0 0 0
745 249 2 -1.1794 4.637480129085099 18.159203729226952 6.6519532681252596 0 0 0
727 243 2 -1.1794 6.040058026418743 16.656531142189653 9.056696609877381 0 0 0
1106 369 1 0.5897 4.873420224743548 12.593889362415807 11.344155029295495 0 0 0
729 243 1 0.5897 5.913380867424682 17.345783476452482 9.708626606591064 0 0 0
768 256 1 0.5897 6.025511167914444 14.378973236373517 7.275015082429182 0 0 0
747 249 1 0.5897 3.7868772257634022 18.407135218503022 7.0141268956806035 0 0 0
1201 401 2 -1.1794 4.309164258258771 13.836736935441005 15.77271734933908 0 0 0
1203 401 1 0.5897 4.581144759382745 13.252049518763975 16.4800416181811 0 0 0
1204 402 2 -1.1794 2.6892504062785267 13.740272257581136 13.310711779053655 0 0 0
1205 402 1 0.5897 3.04996285308698 13.80378943704713 14.195006627006846 0 0 0
1206 402 1 0.5897 3.290932031253149 13.157629215211179 12.847405029228849 0 0 0
1210 404 2 -1.1794 3.3022877802531974 16.765076316342853 14.86103013775428 0 0 0
1212 404 1 0.5897 4.23906991592478 16.873557022698147 14.697183599301157 0 0 0
1213 405 2 -1.1794 1.3186073615019587 15.25709162840818 15.960500937613482 0 0 0
1215 405 1 0.5897 2.1489540197881536 15.613640355043803 15.64496465717602 0 0 0
1218 406 1 0.5897 0.8330510705386082 14.12478179644406 13.738446845254442 0 0 0
1222 408 2 -1.1794 1.4295605349690865 17.086787585286803 12.831402490256568 0 0 0
1223 408 1 0.5897 1.4974821158431824 17.767134189004114 12.16159355700779 0 0 0
1224 408 1 0.5897 2.273599651154735 17.108804955199865 13.282266791572615 0 0 0
1229 410 1 0.5897 1.233649668695609 13.455749309482474 16.440511416727283 0 0 0
1211 404 1 0.5897 3.054747890136488 17.542099297163592 15.362119426297479 0 0 0
1202 401 1 0.5897 5.032977502989255 13.809319666259597 15.147021418171798 0 0 0
1214 405 1 0.5897 0.7000249907484507 15.983191761779505 15.881179991188601 0 0 0
1220 407 1 0.5897 3.6224199426239445 14.910357993415412 12.54616983037307 0 0 0
1219 407 2 -1.1794 4.2539586385101265 15.44141700502236 12.061104590518498 0 0 0
1227 409 1 0.5897 4.655692295037208 17.428275736750567 12.109331627665588 0 0 0
1228 410 2 -1.1794 1.1659027146690837 12.506205301117845 16.3409342405684 0 0 0
1216 406 2 -1.1794 -0.09156419967392365 13.87726991609077 13.73934554088309 0 0 0
1246 416 2 -1.1794 5.977061158373779 13.784692839995902 13.593118318842382 0 0 0
734 245 1 0.5897 1.3946386204873151 15.976645074759002 11.562387606348825 0 0 0
1247 416 1 0.5897 5.663000511564528 14.52103545493782 13.068430432232974 0 0 0
1298 433 1 0.5897 -0.039455110546552666 16.991430586591434 14.152927672087392 1 0 0
1700 567 1 0.5897 4.362841629894709 15.113077845411418 16.966629737646723 0 0 0
1248 416 1 0.5897 5.662367192646706 13.008464808377402 13.129897149408112 0 0 0
1225 409 2 -1.1794 4.631284518869996 18.378717819226203 11.998891107847015 0 0 0
1706 569 1 0.5897 4.891523109375279 18.34913175282163 17.000232759007343 0 0 0
1708 570 2 -1.1794 1.4410111829941956 12.602142314123617 22.32818556483094 0 0 0
1586 529 1 0.5897 5.384048256304957 12.731335515273964 18.507824094420712 0 0 0
1778 593 1 0.5897 0.22123576655411548 16.80744122379708 19.952931546468253 1 0 0
1705 569 2 -1.1794 4.681441611312496 18.256089997662 17.929389733673684 0 0 0
1689 563 1 0.5897 4.968163907176418 17.337769759964733 20.63243822055776 0 0 0
1701 567 1 0.5897 3.7884560230330377 15.172936249474894 18.365960657782917 0 0 0
261 87 1 0.5897 4.090165766402192 15.408020121281476 22.825514612461962 0 0 -1
1691 564 1 0.5897 2.540001672531855 16.219044817064123 21.236912967621894 0 0 0
1692 564 1 0.5897 2.758356459969476 16.493667966034586 19.764311878198548 0 0 0
1686 562 1 0.5897 2.957291822398256 14.069078595525292 19.92871207393954 0 0 0
1779 593 1 0.5897 0.180220831693315 17.681682028292833 21.188103835762977 1 0 0
1704 568 1 0.5897 1.2495139455311564 17.557213217812663 17.714404913916248 0 0 0
1703 568 1 0.5897 1.5871328942126224 16.093034261956564 17.89839078614901 0 0 0
1685 562 1 0.5897 2.9001996173296622 12.943566688190321 18.917972757710974 0 0 0
1695 565 1 0.5897 1.4049179647475079 14.302453383241742 22.171544041129994 0 0 0
1682 561 1 0.5897 5.124452939737635 13.574719279183318 20.70511961107143 0 0 0
1702 568 2 -1.1794 1.3413756292435843 16.880034420755884 18.384566388240195 0 0 0
1697 566 1 0.5897 0.7915411830585217 13.703740797716218 19.232261821985347 0 0 0
1690 564 2 -1.1794 3.104214431654127 16.70106224658509 20.632357215992368 0 0 0
1707 569 1 0.5897 4.508957166320493 17.321613091733653 18.04401589179922 0 0 0
1684 562 2 -1.1794 2.605447912620034 13.841742245971911 19.06810218350872 0 0 0
1694 565 1 0.5897 0.6503334151565373 15.536316634298924 21.72448807548506 0 0 0
1693 565 2 -1.1794 1.347297677857942 15.24727329547879 22.313424229861745 0 0 0
1681 561 2 -1.1794 4.345204476280602 13.837957354485695 21.194647337770885 0 0 0
1699 567 2 -1.1794 4.41531355824016 15.605110433496991 17.785941383569522 0 0 0
1683 561 1 0.5897 4.333318655617499 13.258613026107282 21.9564513465384 0 0 0
1830 610 1 0.5897 2.242405804075464 18.505652436992165 21.60054536363444 0 0 0
1687 563 2 -1.1794 5.868057217070022 17.071533984219815 20.82087736054172 0 0 0
361 121 2 -1.1794 4.6873322249278155 19.85126811154053 4.369079533928781 0 0 0
362 121 1 0.5897 3.8613539910356947 19.918440580721715 3.8900849792236865 0 0 0
364 122 2 -1.1794 2.7631100484409936 20.296981005372274 2.384882525948924 0 0 0
366 122 1 0.5897 3.0278230433306605 21.0615512411663 1.8735178413700335 0 0 0
370 124 2 -1.1794 3.2427922426471643 23.4329254732765 3.0752558531578575 0 0 0
371 124 1 0.5897 4.179160859271893 23.291523091471564 3.214519348420304 0 0 0
372 124 1 0.5897 2.8193040122557202 22.712094405167292 3.541306406655687 0 0 0
373 125 2 -1.1794 1.7857433270823941 21.608651782673657 4.89299097534302 0 0 0
375 125 1 0.5897 1.0699910996151636 22.001628080737724 4.393553592707151 0 0 0
382 128 2 -1.1794 1.076265981859783 23.338608596715815 1.302068490740733 0 0 0
383 128 1 0.5897 1.9670350211568226 23.306766931845857 1.650928224354505 0 0 0
390 130 1 0.5897 1.4508943545262052 19.8498969071005 4.912027909213417 0 0 0
384 128 1 0.5897 0.9949160012597622 22.54141975493642 0.7786034888562943 0 0 0