LAMMPS data file via write_data, version 30 Jul 2021, timestep = 4250000

1296 atoms
2 atom types
864 bonds
1 bond types
432 angles
1 angle types

-10.663544102302767 12.643544102302767 xlo xhi
-9.126740913925273 12.116738913925273 ylo yhi
0.10895552955159715 21.751043470458274 zlo zhi
-9.244045010638818 1.8725244299989814 2.8345642042150803 xy xz yz

Masses

1 1.008
2 15.999

Pair Coeffs # lj/cut/tip4p/long/omp

1 0 0
2 0.21084 3.1668

Bond Coeffs # harmonic/omp

1 450 0.9572

Angle Coeffs # harmonic/omp

1 55 104.52

Atoms # full

282 94 1 0.5897 -10.485385619595442 -4.046009888510451 1.3273674396857935 1 1 0
298 100 2 -1.1794 -5.982512125528953 -7.149500676208749 4.219156574339329 1 1 0
280 94 2 -1.1794 -9.645940064748105 -4.505543957826061 1.3090279387629347 1 1 0
299 100 1 0.5897 -6.54559248595915 -7.9232282253063175 4.197714130835489 1 1 0
270 90 1 0.5897 -8.60253508613868 -7.200183856087591 2.127548245830068 1 1 0
163 55 2 -1.1794 -7.275806005327455 -7.904204384052969 0.9326974312108319 1 1 0
164 55 1 0.5897 -6.445066510287063 -8.266708180241022 1.2403008769239314 1 1 0
269 90 1 0.5897 -9.472931049175784 -5.976350464384611 2.3186444700903346 1 1 0
268 90 2 -1.1794 -9.312970998084332 -6.853322276562382 2.667108116494921 1 1 0
323 108 1 0.5897 -6.398258096564349 -5.538904185899132 3.456275166036723 1 1 0
324 108 1 0.5897 -7.222902587253067 -4.275761200807715 3.583965793646001 1 1 0
73 25 2 -1.1794 -8.33180576774097 -3.6825957175032906 4.814663437734004 1 0 0
314 105 1 0.5897 -8.794482974388975 -6.680109672270081 4.419193548960689 1 1 0
275 92 1 0.5897 -10.600315138605493 -7.879810418744576 3.31710178478268 1 1 0
315 105 1 0.5897 -8.68064670797082 -5.4672618090019895 5.318173888057329 1 1 0
300 100 1 0.5897 -5.103582044919055 -7.4875844118858605 4.047841503609293 1 1 0
322 108 2 -1.1794 -6.550589787332588 -4.689359998506379 3.0425725556148793 1 1 0
281 94 1 0.5897 -8.99073082763378 -3.8112200104259744 1.378297165999061 1 1 0
261 87 1 0.5897 -6.708111528655753 -4.93648526420206 1.1206865212400225 1 1 0
259 87 2 -1.1794 -6.8762205757619626 -5.261270563564144 0.23611231839131688 1 1 0
260 87 1 0.5897 -7.060438227637304 -6.1931833222132235 0.35342590871972057 1 1 0
313 105 2 -1.1794 -8.763766758305056 -6.420586193511015 5.339995668366003 1 1 0
165 55 1 0.5897 -7.554348735894082 -8.499467057267095 0.23672193151230192 1 1 0
429 143 1 0.5897 -6.517413997976557 -7.347532559974148 8.498282826559809 1 0 0
428 143 1 0.5897 -6.639332960893668 -7.063473908228141 9.980204063067799 1 0 0
427 143 2 -1.1794 -6.021270955721032 -7.024555526537863 9.25045879229919 1 0 0
419 140 1 0.5897 -8.838602335641735 -5.506945613994183 8.744397068781856 1 0 0
418 140 2 -1.1794 -9.533231021446461 -5.945672117983692 9.23534814182229 1 0 0
413 138 1 0.5897 -7.618920990986815 -3.6710129382011587 7.738930608964125 1 0 0
349 117 2 -1.1794 -7.082012615119947 -3.9207335135124435 10.797582651158992 0 0 0
627 209 1 0.5897 -10.229694147364796 -6.74786551972915 6.368112451095814 1 1 0
618 206 1 0.5897 -7.876600620982288 -7.816881744428496 6.388653915277996 1 1 0
350 117 1 0.5897 -7.161557597432407 -4.265601279547031 9.908227984783943 0 0 0
414 138 1 0.5897 -6.866352956060579 -4.9600636656956585 7.48614857062134 1 0 0
412 138 2 -1.1794 -7.490282070937818 -4.553179343398094 8.08725809664963 1 0 0
420 140 1 0.5897 -9.071219680879334 -6.547185258268124 9.819125211933219 1 0 0
631 211 2 -1.1794 -5.636990817858383 -5.541348015677907 6.37121101588184 1 1 0
351 117 1 0.5897 -6.979099076303793 -2.976336536666028 10.680630200791528 0 0 0
626 209 1 0.5897 -10.56116327297826 -6.660681861603352 7.8425678723187415 1 1 0
633 211 1 0.5897 -5.845873962100318 -6.096365627458711 5.619801135048958 1 1 0
616 206 2 -1.1794 -7.49003319602212 -8.14882314645077 7.1988637861286895 1 1 0
684 228 1 0.5897 -8.491146323605843 -6.398647210549754 14.308339349145944 0 0 0
740 247 1 0.5897 -10.869529881999894 -3.4330722127300373 11.979374665587303 1 0 0
652 218 2 -1.1794 -5.662650736265682 -5.586549640955367 12.610920147657696 0 0 0
682 228 2 -1.1794 -7.985044355771423 -6.953059303538204 13.71444203420252 0 0 0
780 260 1 0.5897 -7.607157250139916 -4.0375373666909375 15.217512213895612 0 0 0
779 260 1 0.5897 -7.172899211010062 -2.9700431965500504 14.236114094651354 0 0 0
778 260 2 -1.1794 -7.94756058757126 -3.426380648112188 14.564327011565435 0 0 0
768 256 1 0.5897 -9.446345809895162 -2.6289663811294055 14.999673310878835 0 0 0
654 218 1 0.5897 -6.066805738993764 -4.95676521720369 12.014196900176493 0 0 0
653 218 1 0.5897 -6.388933463417729 -6.133058906068982 12.910779537056898 0 0 0
661 221 2 -1.1794 -9.383210359913772 -4.384096302791966 12.334876536969563 0 0 0
729 243 1 0.5897 -8.204492588493242 -7.1234998763490704 11.879236574412667 1 0 0
788 263 1 0.5897 -5.176052354882718 -4.778803633531023 15.513378934570348 0 0 0
663 221 1 0.5897 -8.727222196549382 -4.252496502494706 11.650491454843975 0 0 0
766 256 2 -1.1794 -10.285595357924413 -2.1727307306131705 15.060405970763272 0 0 0
662 221 1 0.5897 -8.9412293513923 -4.125908196165872 13.14371241444129 0 0 0
727 243 2 -1.1794 -8.143863987530942 -7.476537920993688 10.991607602357295 1 0 0
767 256 1 0.5897 -10.941506034019826 -2.861956319615209 14.955734953758729 0 0 0
789 263 1 0.5897 -4.767361953140638 -4.9187150793851 14.062546718986003 0 0 0
757 253 2 -1.1794 -9.74539196921551 -5.788350661589109 15.618073121060997 0 0 0
1130 377 1 0.5897 -7.383319301045629 -1.6123909121541304 18.73649355377665 0 0 0
1129 377 2 -1.1794 -7.820085008247171 -1.8448381107813177 17.917092330855038 0 0 0
1121 374 1 0.5897 -4.7603528878499315 -3.284264181754441 18.754480128334446 0 0 0
1219 407 2 -1.1794 -10.553228985659565 -1.8445718344722728 20.24581283425949 0 0 0
1152 384 1 0.5897 -6.887201172771878 -3.9699967118401727 19.771087701321456 0 0 0
1225 409 2 -1.1794 -8.315819729566645 -3.408446893241459 20.842318497806616 0 0 0
1227 409 1 0.5897 -9.103072279178695 -2.9853567142197672 20.499715160427545 0 0 0
1109 370 1 0.5897 -8.779970275951866 -3.302115965956081 17.795364773376274 0 0 0
1108 370 2 -1.1794 -9.40090985339284 -4.028516701212842 17.74082791310206 0 0 0
1089 363 1 0.5897 -6.413701423089757 -4.487675268184301 17.393100437913304 0 0 0
1248 416 1 0.5897 -5.803248035624219 -1.4266501612110272 20.6126606494332 0 0 0
1097 366 1 0.5897 -9.206659501785673 -5.7575403920588695 18.45657483347055 0 0 0
1131 377 1 0.5897 -7.180094049169933 -1.636552357938804 17.236626614472573 0 0 0
1151 384 1 0.5897 -5.937980895211896 -5.144936025186301 19.66942184755682 0 0 0
1150 384 2 -1.1794 -6.157888301840155 -4.311352349546713 19.25365667356651 0 0 0
1087 363 2 -1.1794 -6.656127821211255 -4.9156572068687 16.57193170389362 0 0 0
1221 407 1 0.5897 -10.940370468966876 -2.0656788765857392 19.398793917997896 0 0 0
1088 363 1 0.5897 -6.623815104036456 -5.851484020152978 16.770233164826045 0 0 0
1143 381 1 0.5897 -8.225115205435433 -5.2783352547893365 21.49610944022254 0 0 0
1226 409 1 0.5897 -8.070037567198053 -2.879411029367647 21.60126510550942 0 0 0
1110 370 1 0.5897 -10.260329373748554 -3.616777980136618 17.830455864701207 0 0 0
1096 366 2 -1.1794 -8.998273805185246 -6.646861052425196 18.74258285882995 0 0 0
1141 381 2 -1.1794 -8.462424716668103 -6.205604037339182 21.48838058203671 0 0 0
1142 381 1 0.5897 -8.647482653921797 -6.398481115721097 20.569291229881575 0 0 0
758 253 1 0.5897 -9.457619956312588 -5.262033158281959 16.364037670978707 0 0 0
107 36 1 0.5897 -9.367748039943656 1.6613934657393852 3.172958526999003 1 0 0
69 23 1 0.5897 -11.083563331519724 -2.4690395130091707 3.242997185911092 1 0 0
272 91 1 0.5897 -9.316822703900034 -1.0331963867254785 1.040790196543579 1 1 0
271 91 2 -1.1794 -10.158260877303176 -0.6322571840540832 0.8230895515254144 1 1 0
301 101 2 -1.1794 -8.039180324848575 -2.195808031336913 1.7375863406513432 1 1 0
256 86 2 -1.1794 -12.085085066234022 -3.2018176551896955 1.9261238971083574 1 1 0
258 86 1 0.5897 -12.483068085683124 -2.7095375233678416 1.2082705733954664 1 1 0
83 28 1 0.5897 -9.557562718014138 -0.733214914751187 3.925053848454616 1 0 0
67 23 2 -1.1794 -10.69567541565865 -2.277750326783747 4.096897849833436 1 0 0
99 33 1 0.5897 -11.83279190270357 1.6073011851767536 5.233168526564704 1 0 0
68 23 1 0.5897 -11.425984354900969 -2.3426372114158074 4.71210904661008 1 0 0
52 18 2 -1.1794 -12.275453473858224 0.24990929163134012 2.59801996677131 1 0 0
98 33 1 0.5897 -11.954062984042658 0.3022304248955354 4.475406724108916 1 0 0
53 18 1 0.5897 -12.512708064084798 1.1267316687242186 2.296341775385956 1 0 0
54 18 1 0.5897 -11.541430809799271 -0.005744891896714677 2.0394634346817693 1 0 0
82 28 2 -1.1794 -8.93432126970763 -0.019996972336619123 4.063306871775643 1 0 0
417 139 1 0.5897 -9.099399166821994 1.258706617723469 5.4332062398662035 1 0 0
273 91 1 0.5897 -10.563923773987312 -1.244230203688728 0.20889790524927032 1 1 0
97 33 2 -1.1794 -11.956572556450773 0.6667493315256454 5.360466931270363 1 0 0
44 15 1 0.5897 -10.038457390293999 0.9992734883679102 0.2602145081147398 1 0 0
59 20 1 0.5897 -13.615754431846849 -0.728852488728279 3.2736319594270187 1 0 0
84 28 1 0.5897 -8.087213592705291 -0.45602222916838464 4.155288123093558 1 0 0
75 25 1 0.5897 -9.067090498374803 -3.18179126235823 4.461543891259729 1 0 0
74 25 1 0.5897 -7.938483271136569 -3.1034327402821527 5.46748114177367 1 0 0
527 176 1 0.5897 -11.918219875167942 1.3894786155104928 8.629673660645167 1 0 0
526 176 2 -1.1794 -12.642260316870876 0.9594513603161481 9.084513570146681 1 0 0
426 142 1 0.5897 -8.86331567061258 -1.6970550873011803 6.971818732841201 1 0 0
411 137 1 0.5897 -13.608793191928775 0.03904637273875089 6.354853737658313 1 0 0
424 142 2 -1.1794 -7.949842604928376 -1.9708339676499023 6.889501439217871 1 0 0
402 134 1 0.5897 -10.786196213953925 -0.3533045333589424 6.622413498647888 1 0 0
401 134 1 0.5897 -11.168957624228172 -1.3150834659499582 7.726809419576107 1 0 0
400 134 2 -1.1794 -10.41308082514243 -0.8911060559745785 7.320695602480681 1 0 0
537 179 1 0.5897 -9.583581926229034 -0.0971321425057603 8.594583043657995 1 0 0
536 179 1 0.5897 -9.850457360973756 0.1164290775257264 10.06928905521825 1 0 0
535 179 2 -1.1794 -9.172409444950109 0.2142974175407204 9.400925396518437 1 0 0
528 176 1 0.5897 -12.224496167220135 0.47575407267821923 9.796947670178211 1 0 0
435 145 1 0.5897 -7.6769272223856735 -0.664596658443676 9.815480108397255 0 0 0
522 174 1 0.5897 -10.070717120347696 2.2314003753092457 7.590377529886496 1 0 0
425 142 1 0.5897 -7.447257891549463 -1.1619971139369323 6.986553412837466 1 0 0
415 139 2 -1.1794 -8.873617566022281 1.7324610514609695 6.233734700488079 1 0 0
790 264 2 -1.1794 -10.90416052340054 0.2693052574414825 13.752382066505389 0 0 0
888 296 1 0.5897 -10.614656460322685 3.160750248899065 15.330241729600843 0 0 0
762 254 1 0.5897 -9.175758979773246 2.224383837969018 12.051578938617993 0 0 0
761 254 1 0.5897 -9.442793943636996 1.2132888590950888 13.145926339786026 0 0 0
760 254 2 -1.1794 -8.732864894726735 1.6358344725911387 12.662737599377376 0 0 0
835 279 2 -1.1794 -11.265780649533761 -0.4372414980562205 11.038024424452994 1 0 0
792 264 1 0.5897 -11.619018630033706 0.545461265126173 14.325837576741632 0 0 0
836 279 1 0.5897 -11.465065263410898 -1.369907607535204 11.11926267546164 1 0 0
837 279 1 0.5897 -11.10415929482509 -0.1471150389773932 11.935748636315163 1 0 0
791 264 1 0.5897 -10.60850226711367 -0.5630253688190496 14.121034921627544 0 0 0
769 257 2 -1.1794 -12.468736645619408 2.717508254198025 12.411659948379938 0 0 0
896 299 1 0.5897 -8.054867704408867 2.773218939026716 15.49001023337543 0 0 0
770 257 1 0.5897 -12.008703977064524 2.9747269041053706 13.210672364532668 0 0 0
771 257 1 0.5897 -11.809241387225848 2.7884803617895155 11.721682756837975 0 0 0
866 289 1 0.5897 -12.562342656009491 1.698942839886131 16.106262099091737 0 0 0
1009 337 2 -1.1794 -11.180225702242925 3.6806325516158243 21.008828930327883 0 -1 0
1260 420 1 0.5897 -9.981012000037543 3.0364041376201776 19.753373998741782 0 0 0
1011 337 1 0.5897 -12.050700086793958 3.961482886018283 20.7267674031659 0 -1 0
1259 420 1 0.5897 -9.075317727704725 1.8647995351247797 19.438815816452653 0 0 0
1258 420 2 -1.1794 -9.40507126744266 2.685918926643547 19.07395307511745 0 0 0
1195 399 2 -1.1794 -9.61570953458433 2.20899725896515 16.3654426229457 0 0 0
1196 399 1 0.5897 -9.717939543057925 1.2597879081599288 16.434173578253287 0 0 0
1251 417 1 0.5897 -11.299719319741174 1.9406655667803658 21.59853059109274 0 0 0
1236 412 1 0.5897 -7.875612682809751 -0.09308911537445397 20.301745717684085 0 0 0
1216 406 2 -1.1794 -12.503495321382184 2.9379286746441657 17.601129016284006 0 0 0
1235 412 1 0.5897 -9.359521468078581 -0.38409133121936634 20.37249116224375 0 0 0
1234 412 2 -1.1794 -8.723248099561422 0.32707604219766395 20.447184598923446 0 0 0
1099 367 2 -1.1794 -9.950040057055524 -0.3564990121721827 17.19742447598783 0 0 0
1250 417 1 0.5897 -11.619180257062409 0.822637196802166 20.628956988392133 0 0 0
1206 402 1 0.5897 -11.336719430592483 0.0929312891438574 18.29310516751437 0 0 0
1249 417 2 -1.1794 -11.545749536283608 1.0162998577941913 21.56344174906985 0 0 0
1197 399 1 0.5897 -9.631964636951132 2.518492562392165 17.27105731412466 0 0 0
1100 367 1 0.5897 -9.221066579485063 -0.7410824697888074 17.684073485143138 0 0 0
1205 402 1 0.5897 -12.181716659930723 1.3392024258513366 18.450092970943015 0 0 0
1246 416 2 -1.1794 -6.299773975300472 -0.8420154162152045 20.040188688257356 0 0 0
1217 406 1 0.5897 -11.962699657069706 3.692343993027846 17.834892509737507 0 0 0
1204 402 2 -1.1794 -12.02633107824973 0.4766528104360983 18.834731672777796 0 0 0
1218 406 1 0.5897 -13.403396791774128 3.255134488014912 17.676797980676408 0 0 0
1101 367 1 0.5897 -10.082134645291516 -0.9476010720762229 16.456178698637764 0 0 0
1229 410 1 0.5897 -8.118798102942149 3.691656454030303 18.317622483008012 0 0 0
40 14 2 -1.1794 -15.26102293992771 3.861892386272732 1.7224055690900553 1 0 0
177 59 1 0.5897 -14.342159363971733 4.445388663769686 3.297650107184787 1 0 0
42 14 1 0.5897 -15.710843825644524 4.447417850126779 1.1134065310748502 1 0 0
108 36 1 0.5897 -10.165996221091973 2.943971630878213 3.2712414486515096 1 0 0
175 59 2 -1.1794 -13.88854055809421 4.627290249551724 4.120655322591273 1 0 0
55 19 2 -1.1794 -13.176843556120229 6.278616889650646 0.7793523322512739 1 0 0
56 19 1 0.5897 -12.327781294910015 5.969311687107185 1.0949164784672338 1 0 0
66 22 1 0.5897 -13.732748317035307 3.0575497349141685 1.499780631240682 1 0 0
65 22 1 0.5897 -12.326231457048866 3.553613563058301 1.24050964341681 1 0 0
64 22 2 -1.1794 -12.838512505023495 2.7521752343475665 1.3472991587597989 1 0 0
162 54 1 0.5897 -14.624293330240658 6.722173634366547 1.9000838172981962 1 0 0
190 64 2 -1.1794 -12.064200380044909 6.904710986915346 4.209487959016 1 0 0
191 64 1 0.5897 -12.671121434051049 6.164737428014869 4.193001514028431 1 0 0
85 29 2 -1.1794 -10.920597773091403 5.001729170388568 1.5094642776416725 1 0 0
183 61 1 0.5897 -12.382632040600189 3.4412088635392095 4.4354212727684486 1 0 0
181 61 2 -1.1794 -11.46888745605265 3.282145259234712 4.671943336467081 1 0 0
176 59 1 0.5897 -14.56313309341905 4.531152684541649 4.7927542061405815 1 0 0
160 54 2 -1.1794 -15.227494266380813 7.0825581786415714 2.5500337284436454 1 0 0
167 56 1 0.5897 -16.671627361868225 6.257500772825567 3.2654202162276875 1 0 0
45 15 1 0.5897 -9.818478729848403 2.3357828714878135 0.93657538428527 1 0 0
182 61 1 0.5897 -11.3043466564606 3.8743323453886074 5.40579520451507 1 0 0
192 64 1 0.5897 -11.196438910408745 6.504583632318015 4.154144802906005 1 0 0
57 19 1 0.5897 -13.473820352984774 5.594193276050476 0.17961201058354898 1 0 0
508 170 2 -1.1794 -13.592063979561395 6.299966732845725 7.0610109258341325 1 0 0
645 215 1 0.5897 -12.668257193619237 7.063190484859492 8.451781049247835 1 0 0
644 215 1 0.5897 -12.838799367542089 7.17623876672941 9.951672398655251 1 0 0
643 215 2 -1.1794 -12.20677293501176 7.324922393672265 9.248495830111013 1 0 0
509 170 1 0.5897 -14.30526568078086 6.051673065140502 7.648979023982299 1 0 0
459 153 1 0.5897 -10.150550917865896 4.178938931858356 10.679672105119392 0 0 0
532 178 2 -1.1794 -11.045940258909205 5.074806759336058 6.8176946632889734 1 0 0
543 181 1 0.5897 -10.760418666912386 6.109270600662157 9.618405759268434 0 0 0
510 170 1 0.5897 -14.012760036616822 6.829788870335538 6.38399941592863 1 0 0
636 212 1 0.5897 -15.474670992628983 7.570744834053334 9.712973647065445 1 0 0
521 174 1 0.5897 -10.758988298182992 3.5746661599133773 7.70777490495165 1 0 0
534 178 1 0.5897 -11.912510003857674 5.47781199163863 6.764662194657151 1 0 0
519 173 1 0.5897 -16.584748476945524 7.410480008022789 6.044001158375499 1 0 0
457 153 2 -1.1794 -10.276387344636445 3.236580449995733 10.790489431642117 0 0 0
533 178 1 0.5897 -10.4402719470342 5.814137869006283 6.870201350255761 1 0 0
520 174 2 -1.1794 -10.701169547285255 2.7148521250694966 8.124232267428816 1 0 0
458 153 1 0.5897 -10.454105056829624 2.912549381073463 9.907520866667534 0 0 0
887 296 1 0.5897 -10.35384804439747 4.036960356524665 14.123824166285656 0 0 0
869 290 1 0.5897 -12.652295445357888 8.235924712887746 12.892839587274741 0 0 0
876 292 1 0.5897 -12.698568947091957 4.388478409600168 14.86165388147927 0 0 0
848 283 1 0.5897 -14.027522591031229 3.6151831724328485 12.00650998131539 1 0 0
945 315 1 0.5897 -14.394259138871272 7.066648483169553 11.990508128420988 1 0 0
886 296 2 -1.1794 -11.058651207693863 3.6121049261675147 14.612468305032895 0 0 0
900 300 1 0.5897 -14.591745950663462 7.689068775686371 14.372557635434196 0 0 0
899 300 1 0.5897 -13.875424140517072 6.371433690708084 14.166115804565516 0 0 0
898 300 2 -1.1794 -13.944624642144115 7.2586736055634535 13.813829808465513 0 0 0
874 292 2 -1.1794 -13.530560250180391 4.860318926731216 14.825151227423047 0 0 0
875 292 1 0.5897 -14.192640844298062 4.193843297340482 15.008412233905947 0 0 0
944 315 1 0.5897 -14.498990388913711 5.860912627533297 11.0809291169804 1 0 0
943 315 2 -1.1794 -14.371616648384201 6.809504929401774 11.06880897794195 1 0 0
650 217 1 0.5897 -15.516511093113976 8.837359370149342 16.311137858042432 0 -1 0
649 217 2 -1.1794 -15.74323693334049 8.249115998218441 15.590814468978937 0 -1 0
1209 403 1 0.5897 -13.382176955029554 6.053212255248997 16.276249168877722 0 0 0
1018 340 2 -1.1794 -11.93706714561642 7.515745409603413 20.343402905444613 0 -1 0
1019 340 1 0.5897 -12.595993151853225 6.828005774821369 20.43816036691923 0 -1 0
1020 340 1 0.5897 -11.126295356723766 7.045952942256664 20.148148991368544 0 -1 0
989 330 1 0.5897 -15.11276264785068 8.35448281586576 18.70404615173881 0 -1 0
1237 413 2 -1.1794 -10.892663618431982 5.293968777246553 17.85866093987282 0 0 0
1003 335 2 -1.1794 -13.523986369075022 5.187609752868632 20.403531299177796 0 -1 0
1030 344 2 -1.1794 -9.44932142064219 6.298859709468575 19.91886432430754 0 -1 0
1032 344 1 0.5897 -9.066062648869526 5.687713178649755 20.547882589725 0 -1 0
988 330 2 -1.1794 -14.907195524922574 7.449884824169404 18.939790187331692 0 -1 0
1207 403 2 -1.1794 -13.143129107409244 6.642398712606324 16.991803674502503 0 0 0
1208 403 1 0.5897 -12.356604445462729 6.2513251344022525 17.37205235549231 0 0 0
1239 413 1 0.5897 -10.311835963425814 5.194663138707698 17.10443471060188 0 0 0
1238 413 1 0.5897 -10.314847195926031 5.56307296784423 18.572760857317817 0 0 0
990 330 1 0.5897 -14.376860380947363 7.126541821868182 18.211541132738535 0 -1 0
980 327 1 0.5897 -13.000395198620048 8.477439511362297 16.566565963246106 0 -1 0
1043 348 1 0.5897 -12.364770506777171 9.014616973132084 19.462857545877362 0 -1 0
1035 345 1 0.5897 -14.631885856521373 9.153729777082 21.57089025516747 0 -1 0
1034 345 1 0.5897 -14.70564010790751 7.925276426634975 20.689116902639483 0 -1 0
1033 345 2 -1.1794 -14.703791119772625 8.199918670628096 21.606034781593515 0 -1 0
1010 337 1 0.5897 -10.925913146646034 4.319643409998497 21.674626946287805 0 -1 0
1005 335 1 0.5897 -13.896221981074362 4.983790285529347 19.54557197029408 0 -1 0
43 15 2 -1.1794 -8.020288936698417 4.761400314700692 21.716415092290983 1 0 -1
193 65 2 -1.1794 -14.178130802616458 12.099246503430459 1.6974135036651419 1 0 0
174 58 1 0.5897 -16.531307776472865 10.063666646519524 1.7248769023674295 1 0 0
173 58 1 0.5897 -15.057535139478343 10.403627057628421 1.6608982841187019 1 0 0
172 58 2 -1.1794 -15.664968819128315 9.6640150614989 1.6479978120710788 1 0 0
283 95 2 -1.1794 -16.740427292387423 11.738051576188314 4.093633977161087 1 0 0
161 54 1 0.5897 -15.417231067962213 7.966986725137781 2.2371479146227795 1 0 0
153 51 1 0.5897 -13.041873867852555 9.31582836251499 1.2869927080851253 1 0 0
215 72 1 0.5897 -12.556097074454463 8.49184588403851 3.3683807125923373 1 0 0
285 95 1 0.5897 -17.201864093422458 11.373742182196382 3.3382449785657307 1 0 0
148 50 2 -1.1794 -18.112403041541505 10.796850395438748 1.7997615083575949 1 0 0
289 97 2 -1.1794 -14.447443951573167 10.532454501493918 4.791603496861225 1 0 0
150 50 1 0.5897 -18.555558801140744 11.344840486141345 1.1521733656527977 1 0 0
284 95 1 0.5897 -17.317122649069173 11.559177260980947 4.836214922858569 1 0 0
214 72 2 -1.1794 -12.673031533835355 9.386861508170016 3.049986609244915 1 0 0
216 72 1 0.5897 -13.299744902621306 9.77821884119818 3.658461644833161 1 0 0
291 97 1 0.5897 -15.256445934009207 10.92466678503087 4.4632130703663835 1 0 0
151 51 2 -1.1794 -13.002204195644445 9.02786632966433 0.37502575992817105 1 0 0
206 69 1 0.5897 -15.035308436455594 7.5321894185771665 4.236545994254916 1 0 0
207 69 1 0.5897 -14.814559298290819 8.741246384680887 5.120611764664548 1 0 0
1118 373 1 0.5897 -15.823775214120895 8.566176890590432 0.1372151083267592 0 -1 1
152 51 1 0.5897 -13.096564079499073 8.076377231957393 0.4193007222299214 1 0 0
205 69 2 -1.1794 -14.890313459179888 7.787448633904786 5.147594482100399 1 0 0
525 175 1 0.5897 -11.976039619708299 8.062044772827905 5.423981976646502 1 0 0
640 214 2 -1.1794 -14.098152872394428 12.104565278911961 7.008479704924558 1 0 0
630 210 1 0.5897 -12.96641572770249 9.227322518036432 7.377456699208583 1 0 0
629 210 1 0.5897 -13.732459742314258 10.51953533239841 7.565151834172215 1 0 0
628 210 2 -1.1794 -13.600347492454016 9.654710884371793 7.953347329500181 1 0 0
566 189 1 0.5897 -13.318965664170793 10.007400322989715 9.722167943101319 0 0 0
641 214 1 0.5897 -13.623707856058825 12.932518818242679 6.933944465346032 1 0 0
567 189 1 0.5897 -13.225119920341193 11.204575232893513 10.64416969486635 0 0 0
642 214 1 0.5897 -15.013816948059947 12.361606972469817 7.116407017608516 1 0 0
635 212 1 0.5897 -15.101655663295624 8.487264840472475 8.567522665829847 1 0 0
634 212 2 -1.1794 -15.835114762245436 7.993055031386897 8.933375825596602 1 0 0
327 109 1 0.5897 -13.614626108939236 13.197137135426454 9.674914248092142 0 -1 0
617 206 1 0.5897 -17.46638407445959 12.694804298526408 7.66777943206473 1 0 0
565 189 2 -1.1794 -13.34327706655934 10.254708639272588 10.646512749978118 0 0 0
290 97 1 0.5897 -14.212778034247894 11.06639603935895 5.550634222296516 1 0 0
658 220 2 -1.1794 -16.59917289092745 12.032881337737075 14.939087796987334 0 -1 0
870 290 1 0.5897 -12.300630634364383 9.244901338850097 11.82068509709444 0 0 0
728 243 1 0.5897 -17.423671262828123 12.81752579527591 11.1078038445323 1 -1 0
671 224 1 0.5897 -13.422852236603166 11.277461275280713 14.085864804446162 0 -1 0
680 227 1 0.5897 -11.1712036104525 9.552298201912548 15.479571893284643 0 -1 0
672 224 1 0.5897 -13.76426128175063 10.223215736425777 15.117016267007111 0 -1 0
956 319 1 0.5897 -17.25704125879956 10.693628214774117 11.889805335244489 1 0 0
660 220 1 0.5897 -15.719935779621867 11.687964139796511 14.783726921880097 0 -1 0
879 293 1 0.5897 -14.734468197200588 10.015880931947644 11.704456920482134 0 0 0
878 293 1 0.5897 -15.222361913765273 10.16127891634997 13.130054948964839 0 0 0
877 293 2 -1.1794 -15.519153122247573 9.940455168292123 12.2472522019264 0 0 0
683 228 1 0.5897 -17.06720525646108 13.489626678782473 14.213012825158472 0 -1 0
670 224 2 -1.1794 -14.164321452795473 10.845232088643057 14.509478708637177 0 -1 0
868 290 2 -1.1794 -11.947313648137916 8.812137277043893 12.597807758077048 0 0 0
659 220 1 0.5897 -17.163802802901692 11.259980199612317 14.937821530013293 0 -1 0
681 227 1 0.5897 -10.909536548795128 9.375654274492609 13.999068742569193 0 -1 0
1140 380 1 0.5897 -12.060750223086881 12.684578303833009 20.700237514943208 0 -1 0
1138 380 2 -1.1794 -12.45523293758828 13.293761683441717 20.076281877480262 0 -1 0
1128 376 1 0.5897 -13.982256482593698 14.197972221035576 20.4030612428807 0 -1 0
1127 376 1 0.5897 -15.444736227443482 13.809259555727829 20.36099530509078 0 -1 0
1022 341 1 0.5897 -13.44010590715899 12.462304243849298 18.638058136556307 0 -1 0
1119 373 1 0.5897 -15.081367544848451 11.349592909440238 20.773322263409238 0 -1 0
1117 373 2 -1.1794 -14.309035540288496 10.867816995695629 21.06918120426407 0 -1 0
1044 348 1 0.5897 -13.129654893653328 10.29847686389572 19.704845203107116 0 -1 0
1042 348 2 -1.1794 -12.50460709690456 9.89129180936711 19.10510640676345 0 -1 0
1113 371 1 0.5897 -16.921033391444112 12.027115778129945 19.432832758631985 0 -1 0
981 327 1 0.5897 -12.70540345669816 9.816285146462674 17.208849772420674 0 -1 0
1111 371 2 -1.1794 -16.599719077607894 12.302795526019624 20.29130509185932 0 -1 0
991 331 2 -1.1794 -16.044732768644803 13.73372836720249 17.19096639340773 0 -1 0
992 331 1 0.5897 -15.245087849975022 13.306121201353006 17.497345239070583 0 -1 0
1098 366 1 0.5897 -17.544616969282004 14.311886536325348 18.15243503025747 0 -1 0
1023 341 1 0.5897 -13.287691881767149 12.399174340593474 17.133298118251847 0 -1 0
1021 341 2 -1.1794 -13.920566403947658 12.254810036450978 17.836612596360553 0 -1 0
1001 334 1 0.5897 -14.913982609311244 10.684823649155076 17.813679016342267 0 -1 0
1000 334 2 -1.1794 -15.533239422416393 9.956489611473737 17.860293159478033 0 -1 0
1126 376 2 -1.1794 -14.86480567140189 14.566502268592691 20.441287288668423 0 -1 0
979 327 2 -1.1794 -12.803517753881856 9.390417045593876 16.357237391492827 0 -1 0
1013 338 1 0.5897 -11.048320175967346 10.887057936722 18.617612237637093 0 -1 0
1002 334 1 0.5897 -16.391720066026515 10.375084708023367 17.923244326826005 0 -1 0
993 331 1 0.5897 -16.35008585524445 13.1831874675676 16.469882486392105 0 -1 0
305 102 1 0.5897 -1.3784855118326274 -6.016263806423828 2.4384252011425605 1 1 0
311 104 1 0.5897 -2.7061201841786406 -7.759665902291895 3.5168308047466414 1 1 0
199 67 2 -1.1794 0.4081407910239072 -7.9646325639752895 0.8089444487009418 1 1 0
318 106 1 0.5897 -2.6420467112459196 -4.22978590820029 1.628222529521119 1 1 0
241 81 2 -1.1794 -0.9862640144873467 -6.147454431464741 5.494915682429359 0 1 0
304 102 2 -1.1794 -1.2100673057797007 -6.872166830094179 2.832306321278503 1 1 0
316 106 2 -1.1794 -1.717544776027184 -4.469564704482382 1.5652543632370988 1 1 0
242 81 1 0.5897 -0.9824127698291534 -6.524751248955069 4.615230365981296 0 1 0
306 102 1 0.5897 -0.6510726728342942 -7.3221740514557485 2.198894680786042 1 1 0
310 104 2 -1.1794 -3.4541184410957904 -8.24015368255415 3.871343046800165 1 1 0
293 98 1 0.5897 -5.023127557923867 -3.881936100363916 2.3054107648068487 1 1 0
243 81 1 0.5897 -0.8811860904717737 -5.2066919438675345 5.353195226989597 0 1 0
317 106 1 0.5897 -1.2457778286395698 -3.663278371712817 1.7740122033722727 1 1 0
1179 393 1 0.5897 -2.3710621076440663 -8.001714430826105 0.11498079327425767 0 0 1
1177 393 2 -1.1794 -2.687215660701688 -8.905174278982093 0.11834967947648589 0 0 1
632 211 1 0.5897 -4.8285764344329 -5.911530771902191 6.725590679156996 1 1 0
555 185 1 0.5897 -2.626539009841725 -6.614558505012912 6.459767976268404 0 1 0
554 185 1 0.5897 -2.774372636221816 -6.709887625795185 7.963261244354264 0 1 0
553 185 2 -1.1794 -3.244771074917173 -6.868422429930459 7.144854136156045 0 1 0
546 182 1 0.5897 0.1178524529170577 -7.133619244225997 6.583938277196527 0 1 0
356 119 1 0.5897 1.3225817605668961 -7.091309709719512 10.094824162106551 0 0 0
544 182 2 -1.1794 0.6092113584959886 -7.783294694282115 7.086510640835688 0 1 0
348 116 1 0.5897 -1.1738555327004843 -6.355007685789419 9.96298379343319 0 0 0
347 116 1 0.5897 -1.0712316750908641 -5.377141092617331 8.812121785094252 0 0 0
346 116 2 -1.1794 -1.6780206712470882 -5.98060063563746 9.240683199698102 0 0 0
336 112 1 0.5897 -3.460145376586649 -5.19521501402283 9.485340605685021 0 0 0
334 112 2 -1.1794 -4.326255111670834 -4.787799038409308 9.479078681820182 0 0 0
359 120 1 0.5897 -4.740342976220425 -3.074250518218892 8.745399049055298 0 0 0
404 135 1 0.5897 -5.283804562329239 -3.7611232320009673 5.977108607036855 1 0 0
335 112 1 0.5897 -4.937210906639588 -5.5234958112101555 9.438016658096624 0 0 0
669 223 1 0.5897 -4.437637697983454 -3.7161337491164064 10.851787090830662 0 0 0
772 258 2 -1.1794 -5.723223960591201 -2.12775186377507 13.7249188428716 0 0 0
793 265 2 -1.1794 -2.0003868586447915 -5.960725586201111 15.682097174199907 0 0 0
795 265 1 0.5897 -2.8103546287073433 -5.6911606163120485 15.249150656519738 0 0 0
802 268 2 -1.1794 -2.793816685053091 -2.321010316767074 15.175858931399693 0 0 0
787 263 2 -1.1794 -4.4347320343264 -4.655637062381024 14.920662221687582 0 0 0
678 226 1 0.5897 -4.023080962318705 -6.212608202715046 12.30432066080234 0 0 0
718 240 2 -1.1794 0.01939821694332622 -6.767834288022945 13.906637167427332 0 0 0
699 233 1 0.5897 -0.9258350084934275 -4.317280681135374 11.62930021803202 0 0 0
697 233 2 -1.1794 -1.6968163896848676 -4.361703534329711 12.19469602326312 0 0 0
677 226 1 0.5897 -2.525973180642117 -5.997229188342702 12.2412856856331 0 0 0
676 226 2 -1.1794 -3.1940271453593336 -6.6821211394349325 12.212621889309265 0 0 0
698 233 1 0.5897 -1.367710862275331 -4.143890861381836 13.06673160446708 0 0 0
668 223 1 0.5897 -3.2313358803823657 -3.5648576606294267 11.753888309294014 0 0 0
667 223 2 -1.1794 -4.083703251693974 -3.175810808457941 11.558242136854846 0 0 0
657 219 1 0.5897 0.015295053091893607 -7.099536408920519 12.074626875810768 0 0 0