LAMMPS (30 Jul 2021)
  using 1 OpenMP thread(s) per MPI task
package omp 0
using multi-threaded neighbor list subroutines
echo both

include		in.partitions
variable        pid world 0
include		in.temp
variable        temperature equal 257.39
variable	tempDamp equal 100.0
include		in.pressure
variable        pressure equal 6750.0
variable        pressureDamp equal 1000.0 # This is 1 ps
include		in.seed
variable        seed world 745823

units		real
atom_style	full
read_restart    restart.lmp.${pid}
read_restart    restart.lmp.0
Reading restart file ...
  restart file = 30 Jul 2021, LAMMPS = 30 Jul 2021
  restoring atom style full from restart
  triclinic box = (-3.2645803 -0.089933316 -0.067611886) to (14.874579 22.669932 19.297610) with tilt (-0.098223066 -6.3255368 -0.014818322)
  4 by 4 by 4 MPI processor grid
  restoring pair style lj/cut/tip4p/long/omp from restart
  restoring bond style harmonic/omp from restart
  restoring angle style harmonic/omp from restart
  1008 atoms
  672 bonds
  336 angles
Finding 1-2 1-3 1-4 neighbors ...
  special bond factors lj:    0        0        0       
  special bond factors coul:  0        0        0       
     2 = max # of 1-2 neighbors
     1 = max # of 1-3 neighbors
     1 = max # of 1-4 neighbors
     2 = max # of special neighbors
  special bonds CPU = 1.981 seconds
  read_restart CPU = 2.461 seconds

include 	in.setup
variable	out_freq equal 1000
variable	out_freq2 equal 10000
variable	out_freq3 equal 1000

timestep	2.0

neigh_modify    delay 7 every 1

include		in.tip4p
# This is TIP4P/Ice

# create groups ###
group ox type 2
336 atoms in group ox
group hy type 1
672 atoms in group hy

# set charges - beside manually ###
set group ox charge -1.1794
Setting atom values ...
  336 settings made for charge
set group hy charge 0.5897
Setting atom values ...
  672 settings made for charge

# ### TIP3P Potential Parameters ###
pair_style lj/cut/tip4p/long/omp 2 1 1 1 0.1577 8.5
pair_coeff 1 1*2 0.000 0.000
pair_coeff 2 2 0.21084 3.1668
bond_style  harmonic
bond_coeff  1 450 0.9572
angle_style harmonic
angle_coeff 1 55 104.52
kspace_style pppm/tip4p/omp 1.0e-5
pair_modify tail yes

thermo          ${out_freq}
thermo          1000
thermo_style    custom step temp pe etotal epair emol press lx ly lz vol pxx pyy pzz pxy pxz pyz enthalpy

restart 	${out_freq3} restart.lmp.${pid} restart2.lmp.${pid}
restart 	1000 restart.lmp.${pid} restart2.lmp.${pid}
restart 	1000 restart.lmp.0 restart2.lmp.${pid}
restart 	1000 restart.lmp.0 restart2.lmp.0


include         in.dump
dump            myDump all atom ${out_freq2} dump.water.${pid}
dump            myDump all atom 10000 dump.water.${pid}
dump            myDump all atom 10000 dump.water.0
dump            myDump2 all dcd ${out_freq2} dump.dcd
dump            myDump2 all dcd 10000 dump.dcd
dump_modify     myDump append yes
dump_modify     myDump2 append yes


variable natoms 	equal  "count(all)"                        # NUMBER ATOMS
variable H      	equal  "enthalpy/v_natoms"                 # ENTHALPY-per-atom
variable Vol      	equal  "vol/v_natoms"                 # volume-per-atom
fix AVG all 		ave/time ${out_freq} 1 ${out_freq} v_Vol v_H file vol_enthalpy.dat
fix AVG all 		ave/time 1000 1 ${out_freq} v_Vol v_H file vol_enthalpy.dat
fix AVG all 		ave/time 1000 1 1000 v_Vol v_H file vol_enthalpy.dat



fix 		1 all shake 1e-6 200 0 b 1 a 1
       0 = # of size 2 clusters
       0 = # of size 3 clusters
       0 = # of size 4 clusters
     336 = # of frozen angles
  find clusters CPU = 0.151 seconds
fix             2 all nph tri ${pressure} ${pressure} ${pressureDamp}
fix             2 all nph tri 6750 ${pressure} ${pressureDamp}
fix             2 all nph tri 6750 6750 ${pressureDamp}
fix             2 all nph tri 6750 6750 1000
fix             3 all temp/csvr ${temperature} ${temperature} ${tempDamp} ${seed}
fix             3 all temp/csvr 257.39 ${temperature} ${tempDamp} ${seed}
fix             3 all temp/csvr 257.39 257.39 ${tempDamp} ${seed}
fix             3 all temp/csvr 257.39 257.39 100 ${seed}
fix             3 all temp/csvr 257.39 257.39 100 745823


run             250000
PPPM initialization ...
  extracting TIP4P info from pair style
  using 12-bit tables for long-range coulomb (../kspace.cpp:340)
  G vector (1/distance) = 0.37900965
  grid = 24 27 32
  stencil order = 5
  estimated absolute RMS force accuracy = 0.0024739655
  estimated relative force accuracy = 7.4502735e-06
  using double precision FFTW3
  3d grid and FFT values/proc = 3825 384
Last active /omp style is kspace_style pppm/tip4p/omp
Neighbor list info ...
  update every 1 steps, delay 7 steps, check yes
  max neighbors/atom: 2000, page size: 100000
  master list distance cutoff = 10.8154
  ghost atom cutoff = 10.8154
  binsize = 5.4077, bins = 5 5 4
  1 neighbor lists, perpetual/occasional/extra = 1 0 0
  (1) pair lj/cut/tip4p/long/omp, perpetual
      attributes: half, newton on, omp
      pair build: half/bin/newton/tri/omp
      stencil: half/bin/3d/tri
      bin: standard
Per MPI rank memory allocation (min/avg/max) = 9.312 | 9.326 | 9.337 Mbytes
Step Temp PotEng TotEng E_pair E_mol Press Lx Ly Lz Volume Pxx Pyy Pzz Pxy Pxz Pyz Enthalpy 
11250000    275.98674   -4835.0041   -4282.9965   -4835.0041            0     6706.305     18.13916    22.759866    19.365222    7994.8318    7322.7067    5351.0501    7445.1582    207.97293    -630.4334   -1390.5942   -3501.0654 
11251000    259.55831   -4843.4156   -4324.2669   -4843.4156            0    6075.0157    18.134886    22.646752    19.544371    8026.8001    5495.8647    6848.3305    5880.8518    15.889777   -997.25502     1053.724   -3613.1095 
11252000    247.76847   -4810.2549   -4314.6874   -4810.2549            0    6613.8038    18.230736    22.596652     19.44128    8008.9055    5879.0103    7183.5778    6778.8232    146.58547   -18.125015   -723.48278    -3542.184 
11253000    250.56126   -4829.3707   -4328.2173   -4829.3707            0     5598.574    18.119753    22.626014    19.587452    8030.4204     4661.976    6480.3666    5653.3794   -39.801692    1461.6683      1303.44   -3672.5378 
11254000    250.53781   -4856.4928   -4355.3863   -4856.4928            0     6579.176    18.286245     22.59878    19.409985    8021.1146    5026.1225    7284.0361    7427.3694    698.47437   -910.43132    388.27077   -3585.7561 
11255000     244.9647   -4802.0826   -4312.1229   -4802.0826            0    7465.6977    17.995929    22.784606    19.517201    8002.6407    5996.6198    7611.4719    8789.0012    1074.5392   -324.18566    822.48428   -3440.7991 
11256000    260.45517   -4812.1489   -4291.2064   -4812.1489            0    7506.2587     18.04581    22.957798    19.280124    7987.6025    6402.4906    8449.3267    7666.9589    914.16767   -379.69804   -982.57879   -3416.7949 
11257000    259.16364   -4828.2008   -4309.8415   -4828.2008            0    6671.4498    17.898196    22.987065    19.441598    7998.7987    6992.6993    6478.0313    6543.6189   -572.95066    77.968104    255.82967   -3531.5884 
11258000    248.44308   -4812.0593   -4315.1424   -4812.0593            0    5304.9956     18.02245    23.063499    19.351866    8043.8112    4464.3341    6224.7174    5225.9354    887.14197    281.59168    412.87592   -3692.8095 
11259000     272.6702   -4828.0826   -4282.7085   -4828.0826            0    6032.9349    18.120347    23.015095    19.236624    8022.4709      3927.13    6980.1777    7191.4969    243.55483    1190.8745   -41.113883   -3576.8581 
11260000    260.82391   -4818.4681   -4296.7881   -4818.4681            0    5932.1942    18.088897    22.941635     19.41948    8058.8683    6775.3273    6081.8313    4939.4242    -400.2504    181.30459     239.1011   -3599.5753 
11261000     262.9672   -4835.0431   -4309.0762   -4835.0431            0    8119.7272    17.979574    22.815872     19.29877    7916.7349    7089.4135    9176.8428    8092.9254   -752.65486    391.67006   -707.95475   -3371.5931 
11262000    260.22353   -4786.6137   -4266.1345   -4786.6137            0    7523.9799    18.101399    22.814153    19.394235    8009.2003    6499.3212     8424.433    7648.1856    805.68799   -21.334873    832.79775   -3387.2887 
11263000    267.70436   -4803.2903   -4267.8485   -4803.2903            0    7125.4413    17.998473    22.794728     19.46947    7987.7454    4786.8608    8853.4106    7736.0527   -808.71704   -281.14503    172.70933    -3437.784 
11264000    252.28764    -4826.203   -4321.5965    -4826.203            0    6928.1383    18.022656    22.932752    19.420281    8026.5791     7773.128    6439.1704    6572.1164    242.60657    1332.7638    108.94455   -3510.5927 
11265000    259.57874    -4829.972   -4310.7824    -4829.972            0    6613.5464    17.986323    23.060953    19.341842     8022.643    6668.7074    6710.8175    6461.1143    15.610111   -551.49878   -239.21622   -3536.9841 
11266000    255.71419   -4809.1573   -4297.6973   -4809.1573            0    6967.0219    17.828149    23.043988    19.409187    7973.9081     7080.539    6397.7697    7422.7569   -307.08602   -36.703453    180.03119   -3487.4935 
11267000    260.89672   -4826.1132   -4304.2876   -4826.1132            0    8264.6296    17.934996    22.985639    19.295053    7954.3345    8797.8155    8407.7507    7588.3226  -0.83017541   -209.54255    447.01562   -3345.5425 
11268000    253.44162   -4843.0776   -4336.1631   -4843.0776            0    6136.5746     17.89791     23.00697    19.516284    8036.3502     6004.977    6478.1056    5926.6412    357.99059    980.21169    -1202.261   -3616.9447 
11269000    257.22969   -4823.1255   -4308.6343   -4823.1255            0    8214.2493    18.107818    22.985092    19.140581    7966.4986    8083.9634     8991.435    7567.3494   -1296.1667    1284.9747   -1797.7315   -3354.2765 
11270000    258.16212   -4830.6246   -4314.2684   -4830.6246            0    6329.3445    17.865298    23.035866    19.455824    8006.9003    7660.5385     6738.261     4589.234    2556.5306    337.78166    593.88016   -3575.1755 
11271000    249.69785   -4844.0298   -4344.6033   -4844.0298            0    4920.6564    18.062825    23.031512    19.243306     8005.488    4354.4174    4650.0427     5757.509    613.95276   -392.75491   -570.50476   -3770.1076 
11272000    267.83052   -4844.4812   -4308.7871   -4844.4812            0    6126.3276    17.833796    23.067998    19.446061    7999.9143    6539.3529    6678.0351    5161.5947    -78.21118    916.53025   -1224.5434   -3594.0251 
11273000    243.79446   -4834.5897   -4346.9707   -4834.5897            0    7370.3337    17.921569    23.202516    19.098644    7941.7027     8611.263    5541.8093    7957.9288   -1088.6627   -623.57736   -201.14705   -3493.3269 
11274000    267.25515   -4801.3373    -4266.794   -4801.3373            0     5965.436    17.952638    23.110926    19.363703    8034.0407    7741.3436    4653.7036    5501.2608   -231.24603    234.08547   -1185.5782   -3567.8343 
11275000     267.0706   -4818.8908   -4284.7166   -4818.8908            0    7855.5027    18.071391    22.923224    19.240522    7970.4736    6834.4486    7940.6954     8791.364    1002.5119    1236.4589   -66.984879   -3371.5837 
11276000    259.42018   -4810.3551   -4291.4827   -4810.3551            0    5019.8579    18.001462    23.054705    19.437514    8066.9264    5045.8501    4549.4714    5464.2521   -455.55566   -1274.8978    -925.1266   -3700.9072 
11277000    275.01336   -4814.6188   -4264.5581   -4814.6188            0    8808.2335    17.959371    22.958899    19.208453    7920.1713    8448.4549    8634.6283    9341.6173    1614.1726     1024.924    828.26773   -3247.1404 
11278000    251.97007   -4836.3683    -4332.397   -4836.3683            0     4889.207    18.078892    23.093696    19.358208    8082.2148    2908.5734    5034.9594    6724.0881    223.86385    1480.7998   -1544.5025   -3756.1022 
11279000    267.64527   -4838.4255   -4303.1019   -4838.4255            0    6784.7141    17.920444    23.034047    19.378318     7998.989    6835.3514    7388.4804    6130.3105    542.34955    1387.1321     544.2699   -3511.6172 
11280000     265.4314   -4815.9782   -4285.0826   -4815.9782            0    5919.3581    17.963422    23.039439     19.35182     8009.083    6483.4221    6086.5199    5188.1321   -576.54284    394.74908    750.62993   -3593.6764 
11281000    259.88506   -4803.1132    -4283.311   -4803.1132            0    4750.7053    18.165848    23.001324    19.411953    8111.0628    6279.5934    3476.5259    4495.9965    704.15589    33.247347    546.90289   -3721.3428 
11282000    262.26324   -4828.3779    -4303.819   -4828.3779            0    6954.7148    18.138087    22.886192    19.290699    8007.7954    7476.1604    6584.3261    6803.6579    1323.2719   -539.12778    1071.4043   -3491.6093 
11283000    261.66803     -4831.58   -4308.2116     -4831.58            0    7440.9208    17.958275    22.888843    19.398488    7973.6351    6359.7138    6960.0164    9003.0323    60.634352   -561.33197    518.84685   -3442.9271 
11284000    254.29399   -4839.3679   -4330.7485   -4839.3679            0    6634.1308     18.15343    22.786416    19.300238    7983.5745    4244.9619    7313.5035     8343.927    254.86868   -807.10394    1072.4373   -3558.3217 
11285000    253.91132    -4852.957    -4345.103    -4852.957            0    6728.2563    18.032142    22.822571    19.435061     7998.302    8034.5093    6613.4406    5536.8189   -1221.9423    486.01289   -200.74207   -3560.2719 
11286000    256.65174   -4858.5192    -4345.184   -4858.5192            0     6391.498    18.115492    22.776893    19.373384    7993.7416    5393.2487    7266.0645    6515.1808    502.92285    531.66741    2441.4121   -3600.0598 
11287000    257.98369   -4815.7434   -4299.7442   -4815.7434            0     8407.411    18.037815    22.714036    19.407668    7951.5468    8177.3806    9669.7632    7375.0892    -221.4773    762.12035    1252.8422   -3324.7775 
11288000    245.53684   -4804.2825   -4313.1784   -4804.2825            0    8375.5463    18.075268    22.869095    19.323653    7987.7221    9444.6119     6841.788    8840.2389   -146.30034    6.0611479    121.57116   -3337.4882 
11289000    260.37392   -4835.1458   -4314.3658   -4835.1458            0     6665.063    17.987276    22.889303    19.397402    7986.2248    8590.5782    6466.9509    4937.6599    1008.8313   -260.53638    1768.8489   -3538.0799 
11290000    250.19298   -4811.8468   -4311.4299   -4811.8468            0    4401.3766    18.116008    23.010506    19.437701     8102.771    6172.3082     3341.727    3690.0945   -1226.9416   -1448.4007   -213.88549   -3791.3166 
11291000     258.1171   -4819.1159   -4302.8498   -4819.1159            0     6095.169    18.001163    22.866629     19.44794    8005.2764    5840.4197    5834.4785    6610.6088    742.12025   -1166.1916    1104.2479   -3591.2464 
11292000    264.31545   -4841.5085    -4312.845   -4841.5085            0    5516.2683     18.20194    22.956508    19.316874    8071.6134    2890.0079    6337.8203    7320.9769    516.43355    526.73965    1171.4255   -3663.4908 
11293000    265.86074   -4821.1932   -4289.4389   -4821.1932            0    7446.4267    17.952265    22.863703    19.444755    7981.2018    7676.6554    8287.1232    6375.5014    472.48191    1077.1907    2036.4043   -3422.6924 
11294000    254.77136   -4852.6368   -4343.0627   -4852.6368            0     5940.173    18.083914    23.050737    19.244299     8021.939    6869.4646    4745.4152    6205.6391   -644.07329   -579.03865   -1719.8414   -3648.1114 
11295000    252.39285   -4851.2365   -4346.4196   -4851.2365            0    6336.0761    17.862147    22.968861    19.466764    7986.6907     6162.226      7122.84    5723.1623   -32.960756    1356.3834       534.14   -3608.4081 
11296000    255.11015   -4850.9589   -4340.7071   -4850.9589            0     5699.233    18.142612    22.913795    19.330653    8036.0633    4513.4904    5554.2362    7029.9724    723.26472   -234.52041   -1059.7161   -3672.7699 
11297000    271.39071   -4845.3179   -4302.5029   -4845.3179            0     8361.118    17.978099    22.823896    19.386157    7954.7266    7791.8353    9043.7343    8247.7843   -1400.9799    306.50262   -559.27517   -3332.5168 
11298000    247.14263   -4828.6547   -4334.3389   -4828.6547            0    7119.4118    17.928498    22.843247    19.435947    7959.8971     7726.286    8868.9481    4763.0014    1234.4943   -253.17881   -152.73715   -3507.8682 
11299000    262.66657   -4816.0913   -4290.7257   -4816.0913            0    7573.3445    18.060031    22.877579    19.304122    7975.8798    6328.4696    8575.3063    7816.2574    408.62584    508.41279   -1002.0976    -3409.794 
11300000    252.51809   -4840.9015   -4335.8341   -4840.9015            0    5907.5139    18.045752     22.93833    19.377206    8020.9892    5954.1367    6205.4806    5562.9243    565.57615   -259.47848    -1282.842   -3644.7855 
11301000    269.01005   -4790.5938   -4252.5405   -4790.5938            0    6098.6331     18.00693    23.028763    19.439124    8060.9635    6589.7668    5429.5013    6276.6312   -1625.5055    221.52262   -1994.7634   -3535.5798 
11302000    256.14855    -4838.881   -4326.5523    -4838.881            0    9919.8924    18.060768      22.8799    19.093768    7890.0904    9587.4385      9593.53    10578.709    1196.7657    623.92826   -400.08466   -3185.0814 
11303000    249.57212   -4843.4861   -4344.3111   -4843.4861            0    6086.3274    17.856114    22.865217    19.576497    7992.7694    5613.1865    7154.0739    5491.7218    1289.4695    645.28838   -979.20285   -3634.8501 
11304000     262.0493   -4803.7542   -4279.6233   -4803.7542            0    7439.2993    18.148793    22.953404    19.230851    8011.1224    6139.5872    7854.8482    8323.4625    577.72543   -748.85235   -2149.1092   -3410.4601 
11305000    270.13094   -4833.3627   -4293.0674   -4833.3627            0    5854.8618    18.029809    22.859981     19.47563    8027.0967     4209.689    6785.3322    6569.5643    1041.0164    174.97105    505.80895   -3607.6565 
11306000    265.52889   -4800.1426    -4269.052   -4800.1426            0     5140.795    18.225515    22.873535    19.410818    8092.0201    3084.9624    6227.7557    6109.6669    1538.4535    882.97944     488.9991   -3662.3672 
11307000    252.40093   -4853.4905   -4348.6574   -4853.4905            0    5144.7343    18.133462    22.933377    19.310419      8030.46    4704.5998    4250.2691     6479.334   -1212.7036   -413.09606   -2952.7187   -3746.1266 
11308000    254.09094   -4809.0544   -4300.8411   -4809.0544            0    7489.4903    17.986788    22.774412     19.49243    7984.8504    6921.1239    7905.4393    7641.9077    474.65798   -694.95324   -420.50845   -3428.6836 
11309000     257.5733   -4827.0362   -4311.8578   -4827.0362            0    6239.2604    18.093392     22.88291    19.335541    8005.4836    5179.4495    6812.4648    6725.8669    1681.6184   -1656.5853    1151.2216   -3583.4131 
11310000    252.11837   -4819.7405   -4315.4726   -4819.7405            0      6630.87    17.939278     23.02518     19.37636    8003.5043    7028.5589    5966.1699    6897.8812    213.14971    133.69257   -906.79749   -3541.4982 
11311000    255.87111   -4801.6281   -4289.8543   -4801.6281            0    7126.7165    18.021495    23.102878    19.194615     7991.647    5929.4325    7028.4839    8422.2332     1375.542     237.2785     146.9554   -3459.2356 
11312000    266.13297   -4793.7159   -4261.4171   -4793.7159            0    8310.5912    18.023113    22.971999    19.314997    7996.9289    10005.931    8200.2891     6725.553    397.03739   -656.71153   -1732.4922   -3292.1777 
11313000    263.40672    -4809.588    -4282.742    -4809.588            0     5676.582    17.963662      23.0748    19.395205    8039.4656    4815.6691    5814.3387    6399.7382   -54.504461   -1207.9338   -526.12894   -3617.1777 
11314000    250.63254   -4823.1419   -4321.8459   -4823.1419            0    6459.7587    18.088675    22.832574    19.407522    8015.5201     6965.195    5859.7847    6554.2965    1582.5949   -243.39748    261.62035   -3566.7121 
11315000    245.07363   -4833.2122   -4343.0346   -4833.2122            0    7323.4348    18.071086    22.640222    19.497056    7976.8968    6959.2915    7921.7698    7089.2431    1437.5699   -204.70019   -425.80059   -3491.0639 
11316000     263.2957   -4793.7398   -4267.1159   -4793.7398            0     6041.815    18.291278     22.53775    19.513236    8044.2195     4994.461    7144.0582     5986.926    629.43991   -283.80004   -307.79927   -3558.3101 
11317000    257.78895    -4845.497   -4329.8873    -4845.497            0    5880.6191     18.21476    22.438332    19.574797    8000.3926    6557.8924    6150.1937    4933.7713   -198.05069   -643.00323   -759.74414   -3643.7512 
11318000    246.23417   -4808.2159   -4315.7171   -4808.2159            0    5896.2336    18.186265    22.711639    19.470913    8042.2639    5486.6066    6385.5629    5816.5313    731.26225   -62.181162   -50.630944   -3624.1587 
11319000    253.27773   -4863.1473   -4356.5605   -4863.1473            0    8230.8757    18.078657    22.517568    19.514887    7944.2641     8531.647    8909.2637    7251.7163    53.543802    -71.42711    599.83644   -3402.9399 
11320000    265.99307   -4828.5882   -4296.5692   -4828.5882            0    6595.8977    18.099462    22.601091    19.657827      8041.38    8165.1696    6618.8941    5003.6295   -465.64371   -1447.2547    926.19124   -3523.0335 
11321000    247.22765   -4808.0838    -4313.598   -4808.0838            0    5637.8777    18.246088    22.641074    19.405103    8016.4619     5100.907    5351.8525    6460.8735   -1038.2475    49.577219    138.49436   -3654.4631 
11322000    273.70018   -4793.5457   -4246.1116   -4793.5457            0    7904.9808    18.095739    22.929081    19.258111    7990.5497    8496.9983     7669.212    7548.7323   -1639.1781    960.01093   -94.594389   -3324.9128 
11323000    240.99199   -4831.9757   -4349.9619   -4831.9757            0    7595.2451    17.931085      22.9764      19.3775    7983.3705    7270.9683    8523.9795    6990.7873    578.14253    762.38277    2840.1145   -3465.6531 
11324000     247.5161   -4848.0413   -4352.9786   -4848.0413            0    5382.9929    17.878748    23.204218    19.323238    8016.4844    5203.3429    5271.7283    5673.9076     184.8243    770.15777    76.969038    -3723.641 
11325000    254.48957   -4827.3026    -4318.292   -4827.3026            0    6187.9452    17.984422    22.991992    19.336098    7995.4319    6370.0467    6302.8404    5890.9486   -812.95205     -640.284   -352.42109   -3596.7456 
11326000    272.04972   -4845.8619   -4301.7288   -4845.8619            0    7304.6617    17.844301    23.269872    19.171309    7960.5907    7892.3515    6199.3425    7822.2912    290.31362    132.52329    1405.6475   -3453.6792 
11327000    244.52057    -4843.408   -4354.3366    -4843.408            0    6677.6023    17.904576    23.334988    19.125725    7990.7863    6618.9375    5117.1176    8296.7518   -985.24795    1195.7896   -130.40864    -3576.146 
11328000    273.16641   -4808.5039   -4262.1374   -4808.5039            0    9261.4463    17.831442    23.090764    19.256168    7928.5661    9809.9931    8584.1376    9390.2082     498.8386   -524.83184   -1121.4565   -3191.2363 
11329000    250.11066   -4829.2171   -4328.9649   -4829.2171            0    4544.4042      17.9598    23.205082    19.371788    8073.3597    5542.5192    4012.8073    4077.8862    1031.4011   -563.86651   -431.44686   -3793.8991 
11330000    260.94012   -4794.0921   -4272.1796   -4794.0921            0    7914.2063    17.871418    23.214637    19.247397    7985.3308    7354.8506    8479.9856    7907.7826    1954.7032    1377.9589    796.71841   -3350.5081 
11331000    261.05713     -4831.69   -4309.5435     -4831.69            0    5312.2252    17.808273    23.483093    19.229678    8041.7228    6196.9041    4375.7822    5363.9893    696.35217     225.7874   -204.31476   -3686.5243 
11332000    253.75691   -4853.5981   -4346.0529   -4853.5981            0     6632.923    18.070827     23.18071    19.086035    7995.0374    6548.0267    6079.9766    7270.7655   -256.80374    356.94408   -911.67603    -3572.658 
11333000    259.86723   -4812.9162   -4293.1496   -4812.9162            0    7379.1993    17.760065    23.152961    19.421977    7986.2796    7648.0241    7857.6196    6631.9543   -560.94298    917.88547   -1190.5162   -3433.6818 
11334000    274.03618   -4823.8231   -4275.7169   -4823.8231            0    7048.5696    17.937822    23.175378    19.234126    7995.9305    6847.6078      6081.26    8216.8409    1166.7816   -386.27865    688.13286    -3453.766 
11335000    258.43382   -4841.6898   -4324.7902   -4841.6898            0    6381.1894    17.931128    22.977501    19.429848    8005.3403    6094.6165    6546.3421    6502.6096    1317.9759   -883.93026    637.91353   -3579.7884 
11336000    247.15738    -4819.153   -4324.8077    -4819.153            0    6216.7251    18.409699    22.858295    19.147333    8057.4718    3747.6309    7024.4333    7878.1112    1931.5426    797.39862    1492.0738   -3594.2806 
11337000    260.98344   -4855.6214   -4333.6223   -4855.6214            0    4249.0808    17.964306    22.843172    19.671458    8072.4136    6237.6869    4269.5429    2240.0125   -373.01543   -534.39202   -171.00939   -3833.3871 
11338000     259.6489   -4835.5482   -4316.2183   -4835.5482            0    7044.1037    18.097079    22.899488    19.253315      7978.84    5573.5591    6530.2371    9028.5148    1140.3422   -217.72739    360.94206   -3496.5439 
11339000    240.58401   -4833.8688    -4352.671   -4833.8688            0    7122.1286    17.845553    23.007563    19.451849    7986.5922     8111.046    6730.9645    6524.3752    1462.4327   -532.84566   -423.37417   -3523.1122 
11340000    253.83934   -4834.8366   -4327.1266   -4834.8366            0    5654.8893    18.258071    22.805039    19.236408    8009.5789    4882.4138    5254.4935    6827.7607    1056.0078   -1605.0517   -1126.7329   -3666.5705 
11341000    249.86008    -4825.096    -4325.345    -4825.096            0    7211.1018    18.157057    22.591083    19.495152    7996.6691    7014.3525    7116.8841    7502.0689   -363.60543   -634.31314   -704.88043   -3484.3631 
11342000    270.52597    -4863.778   -4322.6927    -4863.778            0    6865.1089    18.194312     22.70086    19.408444    8016.2024    6398.0503    7136.8845    7060.3918    1653.6975    412.67999   -449.28222   -3520.1059 
11343000    254.99059   -4796.9272   -4286.9145   -4796.9272            0    5819.8591    18.123353    22.493822    19.674878    8020.7291    5698.4585     6202.653    5558.4658    184.49835   -404.06471   -31.620858   -3606.1417 
11344000    267.86335    -4844.171   -4308.4112    -4844.171            0    8252.7763      18.0484    22.533583    19.474391    7920.1397    7300.7778    10177.718     7279.833    -1186.059   -545.56941   -1937.4288   -3355.1568 
11345000    243.12585   -4846.3152   -4360.0334   -4846.3152            0    5179.4663    18.126874    22.851431    19.385665     8030.027    5531.0314    5098.0113    4909.3562    796.98601   -123.97841    308.53299   -3753.4676 
11346000    264.52597   -4835.2256    -4306.141   -4835.2256            0    7800.7148    17.991838     22.79023    19.392411    7951.6282    6959.3545    8227.8359    8214.9539   -1043.9396   -402.29856    222.72016   -3401.5207 
11347000    263.16007    -4842.611   -4316.2584    -4842.611            0     7305.184    18.055633    22.974914    19.262851    7990.7434    6669.0998    6537.3644    8709.0877    398.36647   -219.37675      1402.59   -3464.9357 
11348000    259.58153   -4836.9382   -4317.7431   -4836.9382            0    6945.7384    17.834199    23.280164    19.298791    8012.5314    8058.0008    5396.1285     7383.086    1917.7129   -1471.8097   -651.49938   -3506.1019 
11349000    249.54427   -4814.8686   -4315.7493   -4814.8686            0    7684.8633    17.929995    23.052015    19.245909    7954.7678    8281.6276    7818.3577    6954.6046   -62.641698    129.45725   -907.24807   -3424.2119 
11350000    267.19019   -4849.6139   -4315.2005   -4849.6139            0    6611.0336    17.848585    23.144028    19.372116    8002.3914    7768.7511    5453.3496    6611.0002   -879.49853   -585.73782   -1556.3539   -3543.6488 
11351000    243.39332   -4840.1237    -4353.307   -4840.1237            0       6799.8    17.913568    23.363733    19.059578    7976.9637    5942.2725    6323.6534     8133.474    410.76885   -444.68584    1932.1701   -3562.2466 
11352000    258.58539   -4830.6685   -4313.4658   -4830.6685            0    6452.0829    17.927689    23.203593    19.311527    8033.3402    5994.6996    5906.6561     7454.893   -2197.0807    345.60481   -1252.3785   -3557.5525 
11353000    266.03289   -4825.1674   -4293.0687   -4825.1674            0    7970.7174    18.038439    23.086824    19.152777    7976.1794    9079.8314    6439.4055    8392.9154    -752.2644   -381.63363    4.4611137   -3365.8798 
11354000    265.60445   -4830.4036   -4299.1619   -4830.4036            0    7766.6366    17.893178     23.03945    19.376678    7988.0154    8489.3795    6777.9784    8032.5518   -571.21977   -486.06165    199.28181   -3394.3719 
11355000    281.10171    -4828.643   -4266.4049    -4828.643            0    7076.0694    17.969473     23.08554    19.270502    7994.0783    6218.1298    7408.2762    7601.8022    46.762681    560.08068    2537.9329   -3441.4383 
11356000    246.52426   -4837.2016   -4344.1226   -4837.2016            0    5069.8403    17.934925    23.134678    19.403484    8050.8684     5511.717    3778.8625    5918.9414     571.5856   -316.92938   -1027.5217   -3748.8541 
11357000    256.96243    -4825.832   -4311.8754    -4825.832            0    5397.1243    17.990033    23.025015    19.396428    8034.4039    6195.1549    5268.3476    4727.8705    498.63235    178.69818    2139.6594   -3679.4752 
11358000    280.09854   -4846.9682   -4286.7365   -4846.9682            0    5808.0336    17.953549    23.029585    19.391766    8017.7736    5065.8386    6246.2625    6111.9996   -732.07094    904.15431    262.10946   -3607.5973 
11359000    246.66551   -4818.9426   -4325.5812   -4818.9426            0    6870.9141    18.049062    23.091926    19.199788    8002.2336    6588.8397    7183.7582    6840.1444    802.50558   -70.891518     107.5583   -3523.7155 
11360000     252.2025   -4802.3961     -4297.96   -4802.3961            0    5875.7441    17.909791    23.065234    19.513138    8060.7508    7106.4268    4934.3833    5586.4222   -785.17411   -199.72643   -1666.0887   -3607.2205 
11361000    270.78284   -4812.1709   -4270.5718   -4812.1709            0    9421.0832    17.982408    22.749017    19.425235    7946.5161    10638.892     8932.274    8692.0835   -910.78223   -302.73929    506.95552   -3178.7456 
11362000    256.38987   -4811.6196   -4298.8082   -4811.6196            0    7646.5303    18.085208    22.801229    19.371137    7987.9787    9112.1894    6546.8578    7280.5436    65.671692   -726.40606   -353.34078   -3408.0144 
11363000    258.59848   -4853.3939    -4336.165   -4853.3939            0     7128.183    18.152402    22.773099    19.377994       8010.6    8262.5381    7560.7696    5561.2413   -2330.5828   -116.37233   -671.98175   -3503.4052 
11364000    255.15523   -4801.6621   -4291.3201   -4801.6621            0    6041.0779    18.175606    22.812412    19.422899    8053.3057    8446.8074    5780.8208    3895.6053    -659.7804   -93.545244   -1644.5826   -3581.8003 
11365000     257.9782   -4828.5412   -4312.5529   -4828.5412            0    6376.6559    18.193235    22.638215    19.524108    8041.2454    7105.8971    7316.2716    4707.7989    1168.5304    17.426228    645.83186   -3564.7413 
11366000    257.26707   -4863.0257   -4348.4598   -4863.0257            0    5547.4873    18.177091    22.768046    19.404933    8030.8642    3848.2734    6178.3006    6615.8878    1838.5315   -229.71929    771.85012   -3698.7274 
11367000    248.48835   -4847.6909   -4350.6835   -4847.6909            0    7901.9441    18.098799    22.676972    19.423132    7971.7576    8043.2922    7590.2979    8072.2422     -402.879   -242.98395    417.12723   -3432.0042 
11368000    251.65494   -4844.0242   -4340.6833   -4844.0242            0    7103.3604    18.056465    22.563576    19.532784     7958.016    5554.5461    8656.7299    7098.8051    1432.7401    1734.6029     57.17784   -3516.2708 
11369000    259.49371   -4864.2663   -4345.2468   -4864.2663            0    4233.1653    18.134497    22.744861    19.604579    8086.2344     4865.485    4254.9509      3579.06    1198.0371   -1061.4589    -306.9731    -3846.032 
11370000    253.12468   -4825.6064   -4319.3258   -4825.6064            0    6996.3233     18.09061    22.750851    19.374438    7974.0684    6569.9238     8704.026    5715.0202    124.04579   -645.79436     1914.622   -3505.6981 
11371000    256.03685   -4849.7929   -4337.6875   -4849.7929            0    7090.3526    18.127159    22.529366      19.5618    7988.9099    6607.6219    8557.8646    6105.5714   -301.74423    33.525006     537.3665   -3511.5902 
11372000    271.82495   -4826.7945    -4283.111   -4826.7945            0    6605.6552    18.179098    22.781445    19.368543    8021.4067    7413.9209    6797.2641    5605.7805    742.06399    314.03599   -820.74848   -3510.3551 
11373000    268.36088   -4858.1179    -4321.363   -4858.1179            0    6938.0339    18.007495    22.821901    19.451164     7993.753    6386.9419    7423.8192    7003.3407    297.43515   -29.779764     410.5135   -3512.5223 
11374000    268.12124   -4835.3373   -4299.0617   -4835.3373            0    6134.4495     18.08864    22.932117    19.337868    8021.5569    4790.2368    6552.2761    7060.8355    161.58253    402.85821   -62.468504   -3581.4159 
11375000    251.71341   -4790.9015   -4287.4435   -4790.9015            0    5013.3335    18.048519    22.819167    19.595197    8070.3246    4245.1678    5159.4718    5635.3607    582.12492   -566.54679   -169.32799   -3697.3872 
11376000    256.71514   -4837.1643   -4323.7023   -4837.1643            0     8001.578    18.168332    22.639443    19.344134    7956.6472     8498.084    7970.4716    7536.1783    263.59957    322.29067    38.381716   -3395.2029 
11377000    252.92845   -4838.4218   -4332.5337   -4838.4218            0    7262.7017    18.043234      22.7747    19.436556    7987.0492    8323.5728    6624.7157    6839.8164    861.82919   -76.693635    737.31937    -3486.553 
11378000    246.71335   -4825.2751   -4331.8179   -4825.2751            0    7207.0724     18.20963    22.810161    19.257673    7998.9559     6404.706    7168.0637    8048.4474   -2413.5909     106.4276   -3158.2784   -3491.0655 
11379000    275.11824   -4817.2957   -4267.0252   -4817.2957            0    5579.2202    18.121033    22.873854    19.460868    8066.4881    5662.2995    5014.9812    6060.3801    901.65072   -853.60175    579.63119   -3610.6776 
11380000    245.72917   -4839.8798   -4348.3911   -4839.8798            0    6369.0916    17.995366    22.840779    19.453215    7995.8193    6849.3968    6540.1697    5717.7083   -2486.3142   -435.77413   -1903.7336    -3605.686 
11381000    238.38479   -4822.5351    -4345.736   -4822.5351            0    6662.0351    18.043646    22.760805    19.395277    7965.4057    6544.1415    7118.6791    6323.2847    411.77749   -141.51846    289.60551   -3571.8256 
11382000    271.03947   -4832.2719   -4290.1595   -4832.2719            0    6304.1047    18.106377    22.697095     19.57766    8045.6772    6214.3233    6924.7687    5773.2222   -2049.4106   -209.20058   -1671.7199   -3550.4488 
11383000    262.86286   -4818.9732    -4293.215   -4818.9732            0    8337.7016    18.061284    22.866391    19.325675    7981.4342    9914.5257     7390.238    7708.3412   -822.73084   -424.43257   -1804.7559    -3322.698 
11384000    251.50119   -4843.0551   -4340.0216   -4843.0551            0    7178.0169    17.949989    22.959678    19.381111    7987.4593    7967.9392    5767.6731    7798.4383    121.96114   -450.72748    1642.0255   -3503.8623 
11385000    254.02406   -4831.6418   -4323.5623   -4831.6418            0    9236.0252    17.948413    22.869769    19.291769    7918.8093    9174.5694    9085.5858    9447.9203   -1600.7345    442.91086   -641.61911   -3256.9149 
11386000    257.93311   -4810.7332   -4294.8351   -4810.7332            0    7737.6575    18.029096    22.822211    19.437364    7997.7725    4876.2767    9360.5357    8976.1602   -397.52223    278.42508     1727.336   -3392.3201 
11387000    244.69922   -4821.1858   -4331.7572   -4821.1858            0    6422.8765    18.000116    22.965574    19.429075    8031.6489    7755.2147    6151.8792    5361.5355    107.24377    140.72841   -631.33564   -3579.4241 
11388000    262.11823   -4832.7034   -4308.4345   -4832.7034            0    8618.2216    18.146815    22.698987    19.295663    7948.1594    7895.4866    9149.0817    8810.0964   -842.77638    702.75884   -428.08407   -3309.4469 
11389000    255.60437   -4850.3131   -4339.0728   -4850.3131            0    6650.4668     18.01915    22.786253    19.425325    7975.8228    5625.4624    7571.7765    6754.1614    1102.7471   -838.39029    1881.4305   -3565.4959 
11390000    267.10905   -4839.9939   -4305.7429   -4839.9939            0    5684.2047    18.077617    22.912451    19.386005    8029.7321    5064.0097    6601.7183    5386.8859    406.61127    356.67008   -1045.5688   -3640.0918 
11391000    260.44473   -4841.2853   -4320.3637   -4841.2853            0    7627.6496     17.98623    22.908176    19.251313    7932.1517    9016.4931    6792.5707     7073.885    656.49472    126.44839    212.44987   -3437.9797 
11392000    261.88974   -4834.3854   -4310.5736   -4834.3854            0    7052.0386    18.196795    22.733072    19.266866    7970.1064    6684.7659    7550.4563    6920.8936    356.93635   -711.72497   -48.129818    -3490.874 
11393000     255.0117   -4840.5399    -4330.485   -4840.5399            0    5209.8279    17.932011    22.993743    19.504427    8042.1443    6197.0251    5456.5492    3975.9093   -1682.1989     736.3802   -2476.4219   -3719.4429 
11394000    266.42036   -4837.7788   -4304.9051   -4837.7788            0    8655.8108     17.98188    22.867701     19.25268     7916.784    9845.0755    8401.9272    7720.4297    811.96748    22.512696    507.21808    -3305.521 
11395000    251.28561   -4828.9882   -4326.3859   -4828.9882            0    4960.9277    18.129439    22.901352    19.330455    8025.7857    4868.6785    4240.2498     5773.855    304.76741   -522.23327    571.65019     -3745.72 
11396000    258.71091   -4842.9262   -4325.4725   -4842.9262            0     7197.277    17.945763    22.916743    19.371883    7966.8507    7935.6815    6066.5026     7589.647   -545.61657    217.33436    239.05585   -3489.2328 
11397000    254.23028   -4855.6761   -4347.1842   -4855.6761            0    7600.0142    17.934095    22.970054    19.323682    7960.3356    5752.0947    8209.7522    8838.1957    70.830544   -963.10569   -313.49616   -3464.8732 
11398000     265.3563   -4859.3854     -4328.64   -4859.3854            0    6587.2802    17.913103    22.898206    19.492488    7995.3882    7470.7686    6750.8641     5540.208    129.44469   -1141.0138     1401.153   -3560.5333 
11399000    273.76508   -4827.9515   -4280.3876   -4827.9515            0    6253.3163     18.06998    22.975991     19.23438    7985.6472    5462.0523      7064.51    6233.3868   -665.06076    846.24429     -1221.32   -3552.1109 
11400000    259.02802   -4853.9936   -4335.9055   -4853.9936            0    4801.0578    17.914233    23.179257    19.351021    8035.2908    6118.6889    3051.7251    5232.7593      968.836   -90.034446   -547.20825   -3773.2865 
11401000     274.9731    -4825.399   -4275.4188    -4825.399            0    6457.8716     18.12339    23.064612    19.216328    8032.5973     4172.979    8089.4538    7111.1819   -972.22953    54.134075   -232.20315   -3518.8973 
11402000    259.10632   -4815.7006   -4297.4559   -4815.7006            0    7400.3814    17.687008    23.034666     19.50506    7946.6408    9485.5064    6479.6322    6236.0058   -197.80761   -1845.4504    196.68679    -3439.799 
11403000    257.70995   -4820.0193   -4304.5675   -4820.0193            0    6605.4921    18.108964    22.994606    19.242667    8012.8098    3832.8685     7223.571    8760.0368    14.049935   -686.51017    -957.5596   -3532.6589 
11404000    263.36592   -4840.1897   -4313.4253   -4840.1897            0    8528.7807    17.893546    22.914055    19.376837    7944.7685    10177.143    7994.6346    7414.5643    1284.3406    634.21164    631.98909   -3325.2271 
11405000    256.80427   -4852.0866   -4338.4464   -4852.0866            0    5349.6112    17.926892    22.972887    19.539661    8047.0667    6821.2336    4775.8908    4451.7093   -977.69865    247.54786    -630.7297   -3710.6255 
11406000    251.76619    -4842.453   -4338.8895    -4842.453            0    10093.017    18.190744    22.873374    19.033694    7919.6094    6930.9123    10222.185    13125.953   -1073.9626   -377.36016   -753.75881   -3173.1523 
11407000    251.92501   -4829.9676   -4326.0865   -4829.9676            0     6169.815    17.933022    23.075817    19.415192    8034.3781    5593.6315    6229.5289    6686.2846    715.37897    36.385548   -199.88128   -3603.1498 
11408000    253.85176   -4847.1979    -4339.463   -4847.1979            0    8520.8458    17.975287    23.092919    19.117373     7935.657     9856.371    7412.1912    8293.9753   -468.33506   -805.55268   -492.45439   -3353.3164 
11409000     250.8897   -4840.4525   -4338.6421   -4840.4525            0    6215.3049    17.828405    23.126698    19.481739    8032.5574    7577.9333    5979.6585     5088.323    593.03338   -675.00336    1974.1617   -3610.5402 
11410000    250.54134   -4808.9433   -4307.8297   -4808.9433            0     6754.049    18.038916    23.066156    19.256842    8012.5496    5224.0268    7125.4654    7912.6549    582.67469   -1012.2212   -158.51156   -3518.5865 
11411000    255.00536   -4849.2849   -4339.2426   -4849.2849            0    5268.2588    17.845509    23.312051    19.309901    8033.2162    5424.5629    4816.3806    5563.8329   -4.5728095     188.7088    1027.6304   -3722.0334 
11412000    257.25943   -4830.0305   -4315.4799   -4830.0305            0    6068.5706    18.002816    23.238819    19.172778    8021.2036     6464.898    4982.2835    6758.5303    272.02089    -681.5014    105.47978   -3605.5722 
11413000    250.88652   -4820.7945   -4318.9904   -4820.7945            0    7693.7323    17.899026    23.012462    19.357063    7973.1869    6564.4655    8569.7411    7946.9903   -374.40156   -877.64713     387.1371   -3424.3574 
11414000    249.34315   -4817.5537   -4318.8366   -4817.5537            0    6551.1461    18.228744    22.902078     19.20811    8018.9274     4863.901    8128.9442     6660.593   -255.57421    1172.1836    411.82865   -3552.6942 
11415000    257.06032   -4839.3538   -4325.2014   -4839.3538            0     6040.641    17.869932    23.018713    19.488028    8016.2606    6050.6555    6392.9393    5678.3281   -199.42709    1020.0171   -9.5043611   -3618.9965 
11416000    272.28695   -4823.5908   -4278.9833   -4823.5908            0    5121.5281    18.107306     23.02546    19.269661    8034.0816    4907.4978    5581.2065      4875.88    -202.4208   -283.87463    2292.8159   -3678.8998 
11417000    245.63796   -4818.6854   -4327.3792   -4818.6854            0    6036.2344    17.968179    22.988006    19.397255    8012.0868    5478.8054    5851.5889    6778.3087   -573.24193   -902.09787    -2311.687   -3622.0569 
11418000    254.44338   -4796.3131   -4287.3949   -4796.3131            0    7067.1456    18.113164    23.087259    19.152297    8009.1709    5030.3423     6935.295    9235.7994   -677.43989   -832.24628    2036.8298   -3461.9131 
11419000    272.35874   -4819.7634   -4275.0123   -4819.7634            0     6958.592    18.009972    22.804038    19.537888    8024.2122    6810.3686    7424.6777    6640.7298    438.61954    120.28219    2026.4264   -3460.6838 
11420000    251.57183   -4809.7245   -4306.5498   -4809.7245            0    6237.2787    18.150446    22.792215    19.390497    8021.6326    5885.6396    6097.8358    6728.3608   -1758.8131     757.4787   -162.08104   -3576.8675 
11421000    257.89294   -4820.1534   -4304.3357   -4820.1534            0    6397.8276    17.982301    22.932406    19.453639    8022.2418     7159.475    6012.4931    6021.5146   -1400.9372   -259.66897   -1056.3723   -3555.8143 
11422000    249.29265   -4828.3648   -4329.7487   -4828.3648            0    6724.8613    18.057164    22.619611    19.540189    7981.1128    5876.2674    7195.4965    7102.8201   -646.57547   -177.48653   -395.18251   -3546.9994 
11423000    246.92502   -4840.2044   -4346.3239   -4840.2044            0     6066.598    18.190618    22.567677    19.533235    8018.7833    5248.1552    6866.4748    6085.1641   -1837.4996    276.23377    490.59065   -3636.8612 
11424000    254.10159   -4840.1158   -4331.8812   -4840.1158            0    6467.8152    18.199628    22.745163    19.405059    8032.7921    5037.3613    7483.5249    6882.5594    730.74547   -715.27015   -694.77075   -3574.1765 
11425000    263.68592   -4849.9516   -4322.5472   -4849.9516            0      6739.62     18.11249    22.799996    19.350761    7991.1811     6667.361    6544.7386    7006.7606   -442.97263   -948.36959    -436.4872   -3537.0905 
11426000    258.19294   -4831.0229   -4314.6051   -4831.0229            0    8752.5212    18.040362    22.876442    19.232441    7937.2146    6877.4588    9335.6059    10044.499   -858.77998   -2592.0642   -317.93586   -3301.4471 
11427000    273.82098   -4835.9154   -4288.2396   -4835.9154            0    6615.3724    18.075555    22.807783    19.425676    8008.4938    5188.1054    7687.1559    6970.8561   -621.42738    750.52709    367.45462   -3515.5927 
11428000    253.62668   -4814.1621   -4306.8774   -4814.1621            0    7506.7993    18.084905    22.650318    19.532572    8001.1048    6918.8213    8361.8409    7239.7357    420.76799    545.53752    394.88119   -3430.9247 
11429000    257.70708   -4818.5705   -4303.1245   -4818.5705            0    5349.9252    18.165914    22.857917    19.389323    8051.1246    4750.6305    5164.7994    6134.3458    64.776431    424.18653    44.175116   -3674.9502 
11430000    260.04532   -4826.2832   -4306.1604   -4826.2832            0    7177.4254    18.045842    22.727028    19.486432    7991.9381    7598.0397    6711.4666    7222.7699   -979.00367   -3.8911695   -870.90867   -3469.6012 
11431000     248.3389   -4834.4207   -4337.7122   -4834.4207            0      7329.63    18.117242    22.789524    19.335198     7983.181    6872.8806    7372.6265    7743.3829    633.18052    558.68661     18.98094    -3484.349 
11432000    256.74221    -4824.682   -4311.1658    -4824.682            0     6298.895    17.951729    23.039349    19.435783     8038.565    8624.1089    4882.1751    5390.4009   -767.24423     184.2882   -240.31152   -3572.7198 
11433000    256.25827   -4856.4649   -4343.9167   -4856.4649            0    5734.6291     18.01143     22.98161     19.41228    8035.3571    5018.7979    6565.5137    5619.5756    225.12733    272.28472    -524.6873   -3671.8902 
11434000    263.88839   -4875.8988   -4348.0894   -4875.8988            0    6610.8702    18.000048    23.112985     19.17569    7977.7551    6663.8731     6335.404    6833.3334   -553.15621     253.8416    141.18149    -3578.932 
11435000    254.16346   -4794.2311   -4285.8727   -4794.2311            0    5665.5895     18.02883    23.024998    19.350958    8032.8493    6150.5402    5061.6736    5784.5546   -803.46558   -1182.8099    -1032.874    -3622.144 
11436000    247.46862   -4799.1472   -4304.1793   -4799.1472            0    6234.7906    18.052202    23.116227    19.211631    8016.9904    6784.2165      4780.88    7139.2754    3222.8096    -59.85301    1467.6219   -3575.2102 
11437000    262.32309   -4843.6955   -4319.0169   -4843.6955            0    6701.3431    18.117874     22.94921    19.161233    7967.0664    6721.8071    5567.2422      7814.98   -1179.6601   -731.11671   -1553.8296   -3540.3778 
11438000    261.17414   -4815.3691   -4292.9886   -4815.3691            0    7952.0069    17.977508     22.87839    19.400131    7979.2049     8882.696     7883.054    7090.2708     2140.192    706.70564   -44.560008   -3367.6253 
11439000     246.6453   -4842.8125   -4349.4915   -4842.8125            0    6154.3604     18.14215    22.891611    19.365701    8042.6344    4613.9312     6625.705    7223.4449    549.06978    238.57563   -620.52609   -3627.6245 
11440000    275.27668   -4814.5335   -4263.9461   -4814.5335            0    7500.4367    18.102148    22.730139    19.439698    7998.7426    8126.4988    5794.6638    8580.1476    670.68157   -21.906371   -518.82793   -3388.9942 
11441000    247.71625   -4802.4521    -4306.989   -4802.4521            0    5659.8995    18.213955    22.634537     19.58296    8073.3584    5966.6368    5881.8196    5131.2421    710.54419    -179.0771    -1003.516   -3640.5831 
11442000    263.54787   -4835.8566   -4308.7283   -4835.8566            0    6752.4413    18.112475    22.836572    19.346414    8002.1962    6773.4441    5970.2082    7513.6717    809.38087   -1085.8937    1223.4726   -3520.6926 
11443000    256.71473   -4824.1283   -4310.6671   -4824.1283            0    8244.6571    17.807784    22.904948    19.494327    7951.4699    8720.8869    8421.0531    7592.0313    2030.8632   -276.21981     1917.987   -3354.5834 
11444000    244.43981   -4790.9216   -4302.0118   -4790.9216            0    8555.2801    18.139644    22.822161    19.214564    7954.5582    7809.6025    9208.6393    8647.5985    776.32956   -344.40143    -138.5956   -3309.5217 
11445000     258.6112   -4830.2338   -4312.9795   -4830.2338            0    6327.3887    18.112207    22.738343    19.472979    8019.7824    7994.0922    6370.1469    4617.9271    716.70024     293.1322     610.4549   -3572.9262 
11446000    253.35046   -4834.9949   -4328.2627   -4834.9949            0    5611.4522    18.163256    22.733558     19.43816    8026.3162    6028.4544    6436.4558    4369.4464    1681.9391   -893.67199   -1517.8521   -3671.4108 
11447000    248.71465   -4816.1314   -4318.6713   -4816.1314            0    5635.0076    18.312559    22.391085    19.579851    8028.4844    5094.8077    6285.5344    5524.6809   -509.66178   -871.75206   -359.91382    -3658.884 
11448000     264.1163   -4839.0416   -4310.7764   -4839.0416            0    7763.5738    18.227155    22.618907    19.346557    7976.1664    6206.3104    7597.2772    9487.1337    776.03363    -943.2764    863.93737   -3407.6848 
11449000    261.14157   -4808.3379   -4286.0225   -4808.3379            0    7499.1083    17.999759    22.650549    19.569263    7978.4752    6756.1916    9100.2524    6640.8808   -72.671364   -385.00948   -365.97204   -3413.4422 
11450000    248.44131   -4821.4577   -4324.5443   -4821.4577            0    6484.1117    18.196368    22.673832    19.470794    8033.2875    5567.4156    6485.0115    7399.9079   -796.71969   -604.26173    2187.1834   -3564.8836 
11451000    259.95173   -4833.8307   -4313.8952   -4833.8307            0    5772.4018    18.060263    22.448351    19.777153    8018.1152    6247.1325    6440.8116    4629.2614    847.50076    282.43216   -959.18868   -3638.8937 
11452000      254.586   -4833.8293   -4324.6259   -4833.8293            0    6039.1777    18.304803    22.709996    19.357657    8047.0168    4180.0508    7765.8045     6171.678    370.36815    364.65306    1453.0701   -3615.8832 
11453000    242.99965   -4829.6225   -4343.5932   -4829.6225            0    7467.1587    18.068639    22.712865    19.389843    7957.4083    7639.0702    7949.5996    6812.8063   -470.18158   -236.42614    1019.7945   -3477.0246 
11454000    235.30545   -4817.2666   -4346.6266   -4817.2666            0    5673.8165    18.142435    22.797911    19.417992    8031.4679    3014.7149    7755.6199    6251.1148    78.834436    128.08368    1269.9209   -3682.0484 
11455000    251.25893    -4855.913   -4353.3641    -4855.913            0    5943.9809    18.123035    22.824135    19.339967    7999.8342    6923.6809    6324.4876    4583.7743    728.99185    648.94685   -1784.9933   -3659.8835 
11456000    253.89674   -4848.8978   -4341.0729   -4848.8978            0    6989.2981    18.053964    22.738554    19.481642    7997.6238    8385.5966    7645.4429    4936.8547   -188.14895    638.41774   -1247.8491   -3525.8612 
11457000    265.19609   -4850.5053   -4320.0803   -4850.5053            0    5258.6409    18.060705    22.912266    19.356788    8010.0649    2966.2369    6705.1509     6104.535    19.885228    729.64342    361.51787   -3705.7733 
11458000    252.98574   -4803.0839   -4297.0812   -4803.0839            0    6924.1558    17.931718    23.019567     19.35164    7987.9775    6639.5176    7505.6036    6627.3463     871.0337    514.19834    184.59937   -3490.4416 
11459000    257.21804   -4831.1044   -4316.6365   -4831.1044            0    5720.9037     18.06892    23.146795    19.191552    8026.6281    4820.9256    5016.1163    7325.6693   -796.14424   -1087.5382   -485.96547   -3646.9467 
11460000    254.07225   -4811.6725   -4303.4966   -4811.6725            0    5707.6291    17.915216     22.95513      19.5508    8040.1903    4754.2319    6613.3942    5755.2611    94.928572    1821.1513    1437.1441   -3634.2319 
11461000     261.9875   -4835.3823   -4311.3749   -4835.3823            0    7030.8517    18.182225    22.831849    19.267831    7998.7279    5962.7485    7677.6843    7452.1222   -268.67281    996.40366    706.22819   -3491.2032 
11462000    254.97307   -4824.2776   -4314.2999   -4824.2776            0    7001.5312    18.024911    22.821892    19.502794    8022.7197    8222.1114    7069.3855    5713.0968    -633.4339    71.626925    880.74639   -3495.0988 
11463000     257.7922   -4827.3787   -4311.7624   -4827.3787            0    5697.5952    17.949242    22.922859    19.397728    7981.1554    4711.1366    6520.4544    5861.1947   -1436.8014   -459.74163    -280.6744   -3648.5797 
11464000     259.0679   -4838.7343   -4320.5665   -4838.7343            0    6061.5856    18.098216    22.935406    19.346315    8030.4607    8109.1472    5261.2803    4814.3292    432.76122    158.31899    714.29861   -3610.6576 
11465000    246.65081   -4851.7849   -4358.4528   -4851.7849            0    7372.0046    18.124429    22.627882    19.453514    7978.2257    6498.5824    8809.1333    6808.2981   -102.51849    1127.7535   -163.83484   -3500.6888 
11466000    262.59941   -4841.7226   -4316.4913   -4841.7226            0    7564.3989    18.100115    22.758769    19.370311    7979.3352    8064.5053    7681.1505    6947.5409    34.316973   -791.26161    408.83295   -3436.2191 
11467000    247.84549   -4848.9777   -4353.2561   -4848.9777            0    6660.8231    18.123099    22.732217    19.350432    7971.9569    6128.7271    6581.6305    7272.1116    489.63339   -547.77478    40.892001   -3578.8501 
11468000     270.8143   -4843.9762   -4302.3142   -4843.9762            0    5894.1266    18.024335    22.738117    19.618656    8040.4992    7484.6536    5683.1885    4514.5377   -260.34319   -465.11182   -211.64103   -3611.1545 
11469000    252.42275   -4822.9593   -4318.0827   -4822.9593            0    6289.4965    18.297507    22.639712    19.362128    8020.7672    6365.9947    6508.5981    5993.8965    450.77072   -1099.2658    1387.0916   -3582.3709 
11470000    248.70832   -4843.7528   -4346.3055   -4843.7528            0    7026.0055    17.971351    22.689245    19.491732    7947.8784    7428.1112    7157.9668    6491.9386    672.04347   -57.640297   -909.59748   -3531.9096 
11471000    248.43085   -4823.7633   -4326.8709   -4823.7633            0    5155.6014    18.265093    22.625946    19.459368     8041.876    6223.8801    5492.2212    3750.7029    333.04558    628.26568    397.45687    -3722.209 
11472000    249.33067   -4852.9271   -4354.2349   -4852.9271            0     7538.747    18.105129    22.417832    19.620386    7963.4781    8972.4523     7867.667    5776.1216    1109.4296   -729.42614    1700.1515   -3478.6912 
11473000    246.69632   -4849.9232   -4356.5001   -4849.9232            0    5171.9696    18.189708    22.797037    19.386704    8039.1127    5592.5712    4887.8489    5035.4886   -1456.1593   -122.58589   -1901.4239    -3750.127 
11474000    260.25993   -4837.6067   -4317.0546   -4837.6067            0    7806.8283    18.013679    22.766329    19.424415    7966.0565    8582.1175    8549.9406    6288.4269    2454.5739    233.44906    21.627081   -3410.0826 
11475000    256.52015    -4851.819    -4338.747    -4851.819            0    5546.1543    18.258758    22.892888    19.214909    8031.7497    5432.7087    3435.6902     7770.064    464.39218   -815.38412   -1048.0006   -3689.0992 
11476000    249.31224   -4819.6182   -4320.9629   -4819.6182            0    7493.1568    17.939106    22.681105    19.633368    7988.4004    9879.7401    7457.8431    5141.8873    1361.2723   -264.97672    1125.7167   -3447.9905 
11477000    269.01586   -4788.7322   -4250.6672   -4788.7322            0    7251.7575    18.384368    22.527538    19.372418    8023.1751     4864.941    9379.6992    7510.6323    1689.3649     70.77416    1557.4426   -3402.1407 
11478000    258.74763   -4810.4575   -4292.9303   -4810.4575            0    8193.2107    18.046093    22.601236    19.489279    7948.9757    9206.4668    8237.8877    7135.2776    -730.2578    895.20232     178.8506   -3343.1106 
11479000    260.00832    -4819.372   -4299.3232    -4819.372            0     6283.722    18.163309    22.754514    19.412485     8023.127    5376.1844    6338.6171    7136.3645     84.70615    -262.4902     -1408.62   -3564.0707 
11480000    265.09772   -4814.1571   -4283.9289   -4814.1571            0    6686.9906    18.174901    22.683147    19.494331    8036.8096    7062.3245    6529.0188    6469.6284   -677.83346    534.36535     328.0248    -3500.156 
11481000    262.79604   -4807.9921   -4282.3676   -4807.9921            0    7162.0323    18.155291     22.68004    19.406673    7990.9444    7045.2406     8171.875    6268.9813   -1345.4605   -372.24202   -968.68936   -3447.7063 
11482000     253.8746   -4828.5232   -4320.7427   -4828.5232            0    6117.8883    18.257951    22.649952    19.427533    8034.0954    5746.8601    6374.7944    6232.0103    -1218.075    -718.1393    146.00746   -3603.9156 
11483000    254.04467   -4829.3413   -4321.2205   -4829.3413            0    8544.6381    17.924594    22.731437    19.556113    7968.1732    10201.501    8205.3729    7227.0405    225.23072   -1065.4487    282.02514   -3328.2684 
11484000     271.1513   -4834.9886   -4292.6525   -4834.9886            0    5694.8982    18.199778    22.744327    19.397847     8029.578    7036.5843    5224.4057    4823.7046    59.461136   -1419.5257   -584.22437   -3625.7619 
11485000    255.89029   -4847.3967   -4335.5845   -4847.3967            0    9217.7357    18.127449    22.509115     19.42208    7924.8463    8337.9042    9573.4068    9741.8962    281.15966    98.583911    185.22106   -3270.2377 
11486000    244.88878     -4826.03   -4336.2221     -4826.03            0    4568.3708    18.153913    22.936629    19.363967    8062.9537    3912.2609    5005.6219    4787.2295    722.41802   -127.39696   -222.68389   -3799.0278 
11487000    250.65005   -4820.6095   -4319.2784   -4820.6095            0    7104.9656    18.142065    22.528739    19.542533    7987.3817     7581.735     8718.829    5014.3327   -328.52741    890.44118    1957.2883   -3491.6368 
11488000    256.93716   -4805.7325   -4291.8264   -4805.7325            0    6660.7744    18.263904    22.552044    19.494546    8029.5766    6989.2482    6621.0251    6372.0498   -215.88724    1.5607595   -140.55856   -3511.8288 
11489000    255.99063   -4839.7683   -4327.7554   -4839.7683            0    5337.9326    18.284639    22.552895     19.56397    8067.6248    3842.4238    6993.3617    5178.0122    34.903225    351.50184   -119.24275   -3699.7048 
11490000    254.10216   -4803.7162   -4295.4805   -4803.7162            0    7389.7461    18.191081    22.820606    19.200808    7970.8601    6773.8379    7462.0301    7933.3702   -112.80848    197.01032   -56.934898    -3436.446 
11491000    243.55691   -4825.7074   -4338.5635   -4825.7074            0    5954.7234    17.961583    22.886014    19.527691    8027.2289    4917.1643     7037.841     5909.165    118.69015    85.406349   -345.02389   -3641.4506 
11492000    253.46248   -4830.8209   -4323.8646   -4830.8209            0    7728.3151    18.116766    22.932956    19.183604    7970.2308    6210.1384    7919.9743    9054.8326   -388.38366    374.19624    1312.7258   -3425.5435 
11493000    274.74128   -4835.1914   -4285.6749   -4835.1914            0     7225.193     18.01103    22.640867    19.576619    7983.0585    6125.1546    7656.3956    7894.0288   -694.02475    548.07638   -1853.4678   -3444.4838 
11494000    266.90904   -4831.5053   -4297.6543   -4831.5053            0    5795.0932    18.155732    22.919484    19.303943    8032.7568    4705.8856    6411.6304    6267.7637   -1019.5121    380.29534     817.8717   -3618.7619 
11495000     270.2613   -4819.3715   -4278.8155   -4819.3715            0    5068.7781    18.010354    22.902415    19.577447    8075.3169    7038.6094    4733.9526    3433.7724    442.41977   -420.45856   -812.15603   -3681.8644 
11496000     254.4073   -4823.4796   -4314.6336   -4823.4796            0    6686.1048    18.020454    22.836311    19.390691    7979.6708    6954.7169    6405.8595     6697.738   -909.59849   -515.86534   -231.03589    -3536.536 
11497000    263.92712   -4853.4294   -4325.5425   -4853.4294            0    5769.9448    18.151898    22.846634    19.352175    8025.5362    4768.6581    5256.3591    7284.8174   -265.86621   -544.07023   -117.79211   -3650.2039 
11498000    268.07656    -4828.122   -4291.9358    -4828.122            0    6385.7991    18.019736    22.908773    19.385625    8002.5805    5312.3292     6972.911    6872.1572    -223.7076     91.96837    1239.3249   -3546.6528 
11499000    262.93841   -4857.8979   -4331.9886   -4857.8979            0    4940.1368    18.146161    23.000044    19.252477    8035.2619    5988.1566    3906.4098     4925.844    1262.8262   -595.18616   -266.81903   -3753.0735 
11500000    269.05537   -4811.7794   -4273.6355   -4811.7794            0    7817.2559    17.998189     22.63072    19.597932    7982.4725    8135.9599    8015.3526    7300.4552   -620.31983    495.65216    971.36862   -3363.5804 
Loop time of 481.704 on 64 procs for 250000 steps with 1008 atoms

Performance: 89.682 ns/day, 0.268 hours/ns, 518.991 timesteps/s
99.1% CPU use with 64 MPI tasks x 1 OpenMP threads

MPI task timing breakdown:
Section |  min time  |  avg time  |  max time  |%varavg| %total
---------------------------------------------------------------
Pair    | 28.197     | 32.482     | 36.193     |  32.7 |  6.74
Bond    | 0.27519    | 0.28463    | 0.29625    |   0.9 |  0.06
Kspace  | 216.92     | 223.83     | 230.31     |  19.7 | 46.47
Neigh   | 4.6298     | 4.9716     | 5.422      |   8.8 |  1.03
Comm    | 95.931     | 103.48     | 109.16     |  28.8 | 21.48
Output  | 0.78126    | 0.78263    | 0.78782    |   0.1 |  0.16
Modify  | 105.23     | 108.38     | 111.39     |  16.1 | 22.50
Other   |            | 7.494      |            |       |  1.56

Nlocal:        15.7500 ave          19 max          12 min
Histogram: 1 7 7 0 15 9 0 16 5 4
Nghost:        2499.12 ave        2522 max        2478 min
Histogram: 2 5 5 8 13 13 11 3 2 2
Neighs:        5236.12 ave        6417 max        3964 min
Histogram: 1 7 7 3 12 9 13 3 5 4

Total # of neighbors = 335112
Ave neighs/atom = 332.45238
Ave special neighs/atom = 2.0000000
Neighbor list builds = 9403
Dangerous builds = 0

unfix		3
unfix		2
unfix		1

write_data	data.final.${pid}
write_data	data.final.0
System init for write_data ...
PPPM initialization ...
  extracting TIP4P info from pair style
  using 12-bit tables for long-range coulomb (../kspace.cpp:340)
  G vector (1/distance) = 0.37888988
  grid = 24 27 32
  stencil order = 5
  estimated absolute RMS force accuracy = 0.0024921669
  estimated relative force accuracy = 7.5050867e-06
  using double precision FFTW3
  3d grid and FFT values/proc = 3825 384
Last active /omp style is kspace_style pppm/tip4p/omp
WARNING: Not all mixed pair coeffs generated from mixing. Use write_data with 'pair ij' option to store all pair coeffs. (../write_data.cpp:312)

write_restart   restart.lmp.${pid}
write_restart   restart.lmp.0
System init for write_restart ...
PPPM initialization ...
  extracting TIP4P info from pair style
  using 12-bit tables for long-range coulomb (../kspace.cpp:340)
  G vector (1/distance) = 0.37888988
  grid = 24 27 32
  stencil order = 5
  estimated absolute RMS force accuracy = 0.0024921669
  estimated relative force accuracy = 7.5050867e-06
  using double precision FFTW3
  3d grid and FFT values/proc = 3825 384
Last active /omp style is kspace_style pppm/tip4p/omp
Total wall time: 0:08:06
