LAMMPS data file via write_data, version 30 Jul 2021, timestep = 41750000

1008 atoms
2 atom types
672 bonds
1 bond types
336 angles
1 angle types

-3.130237205442178 14.740236204996386 xlo xhi
0.018477981280621947 22.56152101870932 ylo yhi
0.044657214678810675 19.18534078532256 zlo zhi
-0.2239418414119698 -6.867811538659025 0.1883796615671781 xy xz yz

Masses

1 1.008
2 15.999

Pair Coeffs # lj/cut/tip4p/long/omp

1 0 0
2 0.21084 3.1668

Bond Coeffs # harmonic/omp

1 450 0.9572

Angle Coeffs # harmonic/omp

1 55 104.52

Atoms # full

21 7 1 0.5897 1.2163993862288276 2.3597405858527996 0.923308096515151 0 0 0
55 19 2 -1.1794 -0.5849735056188932 4.362247197263739 3.551518398848848 0 0 0
56 19 1 0.5897 -1.2532161487454125 3.944221960625128 3.0083175323004854 0 0 0
57 19 1 0.5897 0.16920660244776276 4.461056438362435 2.97042379414457 0 0 0
121 41 2 -1.1794 -2.453118547818595 2.668384142863627 2.3742469535134183 1 0 0
122 41 1 0.5897 -2.368169641275812 2.222239338388413 1.5315324671246138 1 0 0
86 29 1 0.5897 -2.335897342876893 1.8323138074825511 3.980567137302748 1 0 0
31 11 2 -1.1794 1.2372134598805768 1.2144168896438223 2.352661206855693 0 0 0
32 11 1 0.5897 1.1116070038794925 1.5084239566300113 3.2549925701148155 0 0 0
123 41 1 0.5897 -3.382456386169681 2.889079482851629 2.436302702761567 1 0 0
46 16 2 -1.1794 1.9080197261824496 4.832462581211887 2.4826729672583556 0 0 0
33 11 1 0.5897 0.5438370141435933 0.5697405487002619 2.211496669744461 0 0 0
71 24 1 0.5897 3.134404461229039 0.7853403514287769 2.0436387545389234 0 0 0
158 53 1 0.5897 -4.487046095215262 4.624555179656726 4.457651914922172 1 0 0
6 2 1 0.5897 3.5479548236626375 1.8355535542995751 4.714230611660257 0 0 0
47 16 1 0.5897 2.046666196082791 5.2802603144121205 1.6479897971666706 0 0 0
53 18 1 0.5897 4.530867091283836 3.0884015514872964 3.017068875417866 0 0 0
101 34 1 0.5897 -2.61639428397853 4.525323111970663 0.18902720625468103 1 0 0
48 16 1 0.5897 1.991198337401853 5.521884554106283 3.1416297576334244 0 0 0
52 18 2 -1.1794 3.8141364678970593 3.231198791811625 3.6352560780715817 0 0 0
78 26 1 0.5897 0.24618635055947635 3.006060170136204 4.455536794812197 0 0 0
54 18 1 0.5897 3.1579179339765355 3.715548567702265 3.1340496566804554 0 0 0
602 201 1 0.5897 -0.6359267128227244 5.4011393500227 0.45156531024946617 1 0 1
70 24 2 -1.1794 3.826472974842483 0.5635859111783487 1.4206396421664766 0 0 0
527 176 1 0.5897 3.9742477634382034 1.9775548713243243 0.29826605838471487 0 0 1
482 161 1 0.5897 -1.0079441992761358 0.11661199752488845 0.9014843897375334 1 1 0
16 6 2 -1.1794 5.418039529366018 4.836801211327678 0.2872125637032557 0 0 0
18 6 1 0.5897 5.015867656353564 4.001066241433049 0.050141045700661885 0 0 0
76 26 2 -1.1794 0.8221644138341153 2.3206760934674056 4.794551074352807 0 0 0
85 29 2 -1.1794 -2.4020435748828812 1.378243526955264 4.8207426283442745 1 0 0
19 7 2 -1.1794 1.1496290932420363 2.829377370307526 0.09176597546730697 0 0 0
134 45 1 0.5897 -2.4317109099557115 2.714440072562692 6.020657097227019 1 0 0
135 45 1 0.5897 -1.808861964773833 3.84313299022356 6.814676899108772 1 0 0
60 20 1 0.5897 2.914778302140464 3.7541780366183968 6.870829659405897 0 0 0
34 12 2 -1.1794 0.09076839811841886 1.5381485859759716 7.330134434316592 0 0 0
35 12 1 0.5897 0.2729952575719956 2.127961302125265 8.061814853375195 0 0 0
36 12 1 0.5897 -0.7619929089372821 1.1556699674033328 7.536824375662964 0 0 0
159 53 1 0.5897 -3.424862628036827 4.705675187711313 5.5335197842689645 1 0 0
669 223 1 0.5897 -5.238496745545583 1.7342588849048401 8.939936375029657 1 0 0
124 42 2 -1.1794 -5.14223026076412 2.47394450271561 7.266775894285152 1 0 0
58 20 2 -1.1794 2.2574407058628463 4.159428709353252 6.3050509247973405 0 0 0
59 20 1 0.5897 1.956492039067256 3.448274193460932 5.73925915804522 0 0 0
522 174 1 0.5897 2.060843659674811 5.545515998194293 9.1684219229349 0 0 0
43 15 2 -1.1794 -0.34658579014746804 5.027335902212291 7.205970101463055 0 0 0
126 42 1 0.5897 -4.288557716215681 2.8907259528019527 7.1494904265240224 1 0 0
45 15 1 0.5897 0.5762469010102018 4.810858018960483 7.072807006931702 0 0 0
133 45 2 -1.1794 -2.653010929219768 3.4523040192340866 6.58899424084965 1 0 0
97 33 2 -1.1794 -4.214179946050692 4.691793157226473 9.452323742135363 1 0 0
11 4 1 0.5897 2.2377536465703267 5.650632013688319 5.250169977996613 0 0 0
5 2 1 0.5897 3.216409245583854 0.4059738661684024 5.08676854875915 0 0 0
98 33 1 0.5897 -4.148817908568137 5.140214277756065 8.609053942227003 1 0 0
77 26 1 0.5897 0.3559313748715831 1.968530809564168 5.55281214704771 0 0 0
69 23 1 0.5897 -2.549084918733836 1.2422931653182048 8.7516735083398 0 0 0
67 23 2 -1.1794 -2.2923744612934382 0.5074470686506763 8.194433509121133 0 0 0
44 15 1 0.5897 -0.4133147715469936 5.229819468198682 8.139233343226703 0 0 0
402 134 1 0.5897 1.2918799971355934 0.23309752692449948 7.832293499152921 0 1 0
401 134 1 0.5897 2.333608309320475 0.3016104607449268 8.92885115235893 0 1 0
157 53 2 -1.1794 -3.98248627991552 5.250195093628794 4.97763189415642 1 0 0
4 2 2 -1.1794 3.8282349700461875 1.1162647877164766 5.280408848796982 0 0 0
87 29 1 0.5897 -3.3206279927905284 1.115749311703581 4.879934524814953 1 0 0
68 23 1 0.5897 -3.114743384766473 0.19085926140036918 7.820607792553097 0 0 0
574 192 2 -1.1794 0.5592101258200795 0.5741507318295982 11.162043557627499 0 0 0
524 175 1 0.5897 -3.033614459684955 3.355466288856498 9.682547885258584 0 0 0
560 187 1 0.5897 -4.964892826780643 3.929876464302087 12.621314862915321 0 0 0
576 192 1 0.5897 -0.14961768538414688 0.6932054636331755 11.79421360933271 0 0 0
23 8 1 0.5897 0.569032728906901 2.1549933299855923 10.242922245151426 0 0 0
523 175 2 -1.1794 -2.5138462950035088 2.5848914509732794 9.911643493079787 0 0 0
627 209 1 0.5897 -6.933639759708587 3.132395870055045 12.15660708545005 1 0 0
99 33 1 0.5897 -4.046499202383091 5.37530746748874 10.10126959998393 1 0 0
535 179 2 -1.1794 -1.999620481724219 1.1689129447736841 12.283960816180395 0 0 0
536 179 1 0.5897 -2.2632659544245985 1.6042448782249208 13.094745505514071 0 0 0
537 179 1 0.5897 -2.185925344032068 1.8086042163786908 11.596518732862707 0 0 0
22 8 2 -1.1794 0.2834560332810181 2.8873461158962757 9.696484716767664 0 0 0
625 209 2 -1.1794 -6.07255179820698 2.789517068105237 11.917445633332866 1 0 0
556 186 2 -1.1794 0.3716541226035641 3.6266010557455752 13.22232785100337 0 0 0
561 187 1 0.5897 -3.961548913552404 3.7628452631380758 13.74281024780037 0 0 0
668 223 1 0.5897 -5.7599765860888645 1.8865209134021452 10.353133017516976 1 0 0
558 186 1 0.5897 -0.44948822937656896 3.824172377919235 12.771738751526733 0 0 0
559 187 2 -1.1794 -4.290741668693541 4.401739626709791 13.110409351853711 0 0 0
550 184 2 -1.1794 -1.8104750189199876 4.771552839874272 11.956070035084341 0 0 0
552 184 1 0.5897 -2.718137189253783 4.590623167124723 12.200190797341849 0 0 0
626 209 1 0.5897 -5.871585691857874 2.148370363618149 12.599382658252772 1 0 0
557 186 1 0.5897 0.1815490617663711 2.8402379501386954 13.734118667629707 0 0 0
606 202 1 0.5897 -6.049516623001451 4.714495664632108 9.73901405969455 1 0 0
589 197 2 -1.1794 -5.703572850917673 1.228006543328087 14.189324378540196 1 0 0
662 221 1 0.5897 -7.592502287652914 4.813414074874319 14.134313466342409 1 0 0
667 223 2 -1.1794 -5.50066980493262 1.2277489208487997 9.708782575327065 1 0 0
525 175 1 0.5897 -1.6105883210682612 2.9011959552330464 9.92876790827825 0 0 0
551 184 1 0.5897 -1.5031244632594314 5.39169834805219 12.61742520804154 0 0 0
986 329 1 0.5897 -4.4158235014502285 0.20862874013460925 10.681093600081175 1 1 0
24 8 1 0.5897 0.9262265628945894 3.5766606551084332 9.863866938307625 0 0 0
587 196 1 0.5897 -1.340717524684067 5.565785450366997 10.397177011193577 0 0 0
591 197 1 0.5897 -5.106588783508464 0.5020607834297129 14.371021625498443 1 0 0
547 183 2 -1.1794 -3.8511931447994723 5.295157248319702 16.906667030859218 0 0 0
581 194 1 0.5897 -3.0716503407744016 1.9752317784120184 15.207512679326515 0 0 0
661 221 2 -1.1794 -7.008978978047828 5.492749226588417 14.472493083770411 1 0 0
630 210 1 0.5897 -8.291068029770827 2.1019766707065703 16.0647074415617 1 0 0
582 194 1 0.5897 -2.185717062944474 3.1916453916947356 15.041290642898405 0 0 0
563 188 1 0.5897 -1.1957357252714091 5.0662925769111435 15.465239297690479 0 0 0
639 213 1 0.5897 -6.050566555372756 4.18635877350763 15.34081661244306 1 0 0
20 7 1 0.5897 -6.02690412639738 2.359846261826678 18.609334701114676 0 0 -1
538 180 2 -1.1794 -3.61896393909504 1.1459346499074061 16.74884414662922 0 0 0
539 180 1 0.5897 -3.3850024906506793 1.8213237180475974 17.385668604023678 0 0 0
601 201 2 -1.1794 -7.66707567411547 4.888064431010926 18.961597057914794 1 0 0
540 180 1 0.5897 -4.5109522396061195 0.891761244897093 16.98537108288566 0 0 0
638 213 1 0.5897 -6.491811713014709 3.1747967343304473 16.377346139224493 1 0 0
549 183 1 0.5897 -4.421382763454946 4.580716369429482 16.622389132589053 0 0 0
562 188 2 -1.1794 -1.3606451144170073 4.398123831733895 16.130668070993085 0 0 0
165 55 1 0.5897 -9.49340550784207 0.837394732411099 18.782995761901795 1 0 -1
564 188 1 0.5897 -2.0830656371861904 4.7504184326221095 16.650538430551272 0 0 0
637 213 2 -1.1794 -5.724067271876429 3.473244759659652 15.889775968646898 1 0 0
164 55 1 0.5897 -8.59973167694466 1.962044760428261 18.30483951587994 1 0 -1
628 210 2 -1.1794 -8.168040695988505 2.6980134906827384 16.803656103936355 1 0 0
590 197 1 0.5897 -5.6146242198275305 1.8071298308446753 14.94639107609135 1 0 0
526 176 2 -1.1794 -3.0146287111156713 2.8062726322894815 18.737664053006124 0 0 0
571 191 2 -1.1794 -6.024589230847823 0.6847279851233461 17.84318684537233 0 0 0
528 176 1 0.5897 -3.9230228205788364 3.09378212682212 18.829294760287137 0 0 0
508 170 2 -1.1794 0.3774762453734626 1.2100209841195875 14.582323774114318 0 0 0
629 210 1 0.5897 -8.842767764345513 3.367034145040732 16.6872923742152 1 0 0
603 201 1 0.5897 -6.984402990392537 4.24113205205755 19.13999493105212 1 0 0
580 194 2 -1.1794 -2.695896302601245 2.552952540833371 14.543112119995683 0 0 0
572 191 1 0.5897 -6.738781450896283 0.19548349162210443 17.434658162875486 0 0 0
163 55 2 -1.1794 -8.886654974001821 1.5078469176925187 19.09716297423986 1 0 -1
593 198 1 0.5897 -7.720849512916646 0.8007132163403385 14.48476288428249 1 0 0
289 97 2 -1.1794 -2.738429424329476 10.042944380325869 2.443296311818981 1 0 0
255 85 1 0.5897 -2.4938246068098033 8.987358474514597 3.9881477291400884 1 0 0
146 49 1 0.5897 -1.4116107008573007 6.580969186760587 2.053015154159126 1 0 0
147 49 1 0.5897 -0.9703236501663506 7.5300124448262995 0.9589790416118391 1 0 0
332 111 1 0.5897 -2.2546526316788 9.327677903657928 0.9497540349857394 1 0 0
145 49 2 -1.1794 -0.664798901081797 6.797997910491133 1.4949824231441 1 0 0
112 38 2 -1.1794 -3.1559439951473056 6.4483610944123155 2.6327966501872697 1 0 0
291 97 1 0.5897 -3.604740593519222 10.429952945622436 2.5697273219423553 1 0 0
290 97 1 0.5897 -2.127174657276586 10.745540466343204 2.66480382788983 1 0 0
188 63 1 0.5897 0.8401723561407612 9.77428809934871 1.1934653997759417 0 0 0
200 67 1 0.5897 0.4652799220213697 7.960676628350988 2.347618094155047 0 0 0
696 232 1 0.5897 4.149756860896913 11.05928905447129 0.2860771692350558 0 0 1
331 111 2 -1.1794 -2.0156694124410315 8.76512159714353 0.21298904057523516 1 0 0
174 58 1 0.5897 3.2999544004668007 9.289467563605708 4.44524600628165 0 0 0
10 4 2 -1.1794 2.063122802386073 6.410239060077447 4.694296791180298 0 0 0
199 67 2 -1.1794 0.9974615202998427 8.694266490317062 2.655841728495361 0 0 0
113 38 1 0.5897 -3.4124207162009075 6.00591675123688 3.4420392033730933 1 0 0
220 74 2 -1.1794 3.4898614469644818 10.877024423892173 3.4463132409491974 0 0 0
245 82 1 0.5897 0.7372231682162873 9.521526984220168 4.156654802394262 0 0 0
221 74 1 0.5897 4.211872554242941 10.583906340465983 2.890400775298297 0 0 0
239 80 1 0.5897 3.633906380438855 8.950669133923467 1.377177142410319 0 0 0
240 80 1 0.5897 3.2667865833410206 7.495488633849015 1.1770459376600932 0 0 0
187 63 2 -1.1794 0.8475240261522909 10.333356272415848 0.4163803000607241 0 0 0
238 80 2 -1.1794 3.539628755297434 8.122116032657383 1.8473602771283077 0 0 0
201 67 1 0.5897 1.899622292239182 8.426142035141774 2.4813681542088792 0 0 0
189 63 1 0.5897 1.7759463364116517 10.466595690300702 0.22543189388180904 0 0 0
694 232 2 -1.1794 3.5623491089783785 10.305330949383466 0.23277536308003927 0 0 1
9 3 1 0.5897 -0.7952782448415641 5.941013390273777 4.413410217663891 0 0 0
29 10 1 0.5897 4.895958785322321 7.081056150813095 2.3489851896536367 0 0 0
114 38 1 0.5897 -3.482411869357112 5.880338560622417 1.934795176382162 1 0 0
224 75 1 0.5897 -0.4143266348369776 11.23793618969416 3.8376459053989045 0 0 0
82 28 2 -1.1794 2.4665126125987156 6.252285866315134 0.17604792679557993 0 0 0
191 64 1 0.5897 0.3903780366493046 9.887648177523138 8.706630713608535 0 0 0
8 3 1 0.5897 -0.5570390686759348 6.231230846373156 5.880195826990511 0 0 0
109 37 2 -1.1794 -4.4202427222294 6.5850953484916195 7.3201332100434975 1 0 0
111 37 1 0.5897 -5.353261179245235 6.74842185827445 7.45800526651643 1 0 0
293 98 1 0.5897 -4.104483068906277 10.57176286898115 7.204443172688595 1 0 0
65 22 1 0.5897 2.3806036011026226 7.528641575386021 8.571030044140517 0 0 0
292 98 2 -1.1794 -5.033548255787005 10.440282826656421 7.3934891628943555 1 0 0
303 101 1 0.5897 -1.7579852497983555 11.350928106431564 6.742410204097193 1 0 0
246 82 1 0.5897 0.34117649086509694 9.654951299178013 5.611871189429956 0 0 0
294 98 1 0.5897 -5.044592328093899 9.970745543462197 8.227681029689165 1 0 0
837 279 1 0.5897 -6.118876126987171 8.441264290878891 9.296561883558425 1 0 0
64 22 2 -1.1794 2.010988038839466 6.879028181408957 7.972855443637041 0 0 0
110 37 1 0.5897 -4.37277222676552 6.181528153345033 6.453350137717845 1 0 0
202 68 2 -1.1794 0.20492980305975816 8.897532033415237 7.1800705122204915 0 0 0
203 68 1 0.5897 -0.6470273096961003 8.555729534020614 7.451261718137694 0 0 0
204 68 1 0.5897 0.8071352698532248 8.163006399549554 7.299369924277458 0 0 0
588 196 1 0.5897 -1.403202136527851 6.667833428315363 9.36079863728136 0 0 0
235 79 2 -1.1794 -2.153679624391976 7.933928233163142 8.262307435934188 0 0 0
236 79 1 0.5897 -2.9486579931721124 7.5373701330147815 7.9058764298372655 0 0 0
237 79 1 0.5897 -2.451635551132146 8.75072336798972 8.662921849676428 0 0 0
302 101 1 0.5897 -2.2625711004684947 10.117700272375298 6.023437067407981 1 0 0
301 101 2 -1.1794 -2.562472316877426 10.910513379851887 6.4683249775379394 1 0 0
172 58 2 -1.1794 3.6160994509164555 8.622356681463515 5.054759175425708 0 0 0
7 3 2 -1.1794 -0.6316930704232844 6.657856535022615 5.026446789836681 0 0 0
253 85 2 -1.1794 -2.582555267969224 8.636498611289456 4.874416290121265 1 0 0
66 22 1 0.5897 2.7339317065336477 6.652681413017209 7.387737034290279 0 0 0
257 86 1 0.5897 -4.408853853356256 8.668549272810292 5.004600116011994 1 0 0
254 85 1 0.5897 -1.9686048700588472 7.902644244259492 4.904708009785775 1 0 0
173 58 1 0.5897 3.0238756786591985 7.88110241517417 4.927661316107528 0 0 0
244 82 2 -1.1794 0.6256621901787414 10.167024974374222 4.854736293810917 0 0 0
228 76 1 0.5897 1.699973124444167 11.261680213672738 5.830497319488139 0 0 0
692 231 1 0.5897 -1.4957547898807064 10.460261155004465 9.573178394171697 0 0 0
192 64 1 0.5897 0.8434160742980135 11.017056748227555 9.607503140305083 0 0 0
190 64 2 -1.1794 0.2332166323514877 10.280714487653528 9.56523955490678 0 0 0
12 4 1 0.5897 1.1535844447299457 6.6414958101625645 4.882649706718705 0 0 0
691 231 2 -1.1794 -2.4374255855782865 10.298838693819103 9.631457911454055 0 0 0
794 265 1 0.5897 -5.371442999490337 10.88541636925136 12.279577166137628 1 0 0
618 206 1 0.5897 -6.756099629275825 6.017028054053611 11.488868583594263 1 0 0
750 250 1 0.5897 -3.311912807446908 10.604060418970077 14.015138119976333 0 0 0
742 248 2 -1.1794 0.37175222901221083 7.94718817420735 11.286763645920628 0 0 0
724 242 2 -1.1794 0.3093397633655277 10.696608922727338 12.919238360146002 0 0 0
616 206 2 -1.1794 -6.516173877502295 6.714234176767995 12.099424089500932 1 0 0
693 231 1 0.5897 -2.560020019016849 9.902776548807099 10.494329517747222 0 0 0
649 217 2 -1.1794 -4.0655086110054475 6.957292444591275 10.964318353017648 1 0 0
650 217 1 0.5897 -3.504135641717755 7.537734180577197 11.478448708936499 1 0 0
651 217 1 0.5897 -4.885651828777354 6.919016095635824 11.45636232354376 1 0 0
795 265 1 0.5897 -5.8610056600639355 9.826848158246781 11.314099167653746 1 0 0
744 248 1 0.5897 0.04021232992978918 7.270347384876756 10.696514607357319 0 0 0
793 265 2 -1.1794 -6.081237858733877 10.25859110194501 12.13962420630209 1 0 0
725 242 1 0.5897 0.5963189056803326 11.397635524427841 13.504581214748189 0 0 0
759 253 1 0.5897 -5.873289519638217 9.109577904989083 13.569898415444367 1 0 0
703 235 2 -1.1794 -2.2741567511883494 8.714651529753198 11.897009651224069 0 0 0
704 235 1 0.5897 -1.3440352533072994 8.493128984286937 11.851982469427833 0 0 0
705 235 1 0.5897 -2.3812159537163478 9.12786920781601 12.753869737474893 0 0 0
743 248 1 0.5897 0.4195372353195759 8.735308809104655 10.745422016085087 0 0 0
678 226 1 0.5897 0.17249038801839145 9.192298841825053 13.935911097096502 0 0 0
836 279 1 0.5897 -4.880864282322706 8.32947053466821 10.160876921764112 1 0 0
513 171 1 0.5897 -4.383262053736736 6.076173433597209 14.053387653401463 0 0 0
586 196 2 -1.1794 -0.8199104127745818 5.999903448833156 9.721438631209434 0 0 0
514 172 2 -1.1794 -1.3008687874560323 6.336649533506657 14.20346148018781 0 0 0
617 206 1 0.5897 -7.135653968626899 7.419947515045904 11.913349210438541 1 0 0
726 242 1 0.5897 -0.3841121468795681 11.093211887977894 12.391751008978693 0 0 0
835 279 2 -1.1794 -5.511010487682566 8.96413977311732 9.819510207380004 1 0 0
663 221 1 0.5897 -6.83528534459419 6.056879619678313 13.718818416584178 1 0 0
748 250 2 -1.1794 -2.714619668068911 9.943301872219262 14.365956528968711 0 0 0
515 172 1 0.5897 -2.1886850025988416 6.680142900625023 14.3036513848969 0 0 0
516 172 1 0.5897 -0.7375682765355833 7.108858717891328 14.25576967708727 0 0 0
797 266 1 0.5897 -7.318116676976617 10.663659390697635 17.008117661672546 1 0 0
695 232 1 0.5897 -3.1865222412437664 10.159075761775291 18.484473820364556 0 0 0
741 247 1 0.5897 -6.141653961852819 9.032006998829232 18.269350879795805 0 0 0
613 205 2 -1.1794 -7.839909149157483 6.621321848122511 16.880887558367537 1 0 0
740 247 1 0.5897 -6.586863065659851 7.86969709802214 17.407250697032197 0 0 0
568 190 2 -1.1794 -1.5021609072753304 7.285598274338904 17.858145848774587 0 0 0
333 111 1 0.5897 -8.599843353546493 9.560792819880655 18.670184798314775 1 0 -1
757 253 2 -1.1794 -5.990161627033924 8.698555983505884 14.426547296171355 1 0 0
758 253 1 0.5897 -5.864034259434885 9.410755279992905 15.053690199942018 1 0 0
615 205 1 0.5897 -7.632230644299478 6.265307858220807 16.01686769343069 1 0 0
569 190 1 0.5897 -1.5999784470030045 6.505413076985528 18.404225859578723 0 0 0
749 250 1 0.5897 -3.1201573145850423 9.664815383589938 15.187139173088639 0 0 0
798 266 1 0.5897 -8.386492575774898 9.796997438036474 16.37594877779852 1 0 0
676 226 2 -1.1794 0.28521975788385223 8.52597725397801 14.613987221062017 0 0 0
796 266 2 -1.1794 -8.234625399290437 10.403635636227083 17.100771123274114 1 0 0
706 236 2 -1.1794 -3.3019145500222375 9.145506392294692 16.99499510444441 0 0 0
707 236 1 0.5897 -4.186492332397898 8.789431977545355 17.0783053998422 0 0 0
708 236 1 0.5897 -2.7264081469953423 8.40985605088793 17.204842441685354 0 0 0
739 247 2 -1.1794 -5.806126380634948 8.284698184068823 17.774018161010773 0 0 0
83 28 1 0.5897 -5.013786203403075 7.049713704990913 18.903992839302376 0 0 -1
511 171 2 -1.1794 -4.0480226107788315 6.7972812850430975 14.5863448001449 0 0 0
805 269 2 -1.1794 -5.699409659725422 10.883498144330739 16.03546463884529 1 0 0
570 190 1 0.5897 -0.6965025904365874 7.133295405883538 17.364241486242804 0 0 0
762 254 1 0.5897 -7.77230892191285 8.654954235825336 14.711949288613097 1 0 0
512 171 1 0.5897 -4.746635386012411 7.451567730720769 14.571718781015326 0 0 0
614 205 1 0.5897 -7.692340868938424 5.891744229653818 17.482911273290327 1 0 0
84 28 1 0.5897 -4.001400115206566 5.970021118218861 18.585334328943123 0 0 -1
731 244 1 0.5897 -1.6927031514054969 11.242541474172198 15.189256469278462 0 0 0
807 269 1 0.5897 -4.968052409981219 11.389514614420857 16.389561306663808 1 0 0
548 183 1 0.5897 -3.8462303724112807 5.906044954816384 16.169605435454447 0 0 0
280 94 2 -1.1794 -3.4470582509705734 14.046674493511377 2.602053154262517 1 0 0
281 94 1 0.5897 -3.5114593113279033 13.718558004725514 3.4990723298065936 1 0 0
282 94 1 0.5897 -2.5423429067440413 14.348647916062388 2.521405686640809 1 0 0
500 167 1 0.5897 -1.889999795391539 16.0318070124232 0.5554731061765611 1 0 0
367 123 2 -1.1794 1.0324971553909368 16.497399802623455 2.4485432302825774 0 0 0
499 167 2 -1.1794 -2.532616646809929 16.59311131551844 0.12141649790133614 1 0 0
313 105 2 -1.1794 -0.9592596440830903 14.874348300068501 1.6319972879772469 1 0 0
315 105 1 0.5897 -0.6781782449747658 14.083887202326466 1.1709264547942173 1 0 0
180 60 1 0.5897 1.9014012391796733 13.76734854172072 4.026765611437273 0 0 0
223 75 2 -1.1794 -0.9307578960699545 11.844831904857186 3.3071346494978267 0 0 0
225 75 1 0.5897 -1.080159150640979 12.597086166110168 3.8800449443132297 0 0 0
314 105 1 0.5897 -0.14502619083308677 15.3300889356027 1.8455337880906106 1 0 0
369 123 1 0.5897 0.9403475747581584 16.856722980677787 3.3310514977430548 0 0 0
423 141 1 0.5897 -2.7607514435718086 16.53550105669002 3.9435958035055116 1 0 0
216 72 1 0.5897 0.6904213905275745 12.371301686099892 2.3683857192041815 0 0 0
368 123 1 0.5897 1.9534629737678921 16.243713954976084 2.3877291851077356 0 0 0
406 136 2 -1.1794 3.524129277816039 15.55640158061335 1.6642179506160908 0 0 0
407 136 1 0.5897 4.345386865455681 15.295722832279138 2.081255402083231 0 0 0
215 72 1 0.5897 1.7127328371522452 13.008899111223268 1.451681760830103 0 0 0
252 84 1 0.5897 2.943234512215354 14.364337396852275 0.43149338222802697 0 0 0
408 136 1 0.5897 3.746698347777021 16.34333285281173 1.1665883363133716 0 0 0
214 72 2 -1.1794 1.5987309163025492 12.67196186504067 2.3404548804300416 0 0 0
770 257 1 0.5897 -1.5986604799732365 12.434158612827305 0.15262455541963554 1 0 1
184 62 2 -1.1794 5.264433936715209 12.427452351865437 0.43853865886676663 0 0 0
269 90 1 0.5897 -3.553896744906228 12.847481963125844 1.1032502628906597 1 0 0
771 257 1 0.5897 -0.20287312635525412 11.847872862654887 0.14688409128812518 1 0 1
222 74 1 0.5897 2.9018273935406125 11.34171475650796 2.8507268957503094 0 0 0
421 141 2 -1.1794 -2.666885790836588 16.097673975971283 4.789750678938805 1 0 0
769 257 2 -1.1794 -0.6768816860715767 12.675108477186924 0.060642928657598204 1 0 1
404 135 1 0.5897 -1.7943425821589112 15.853620780545784 7.740026673371852 0 0 0
326 109 1 0.5897 -3.3567350707057244 12.085933966226824 5.3573966477429735 1 0 0
340 114 2 -1.1794 3.499904995204181 16.355925071850155 5.116963786561431 0 0 0
327 109 1 0.5897 -4.384903333587739 13.162338963842911 5.633849095296752 1 0 0
405 135 1 0.5897 -2.7653702668555904 16.368297776316975 8.781309704946667 0 0 0
211 71 2 -1.1794 -0.5751586576454719 12.409766655906932 7.32384415439258 0 0 0
227 76 1 0.5897 1.1564787352407464 12.066958879196141 6.991710504057276 0 0 0
213 71 1 0.5897 -0.8262609093286435 13.048099521347586 6.656032307492198 0 0 0
212 71 1 0.5897 -0.6690664950426912 12.879788390232429 8.152510890336618 0 0 0
756 252 1 0.5897 -1.7382213091684604 14.410672888669753 9.238192489682687 0 0 0
232 78 2 -1.1794 1.7439111311424735 14.588725258506244 8.27420983515615 0 0 0
178 60 2 -1.1794 1.8622857487967428 14.156442791488635 4.9005564574406515 0 0 0
234 78 1 0.5897 1.182229747930771 15.159815271826208 7.749975352805115 0 0 0
370 124 2 -1.1794 -0.09868086283338062 16.27054896951125 7.1318425724741505 0 0 0
179 60 1 0.5897 1.9880682075776432 13.418768935393556 5.497637301809731 0 0 0
277 93 2 -1.1794 -4.7049277842512565 14.038827704923998 7.18932767818774 1 0 0
278 93 1 0.5897 -4.138868110277679 14.779536393970998 7.406770135855867 1 0 0
177 59 1 0.5897 0.005055251500961422 14.219841155775752 4.943332445514991 0 0 0
1004 335 1 0.5897 -5.3703327026594145 16.76103178387017 9.189829961550979 1 0 0
403 135 2 -1.1794 -2.612769590415859 15.634697262482735 8.185511745567016 0 0 0
325 109 2 -1.1794 -3.9702922679178387 12.676840706119355 4.920579245807727 1 0 0
267 89 1 0.5897 -3.943768675613786 12.963533432744592 8.58942049184563 1 0 0
279 93 1 0.5897 -5.552483944124827 14.263913367611186 7.572991417613776 1 0 0
176 59 1 0.5897 -1.3945896955503754 14.780371389763111 5.080260671103592 0 0 0
226 76 2 -1.1794 1.961985026831469 11.88590481436135 6.5073517962427925 0 0 0
372 124 1 0.5897 -0.0011665294423721662 16.697306794152677 6.280479413629482 0 0 0
233 78 1 0.5897 2.5435482561529996 14.497394209459326 7.756079268319896 0 0 0
690 230 1 0.5897 1.5786554553141752 13.153948931859466 9.410514359545362 0 0 0
341 114 1 0.5897 3.018150403082898 15.53295941040454 5.0331913033206055 0 0 0
175 59 2 -1.1794 -0.9073271865367962 13.9565281479487 5.063401500535059 0 0 0
422 141 1 0.5897 -2.54689171806627 16.810841139071282 5.416998083464925 1 0 0
371 124 1 0.5897 -0.042315590573924755 16.98513876617543 7.766373383265928 0 0 0
425 142 1 0.5897 -4.534563886725896 15.942290868706527 4.865153373989281 1 0 0
462 154 1 0.5897 -5.336055309521554 16.886538742094977 6.694564843236883 1 0 0
265 89 2 -1.1794 -3.9081351817228738 12.640897746559657 9.490034604361988 1 0 0
266 89 1 0.5897 -3.353113991024707 11.8622662906941 9.444328594702293 1 0 0
754 252 2 -1.1794 -1.0263088248839152 13.896956220813273 9.61985702066981 0 0 0
728 243 1 0.5897 -3.1803056800736433 12.072737518164793 12.439559206873314 0 0 0
755 252 1 0.5897 -0.4482873911816414 14.547353188551345 10.018909367227714 0 0 0
718 240 2 -1.1794 -1.587143056421322 12.374058245985406 11.801831967325548 0 0 0
912 304 1 0.5897 1.031002574069932 15.202771644784775 11.693517111213602 0 0 0
720 240 1 0.5897 -1.4101590840970628 13.02034333961089 12.485524914857493 0 0 0
688 230 2 -1.1794 1.8724214560158643 12.442218722156676 9.979403737076403 0 0 0
871 291 2 -1.1794 -1.8792187777211016 16.556305265968042 12.192872208073792 0 0 0
831 277 1 0.5897 -7.826100933471176 12.068539854067 14.091530911091898 1 0 0
784 262 2 -1.1794 -6.490261386335327 13.9419810564183 12.046627558297828 1 0 0
729 243 1 0.5897 -4.161159609149504 12.70851089661698 13.401738126110123 0 0 0
911 304 1 0.5897 -0.25511080954218013 16.001451665112832 11.704238663787049 0 0 0
910 304 2 -1.1794 0.4703028852386226 15.742413588917705 11.135969860660438 0 0 0
1005 335 1 0.5897 -5.077247226007239 15.813500536648437 10.333874163768193 1 0 0
727 243 2 -1.1794 -3.964141233968429 11.884669955812898 12.955748287036977 0 0 0
719 240 1 0.5897 -1.390120956097658 12.830189530250369 10.983572742509544 0 0 0
786 262 1 0.5897 -6.68686087366069 13.450139468125377 12.84403184222972 1 0 0
817 273 2 -1.1794 -3.892598192860989 14.783854531653013 11.33867261237875 1 0 0
818 273 1 0.5897 -4.6809283630133915 14.533688488314937 11.820514037391119 1 0 0
819 273 1 0.5897 -3.75603176874562 14.070527446739789 10.71502076754313 1 0 0
873 291 1 0.5897 -2.4583831393584408 15.804588629890997 12.06707890616338 0 0 0
774 258 1 0.5897 -5.656671392133893 12.266829075980759 9.627403390476534 1 0 0
682 228 2 -1.1794 -1.2918709962178268 14.030971710903739 13.963273533745626 0 0 0
684 228 1 0.5897 -0.6834114602270436 14.736149538707581 14.184287565301993 0 0 0
1003 335 2 -1.1794 -5.7511756740336235 16.400333749570816 9.990585891975448 1 0 0
680 227 1 0.5897 -3.0710527530334835 14.312724015897086 14.23910707463212 0 0 0
785 262 1 0.5897 -7.217597198601606 14.558164547424973 11.959086652437309 1 0 0
773 258 1 0.5897 -6.610023864926578 12.893323126838023 10.622739207565514 1 0 0
846 282 1 0.5897 0.17903732409912898 17.04030276361016 14.040846734599121 0 0 0
772 258 2 -1.1794 -6.58816401886059 12.365848620258557 9.824160133665707 1 0 0
925 309 2 -1.1794 -6.096704144937082 16.067570814243744 14.32032077427063 1 0 0
679 227 2 -1.1794 -3.9934692801539153 14.271748449635279 14.491402111198871 0 0 0
683 228 1 0.5897 -1.1694525114734597 13.382239162990455 14.656560298423084 0 0 0
717 239 1 0.5897 -2.89053775747697 12.328806693936164 16.62459136302052 0 0 0
783 261 1 0.5897 -8.829838182749704 14.24089243358956 16.86856761900817 1 0 0
737 246 1 0.5897 -1.18744215238738 15.298808566638733 18.18627905223565 0 0 0
681 227 1 0.5897 -3.992045097100206 13.815407026797013 15.33295408947064 0 0 0
830 277 1 0.5897 -7.496137313556025 13.11032694776991 15.139493684134672 1 0 0
185 62 1 0.5897 -1.7224957576725846 13.345452091254055 18.97098534924305 0 0 -1
715 239 2 -1.1794 -3.802405225047476 12.605420015256776 16.71522258346724 0 0 0
716 239 1 0.5897 -3.848276468475267 12.999102508015751 17.586625268924198 0 0 0
874 292 2 -1.1794 -3.4870646110976713 16.34389660896653 16.92702958596425 0 0 0
907 303 2 -1.1794 -6.1700479685706435 15.785378981955143 17.738234482783202 0 0 0
875 292 1 0.5897 -3.327814047929211 16.712346224988377 16.05793951850014 0 0 0
876 292 1 0.5897 -2.836083983229722 15.647644489968615 17.015625576151454 0 0 0
736 246 2 -1.1794 -1.4929944658653076 14.551239332518465 17.672268939645093 0 0 0
909 303 1 0.5897 -5.388473339376967 15.9768445975776 17.219870753055147 0 0 0
781 261 2 -1.1794 -7.9455981111853955 13.900270152505442 16.7331397720445 1 0 0
782 261 1 0.5897 -7.732371104751803 13.453385862143426 17.5524802995377 1 0 0
730 244 2 -1.1794 -1.2871170215608556 11.929572772695176 15.718308745885507 0 0 0
908 303 1 0.5897 -6.750327090299342 15.321084567390216 17.134845469876527 0 0 0
738 246 1 0.5897 -0.7140639776786415 14.244605558131488 17.20806782786009 0 0 0
251 84 1 0.5897 -5.152669845730748 14.574341085022745 18.686997721902017 0 0 -1
965 322 1 0.5897 -8.59778016013438 17.07875221001558 16.155833014809943 1 0 0
927 309 1 0.5897 -5.853486738894414 16.870195666605028 14.781914539870305 1 0 0