LAMMPS data file via write_data, version 30 Jul 2021, timestep = 36250000

1920 atoms
2 atom types
1280 bonds
1 bond types
640 angles
1 angle types

0.02623894565173046 24.70376205433313 xlo xhi
0.009504827851642972 24.7204961721293 ylo yhi
0.02788648977105801 22.782113510233227 zlo zhi

Masses

1 1.008
2 15.999

Pair Coeffs # lj/cut/tip4p/long/omp

1 0 0
2 0.21084 3.1668

Bond Coeffs # harmonic/omp

1 450 0.9572

Angle Coeffs # harmonic/omp

1 55 104.52

Atoms # full

1 1 2 -1.1794 4.443637067300905 1.4727925179872428 4.317167579573594 0 0 0
2 1 1 0.5897 4.546637646482233 2.2219691891485667 4.903992646150747 0 0 0
3 1 1 0.5897 5.153498329962173 1.5661982502332787 3.6818816800197127 0 0 0
4 2 2 -1.1794 2.9356966151429797 1.7319492792028521 2.043869020360289 0 0 0
5 2 1 0.5897 3.3117161449972636 1.5871943191941136 2.9121265860918206 0 0 0
6 2 1 0.5897 1.989968071573751 1.67209876570492 2.1788952471625667 0 0 0
10 4 2 -1.1794 3.278517084635805 4.543958837300285 3.6668825522174746 0 0 0
11 4 1 0.5897 2.8183366504623577 5.241321282763458 4.133953134083716 0 0 0
12 4 1 0.5897 2.8673621299526957 4.52199432447145 2.8027737977854033 0 0 0
13 5 2 -1.1794 1.5469270260810108 2.9083171468608224 5.012151348769989 0 0 0
14 5 1 0.5897 2.321307946135875 3.249680509303108 4.564905643406265 0 0 0
15 5 1 0.5897 1.709260408287144 1.9681278366319317 5.089264681839694 0 0 0
22 8 2 -1.1794 1.6519374954276371 4.522211666799018 1.350037226186529 0 0 0
24 8 1 0.5897 1.4130270839818326 5.201291543640411 0.719158741861938 0 0 0
23 8 1 0.5897 0.9505377734874573 4.54201697129483 2.0010834461235323 0 0 0
20 7 1 0.5897 3.9393060747631843 2.9342290210302426 0.9717514475878083 0 0 0
9 3 1 0.5897 5.06760795443175 4.475032753165723 3.509418161140339 0 0 0
19 7 2 -1.1794 4.744143946157131 3.232513830928399 0.5480984711598367 0 0 0
21 7 1 0.5897 5.447186799934457 2.8320062590928923 1.0595150641233062 0 0 0
27 9 1 0.5897 4.599462668993844 5.113490510245131 0.40092391372154407 0 0 0
7 3 2 -1.1794 6.023084983658238 4.482241233903552 3.452601154597119 0 0 0
16 6 2 -1.1794 0.21235649495757797 1.6023676402140357 2.0073897913568657 0 0 0
98 33 1 0.5897 0.31852977369611807 5.381297058701178 3.896152136526681 1 0 0
28 10 2 -1.1794 1.635959719459875 0.21315933915276253 5.1438361794674865 0 0 0
25 9 2 -1.1794 4.476900632234898 6.0438781984650225 0.5896339670290681 0 0 0
387 129 1 0.5897 3.8692894029102436 0.4418045935208611 1.3286495836712495 0 1 0
47 16 1 0.5897 6.015891233900619 0.8673611031724084 1.7574866592918674 0 0 0
867 289 1 0.5897 4.574267314117738 0.014296558618719493 5.6600156065496385 0 1 0
99 33 1 0.5897 0.13292613818935922 3.8823103980714166 3.9988052485507124 1 0 0
386 129 1 0.5897 4.650228128600547 0.196974390504323 0.0550514282706871 0 1 0
8 3 1 0.5897 6.285532771129171 5.273228680855175 3.9234526128489375 0 0 0
180 60 1 0.5897 8.187360528880056 5.981846679270011 4.473649506063083 0 0 0
46 16 2 -1.1794 6.319867666382809 1.6621907755129968 2.195762512743379 0 0 0
58 20 2 -1.1794 7.622239961952056 0.1574517579926358 5.147283479996262 0 0 0
31 11 2 -1.1794 10.755788836211467 1.4822674434480982 4.284873323952064 0 0 0
32 11 1 0.5897 10.876881999184123 2.291011518283916 4.782379348462043 0 0 0
34 12 2 -1.1794 9.10151793662449 1.682855949209581 2.112831637820182 0 0 0
36 12 1 0.5897 9.599688409102761 2.3374542615142704 1.6233806835345619 0 0 0
39 13 1 0.5897 11.120930986030658 4.720954407373758 3.6955863340283965 0 0 0
40 14 2 -1.1794 9.343484158728959 4.790642000182999 3.7311991208660276 0 0 0
41 14 1 0.5897 8.88188495838637 4.824827523352224 2.8933607007562054 0 0 0
42 14 1 0.5897 8.90722882060491 4.090813611253464 4.217166750894121 0 0 0
43 15 2 -1.1794 7.800370956590045 2.9453073100420806 4.957112441164359 0 0 0
45 15 1 0.5897 7.10281115350191 3.3018303397047237 4.407092157696932 0 0 0
48 16 1 0.5897 7.273462045338991 1.5800972449370099 2.2073750675164034 0 0 0
49 17 2 -1.1794 10.84728513332781 3.2889727697358713 0.7903855440112395 0 0 0
52 18 2 -1.1794 7.839333925238648 4.723440650956819 1.4376044148573266 0 0 0
53 18 1 0.5897 7.816481127891196 4.125402459362303 0.6905719651256634 0 0 0
54 18 1 0.5897 7.1003988154182665 4.454210131696254 1.9832319005122339 0 0 0
35 12 1 0.5897 9.598469722061584 1.558289363627104 2.9213724267224364 0 0 0
33 11 1 0.5897 10.718905799056925 0.7946948448573901 4.949792895614056 0 0 0
59 20 1 0.5897 7.778135594938819 1.101456309662988 5.175644287232579 0 0 0
50 17 1 0.5897 11.621264958486593 2.9601175013598895 1.2475857637252656 0 0 0
56 19 1 0.5897 10.813904038905282 5.161224476459164 0.9517841084657557 0 0 0
78 26 1 0.5897 12.278088389261475 1.7056835446836396 2.9731172585950474 0 0 0
37 13 2 -1.1794 12.051971939700127 4.499052741332085 3.7074570893765637 0 0 0
416 139 1 0.5897 10.17744205532816 0.20291783172504788 1.2542999054767767 0 1 0
77 26 1 0.5897 12.314635927127204 0.8911071176518633 1.6975736638505028 0 0 0
55 19 2 -1.1794 10.766707167716627 6.103920373951083 0.7925672163551559 0 0 0
1619 540 1 0.5897 7.653695623642885 6.024249548523643 0.14710940728847532 0 0 1
150 50 1 0.5897 1.5495368829238085 6.076274523874308 5.748688729385404 0 0 0
578 193 1 0.5897 0.15341711145873047 3.7237680922417344 9.531455633083432 1 0 0
505 169 2 -1.1794 4.4560846705881865 5.926954142618397 6.400988435500205 0 0 0
508 170 2 -1.1794 1.4556775745108084 0.13081091038545037 10.711640055549267 0 0 0
494 165 1 0.5897 1.3753205143936844 1.9228660689727801 10.626671917486542 0 0 0
504 168 1 0.5897 1.5515940067451803 4.048944932074307 6.536245250775052 0 0 0
501 167 1 0.5897 4.565346211727104 4.14771958032352 6.456956645063765 0 0 0
499 167 2 -1.1794 4.733381965183752 3.207133869746499 6.514546806336113 0 0 0
483 161 1 0.5897 4.550457698423144 2.1594819614276997 10.604454319662961 0 0 0
492 164 1 0.5897 2.5608805442475884 4.0568188289171685 9.875339130492193 0 0 0
493 165 2 -1.1794 1.4282113082790995 2.878511913020286 10.612641115268646 0 0 0
491 164 1 0.5897 2.7562026423549306 4.873854426582159 8.615901509707555 0 0 0
485 162 1 0.5897 3.263510286489441 1.5572361171308071 8.673004962887312 0 0 0
481 161 2 -1.1794 4.462570775283694 1.432802045150627 9.987649009931943 0 0 0
482 161 1 0.5897 5.247583070686225 1.484556329418638 9.44240301534462 0 0 0
502 168 2 -1.1794 1.5900628973109379 4.8277512406524465 7.091422414471337 0 0 0
500 167 1 0.5897 3.9644213899420926 2.852865035367897 6.961106877758252 0 0 0
490 164 2 -1.1794 3.0971285276239233 4.756636186995856 9.502605745534057 0 0 0
503 168 1 0.5897 0.8514040153739104 4.730760060750077 7.692417963642621 0 0 0
498 166 1 0.5897 1.0399080953040967 1.4592747627919123 7.722941773046373 0 0 0
484 162 2 -1.1794 2.8738811910170483 1.6318624959405867 7.801893722778683 0 0 0
489 163 1 0.5897 4.92894392455112 4.5609380812988825 9.367662013475124 0 0 0
486 162 1 0.5897 3.2474713388497927 0.9016092476027192 7.308540010619296 0 0 0
527 176 1 0.5897 5.78005668035978 0.8537229509734371 7.471529746680746 0 0 0
528 176 1 0.5897 5.981260825447285 2.3518615656026123 7.555465225805408 0 0 0
487 163 2 -1.1794 5.8801768409626325 4.640610960437385 9.296771624289335 0 0 0
629 210 1 0.5897 2.0167873779453256 5.837952843276451 10.317657979091727 0 0 0
1347 449 1 0.5897 4.486394166823626 0.2071955125702349 11.353323866004725 0 1 0
496 166 2 -1.1794 0.10206186124429156 1.6492434563067286 7.746963846617835 0 0 0
896 299 1 0.5897 11.287232302611658 0.03469472282526098 6.8928151992385365 0 1 0
535 179 2 -1.1794 10.72821535771474 5.932131796235863 6.521389516199826 0 0 0
522 174 1 0.5897 8.866692875885656 4.606445048721918 8.474312332673254 0 0 0
534 178 1 0.5897 6.927750123949255 4.7014143363664616 7.760147040491005 0 0 0
531 177 1 0.5897 10.878899563985925 4.146122769584751 6.596876943091689 0 0 0
44 15 1 0.5897 7.684052271277504 3.3782011702127903 5.802863391774001 0 0 0
659 220 1 0.5897 6.958032448718388 6.107309581017805 10.080528356308497 0 0 0
533 178 1 0.5897 7.484857730271888 5.317228566312779 6.494337585364218 0 0 0
511 171 2 -1.1794 10.642651594265654 1.5825316114815415 9.934343076739854 0 0 0
519 173 1 0.5897 11.119239989406392 4.522486802106044 9.215918970887703 0 0 0
558 186 1 0.5897 12.13804050726424 2.0467912645409876 7.35532218879405 0 0 0
538 180 2 -1.1794 7.778331027197759 0.24003310130243805 10.676045705507898 0 0 0
526 176 2 -1.1794 6.282503376314911 1.5253311032918115 7.932749989460318 0 0 0
513 171 1 0.5897 11.439429241985227 1.6767491125570417 9.41234250143605 0 0 0
512 171 1 0.5897 9.93474572304187 1.5631449341369168 9.290364341444683 0 0 0
1377 459 1 0.5897 10.730812079403693 0.13512471654704913 11.183719865732309 0 1 0
488 163 1 0.5897 6.221890522439433 3.9621609547682097 9.87915584305807 0 0 0
523 175 2 -1.1794 7.451332750177939 2.987823158301022 10.742447943944796 0 0 0
515 172 1 0.5897 8.055211923542435 1.494969766770554 7.764876663417296 0 0 0
517 173 2 -1.1794 12.055161348183269 4.715933175276561 9.26928164523847 0 0 0
524 175 1 0.5897 8.210372463376235 3.3381946983225896 10.27627169212657 0 0 0
516 172 1 0.5897 9.335363145962729 0.8837433296936983 7.236212668213461 0 0 0
532 178 2 -1.1794 7.659935153238422 4.639057844303832 7.146768788678435 0 0 0
514 172 2 -1.1794 9.00227971967978 1.6303590123064065 7.734066987986395 0 0 0
521 174 1 0.5897 9.0407918290175 5.42559915525089 9.735484827378672 0 0 0
1010 337 1 0.5897 10.780530638015653 2.759974776554021 11.312897831341662 0 0 0
525 175 1 0.5897 7.546125832381267 2.037675544250218 10.675460117395351 0 0 0
529 177 2 -1.1794 10.947281076566592 3.201340590782519 6.459164137127254 0 0 0
530 177 1 0.5897 10.156366989008921 2.842316767135779 6.8613812660387055 0 0 0
520 174 2 -1.1794 9.305127909747794 4.602180513472691 9.325177393677654 0 0 0
961 321 2 -1.1794 4.58409505072896 1.6606196917699378 15.774911861899676 0 0 0
962 321 1 0.5897 5.270440287292387 1.5189656743141482 15.12292932356252 0 0 0
963 321 1 0.5897 4.63898713312553 0.8979468789241101 16.350721405657893 0 0 0
964 322 2 -1.1794 2.825969245254078 1.4195171796319812 13.592300604056325 0 0 0
965 322 1 0.5897 3.1544346101321183 1.5857130494419518 14.475876933479565 0 0 0
966 322 1 0.5897 1.8733069321853815 1.4274797229574168 13.684971018535991 0 0 0
970 324 2 -1.1794 3.171944283282596 4.63902577056983 15.099059965731646 0 0 0
971 324 1 0.5897 4.12619410470434 4.618684143936104 15.026879720565764 0 0 0
972 324 1 0.5897 2.9486534894011163 3.829109250986438 15.557776453769979 0 0 0
973 325 2 -1.1794 1.5809512660888794 2.8410210088587218 16.50378699013617 0 0 0
975 325 1 0.5897 0.9213267951802142 3.203295570478414 15.912285823234685 0 0 0
982 328 2 -1.1794 1.400610098871853 4.4587926175785055 12.952787288414088 0 0 0
983 328 1 0.5897 1.3210567928591785 5.205193897633068 12.358822134729197 0 0 0
984 328 1 0.5897 2.152340934111316 4.671326241274785 13.505912907276757 0 0 0
980 327 1 0.5897 3.701382244957133 2.64787156743344 12.51211448900495 0 0 0
981 327 1 0.5897 5.208922611525411 2.756145753015351 12.598460964885414 0 0 0
979 327 2 -1.1794 4.452677382022972 3.0879868484848263 12.114524256978493 0 0 0
990 330 1 0.5897 1.5233380971301027 1.0981285309654554 16.52759258192436 0 0 0
986 329 1 0.5897 4.583052258264369 4.96782602436593 11.95928148318695 0 0 0
1346 449 1 0.5897 3.909629096783572 0.18925927665810116 12.75292087096423 0 1 0
1109 370 1 0.5897 0.6521470751159136 5.8869259290692195 15.906892516723554 0 0 0
1058 353 1 0.5897 0.15255705594112912 4.453672372663582 14.17725912495712 1 0 0
1110 370 1 0.5897 2.165650475208831 5.858687485177477 15.926024949349326 0 0 0
967 323 2 -1.1794 5.917078996232722 4.549423107197377 14.902458070043217 0 0 0
1008 336 1 0.5897 5.906283280788938 0.8685236630450182 13.145352849001773 0 0 0
988 330 2 -1.1794 1.5610407294317252 0.1486608602239726 16.41208210903722 0 0 0
976 326 2 -1.1794 0.0883239733739256 1.3901500930964246 13.666421799359416 0 0 0
985 329 2 -1.1794 4.780708747358091 5.902172525243504 12.023945046216648 0 0 0
495 165 1 0.5897 1.364408149800583 3.1359302019070494 11.532359305175426 0 0 0
968 323 1 0.5897 6.2474115082610355 5.281820315174765 15.422758224450368 0 0 0
1006 336 2 -1.1794 6.3034309454002715 1.6057772600533902 13.609000285621608 0 0 0
1376 459 1 0.5897 10.097986131227788 0.12447790302620407 12.558954121489213 0 1 0
969 323 1 0.5897 6.303583812962457 3.773300508981866 15.308030221980088 0 0 0
1017 339 1 0.5897 10.756374624131013 4.9810092133416894 12.10679771156708 0 0 0
991 331 2 -1.1794 10.640050574990964 1.593246432227903 15.704320424658555 0 0 0
992 331 1 0.5897 11.374765809292034 1.6384246791656056 15.092464237851203 0 0 0
993 331 1 0.5897 10.800566495504784 0.7989861060933211 16.213856067355927 0 0 0
994 332 2 -1.1794 9.137941046102984 1.3264632001175436 13.424622892926031 0 0 0
995 332 1 0.5897 9.580469200596216 2.0529137638819486 12.985673510190535 0 0 0
998 333 1 0.5897 11.136014175981026 4.593155741882763 14.974367402357492 0 0 0
1000 334 2 -1.1794 9.3438710867433 4.58716130715576 14.990116673434027 0 0 0
1001 334 1 0.5897 8.993034125513681 3.778318747234081 15.362860892794352 0 0 0
1002 334 1 0.5897 8.884603012064613 4.686049450327464 14.156143785186535 0 0 0
1003 335 2 -1.1794 7.6417198065064875 2.771560039561743 16.311574468370722 0 0 0
1004 335 1 0.5897 7.736597045642418 1.8295930825953814 16.45281845737945 0 0 0
1007 336 1 0.5897 7.246099495947382 1.4651513626510102 13.520584344151032 0 0 0
1012 338 2 -1.1794 7.726380988145164 4.79961556151882 12.843274976111156 0 0 0
1014 338 1 0.5897 7.630245715140055 4.093076279027723 12.204686295000256 0 0 0
1011 337 1 0.5897 11.435262583550232 2.599106149411124 12.668372422466714 0 0 0
1009 337 2 -1.1794 10.771434477812731 3.1090476875753192 12.204131184265234 0 0 0
996 332 1 0.5897 9.466763247811393 1.3528853745597549 14.323173732035853 0 0 0
1013 338 1 0.5897 6.969623584629387 4.704912916872848 13.421691402366807 0 0 0
1139 380 1 0.5897 8.295586485401206 5.857477819718273 15.854680447538994 0 0 0
997 333 2 -1.1794 12.08605495756004 4.609757303082528 15.089967961105954 0 0 0
1038 346 1 0.5897 12.020818139777615 0.822247189402867 13.03188737044826 0 0 0
1015 339 2 -1.1794 10.748419193051161 5.929330633649888 11.976888287245677 0 0 0
1490 497 1 0.5897 10.681202650787549 2.7957486421079922 17.01179397712678 0 0 0
660 220 1 0.5897 7.641683889586036 5.876222255598043 11.411345766731277 0 0 0
1018 340 2 -1.1794 7.856422393416345 0.011746028818691912 16.36032555842496 0 0 0
1036 346 2 -1.1794 12.363983316264196 1.5312557072364497 13.575745554038766 0 0 0
1460 487 1 0.5897 4.542941875731552 2.8688605466501036 17.249813914427072 0 0 0
1468 490 2 -1.1794 1.5897907625155283 0.15002604063800873 21.884708134887205 0 0 0
1826 609 1 0.5897 4.113083280463409 0.20006754297200682 18.37442844768254 0 1 0
974 325 1 0.5897 1.6083491682010038 3.4550052967343006 17.23761511593792 0 0 0
1539 513 1 0.5897 0.21375439261251156 5.297594422379046 21.217274427434553 1 0 0
1538 513 1 0.5897 0.3984802178704104 3.7998498823267126 21.096505666713902 1 0 0
1465 489 2 -1.1794 4.480108635569511 5.979610630545381 17.821244065312506 0 0 0
1454 485 1 0.5897 2.4100822343907056 3.4289231093341885 21.36959276772896 0 0 0
1464 488 1 0.5897 0.9449592289937939 4.7047673200888 19.12947292578572 0 0 0
1443 481 1 0.5897 4.77029025111298 2.058240922643033 21.872724592398534 0 0 0
1450 484 2 -1.1794 3.2339517265215907 4.916151393176903 20.700150748831092 0 0 0
1469 490 1 0.5897 1.5787315991180728 1.105918005519273 21.93371497396396 0 0 0
1442 481 1 0.5897 4.060631109324457 1.247084124293941 20.809571854334827 0 0 0
1453 485 2 -1.1794 1.7997284313835227 2.9476632042969952 21.928241942046824 0 0 0
1444 482 2 -1.1794 3.064303905777559 1.451395695368487 19.332513660691134 0 0 0
1463 488 1 0.5897 1.4616482395176547 5.398985279798928 17.88731127914825 0 0 0
1452 484 1 0.5897 2.956896595213857 4.808118711900005 19.79032429087451 0 0 0
1441 481 2 -1.1794 4.842771994030138 1.2523409965368204 21.36133836944554 0 0 0
1451 484 1 0.5897 4.190152633358172 4.891276754855748 20.66440666779333 0 0 0
1445 482 1 0.5897 2.1173290328034224 1.521764364301846 19.21208160974296 0 0 0
1446 482 1 0.5897 3.4234613260002904 2.1968835549052526 18.851375237770036 0 0 0
1461 487 1 0.5897 5.356587476765165 2.8887045550774038 18.526308769566192 0 0 0
1459 487 2 -1.1794 4.6242655587978145 3.322720861517168 18.08863451919798 0 0 0
1462 488 2 -1.1794 1.6522764556925424 4.676182582501888 18.485187521346823 0 0 0
1466 489 1 0.5897 4.619858249055825 5.036859894950978 17.91037007502902 0 0 0
1456 486 2 -1.1794 0.3216233009238052 1.4779534388253295 19.20607591294059 0 0 0
1487 496 1 0.5897 5.985602430975471 1.3989245647401611 20.02646110991899 0 0 0
1590 530 1 0.5897 2.1295142940370364 6.015303813860774 21.684579663462223 0 0 0
1488 496 1 0.5897 6.131035689851843 0.9195311395987629 18.597863551348517 0 0 0
1447 483 2 -1.1794 5.99455098302976 4.780141630933975 20.55120637987889 0 0 0
1455 485 1 0.5897 1.7912183078498478 3.4364488853398414 22.751188239152874 0 0 0
1471 491 2 -1.1794 10.962666530024803 1.6614238850726086 21.395741886493305 0 0 0
1477 493 2 -1.1794 12.291658862505265 4.699768031326892 20.64189477826003 0 0 0
1495 499 2 -1.1794 10.745193768616762 6.00045983612187 17.95065728553609 0 0 0
1496 499 1 0.5897 10.627199075730413 5.078150383555906 17.723338530737657 0 0 0
1482 494 1 0.5897 9.22635788163766 4.6652094666332715 19.864763850110627 0 0 0
1518 506 1 0.5897 12.14247209507623 1.5062461277171877 20.071002876784398 0 0 0
1449 483 1 0.5897 6.388776692189748 4.059902848240509 21.043222406858703 0 0 0
1005 335 1 0.5897 7.745772979479664 3.1564061815303144 17.18179690777665 0 0 0
1498 500 2 -1.1794 7.8660516717888855 0.27474211461517944 22.06678954389134 0 0 0
1483 495 2 -1.1794 7.724250172246995 3.1266651577938904 21.942019349681864 0 0 0
1492 498 2 -1.1794 7.915978012950742 4.455548742617243 18.504197013241416 0 0 0
1517 506 1 0.5897 11.927619062956987 2.156094007401973 18.720664524070266 0 0 0
1480 494 2 -1.1794 9.513989853274445 4.773348729233323 20.77128918780847 0 0 0
1472 491 1 0.5897 10.856578059424955 1.0142563461783065 22.09298858798337 0 0 0
1493 498 1 0.5897 7.756419522822368 5.152188707573725 17.867431874903858 0 0 0
1484 495 1 0.5897 8.445588058337501 3.529438064935148 21.458623168272517 0 0 0
1473 491 1 0.5897 10.269325496717048 1.4547861581184012 20.76900314595232 0 0 0
1448 483 1 0.5897 6.4000491107075295 5.568161200907302 20.912923128961758 0 0 0
1476 492 1 0.5897 9.43326645502816 0.6471326291538554 18.66911255308859 0 0 0
1481 494 1 0.5897 10.468077069729178 4.826594387844971 20.715613205581377 0 0 0
1474 492 2 -1.1794 9.155916275100692 1.3479880667977306 19.259124113675746 0 0 0
1486 496 2 -1.1794 6.479114042132299 1.5567133130850144 19.221621802670178 0 0 0
1620 540 1 0.5897 8.532241516065653 6.025626855860807 21.668448199522885 0 0 0
1491 497 1 0.5897 9.992446110827224 2.7893595279373953 18.35991427677991 0 0 0
1494 498 1 0.5897 7.208666180695417 4.547304781758055 19.14255935865198 0 0 0
1485 495 1 0.5897 7.8860962793416345 2.185641757901365 21.87469263939809 0 0 0
1489 497 2 -1.1794 10.692024821128818 3.2208290128829886 17.86935639743357 0 0 0
1475 492 1 0.5897 8.199554899935078 1.3123319292634237 19.24124958916213 0 0 0
51 17 1 0.5897 10.830313385144864 2.8020485403826507 22.7206945391139 0 0 -1
121 41 2 -1.1794 4.482559882918797 7.750060505740043 4.310716905930563 0 0 0
122 41 1 0.5897 3.758079044381657 7.777639356651721 3.685751234429247 0 0 0
123 41 1 0.5897 5.260291528954314 7.610223357718829 3.770535011863268 0 0 0
124 42 2 -1.1794 2.837221564887464 7.800440967460295 2.0654799874083474 0 0 0
125 42 1 0.5897 3.1797709419228783 7.001343805698644 1.6650475167630787 0 0 0
126 42 1 0.5897 3.3544498798385125 8.505117345651398 1.675421954833981 0 0 0
129 43 1 0.5897 5.035431098444853 10.83387665186811 3.462430707790486 0 0 0
130 44 2 -1.1794 3.1282961198133297 10.82536396385813 3.470776788855318 0 0 0
132 44 1 0.5897 2.842110745013007 10.012589909368574 3.887598690414459 0 0 0
133 45 2 -1.1794 1.340151662912109 9.179712801733796 4.938571629204213 0 0 0
135 45 1 0.5897 0.6652373091235603 9.659741652478496 4.45868660942741 0 0 0
137 46 1 0.5897 1.1187740653992342 7.788868089228813 2.195435364448436 0 0 0
139 47 2 -1.1794 4.709626663953671 9.429942172098874 0.9022805552868736 0 0 0
142 48 2 -1.1794 1.389657161996458 10.810730802268452 1.328775420233052 0 0 0
143 48 1 0.5897 2.039897218474533 10.954136359257655 2.016408433321747 0 0 0
144 48 1 0.5897 1.5332223050442881 11.52651925088921 0.7096849103879189 0 0 0
149 50 1 0.5897 1.5761881360776169 7.3787957199817695 4.977549488500837 0 0 0
131 44 1 0.5897 2.740913480424354 11.51853249846326 4.005274757514599 0 0 0
140 47 1 0.5897 4.761410813815472 10.3810452132062 0.8075446570418738 0 0 0
148 50 2 -1.1794 1.6491750407523262 6.43100012993546 4.865251221471127 0 0 0
127 43 2 -1.1794 5.988915486356228 10.75769771450293 3.4266309710858085 0 0 0
218 73 1 0.5897 0.06683294037681045 10.839929818572777 2.6668852187354997 1 0 0
168 56 1 0.5897 5.973405535819975 8.341305028162568 1.6956719183627404 0 0 0
145 49 2 -1.1794 4.737308175798669 12.305758055801538 0.8204413043057117 0 0 0
270 90 1 0.5897 0.7163793404740518 12.133136169080775 4.568421000292846 0 0 0
26 9 1 0.5897 5.262030118574641 6.295591728681906 1.075878071369994 0 0 0
136 46 2 -1.1794 0.16610510778163295 7.873419644674957 2.234035103526354 0 0 0
507 169 1 0.5897 4.435500432844545 6.410314226796876 5.575055262246025 0 0 0
621 207 1 0.5897 4.602393986194612 9.107415244359778 5.6908684216672185 0 0 0
128 43 1 0.5897 6.305763555289087 11.418894614698635 4.041984381109489 0 0 0
166 56 2 -1.1794 6.37329870763978 7.577699815958998 2.111884778959528 0 0 0
197 66 1 0.5897 12.119902211343387 8.544809851527768 1.7142769788956334 0 0 0
300 100 1 0.5897 8.458568146303278 12.119895267431321 4.557687112147513 0 0 0
151 51 2 -1.1794 11.015985309133175 7.6288776667870755 4.334240196792949 0 0 0
152 51 1 0.5897 10.272701587361645 7.681879828036018 3.7334566315365776 0 0 0
153 51 1 0.5897 10.78120745648015 6.930645110536425 4.945457228361814 0 0 0
154 52 2 -1.1794 9.20977738371688 7.788044668419037 2.2089782887545137 0 0 0
155 52 1 0.5897 9.66662796315503 8.549637266989501 1.8519018498967377 0 0 0
156 52 1 0.5897 9.529056558312453 7.050857292140986 1.6885343070585022 0 0 0
158 53 1 0.5897 11.240120060277642 10.60118034736819 3.5893932503446884 0 0 0
160 54 2 -1.1794 9.432136034926016 10.792823397482465 3.6247404474743252 0 0 0
161 54 1 0.5897 9.008252970531425 10.848652043830352 2.7683401168714625 0 0 0
162 54 1 0.5897 8.91980494084035 10.141703448844892 4.104107495378123 0 0 0
163 55 2 -1.1794 7.6932258030589065 9.116465405717035 4.882199279207358 0 0 0
164 55 1 0.5897 7.01653932369197 9.50473480767574 4.327614563353093 0 0 0
167 56 1 0.5897 7.313067810045177 7.758465184750981 2.092501349373302 0 0 0
169 57 2 -1.1794 10.83627557246465 9.495629704054927 0.8766499059003326 0 0 0
172 58 2 -1.1794 7.924434969269045 11.11877776252235 1.450039271325167 0 0 0
173 58 1 0.5897 7.938390335994161 10.388804777057391 0.8310227787582303 0 0 0
174 58 1 0.5897 7.133985856047203 10.97671361944821 1.9708311297305368 0 0 0
179 60 1 0.5897 7.65313400612132 7.327806073279586 4.915156774487581 0 0 0
171 57 1 0.5897 10.867645873078713 10.446028891310396 0.7670581785529867 0 0 0
178 60 2 -1.1794 7.509808478384565 6.386686671768772 5.015177882922614 0 0 0
57 19 1 0.5897 11.465581702342684 6.473717906610298 1.3320534124273984 0 0 0
175 59 2 -1.1794 10.925323509536444 12.21549323211715 0.6442923023919812 0 0 0
198 66 1 0.5897 12.21291333667533 7.663065215382613 2.9413706917946687 0 0 0
157 53 2 -1.1794 12.186952763193233 10.671183654714612 3.7111476765408686 0 0 0
650 217 1 0.5897 11.023535808504134 8.939356304107319 5.649798904483466 0 0 0
134 45 1 0.5897 1.3997401290772171 9.628229623291702 5.782078849269416 0 0 0
616 206 2 -1.1794 0.17877181685956914 7.771891993084356 7.886924549024154 0 0 0
699 233 1 0.5897 0.24878033118708112 10.587526435104797 8.592854274849504 1 0 0
625 209 2 -1.1794 4.672159191710182 12.286458639288735 6.40811014602632 0 0 0
698 233 1 0.5897 0.14264418476517537 11.385869369824876 9.87475265855883 1 0 0
603 201 1 0.5897 3.999132951858551 7.529753639726059 9.409113833139447 0 0 0
619 207 2 -1.1794 4.610414084883018 9.513778519294169 6.557486007170588 0 0 0
611 204 1 0.5897 4.253478875721521 10.883357157008765 9.161581457092502 0 0 0
613 205 2 -1.1794 1.598267322857176 8.992252901077714 10.427801534131824 0 0 0
604 202 2 -1.1794 2.933418636315511 7.650675253500155 7.860527815625131 0 0 0
626 209 1 0.5897 4.746127755685057 11.338613153737432 6.519332440875941 0 0 0
612 204 1 0.5897 3.0005854484694603 11.547419184204674 9.691819784430185 0 0 0
605 202 1 0.5897 3.2465736025108782 8.448642515598872 7.434587695188055 0 0 0
620 207 1 0.5897 5.2981202488844765 9.048935715798438 7.034147476169865 0 0 0
630 210 1 0.5897 1.4252780999973271 7.167638085577724 10.734774078668362 0 0 0
602 201 1 0.5897 4.731392879345763 7.007660106777667 10.626932950697816 0 0 0
614 205 1 0.5897 2.284307560317319 9.475686945743053 9.967513168321949 0 0 0
624 208 1 0.5897 1.4236812897421742 11.447886817897384 6.5244995982603715 0 0 0
601 201 2 -1.1794 4.743291561228041 7.714863906509898 9.981983344139811 0 0 0
615 205 1 0.5897 0.781220122278126 9.389153307119667 10.125930423694962 0 0 0
623 208 1 0.5897 2.1614600486562923 10.821242349458979 7.6884884867839896 0 0 0
606 202 1 0.5897 1.9846769723300732 7.764791306575612 7.916086565099706 0 0 0
647 216 1 0.5897 5.9593159095566115 7.64646786501395 8.715766048757475 0 0 0
622 208 2 -1.1794 1.377581404311017 10.72307735625801 7.148012555817676 0 0 0
610 204 2 -1.1794 3.303052915119605 10.779334699693901 9.207259074022929 0 0 0
648 216 1 0.5897 5.8111028563245855 6.881775082584574 7.41763093693393 0 0 0
506 169 1 0.5897 3.9203466411457426 6.449169986434387 6.998068743913448 0 0 0
628 210 2 -1.1794 1.3009484546567407 6.222683524032898 10.823406284951533 0 0 0
1101 367 1 0.5897 4.538827097648568 8.919993592429611 11.340707934074924 0 0 0
607 203 2 -1.1794 5.961677720783906 10.91639761117181 9.38126413308615 0 0 0
299 100 1 0.5897 7.619190438362432 12.122088390117874 5.8175659590784905 0 0 0
633 211 1 0.5897 10.666892003879353 6.993214963209713 10.580079663771018 0 0 0
632 211 1 0.5897 11.357324561466614 7.571146645939882 9.363046188148159 0 0 0
609 203 1 0.5897 6.377047107200126 10.16057758878333 9.796527607157755 0 0 0
657 219 1 0.5897 10.814451078184346 11.24308882483472 6.422943845090777 0 0 0
165 55 1 0.5897 7.578823283008527 9.54036284442596 5.732754983180211 0 0 0
649 217 2 -1.1794 10.855420556380109 9.462867174877221 6.4333198120556805 0 0 0
779 260 1 0.5897 8.195964331855556 12.146559620789226 10.081025866227565 0 0 0
608 203 1 0.5897 6.343316644549112 11.67385384647432 9.824943940349561 0 0 0
637 213 2 -1.1794 12.332295216886685 10.657704419332685 9.272965010183885 0 0 0
678 226 1 0.5897 12.18240355631416 8.33708050696329 7.514640922671527 0 0 0
635 212 1 0.5897 9.400586719059698 7.762758084779171 8.55479120545247 0 0 0
653 218 1 0.5897 6.968972522311944 10.874749020082826 7.8114246235234 0 0 0
658 220 2 -1.1794 7.67692269385351 6.4242162187569205 10.627325186372465 0 0 0
646 216 2 -1.1794 6.321214321703037 7.577520680743641 7.832312391867328 0 0 0
642 214 1 0.5897 9.157704361231218 10.00892167335044 9.592165829286893 0 0 0
652 218 2 -1.1794 7.682301670253502 10.863509651026577 7.173261904275307 0 0 0
651 217 1 0.5897 10.188226325347266 8.970978144559542 6.911988946455456 0 0 0
1130 377 1 0.5897 10.615679073305854 8.876633541505278 11.35400681237867 0 0 0
641 214 1 0.5897 10.525515577919888 10.517644885668066 9.189476252084217 0 0 0
536 179 1 0.5897 11.460796316861286 6.222520135780869 7.064731081569333 0 0 0
643 215 2 -1.1794 7.700298562107387 9.168515382137297 10.542359188947742 0 0 0
645 215 1 0.5897 7.661733631658284 8.233408958901304 10.743209751847488 0 0 0
636 212 1 0.5897 8.123954522286052 7.727228845844335 7.7418884382856366 0 0 0
634 212 2 -1.1794 9.07531981327334 7.786838320451752 7.654880576435768 0 0 0
654 218 1 0.5897 8.473062327820275 10.744364202186 7.699302277941891 0 0 0
631 211 2 -1.1794 10.651205128112524 7.743489349353956 9.985871801144414 0 0 0
655 219 2 -1.1794 10.717920309689482 12.194381718589746 6.467424777756218 0 0 0
537 179 1 0.5897 9.963178984650245 6.367480701480823 6.897440207358417 0 0 0
640 214 2 -1.1794 9.591979853197932 10.71506964476529 9.11363091950496 0 0 0
644 215 1 0.5897 7.704044990823622 9.597789879589428 11.397889089082097 0 0 0
1081 361 2 -1.1794 4.634588604301416 7.657667855764361 15.666974031539803 0 0 0
1082 361 1 0.5897 4.731657449104646 8.451578563014253 16.19283126138803 0 0 0
1083 361 1 0.5897 4.5427488895822865 6.954020779487767 16.309377306001053 0 0 0
1084 362 2 -1.1794 2.9183507507122415 7.463688300668351 13.439351673501125 0 0 0
1085 362 1 0.5897 3.3039994057879283 7.493819434126796 14.314899137104824 0 0 0
1086 362 1 0.5897 3.2832472896034233 8.226059129981467 12.990028106947628 0 0 0
1089 363 1 0.5897 4.949096340268565 10.737915710834066 15.027411522868 0 0 0
1090 364 2 -1.1794 3.1429100537776713 10.750258125750541 14.908542216703484 0 0 0
1091 364 1 0.5897 2.6701380788534914 11.543806487334006 15.159558741948656 0 0 0
1092 364 1 0.5897 2.7564624275835024 10.060033973430068 15.447509630530082 0 0 0
1095 365 1 0.5897 0.6586854340861026 9.343761133137471 15.893931061942693 0 0 0
1097 366 1 0.5897 1.049074969887966 7.599652179377194 13.498680536083656 0 0 0
1099 367 2 -1.1794 4.506783323001432 9.356189249178886 12.192135683995886 0 0 0
1102 368 2 -1.1794 1.4642439338502042 10.726133260397097 12.647051913381107 0 0 0
1104 368 1 0.5897 2.2124055702012733 10.636354221688343 13.237316881135055 0 0 0
1093 365 2 -1.1794 1.4296562604480165 9.04626199060072 16.37696368929656 0 0 0
1103 368 1 0.5897 1.5846418730808325 10.031453896630683 11.999625886101631 0 0 0
1100 367 1 0.5897 5.228348611246936 8.968748043624569 12.68756943002275 0 0 0