LAMMPS data file via write_data, version 30 Jul 2021, timestep = 6250000

972 atoms
2 atom types
648 bonds
1 bond types
324 angles
1 angle types

-0.04873501150942339 20.04873601150391 xlo xhi
-0.014810342501315077 20.01481134250005 ylo yhi
0.08718986489754066 20.612808135101357 zlo zhi

Masses

1 1.008
2 15.999

Pair Coeffs # lj/cut/tip4p/long/omp

1 0 0
2 0.21084 3.1668

Bond Coeffs # harmonic/omp

1 450 0.9572

Angle Coeffs # harmonic/omp

1 55 104.52

Atoms # full

10 4 2 -1.1794 1.202208708163132 3.8228328830681524 3.7213638513600187 0 0 0
31 11 2 -1.1794 0.38618871311991454 1.7423860952178973 2.2909090347295784 0 0 0
4 2 2 -1.1794 3.9598932001778193 1.1365292741925623 3.3882540411535857 0 0 0
23 8 1 0.5897 2.3835983902169873 0.4228196085067698 4.493829689997886 0 0 0
2 1 1 0.5897 2.2946637203474975 3.4915237600982123 0.32778445337482753 0 0 0
12 4 1 0.5897 2.109726324198035 3.7169519158914675 4.006555445447802 0 0 0
33 11 1 0.5897 1.0190209368594147 1.9690457488173938 1.6095395933497216 0 0 0
11 4 1 0.5897 1.0269648059007102 3.0487591557770393 3.1862687020560796 0 0 0
17 6 1 0.5897 3.8897909383780296 4.37784572012559 3.3117550811879313 0 0 0
18 6 1 0.5897 4.041041510975499 2.890513232080405 3.550613855476408 0 0 0
16 6 2 -1.1794 3.9097553435957284 3.721153090353297 4.0078424969735895 0 0 0
3 1 1 0.5897 3.198089388419801 2.357386611440586 0.7630137428163108 0 0 0
5 2 1 0.5897 4.282387093155122 0.5495046801531466 2.7044935442693516 0 0 0
6 2 1 0.5897 4.601650290660284 1.0581603006972402 4.0940022346851945 0 0 0
102 34 1 0.5897 0.08674757561738733 0.21453146297059467 5.197309840459215 1 0 0
1 1 2 -1.1794 2.2852370125131496 2.5634623525176097 0.5620797280303286 0 0 0
81 27 1 0.5897 0.0736981913922321 4.252716432233467 5.208986192060759 1 0 0
356 119 1 0.5897 1.5578438828985077 2.2760440367465877 8.236195301627736 0 0 0
27 9 1 0.5897 2.7780069409316424 4.091507049285373 6.491576899862882 0 0 0
355 119 2 -1.1794 1.0416195806703659 2.0283308453004048 9.003122909305757 0 0 0
325 109 2 -1.1794 2.900637416902722 2.067447850891873 6.926884942898014 0 0 0
326 109 1 0.5897 2.593971022761223 1.5184447195264554 6.205298811653971 0 0 0
327 109 1 0.5897 3.853872448805446 2.0673065906566 6.840229182156254 0 0 0
330 110 1 0.5897 4.327897741729408 0.9017915471181474 9.482493291370353 0 0 0
328 110 2 -1.1794 4.322188888153673 1.653489063569143 10.075036075654301 0 0 0
357 119 1 0.5897 0.13758288997778215 2.0127823926845974 8.689098846628905 0 0 0
341 114 1 0.5897 3.8035212972023618 3.323046949712175 10.323498793503154 0 0 0
335 112 1 0.5897 1.020786741718945 3.2476343094251057 10.246436077940064 0 0 0
22 8 2 -1.1794 1.7894688300380712 0.28689845103212247 5.231829250041046 0 0 0
25 9 2 -1.1794 2.451697905026146 4.980158778362236 6.34982551050291 0 0 0
342 114 1 0.5897 4.133766043639664 4.704298981442418 9.799042426759266 0 0 0
9 3 1 0.5897 4.95579542201407 4.558938412071255 5.257124255370748 0 0 0
683 228 1 0.5897 4.238286797652097 2.571653444076331 14.471416380232982 0 0 0
334 112 2 -1.1794 1.0558563126020648 3.8188462676336683 11.01364991497342 0 0 0
650 217 1 0.5897 2.134717033957242 2.076064373007476 13.24402474535518 0 0 0
347 116 1 0.5897 0.9812220390730086 0.5618717952932126 11.69858633714977 0 0 0
336 112 1 0.5897 1.9904884878043991 3.9540958001063475 11.169601868214468 0 0 0
346 116 2 -1.1794 1.9099785477134983 0.7032508083048078 11.88178298199809 0 0 0
651 217 1 0.5897 1.617853386217445 2.58570842687271 14.57241703155433 0 0 0
649 217 2 -1.1794 2.3352247855507584 2.6928928665391347 13.947912571584519 0 0 0
329 110 1 0.5897 4.829439452955007 1.3648117491594125 10.833639693006827 0 0 0
350 117 1 0.5897 2.702303627988424 4.544903644521842 13.645802795385334 0 0 0
348 116 1 0.5897 2.3031719412961014 0.8581710319911208 11.023094100559875 0 0 0
340 114 2 -1.1794 3.8973149663208853 4.234967437473177 10.598994339180544 0 0 0
679 227 2 -1.1794 0.2505461247631322 1.9110659759228092 15.440331689072222 0 0 0
659 220 1 0.5897 0.27823006154312646 4.078775454947872 17.720062811982743 0 0 0
653 218 1 0.5897 3.1764227332980726 1.0480113471252004 17.303526865354733 0 0 0
671 224 1 0.5897 1.1312144643878903 1.038278918462907 18.64873830208623 0 0 0
662 221 1 0.5897 4.424456009142284 4.981488285901013 15.788955323258417 0 0 0
665 222 1 0.5897 2.942889505890386 3.9136239078596193 17.15005306781285 0 0 0
652 218 2 -1.1794 4.035316630896547 1.0890095187421964 16.88311372677662 0 0 0
664 222 2 -1.1794 3.888747822698753 3.9037985874038323 17.296328033881473 0 0 0
681 227 1 0.5897 0.3408650225655871 2.6437750884711844 16.049581819059203 0 0 0
666 222 1 0.5897 4.157648928284327 3.0139058414364044 17.068122447593396 0 0 0
672 224 1 0.5897 2.1643638543661203 1.9076681075599637 19.333262820359693 0 0 0
670 224 2 -1.1794 2.075286327193975 1.180188933421105 18.717594166459506 0 0 0
658 220 2 -1.1794 0.9783678273018865 4.092208859429002 17.067571988007458 0 0 0
654 218 1 0.5897 4.067861426060304 0.3103564924939138 16.32736945533472 0 0 0
660 220 1 0.5897 0.7491778628551549 4.815946837744413 16.484577193195356 0 0 0
884 295 1 0.5897 0.9986988777861585 0.44725822990940484 15.923309052979143 0 1 0
656 219 1 0.5897 4.883550372074388 4.5763431869877715 18.995319948676148 0 0 0
114 38 1 0.5897 2.8495666178446695 7.886972904848298 4.0434393027374425 0 0 0
15 5 1 0.5897 3.646582273983145 6.461574334140282 2.394167795810686 0 0 0
126 42 1 0.5897 4.346653790852491 9.852748175711916 3.236159052374511 0 0 0
110 37 1 0.5897 1.9932717841976673 9.13605360540547 0.721315147632539 0 0 0
20 7 1 0.5897 1.0145058292532674 5.497704977354777 2.6930681379974155 0 0 0
112 38 2 -1.1794 3.6331312080546323 8.026036731486654 3.5117022035468297 0 0 0
141 47 1 0.5897 0.9857189201465719 8.272368605858846 2.234387708704215 0 0 0
19 7 2 -1.1794 0.7983502581793621 6.287261872875953 2.1969954117524537 0 0 0
13 5 2 -1.1794 3.835144255322828 5.601941143189274 2.0176867410315484 0 0 0
139 47 2 -1.1794 0.6741722445106897 9.155958989993321 2.0381844056546417 0 0 0
14 5 1 0.5897 3.419375970179062 5.621050781606625 1.155800296233239 0 0 0
674 225 1 0.5897 1.3428547964551663 5.252524092560379 0.357429778751336 0 0 1
140 47 1 0.5897 0.8890702562186136 9.665296605718636 2.8195506469465124 0 0 0
113 38 1 0.5897 4.361709533807214 7.8634777083084035 4.110762579682472 0 0 0
111 37 1 0.5897 3.4902001790702757 9.173171108962887 0.4986856951061872 0 0 0
132 44 1 0.5897 0.6647030536371861 7.371740566164693 4.980225668728718 0 0 0
130 44 2 -1.1794 1.6047051536474775 7.513006499777669 5.092329705896957 0 0 0
443 148 1 0.5897 0.8677191686150884 9.995964091771318 10.267960395258815 0 0 0
437 146 1 0.5897 4.119450423959924 7.092571725421916 9.40349411670566 0 0 0
343 115 2 -1.1794 1.0805173762938158 5.818016829699656 8.7246409282428 0 0 0
433 145 2 -1.1794 2.631319290364997 9.476842451723158 6.974187521636682 0 0 0
463 155 2 -1.1794 0.7003527481498207 8.69922904324597 8.967774874780625 0 0 0
345 115 1 0.5897 0.9775224162729168 6.691604407228608 9.102105804034318 0 0 0
435 145 1 0.5897 2.267760761501242 8.93721557866644 6.272216223002688 0 0 0
131 44 1 0.5897 1.945023922087569 6.660040105480005 5.362343831135503 0 0 0
464 155 1 0.5897 1.4140251802298829 8.996915079313474 8.403692108009997 0 0 0
339 113 1 0.5897 4.349571536334593 5.490629624126961 7.3714340972124 0 0 0
468 156 1 0.5897 4.564109468689335 9.753611520164828 7.275196414055139 0 0 0
26 9 1 0.5897 2.028834646834012 5.215147239573032 7.175680238910355 0 0 0
337 113 2 -1.1794 4.6316127984828555 5.777136692060051 8.240007171804006 0 0 0
344 115 1 0.5897 1.2657086847041008 5.252759259120826 9.474538507895526 0 0 0
436 146 2 -1.1794 4.158878457050868 7.727314758920707 10.118839144924646 0 0 0
438 146 1 0.5897 4.2366151974574775 8.575921798525203 9.682851427490622 0 0 0
757 253 2 -1.1794 2.200364949118769 9.516856219926012 13.825390869047741 0 0 0
668 223 1 0.5897 0.8227902399140735 5.948995636351923 14.5803096203547 0 0 0
454 152 2 -1.1794 1.845802737971851 7.504567488915507 11.786345660295872 0 0 0
455 152 1 0.5897 2.4802074189960357 7.614759678096045 11.078178118733371 0 0 0
456 152 1 0.5897 2.2820856805989345 6.92568646152176 12.411407662810747 0 0 0
792 264 1 0.5897 4.110405937996575 9.242096787668991 14.47767177819224 0 0 0
759 253 1 0.5897 2.0838653306197736 8.98259683162775 13.039815843914525 0 0 0
351 117 1 0.5897 3.3530793859035484 5.778161586544114 14.235299399634158 0 0 0
349 117 2 -1.1794 2.5826350560470863 5.489304726859172 13.746293198865851 0 0 0
789 263 1 0.5897 1.3640206040355098 8.882706697044766 15.28927109448739 0 0 0
533 178 1 0.5897 0.1350691438082142 7.292810126264296 12.402751332453118 1 0 0
667 223 2 -1.1794 0.1697815500564582 6.00129417570866 15.27813297306933 0 0 0
661 221 2 -1.1794 4.653784991820459 5.8036609944832325 15.355714177699625 0 0 0
787 263 2 -1.1794 0.7658701855241642 8.627936198465552 15.99171732696929 0 0 0
780 260 1 0.5897 2.657083633357693 7.209918601887149 18.1334727795534 0 0 0
778 260 2 -1.1794 1.8879545373177455 7.228863801632221 18.702859992189488 0 0 0
760 254 2 -1.1794 4.198724018504596 7.775363302755391 17.181208720016976 0 0 0
779 260 1 0.5897 2.1409726668830564 7.798819784452232 19.429008344695184 0 0 0
788 263 1 0.5897 0.9791250508630123 9.218309450970933 16.714311898400062 0 0 0
663 221 1 0.5897 4.49510704412411 6.476378671209246 16.017877548509148 0 0 0
761 254 1 0.5897 4.157728193394057 8.706890057753794 16.964839770802996 0 0 0
675 225 1 0.5897 2.0288258635188976 5.8481512302979795 19.67215078511375 0 0 0
669 223 1 0.5897 0.3319431116092397 6.847273273472943 15.695607534192668 0 0 0
858 286 1 0.5897 0.1268875290362699 7.353184751725471 18.564671841126064 1 0 0
109 37 2 -1.1794 2.6577041616507344 9.088421418312901 20.559637603309923 0 0 -1
762 254 1 0.5897 4.840971780062369 7.721421556508009 17.888821528868597 0 0 0
673 225 2 -1.1794 2.134170578061797 5.180099053978498 20.34946765067751 0 0 0
129 43 1 0.5897 0.8419991571921698 13.73904621112201 2.0384797292862853 0 0 0
238 80 2 -1.1794 1.5362166486925157 14.014369882233071 5.013084793847486 0 0 0
220 74 2 -1.1794 3.5825947825575364 14.17476047631682 3.1478463703596216 0 0 0
120 40 1 0.5897 2.415274932766269 10.729318762830541 3.860458417140083 0 0 0
127 43 2 -1.1794 0.8784984413152733 12.870946255652754 1.6368326573507574 0 0 0
783 261 1 0.5897 2.153925048917573 12.101253145626556 0.4809936345579979 0 0 1
240 80 1 0.5897 2.0538677762489423 14.283477832725293 4.254316060911946 0 0 0
119 40 1 0.5897 1.5151221619814483 11.881074711564683 3.466617885707894 0 0 0
118 40 2 -1.1794 1.510396528251952 11.036261177301208 3.9166512825018702 0 0 0
123 41 1 0.5897 4.46285663009165 12.191927308536144 0.761655916829184 0 0 0
124 42 2 -1.1794 4.441568605121605 10.755882448183035 3.5388487161709623 0 0 0
222 74 1 0.5897 4.183770949049002 13.653843512991594 2.6154931815448466 0 0 0
122 41 1 0.5897 4.609275238007009 11.855504847258471 2.230283514088549 0 0 0
188 63 1 0.5897 -0.027551607177676903 11.068617043602867 4.778379358429696 1 0 0
121 41 2 -1.1794 4.948422026681058 12.436459776341358 1.5493756523560978 0 0 0
128 43 1 0.5897 -0.028553195615806715 12.56533834999103 1.6429503814646376 0 0 0
133 45 2 -1.1794 2.54048033611697 12.149732930846154 6.796311179188071 0 0 0
134 45 1 0.5897 1.914800732379464 12.321992798676824 7.49983707898657 0 0 0
135 45 1 0.5897 3.3967661615716445 12.185894076565605 7.222449931393115 0 0 0
453 151 1 0.5897 0.7332703333358233 12.083104145670163 9.54229285138945 0 0 0
450 150 1 0.5897 4.077698618207796 11.332923002137258 9.615870383119377 0 0 0
445 149 2 -1.1794 4.961561165529058 12.519234194015882 8.308877820485469 0 0 0
451 151 2 -1.1794 0.6534356395835232 12.628830995313004 8.760042338053823 0 0 0
446 149 1 0.5897 4.77514126230356 13.32773643251092 8.786183627030937 0 0 0
573 191 1 0.5897 0.6495585995996244 14.382247076166278 9.05622701147864 0 0 0
239 80 1 0.5897 2.127924652181871 13.461494308588065 5.5233756104859495 0 0 0
544 182 2 -1.1794 4.586819875791428 14.609883569183566 10.096215077906821 0 0 0
434 145 1 0.5897 2.337971984969546 10.36500136960618 6.770742325490023 0 0 0
448 150 2 -1.1794 3.901522560727889 10.52825764944619 10.103436371351203 0 0 0
444 148 1 0.5897 2.1308265282424887 10.707087542785018 10.704606489190146 0 0 0
442 148 2 -1.1794 1.1805148113367603 10.811846426629993 10.65877249404637 0 0 0
562 188 2 -1.1794 2.0816697993288704 14.180936330044108 11.446054685113122 0 0 0
563 188 1 0.5897 2.265744806160906 13.3104503486997 11.79910194376033 0 0 0
457 153 2 -1.1794 2.6158974642036346 12.25608363821765 13.382789860518336 0 0 0
458 153 1 0.5897 1.9386192295651967 12.433389041369102 14.035463882560425 0 0 0
459 153 1 0.5897 3.436432628008797 12.481322161929171 13.821091530470339 0 0 0
449 150 1 0.5897 4.430633091101707 10.60788317695664 10.897035231438739 0 0 0
776 259 1 0.5897 0.029221830044789954 12.601326086537803 15.290166279515878 0 0 0
546 182 1 0.5897 3.6841132059814417 14.436849064746813 10.36331319900885 0 0 0
758 253 1 0.5897 2.3603174266174105 10.400300379316986 13.493388733401444 0 0 0
642 214 1 0.5897 0.41674580313566767 14.214373865005744 11.929683630852292 1 0 0
564 188 1 0.5897 2.4140582913176125 14.784641184484666 12.110310696592201 0 0 0
769 257 2 -1.1794 4.755082878062981 12.55193787462766 15.350460716216945 0 0 0
773 258 1 0.5897 3.261343783583392 10.829941702942564 17.187091188800245 0 0 0
772 258 2 -1.1794 4.165484661337361 10.516179420386209 17.203166722289623 0 0 0
774 258 1 0.5897 4.613828450037623 11.042224315455137 16.54103931081177 0 0 0
768 256 1 0.5897 1.5357630453118634 11.623305475513913 16.766291725991522 0 0 0
771 257 1 0.5897 4.450307530826674 13.344713069348343 15.791900114536881 0 0 0
888 296 1 0.5897 1.9197464777406936 13.376246923456046 19.143866116440506 0 0 0
869 290 1 0.5897 3.680272858014825 14.168716231884874 17.91997981458332 0 0 0
965 322 1 0.5897 0.1208650327102701 14.453922811710429 18.720226019823265 1 0 0
886 296 2 -1.1794 2.0302936298739773 14.227071580117139 18.719431531486343 0 0 0
766 256 2 -1.1794 1.5905691500890355 10.956630482304275 17.45092464718264 0 0 0
767 256 1 0.5897 0.7547293617801444 11.018199253023358 17.913223620452676 0 0 0
868 290 2 -1.1794 4.463332057034361 14.436345328380872 17.43901194463392 0 0 0
782 261 1 0.5897 2.574096965840256 11.043140150921499 20.008791559367253 0 0 0
781 261 2 -1.1794 2.7479431290669054 11.946851060214234 20.27216952531264 0 0 0
777 259 1 0.5897 0.9290572566124335 13.740951821671167 15.718464875967049 0 0 0
887 296 1 0.5897 1.9915722011593648 14.859927243597182 19.436482388565004 0 0 0
775 259 2 -1.1794 0.9382344949555032 12.807205566253199 15.507940726876464 0 0 0
247 83 2 -1.1794 0.7309345421403403 15.593175415511094 2.084834243602926 0 0 0
234 78 1 0.5897 3.2191208386878944 17.15441032217028 4.043744028490053 0 0 0
233 78 1 0.5897 4.389778696886601 17.505208486274988 3.150343987425777 0 0 0
227 76 1 0.5897 1.178034278979972 18.213645448564996 3.395546978474364 0 0 0
226 76 2 -1.1794 1.4266339690463206 17.618536856826474 4.102802918309393 0 0 0
230 77 1 0.5897 4.428139860440765 18.819906553719726 1.220942350183962 0 0 0
221 74 1 0.5897 3.788982988984938 15.08237091059453 2.9244857315179233 0 0 0
249 83 1 0.5897 1.2826577309699558 15.714525845438438 1.312190761653547 0 0 0
235 79 2 -1.1794 0.8301532376043753 19.077367171224694 2.011815311330361 0 0 0
248 83 1 0.5897 1.003751209607256 16.286486767531102 2.6857338469580956 0 0 0
228 76 1 0.5897 0.6817463381001483 17.635513384949157 4.7036129247552845 0 0 0
232 78 2 -1.1794 4.127314643537812 16.916197482093985 3.85769507711082 0 0 0
229 77 2 -1.1794 4.856319228747385 18.817429241279036 2.076945387201819 0 0 0
890 297 1 0.5897 2.159295493538682 19.069437503691773 0.7929886397038128 0 0 1
217 73 2 -1.1794 2.4975005024617403 16.084759556355102 0.13413068259003794 0 0 0
219 73 1 0.5897 3.439403900219374 16.029176243406965 0.2949819065386433 0 0 0
236 79 1 0.5897 0.7822237679180162 20.003798082840873 2.2478476422955973 0 0 0
237 79 1 0.5897 -0.014912904894686108 18.8897566767646 1.603395287005886 0 0 0
889 297 2 -1.1794 2.7933672818051978 18.919536931052498 0.09186106358958313 0 0 1
241 81 2 -1.1794 2.5451440064297914 18.403033464276525 7.073794971669948 0 0 0
576 192 1 0.5897 4.371371860143383 15.267149790815484 7.265800103588841 0 0 0
243 81 1 0.5897 1.9504368827716152 18.71245764378822 7.75695821812119 0 0 0
541 181 2 -1.1794 2.6385097969510425 15.66060509699648 7.141230767442324 0 0 0
543 181 1 0.5897 2.2276384284554855 15.286229262664145 6.362045660112356 0 0 0
242 81 1 0.5897 2.439548476722376 17.451633941897384 7.076485813018404 0 0 0
558 186 1 0.5897 3.978598879738394 17.797702716391413 10.106215583915931 0 0 0
571 191 2 -1.1794 0.6236240717056395 15.331251410178373 8.93378309204951 0 0 0
572 191 1 0.5897 0.6116912260405885 15.687625362113364 9.821986511786912 0 0 0
542 181 1 0.5897 2.0187763137594033 15.482128634654249 7.848463651122834 0 0 0
559 187 2 -1.1794 0.46806686017889965 19.064514553094448 9.026076926336117 0 0 0
555 185 1 0.5897 4.046515107059278 18.856604906708696 7.913992355349294 0 0 0
553 185 2 -1.1794 4.5435539148537165 19.202690786972482 8.655142293314066 0 0 0
24 8 1 0.5897 2.0607006599197644 19.4787506955117 5.6071196036132935 0 -1 0
561 187 1 0.5897 0.7926356546684984 19.963023688203855 9.086311611811029 0 0 0
867 289 1 0.5897 2.1898953938797385 15.720308070313928 14.271695469760028 0 0 0
550 184 2 -1.1794 1.0850009179859201 17.652005359808165 11.247727810653087 0 0 0
865 289 2 -1.1794 2.6674321948232427 15.824434332026051 13.448781470522633 0 0 0
565 189 2 -1.1794 2.7138415262803135 18.54878246503057 13.78322980165006 0 0 0
566 189 1 0.5897 2.70807076174897 17.62909790714893 13.517857682980356 0 0 0
552 184 1 0.5897 2.013076941532715 17.424552940822117 11.192340002007013 0 0 0
567 189 1 0.5897 2.5062378319312417 19.030871025749832 12.982854172183858 0 0 0
866 289 1 0.5897 3.5893388909150072 15.75018862148143 13.69521125878258 0 0 0
879 293 1 0.5897 4.383724651631027 18.776216561022792 14.381410201066815 0 0 0
885 295 1 0.5897 1.9684444345310772 19.59413544104943 15.166910311606035 0 0 0
556 186 2 -1.1794 3.932705498633894 17.202012544010955 10.853986714657111 0 0 0
551 184 1 0.5897 0.9312491061914153 18.21861358343812 10.491782165003162 0 0 0
896 299 1 0.5897 0.048717427605078245 15.877086176230012 15.430949667691248 0 0 0
557 186 1 0.5897 4.138773051126841 16.341629309414543 10.48857454978944 0 0 0
874 292 2 -1.1794 1.5299478496776824 17.588173184407964 17.858856480795374 0 0 0
883 295 2 -1.1794 1.3980985713025005 19.607040496504396 15.935439701595513 0 0 0
876 292 1 0.5897 1.4852909387971807 18.233615957830615 17.15345686192189 0 0 0
882 294 1 0.5897 4.372333204400173 16.36338776096995 17.10000653016769 0 0 0
880 294 2 -1.1794 4.185130462811903 17.301991404436933 17.116732211522447 0 0 0
881 294 1 0.5897 3.30365466533499 17.36437052038856 17.484487659114784 0 0 0
875 292 1 0.5897 0.7598105843109026 17.768252198603598 18.397926541272987 0 0 0
897 299 1 0.5897 0.9979874384039877 16.22222619206444 16.558472738311764 0 0 0
878 293 1 0.5897 4.787667742144952 18.165644316783236 15.706404629548926 0 0 0
895 299 2 -1.1794 0.9156394781649677 15.670956350262678 15.780376652451023 0 0 0
891 297 1 0.5897 2.466586390371928 19.439439963597884 19.8832731889501 0 0 0
218 73 1 0.5897 2.370559441192479 16.95186083924606 20.27465888480822 0 0 -1
68 23 1 0.5897 7.8188320551153625 2.04349229159504 1.5566777277880817 0 0 0
273 91 1 0.5897 7.531659447371941 0.08401904072475384 2.5763107373406675 0 1 0
67 23 2 -1.1794 7.191851596507216 1.9173311058041493 2.2687688397714267 0 0 0
48 16 1 0.5897 7.098138654704084 4.285893883987031 4.416042741096472 0 0 0
47 16 1 0.5897 7.500679918979599 3.4020833069625342 3.2547846291911355 0 0 0
46 16 2 -1.1794 7.8254779914867765 4.101462969138791 3.8218578916402137 0 0 0
69 23 1 0.5897 6.339810230233731 2.102634050542085 1.8740289721023653 0 0 0
34 12 2 -1.1794 5.118009598631365 2.2026894670611616 0.5056148923567282 0 0 0
41 14 1 0.5897 9.848596575945734 1.1656382277251074 4.291697345410576 0 0 0
37 13 2 -1.1794 9.101672308955965 2.5500149943904113 0.18433535316165006 0 0 0
391 131 2 -1.1794 7.703804881859655 2.1944888756430374 9.313983493888207 0 0 0
8 3 1 0.5897 5.740531430907579 4.237049454446569 6.510959002907992 0 0 0
59 20 1 0.5897 8.572364728025082 1.7850948625076837 6.062685884490324 0 0 0
392 131 1 0.5897 8.413038742867432 2.390636856680353 8.701902180577948 0 0 0
362 121 1 0.5897 9.2940409876386 3.7507387926876072 7.019517032203967 0 0 0
361 121 2 -1.1794 9.420037119457286 2.890778737914024 7.420580008580589 0 0 0
359 120 1 0.5897 5.763939081259879 1.8076027572619002 6.873706443560917 0 0 0
360 120 1 0.5897 6.321840254529479 2.583267871616357 8.04787551305753 0 0 0
393 131 1 0.5897 7.605375786053563 1.2433198486541788 9.270460558415406 0 0 0
358 120 2 -1.1794 5.691636870233059 2.645814234454254 7.330231485826475 0 0 0
29 10 1 0.5897 6.737111193917153 0.8509971951636719 5.5744679637047625 0 0 0
7 3 2 -1.1794 5.643652526444874 4.900822235471395 5.8281722561287435 0 0 0
60 20 1 0.5897 8.910654148139752 0.3099623938401773 6.102583879923529 0 0 0
28 10 2 -1.1794 5.789184321624745 0.7183611706617619 5.570619044500186 0 0 0
58 20 2 -1.1794 8.464689834753708 0.9702220072463816 5.572159359358368 0 0 0
382 128 2 -1.1794 8.266885124153559 0.5760340248749518 11.844697530167306 0 0 0
354 118 1 0.5897 5.641919720718173 1.1811031009592698 13.06854140955229 0 0 0
352 118 2 -1.1794 5.595794674381511 0.566038757835542 12.336604978772495 0 0 0
386 129 1 0.5897 8.713563787515652 4.724605706626288 13.402575620106143 0 0 0
384 128 1 0.5897 9.006579153964873 0.6122155435372642 11.238341596304137 0 0 0
353 118 1 0.5897 6.403390450910754 0.7166244776982333 11.845433711811483 0 0 0
686 229 1 0.5897 8.24039395456702 2.53433879682606 14.427409972576832 0 0 0
684 228 1 0.5897 5.096119283578541 3.5814053404567496 13.739047620830062 0 0 0
370 124 2 -1.1794 7.74613653278038 4.668700187801974 10.8830251390951 0 0 0
383 128 1 0.5897 8.308633450806177 1.403683321521803 12.32376743774309 0 0 0
685 229 2 -1.1794 8.659858852446058 2.6532662473992303 13.575367425697092 0 0 0
372 124 1 0.5897 7.073244481074666 4.631105635565272 11.562649990530696 0 0 0
377 126 1 0.5897 9.718407184409129 4.175734795049176 10.3834442594701 0 0 0
332 111 1 0.5897 5.137116311413073 4.491224821180919 11.79821114707078 0 0 0
682 228 2 -1.1794 5.134643901588489 2.9021576445320307 14.412328288572077 0 0 0
331 111 2 -1.1794 5.700623089991863 4.733561750291374 12.53293718632626 0 0 0
687 229 1 0.5897 9.583713686746925 2.7965345454340333 13.780581751670425 0 0 0
371 124 1 0.5897 7.72637967057893 3.801811709575692 10.477582973841432 0 0 0
38 13 1 0.5897 8.79450279087365 2.0553955992392776 19.950257633318692 0 0 -1
657 219 1 0.5897 6.339793830678766 4.454225066622078 19.39049478913114 0 0 0
36 12 1 0.5897 5.146875148822067 2.9798989706891943 20.47327420813278 0 0 -1
715 239 2 -1.1794 7.349942707769456 2.529110516844786 16.05819247342746 0 0 0
702 234 1 0.5897 9.582290418168883 3.8539478100596707 17.637562483938574 0 0 0
694 232 2 -1.1794 7.779580714907187 4.363486551825085 18.29176029446718 0 0 0
708 236 1 0.5897 7.891515185911794 0.9039973857301581 18.0781299098102 0 0 0
706 236 2 -1.1794 8.688041026901702 0.8173396945929763 18.60171947596016 0 0 0
655 219 2 -1.1794 5.465747893412044 4.5937291976555645 19.754823118736027 0 0 0
695 232 1 0.5897 7.633113845132039 3.5868415516316072 17.75177523685946 0 0 0
677 226 1 0.5897 5.228816898238835 0.39564211460264587 18.35213468129369 0 0 0
676 226 2 -1.1794 5.905500617537141 0.2451953691380505 19.01210965870429 0 0 0
35 12 1 0.5897 5.302021203569893 1.4743290220738354 20.43807247203204 0 0 -1
716 239 1 0.5897 7.5737802527104074 1.5996647855031294 16.010205983898867 0 0 0
707 236 1 0.5897 8.482519500467056 0.13426636592340316 19.23994883496303 0 0 0
710 237 1 0.5897 9.1789854543787 4.372171193089032 20.58288830343472 0 0 0
717 239 1 0.5897 6.564498551893549 2.614970828468105 15.51798513789052 0 0 0
175 59 2 -1.1794 7.860787366877561 8.579990847640346 2.264122770348195 0 0 0
56 19 1 0.5897 5.911948881218937 5.746935261566143 2.051980294228101 0 0 0
57 19 1 0.5897 7.208129083628578 5.536949862007938 2.805268279115867 0 0 0
177 59 1 0.5897 8.414328132078374 8.590579463429407 1.4833735535586725 0 0 0
55 19 2 -1.1794 6.84030361835768 5.979712429196531 2.040557957568671 0 0 0
176 59 1 0.5897 7.552960583798842 7.6758561198182615 2.3278223542821648 0 0 0
709 237 2 -1.1794 9.309001929414677 5.295978694774344 0.27165720925392745 0 0 1
711 237 1 0.5897 8.536758427320954 5.5343138605689015 0.7844464078181164 0 0 1
166 56 2 -1.1794 8.562195707392993 7.663384994519834 4.948101200686587 0 0 0
143 48 1 0.5897 6.15850245244881 9.299927804427366 1.3426348927629292 0 0 0
138 46 1 0.5897 6.688608373403552 7.737888388520579 5.007949831205818 0 0 0
142 48 2 -1.1794 5.332119227263136 9.140387179218129 0.8868206689473408 0 0 0
144 48 1 0.5897 5.483762184745609 8.336865623187284 0.3892654264927755 0 0 0
338 113 1 0.5897 5.548533752422662 6.02632945576102 8.124562998081181 0 0 0
500 167 1 0.5897 7.408713256031978 9.27320588120522 10.15876996366357 0 0 0
470 157 1 0.5897 8.924734010417929 9.172453638456927 7.898872113721132 0 0 0
379 127 2 -1.1794 7.4448029542276135 6.270226100430212 8.256154403929537 0 0 0
499 167 2 -1.1794 7.450997590416815 8.685510103014673 9.404469585208483 0 0 0
501 167 1 0.5897 6.65482907746836 8.874681250140492 8.908006417871979 0 0 0
469 157 2 -1.1794 9.218217848273973 9.37895959503384 7.0115806365927105 0 0 0
381 127 1 0.5897 7.490571398790165 5.806844507731174 9.09239445780986 0 0 0
61 21 2 -1.1794 9.175989862841655 5.38386774833151 6.308784454352251 0 0 0
380 127 1 0.5897 7.550450500613115 7.193176040498983 8.487014574225306 0 0 0
62 21 1 0.5897 8.489007089080062 5.6973723040091055 6.8969232675639205 0 0 0
467 156 1 0.5897 5.31459125699427 8.56368132887708 6.715976624333242 0 0 0
168 56 1 0.5897 8.88363788299561 8.290318441325287 5.596023416940917 0 0 0
466 156 2 -1.1794 5.3809662078003475 9.263037765274234 7.3661133213334775 0 0 0
137 46 1 0.5897 5.9162744596039385 6.653172562360257 5.728203513990339 0 0 0
136 46 2 -1.1794 5.832916656515978 7.545195162510973 5.391111094692255 0 0 0
63 21 1 0.5897 9.991394261346244 5.682163883583266 6.711647549182639 0 0 0
167 56 1 0.5897 8.715682364007073 6.806569899183941 5.3463180697272685 0 0 0
387 129 1 0.5897 8.984859586365147 6.147415248492497 12.962046882291611 0 0 0
462 154 1 0.5897 5.370404225052073 7.610935664538568 11.413435744155263 0 0 0
791 264 1 0.5897 5.549294400432414 8.999877012956818 14.880944951539567 0 0 0
491 164 1 0.5897 9.249050092651165 7.992013270619802 11.278703539915647 0 0 0
460 154 2 -1.1794 5.9277716300863394 7.515538059779669 12.185666754597285 0 0 0
705 235 1 0.5897 7.982347126293472 5.573989062311057 15.318439978044083 0 0 0
490 164 2 -1.1794 8.821935322617401 7.809057543099966 12.115460054845466 0 0 0
793 265 2 -1.1794 9.257853770578551 9.462270259819979 14.184478297950555 0 0 0
492 164 1 0.5897 7.894173068454257 7.721017083326253 11.897198226393721 0 0 0
333 111 1 0.5897 5.658287053896345 5.68937530533464 12.562778583897764 0 0 0
794 265 1 0.5897 9.179255363119049 8.959208622113323 13.374008949380597 0 0 0
385 129 2 -1.1794 9.038401001113137 5.566800110927937 13.721110918944484 0 0 0
461 154 1 0.5897 5.618721728621429 8.190846099926208 12.78950586644741 0 0 0
824 275 1 0.5897 7.879959608581441 8.756956213614298 15.193008359591186 0 0 0
790 264 2 -1.1794 5.010879506174445 9.352874287664763 14.172684258044399 0 0 0
785 262 1 0.5897 5.3458107449783 6.400219419321553 19.66866125219388 0 0 0
145 49 2 -1.1794 9.1107593262077 9.489591130806781 20.427383335447125 0 0 -1
816 272 1 0.5897 8.562211045347862 8.122659277668173 19.428461302369 0 0 0
704 235 1 0.5897 6.58345432244804 5.658095075561515 15.890892347942756 0 0 0
784 262 2 -1.1794 5.608424114078411 7.284000022556228 19.41125897614269 0 0 0
786 262 1 0.5897 6.5190726550833595 7.191766385736866 19.13134460838556 0 0 0
814 272 2 -1.1794 8.365670772331883 7.298655234256344 18.982800302524787 0 0 0
815 272 1 0.5897 8.731341213842697 6.623491211630552 19.5542781612848 0 0 0
825 275 1 0.5897 7.153800079630282 7.682992433719451 15.974763685919939 0 0 0
823 275 2 -1.1794 7.113668379492337 8.612097648488167 15.747937645546054 0 0 0
703 235 2 -1.1794 7.494050837155118 5.883309707540328 16.081288615758798 0 0 0
696 232 1 0.5897 7.767882877708059 5.09266028719438 17.67180370025799 0 0 0
797 266 1 0.5897 9.756754662658764 7.549067072486057 17.278486473504515 0 0 0
147 49 1 0.5897 9.986064365291348 9.119035292634056 20.540070633678475 0 0 -1
164 55 1 0.5897 7.816260324944555 12.442900923046981 2.823189269265104 0 0 0
819 273 1 0.5897 8.63799536082516 12.760501922659225 0.5434394319794582 0 0 1
274 92 2 -1.1794 8.368859825836324 14.141343850740409 4.8883799748743755 0 0 0
165 55 1 0.5897 6.6224020980416585 12.54890060087495 1.8984866787191585 0 0 0
156 52 1 0.5897 9.358284069096475 10.848066220776316 4.070685168520297 0 0 0
163 55 2 -1.1794 7.5264092365925315 12.845040420504262 2.0044179726951796 0 0 0
284 95 1 0.5897 7.709234329633484 14.97031123427478 2.1973208377855658 0 0 0
154 52 2 -1.1794 8.404989042421578 10.839020649759636 3.985331307562778 0 0 0
275 92 1 0.5897 8.857866873143097 14.280118964195468 4.077401432044727 0 0 0
245 82 1 0.5897 5.780187067186784 13.000636766919841 4.950183775608871 0 0 0
276 92 1 0.5897 7.451602527149463 14.123376614577804 4.615496445700536 0 0 0
244 82 2 -1.1794 5.7163106710255 13.935183399591397 4.75328145776421 0 0 0
155 52 1 0.5897 8.215167185046734 10.036532861612129 3.499306562142396 0 0 0
125 42 1 0.5897 5.041066622256619 10.697854753630919 4.282712089938332 0 0 0
246 82 1 0.5897 5.045889465062752 13.991693021754346 4.072534062133112 0 0 0
116 39 1 0.5897 6.9099453374930935 10.944452410116677 5.014485632198095 0 0 0
146 49 1 0.5897 9.194172275134182 10.396391298538779 0.1967841405588615 0 0 0