LAMMPS data file via write_data, version 30 Jul 2021, timestep = 3750000

864 atoms
2 atom types
576 bonds
1 bond types
288 angles
1 angle types

0.1401713524782231 18.067401047526246 xlo xhi
1.2566346082195317 22.372543191780778 ylo yhi
0.1710087226230872 22.042187077380063 zlo zhi

Masses

1 1.00794
2 15.9994

Pair Coeffs # lj/cut/tip4p/long/omp

1 0 0
2 0.21084 3.1668

Bond Coeffs # harmonic/omp

1 450 0.9572

Angle Coeffs # harmonic/omp

1 55 104.52

Atoms # full

84 1 1 0.5897 5.460127821144078 5.175714557584975 4.41009579806078 -2 -1 -6
553 1 2 -1.1794 0.9621330929316367 1.272532391737119 1.2577204924774465 -4 -8 3
442 1 2 -1.1794 5.697622473568128 2.403598897331951 2.4419909773794415 4 5 -2
298 1 2 -1.1794 6.685124386561521 5.812950319059375 5.546435113073228 -5 0 0
388 1 2 -1.1794 8.45435120857256 2.3597282941031583 3.9822526045803746 3 6 5
750 1 1 0.5897 8.185860032096388 5.253164467744406 1.9915717735914844 1 5 2
706 1 2 -1.1794 3.5483012541502865 2.0650333933506135 0.615909321075987 -3 -2 -7
708 1 1 0.5897 2.6754811609971934 1.747430554748715 0.8473853360888768 -3 -2 -7
83 1 1 0.5897 4.399549425721 5.688289703832496 3.459093613170934 -2 -1 -6
444 1 1 0.5897 4.927807117177138 2.327554077654357 1.8781590307996738 4 5 -2
137 1 1 0.5897 6.946719046866737 1.8598044826740374 1.1334556841671555 6 -5 2
443 1 1 0.5897 5.588086649990152 3.244766864851983 2.8854979181904445 4 5 -2
51 1 1 0.5897 3.14934254878292 3.961422282987648 3.548925035366974 6 0 0
82 1 2 -1.1794 4.979498234686162 4.943036942712707 3.615668174300438 -2 -1 -6
793 1 2 -1.1794 2.5753531879939686 6.496420079386021 0.6518503274510181 -4 1 5
570 1 1 0.5897 1.6360296803647383 4.291961583455844 5.440192011762559 4 -1 -1
49 1 2 -1.1794 2.341283266274959 3.6354456328941294 3.945232080206157 6 0 0
50 1 1 0.5897 1.648445539972121 3.9285711766544855 3.353326878000933 6 0 0
389 1 1 0.5897 8.633159376237268 3.1709699406844525 3.5066660052003646 3 6 4
554 1 1 0.5897 0.38089477280190254 1.6647408657115237 0.6061115243796271 -4 -8 3
748 1 2 -1.1794 8.736793264214587 4.808649289984823 2.6358824707400887 1 5 2
138 1 1 0.5897 8.28401403187241 2.1943289360322824 0.5075639589833251 6 -5 2
129 1 1 0.5897 2.277152761327346 1.7116963610545048 4.51484094622854 0 1 -4
185 1 1 0.5897 8.187249457280487 6.473476837009707 4.756317712591642 -3 7 3
698 1 1 0.5897 0.2824561088254659 2.797150384388012 2.252520974961254 -1 3 -2
390 1 1 0.5897 7.537530499589735 2.16478835063115 3.788068923800302 3 6 5
136 1 2 -1.1794 7.495430345567831 1.6687435796076362 0.37274392824426616 6 -5 2
816 1 1 0.5897 6.7593436123031445 6.103734307564106 0.19928598643745943 -4 6 -3
794 1 1 0.5897 2.863336307802325 5.713530887872654 0.18235927031603438 -4 1 5
803 1 1 0.5897 3.6461783179409433 3.2824825460361353 8.66330298223591 4 1 0
568 1 2 -1.1794 1.3692825806301558 4.547686516073901 6.323216733344509 4 -1 -1
282 1 1 0.5897 8.285691705150244 1.460425963253229 8.004091536321212 -3 1 3
140 1 1 0.5897 6.114538411549655 4.057160724994933 8.401230291340058 0 -1 0
139 1 2 -1.1794 6.012737382407923 4.00347579561986 7.450956840841368 0 -1 0
343 1 2 -1.1794 8.603058395611775 5.901204622053473 9.654953168480468 -3 2 -3
518 1 1 0.5897 0.9609819375361045 6.359885213409421 6.233882197790474 -3 -1 -4
804 1 1 0.5897 2.5904155037008834 3.879344282521871 7.757165719895645 4 1 0
141 1 1 0.5897 6.772758774365036 3.5017683557282955 7.156131628662449 0 -1 0
802 1 2 -1.1794 3.0066178959809844 3.992808391018143 8.6116583195069 4 1 0
652 1 2 -1.1794 8.376907217572725 2.8127292656649443 6.7582586370401465 -2 0 1
144 1 1 0.5897 6.035915839289256 4.581523250640632 10.84609347959015 -1 6 2
625 1 2 -1.1794 6.361099223016305 1.354553862361633 10.835575808484922 -4 -2 3
654 1 1 0.5897 8.539315781991547 2.800328073928391 5.814963647140582 -2 0 1
344 1 1 0.5897 7.887476613006861 5.3028854460812065 9.86994393150931 -3 2 -3
569 1 1 0.5897 0.7970003678612709 3.8383622800699655 6.61589510169452 4 -1 -1
600 1 1 0.5897 3.40494089314875 5.714586004610464 8.36160848344643 1 -2 -4
744 1 1 0.5897 2.4287986604137357 3.493413266788246 10.669423817000943 -2 -1 1
653 1 1 0.5897 9.04848515251088 3.3972863581557218 7.109783783387198 -2 0 1
151 1 2 -1.1794 0.770517325152767 5.7235606516175945 9.452920016069701 2 1 -1
142 1 2 -1.1794 6.637437777466501 4.112928184880385 10.267431609938638 -1 6 2
143 1 1 0.5897 6.6262446197331855 3.2113715448660987 10.588877304847017 -1 6 2
232 1 2 -1.1794 4.231376230105649 1.8213908274398558 6.789658430432666 -1 3 1
234 1 1 0.5897 4.69731787388421 2.645677336196414 6.6491704778791805 -1 3 1
300 1 1 0.5897 6.536959312607447 5.330532710462088 6.359819883827197 -5 0 0
153 1 1 0.5897 1.4811063892804384 5.360355957107808 8.924328605916752 2 1 -1
168 1 1 0.5897 4.3415831412759855 4.103398865598516 14.237734489682106 -3 -1 1
505 1 2 -1.1794 8.91955211295247 5.431659112124177 14.813408578933947 4 1 -3
785 1 1 0.5897 8.395075988180482 2.8130998158401535 15.791778725929555 5 5 3
501 1 1 0.5897 4.058603551516425 2.0261246037504 15.574650819234993 -1 1 -4
301 1 2 -1.1794 1.1758432552215679 4.7666218834972165 13.454017836387218 0 0 8
167 1 1 0.5897 5.4420231965582575 4.219007630427699 15.270994643476199 -3 -1 1
661 1 2 -1.1794 6.335466316924748 1.4388272806477436 13.542667619712418 -4 -4 2
506 1 1 0.5897 8.839744529647671 4.539718786745267 14.475248741726869 4 1 -3
92 1 1 0.5897 4.012649322849836 4.509646648996867 11.888364523711875 1 -6 0
662 1 1 0.5897 5.878962747850446 2.225881055616009 13.840018601943196 -4 -4 2
303 1 1 0.5897 1.6069801010679134 5.403742221171371 14.023628232041366 0 0 8
93 1 1 0.5897 4.256558052631019 5.992428535182556 11.704276366156032 1 -6 0
743 1 1 0.5897 2.561538024767496 2.41256154169768 11.721177838941951 -2 -1 1
166 1 2 -1.1794 4.8278247420960625 3.5938816605891173 14.885980862185797 -3 -1 1
507 1 1 0.5897 8.029714758090915 5.670328341666826 15.073196245262848 4 1 -3
302 1 1 0.5897 1.854919555486417 4.500913589640504 12.83392786044335 0 0 8
732 1 1 0.5897 8.33971545354435 1.8978037567617558 13.687619242729015 0 2 -6
91 1 2 -1.1794 4.647555477536583 5.201269057527783 12.075045536234303 1 -6 0
742 1 2 -1.1794 2.740161898521881 3.3393005699044243 11.561372925975581 -2 -1 1
799 1 2 -1.1794 6.338158462910775 5.9753472989868195 15.863979737673759 0 -2 4
730 1 2 -1.1794 8.926314735302213 2.6190500665229406 13.91558024738402 0 2 -6
627 1 1 0.5897 6.430022496768374 1.259792838307434 11.785594044042927 -4 -2 3
499 1 2 -1.1794 3.6945464751281105 1.4491012210769905 16.246054088734148 -1 1 -4
737 1 1 0.5897 0.16276576023805672 4.130590469778438 14.962914810560651 5 -1 1
482 1 1 0.5897 3.4729401580532384 6.199274843880563 16.573786744262506 0 3 -1
123 1 1 0.5897 6.615877010669963 6.328837373697269 19.256307323155056 -1 -2 -2
445 1 2 -1.1794 3.3738995761911954 4.299484675133545 21.128898544547432 2 1 -2
631 1 2 -1.1794 6.006677031053704 5.23715245334521 20.598374822357783 4 4 3
786 1 1 0.5897 8.086031243915226 1.9930596879690485 17.026313245451114 5 5 3
524 1 1 0.5897 0.3666507331152057 5.638573809654751 20.30073203142502 3 0 2
38 1 1 0.5897 5.508164947789856 3.219337881055524 18.496781150042708 -1 0 -3
37 1 2 -1.1794 5.692178640946055 3.877211799037251 17.826257330473197 -1 0 -3
446 1 1 0.5897 3.2412018464635897 3.8300956801233745 20.305278185787706 2 1 -2
853 1 2 -1.1794 5.735425319162711 2.158343748256646 19.90771822767136 -4 1 1
576 1 1 0.5897 8.405068407756936 5.558565357610118 18.17760859676161 0 0 -1
447 1 1 0.5897 3.6145897633685764 3.618532512374109 21.75710044930124 3 1 -2
476 1 1 0.5897 3.101080137768523 3.773763213070945 18.080156892171885 4 -3 -1
707 1 1 0.5897 3.928815227087522 1.3604180456235087 21.96269306698204 -3 -2 -8
854 1 1 0.5897 4.974444890870465 1.5796220253150133 19.955200229959864 -4 1 1
39 1 1 0.5897 6.477878452896769 3.555799219443967 17.38391229331547 -1 0 -3
584 1 1 0.5897 1.043557589781332 1.6285188890256976 19.202109591787362 7 -5 1
855 1 1 0.5897 6.259134029373428 1.9296580900203626 20.67563905136155 -4 1 1
575 1 1 0.5897 8.866800399578418 4.333446741109068 17.417377206845515 0 0 -1
565 1 2 -1.1794 1.2481359654186979 6.390999554796934 18.940954822174362 0 7 -7
477 1 1 0.5897 3.0006695132474026 2.345041437956003 17.589585786931572 4 -3 -1
475 1 2 -1.1794 2.8121973389697374 2.9007183665017227 18.345874233482945 4 -3 -1
633 1 1 0.5897 5.125704300837453 4.87364473617723 20.688368534685125 4 4 3
632 1 1 0.5897 6.490284682003109 4.574782487992386 20.104758637532413 4 4 3
801 1 1 0.5897 6.3999759748672505 6.237565139641172 16.782501969616497 0 -2 4
483 1 1 0.5897 4.382440459984092 5.361499130544838 17.447229898266436 0 3 -1
481 1 2 -1.1794 3.6581514489852784 5.985990646329628 17.48837562036627 0 3 -1
567 1 1 0.5897 2.0530798394751955 6.34208594252812 18.42522810627512 0 7 -7
525 1 1 0.5897 0.8427316724535173 5.268133364439822 21.68928723436023 3 0 2
784 1 2 -1.1794 7.941738063983102 2.854134782384559 16.633846045327402 5 5 3
759 1 1 0.5897 7.211732364856674 9.126873788879067 3.0974216499105576 -1 2 1
97 1 2 -1.1794 1.689629156691171 9.097330722607733 4.185483916302886 2 -8 5
111 1 1 0.5897 5.41210335020274 9.353408626065805 1.7142076773414088 -3 -3 -8
110 1 1 0.5897 5.021802715558846 8.218429758697514 2.636945498594075 -3 -3 -8
638 1 1 0.5897 7.549481239324981 10.567293126870114 4.693567192729063 -7 2 3
798 1 1 0.5897 2.86278397294409 7.893794273860125 3.5326107239218385 -1 -4 -1
683 1 1 0.5897 0.7724653926118243 9.402406038684925 2.584933414419171 4 1 -4
757 1 2 -1.1794 8.030353282164134 9.37157788758162 3.528976068160355 -1 2 1
186 1 1 0.5897 8.804396319785052 7.719147328314823 4.156718888138114 -3 7 3
89 1 1 0.5897 1.517776115977982 11.083911484915681 1.4050081012916045 7 -2 3
109 1 2 -1.1794 5.777655186700004 8.618975155092286 2.2073991606287935 -3 -3 -8
440 1 1 0.5897 4.190131218946462 8.207178000041864 5.5522924742036315 1 0 -1
637 1 2 -1.1794 7.3242209334680375 11.326822199730843 5.230822425155984 -7 2 3
814 1 2 -1.1794 7.277457887492265 6.567780945856255 0.856925934801386 -4 6 -3
815 1 1 0.5897 6.662398323298088 7.182536181604533 1.2570143183644409 -4 6 -3
758 1 1 0.5897 8.596416354319016 9.671219857669326 2.8176087949511124 -1 2 1
734 1 1 0.5897 3.379821348215302 11.665579804896726 4.934145061440922 -3 2 -2
797 1 1 0.5897 3.1372886007368517 7.072216275663156 2.2909925263791036 -1 -4 -1
88 1 2 -1.1794 1.9988591104540563 11.780809775070747 0.9587069170389442 7 -2 3
98 1 1 0.5897 1.343531141780533 8.468619844288664 4.818888967803516 2 -8 5
682 1 2 -1.1794 0.1879479136422119 9.83929700718119 1.9654771353986304 4 1 -4
184 1 2 -1.1794 9.007428296518336 6.8161956924221005 4.401129476602749 -3 7 3
9 1 1 0.5897 3.964969176900507 11.329793002770398 1.1854636015021172 3 -1 -1
796 1 2 -1.1794 3.5525115118205446 7.400512078560372 3.0885320077861107 -1 -4 -1
99 1 1 0.5897 2.0509092398878073 9.803562837796823 4.7212161023579595 2 -8 5
420 1 1 0.5897 8.634012966099007 11.170818758377248 0.7848177447733571 -9 -3 5
7 1 2 -1.1794 4.6470453264560065 10.688589748351449 0.9857305408986241 3 -1 -1
733 1 2 -1.1794 2.7297753516733723 11.240373320021876 5.493516363794324 -3 2 -2
8 1 1 0.5897 5.172570192331773 11.102597360082358 0.3011260160813052 3 -1 -1
619 1 2 -1.1794 1.8987000180376312 9.090181549349467 8.65486088749471 3 -1 4
520 1 2 -1.1794 5.588406066565215 11.212760683208632 9.956221815958038 -2 -1 -2
735 1 1 0.5897 3.0394321187963627 11.39967707991607 6.385147704152273 -3 2 -2
620 1 1 0.5897 2.250348999814766 8.238327195251893 8.39608230658612 3 -1 4
598 1 2 -1.1794 3.52035994483369 6.663388977818047 8.30882970746997 1 -2 -4
406 1 2 -1.1794 8.721810199870234 8.66232873165212 8.346485890872481 -4 -1 2
441 1 1 0.5897 5.183791783217069 8.667412888019063 6.597655028534832 1 0 -1
728 1 1 0.5897 6.019043145926219 10.309996893264334 8.324271419393188 -2 3 -2
517 1 2 -1.1794 0.5419509864330392 7.194027485255661 6.02201396679007 -3 -1 -4
729 1 1 0.5897 7.110150146041902 9.498328480134324 7.658938227222155 -2 3 -2
657 1 1 0.5897 2.8832375745099 10.736646968340333 8.433051111721499 1 2 0
727 1 2 -1.1794 6.2412485625169865 9.868952586848527 7.504288303814081 -2 3 -2
468 1 1 0.5897 3.809993992353287 7.562981212540384 10.032194073289643 4 -2 5
621 1 1 0.5897 0.9667652413299882 9.039751098041087 8.442222760851223 3 -1 4
407 1 1 0.5897 8.461532424725808 7.74310805238214 8.286904952929348 -4 -1 2
439 1 2 -1.1794 4.958434448868879 7.918940391521165 6.04514762325136 1 0 -1
639 1 1 0.5897 6.849947918152071 10.960597955367028 5.977282890377018 -7 2 3
599 1 1 0.5897 4.024320008689986 6.79959961249559 7.506496959131646 1 -2 -4
656 1 1 0.5897 4.1458494882785155 11.488397632246476 8.797369192162469 0 2 0
522 1 1 0.5897 5.229028673272053 11.534918833672492 10.782863381788417 -2 -1 -2
655 1 2 -1.1794 3.3537463227801636 11.55293661572793 8.26380204537141 0 2 0
466 1 2 -1.1794 4.043626702295205 7.701600525200731 10.950048527652815 4 -2 5
299 1 1 0.5897 6.186454531412702 6.622953641111386 5.653579760766002 -5 0 0
456 1 1 0.5897 5.2048606760417835 10.239959131407351 15.947896566942774 2 -1 1
671 1 1 0.5897 1.9506140301577586 10.426441179719891 11.97333406445611 7 1 2
672 1 1 0.5897 1.2821327052270972 9.365747371892486 11.124790203451967 7 1 2
238 1 2 -1.1794 6.979905264684401 10.717830430151702 15.934553959523699 -8 -5 0
317 1 1 0.5897 0.9026429084441764 9.053565670127583 13.47935877370113 -5 -6 0
741 1 1 0.5897 1.877202763804748 7.335012429101064 14.641210711261127 -1 1 2
85 1 2 -1.1794 4.945579642427184 7.852296694079919 14.261122934285238 -1 6 1
20 1 1 0.5897 8.506300099886872 10.935596909988618 13.48498982597549 -5 -6 0
739 1 2 -1.1794 2.5233564612735337 6.727189408611448 15.000783729580018 -1 1 2
363 1 1 0.5897 6.259842510869714 8.836772581994433 11.474265462557856 3 -2 -2
86 1 1 0.5897 5.556287205657522 8.070334410705064 13.557023901324293 -1 6 1
670 1 2 -1.1794 1.9448707733768769 9.484115030509214 11.805263883080997 7 1 2
362 1 1 0.5897 7.2494991096534696 9.693962053902448 12.234392831597896 3 -2 -2
63 1 1 0.5897 9.083687984263623 6.671033512220642 13.309326107358132 -3 -1 4
150 1 1 0.5897 2.5554298214986195 11.208651720016057 15.649261919165077 -3 -2 4
239 1 1 0.5897 7.805323049151892 10.525416033054611 15.489671832957807 -8 -5 0
87 1 1 0.5897 4.704631989812467 8.697597656763133 14.640159450287367 -1 6 1
454 1 2 -1.1794 4.255169251562145 10.125566899186325 15.91187755746431 2 -1 1
361 1 2 -1.1794 6.783984837237647 8.858545313236789 12.27492942621273 3 -2 -2
61 1 2 -1.1794 9.098574964090306 7.287595337008439 12.577278538292544 -3 -1 4
467 1 1 0.5897 3.4207069305453146 8.359192317982956 11.25957645107445 4 -2 5
740 1 1 0.5897 3.3534192908586586 7.000666437633146 14.610318854016532 -1 1 2
62 1 1 0.5897 8.198726175012348 7.607991191928273 12.515021521411143 -3 -1 4
316 1 2 -1.1794 0.40556195707637555 8.591764007748967 14.15456987690612 -5 -6 1
19 1 2 -1.1794 7.900477104054341 11.38901061845534 12.898750429681485 -5 -6 1
240 1 1 0.5897 6.712326986767833 11.568467305998498 15.586539516456975 -8 -5 0
800 1 1 0.5897 5.982056849607089 6.7440503626571235 15.418395661503222 0 -2 4
461 1 1 0.5897 6.688976249090161 9.939612073748785 17.802667671497026 0 4 -1
795 1 1 0.5897 2.8009173064417365 7.221964197434654 21.94082023389206 -4 1 4
430 1 2 -1.1794 6.001675576608907 11.554380040585627 20.494431697098868 -6 -3 -4
160 1 2 -1.1794 2.964908819813826 8.827643554986523 21.022336979091982 3 7 1
162 1 1 0.5897 3.184454796810424 9.54030865864017 21.622486586890233 3 7 1
121 1 2 -1.1794 7.089221700620484 6.72836814806175 18.52651795147235 -1 -2 -2
161 1 1 0.5897 2.121092431129007 9.080609169517306 20.64785052001575 3 7 1
105 1 1 0.5897 8.64070678279548 7.590306728310047 21.92149714178403 4 0 5
462 1 1 0.5897 5.483669140533917 9.210935044918042 18.357855810805894 0 4 -1
460 1 2 -1.1794 6.381914009131915 9.461954992043527 18.573294730111343 0 4 -1
805 1 2 -1.1794 3.644122196869486 8.589570906442113 18.294155059631606 3 -1 -4
455 1 1 0.5897 4.026289816777651 9.750033272481447 16.76208753606499 2 -1 1
566 1 1 0.5897 1.094750351100704 7.3285654676928855 19.05805104208332 0 7 -7
807 1 1 0.5897 3.577474191762275 8.619706474834008 19.248571460007206 3 -1 -4
432 1 1 0.5897 6.0948059829582375 10.677079538207133 20.123032664742958 -6 -3 -4
122 1 1 0.5897 6.985561227200003 7.670505867325844 18.66027823022872 -1 -2 -2
806 1 1 0.5897 3.681318429928494 7.65610266231475 18.08554059096437 3 -1 -4
283 1 2 -1.1794 0.6440259223599634 9.447919883070828 19.70402019706743 5 0 -2
284 1 1 0.5897 0.5179772186476875 9.809414682531436 18.826687161310964 5 0 -2
219 1 1 0.5897 0.5114667706701368 11.177328751104632 20.25719284231149 5 -1 -2
537 1 1 0.5897 1.2143802499493679 13.208719023244962 1.9940108144831672 5 6 4
31 1 2 -1.1794 5.136455837165237 13.985881857684117 1.4324008348588828 6 7 2
34 1 2 -1.1794 8.57766406653573 15.19772904973611 0.42838756086612695 -5 2 0
634 1 2 -1.1794 4.978381596176637 12.34440335326957 4.16466606425888 -9 0 2
535 1 2 -1.1794 0.6469068527768572 13.855070206865161 2.414086325207601 5 6 4
370 1 2 -1.1794 7.4016353538924875 12.61674659695624 0.6758333070960336 2 7 -2
32 1 1 0.5897 4.731543251503581 14.111226465612981 0.5741419250451185 6 7 2
552 1 1 0.5897 1.4067351697233041 12.52473579335157 5.302937162662788 -5 6 -3
47 1 1 0.5897 5.8293561035801265 16.293919409701886 4.489198000491371 4 -2 1
46 1 2 -1.1794 5.98014707571117 16.2855868083559 5.43446016862747 4 -2 1
437 1 1 0.5897 5.479849737689183 15.845208704339187 2.146190164607381 -1 4 2
536 1 1 0.5897 0.645814790497802 13.608425588114189 3.3389804175565674 5 6 4
35 1 1 0.5897 8.76169941365824 15.366548377756143 1.3524619408843108 -5 2 0
365 1 1 0.5897 1.7388246665671467 15.492840482872808 1.373385661404972 3 4 5
636 1 1 0.5897 5.83570400111503 12.098584333614417 4.512281836508198 -9 0 2
33 1 1 0.5897 5.939463080003388 13.497841590170681 1.2499603870091147 6 7 2
372 1 1 0.5897 7.781562577248299 13.47622191080766 0.4935439990047733 2 7 -2
635 1 1 0.5897 5.170649205420883 12.76268104051217 3.325416414539044 -9 0 2
366 1 1 0.5897 2.157185618938586 16.924726722803342 1.1152128211741488 3 4 5
550 1 2 -1.1794 0.9267224263737033 13.327257343918422 5.098435102818283 -5 6 -3
357 1 1 0.5897 8.841988738331606 16.880297905326263 4.750588448529809 1 -3 4
436 1 2 -1.1794 5.658505031349503 16.557877901697907 2.759742061344321 -1 4 2
364 1 2 -1.1794 1.8352114505428447 16.13884596789662 0.6736361694029356 3 4 5
368 1 1 0.5897 4.784855233964218 13.484462314901249 5.614812183330349 5 4 -2
48 1 1 0.5897 6.921319334018687 16.432549783069824 5.528612638267468 4 -2 1
71 1 1 0.5897 2.944504371884958 14.818059083200993 6.519849258146283 2 1 -3
457 1 2 -1.1794 6.5448827612944855 13.357101362699975 8.522443232445598 2 -2 -1
459 1 1 0.5897 7.300609943674649 13.168335718382147 7.966089552231592 2 -2 -1
402 1 1 0.5897 2.379094217634187 13.002250353908957 8.775034907064569 0 -1 1
374 1 1 0.5897 7.1075314246629056 16.02263520211413 9.726264225160218 4 5 -1
521 1 1 0.5897 6.015692242689708 11.975656931778984 9.566760276284745 -2 -1 -2
72 1 1 0.5897 1.7650347159566244 15.00784058745666 7.449829568842587 2 1 -3
369 1 1 0.5897 5.043905986397567 14.90003318487225 6.084952237120356 5 4 -3
756 1 1 0.5897 2.4656303700296247 15.058512654037909 10.292916916599351 -3 0 -5
458 1 1 0.5897 5.836104015474434 13.547645518261996 7.90794042750062 2 -2 -1
373 1 2 -1.1794 7.251910065689837 15.243116620634833 10.262724093771265 4 5 -1
375 1 1 0.5897 7.317027242345619 14.526262881360225 9.631703244873675 4 5 -1
367 1 2 -1.1794 4.6795062357618 14.06226877774323 6.370661344686985 5 4 -2
401 1 1 0.5897 0.9445496201563591 13.456671765756498 8.941070094824342 0 -1 1
400 1 2 -1.1794 1.8378719325784083 13.788219473483977 8.849782592598405 0 -1 1
690 1 1 0.5897 1.8812007051513457 16.88697723098334 5.760486620431303 4 -2 4
70 1 2 -1.1794 2.064905113763685 15.193508389375344 6.559942447804126 2 1 -3
754 1 2 -1.1794 2.821340993808415 15.455758659360237 11.087903915764855 -3 0 -5
551 1 1 0.5897 1.3250519255952393 13.994266126022024 5.657624618763778 -5 6 -3
533 1 1 0.5897 1.2880225399325804 14.989849145649883 14.77864229590372 -6 -3 0
493 1 2 -1.1794 0.7086924306890234 15.421746409838251 13.00701190055247 1 -2 -2
839 1 1 0.5897 0.676499862310861 12.435741975037011 12.446216500570875 -3 -1 -3
838 1 2 -1.1794 1.4977845210306557 11.976835312136915 12.62271924416729 -3 -1 -3
495 1 1 0.5897 0.18949088750072657 16.198257572008625 13.216173259563579 1 -2 -2
149 1 1 0.5897 1.295918177844499 11.982286586096837 15.976552081596498 -3 -2 4
377 1 1 0.5897 6.341817698314338 13.768380617553719 14.638300191422278 1 5 4
492 1 1 0.5897 5.847536573837803 15.619863136661614 13.819306302624785 0 2 4
582 1 1 0.5897 4.406343141857686 13.190608666093064 11.710512728157909 -4 -3 1
580 1 2 -1.1794 4.376477691743996 12.380551586351661 12.219609566918303 -4 -3 1
490 1 2 -1.1794 6.1784341284987105 15.689631337055703 14.714796280286091 0 2 4
532 1 2 -1.1794 1.7412358529415357 14.605706140470739 15.52919420288041 -6 -3 0
378 1 1 0.5897 5.524167450326634 12.727842092731539 13.902972995656635 1 5 4
215 1 1 0.5897 3.1956537533616824 16.00625842698341 15.862584445909146 1 0 3
478 1 2 -1.1794 5.267415934365525 15.239784389318348 12.048902225551803 -3 4 -4
313 1 2 -1.1794 8.624158271264305 16.27757472039141 15.429195482478661 -1 -1 -2
534 1 1 0.5897 2.0069920355929654 13.73620961069252 15.229784314156646 -6 -3 0
491 1 1 0.5897 5.45181789328007 16.067383881318058 15.210411830104164 0 2 4
479 1 1 0.5897 5.930708329328771 15.382376461869834 11.37364545237881 -3 4 -4
480 1 1 0.5897 4.436472707080876 15.428400482076636 11.612729821113804 -3 4 -4
315 1 1 0.5897 8.629568095741273 16.60011635550259 16.33042377094045 -1 -1 -2
314 1 1 0.5897 7.704054279542355 16.084886328194543 15.248759184840404 -1 -1 -2
755 1 1 0.5897 2.1097943361593785 15.395543343089853 11.725351298267753 -3 0 -5
376 1 2 -1.1794 6.201489360074802 12.823794199955746 14.572524297969359 1 5 4
693 1 1 0.5897 8.8844790629548 12.11511403962516 11.181155400590995 3 1 5
581 1 1 0.5897 3.4637709950984514 12.097044545219438 12.166199510802373 -4 -3 1
21 1 1 0.5897 7.442173823252409 12.012230030938596 13.462528355186334 -5 -6 1
840 1 1 0.5897 1.6282965495277504 12.072675872530866 13.56613710782607 -3 -1 -3
214 1 2 -1.1794 3.929869792661268 16.551055012488547 16.146108999638784 1 0 3
148 1 2 -1.1794 1.9724942349815175 11.88600550759641 15.306282323835617 -3 -2 4
387 1 1 0.5897 8.831983019718383 15.41371304758617 11.12533230262205 -4 1 1
431 1 1 0.5897 6.0603194691981885 12.141528850947262 19.740723368006194 -6 -3 -4
826 1 2 -1.1794 3.899808181470971 14.631280435652375 18.35050339750972 -1 2 0
263 1 1 0.5897 3.0872352036785617 15.240948716127606 21.335052902267314 5 -3 5
828 1 1 0.5897 4.7337151735607055 14.161442665285671 18.361477438112743 -1 2 0
200 1 1 0.5897 1.1441798400479004 13.960208843191412 17.687798238878713 3 -5 0
199 1 2 -1.1794 1.7016713216287165 13.246882128474182 17.998732701316953 3 -5 0
201 1 1 0.5897 2.5855228160817134 13.614460070846919 17.99595595345619 3 -5 0
262 1 2 -1.1794 3.9090001828861043 14.863925419146586 21.02070811449545 5 -3 5
371 1 1 0.5897 7.0601315087300245 12.321397810059288 21.702957191381394 2 7 -3
827 1 1 0.5897 4.0140679187485055 15.307436018041312 17.682652205248857 -1 2 0
700 1 2 -1.1794 6.446906284627237 13.545199953131291 18.806424030215886 3 0 1
218 1 1 0.5897 0.9423535377178935 12.466569260387738 19.590714094309774 5 -1 -2
702 1 1 0.5897 7.348227734430404 13.357817227814365 18.544166830709862 3 0 1
701 1 1 0.5897 6.488645910410688 14.414684583160739 19.20456060783288 3 0 1
834 1 1 0.5897 5.68087329088563 15.87836203405232 20.59860201524181 3 1 -1
264 1 1 0.5897 3.7369194946041477 14.642643234356493 20.10546020384035 5 -3 5
860 1 1 0.5897 0.179454100836837 16.03242783852651 21.67784025299367 -2 -5 -1
832 1 2 -1.1794 6.58009292442252 15.933792114299294 20.275184517040074 3 1 -1
833 1 1 0.5897 7.120297757283982 15.678972386440376 21.023182895376436 3 1 -1
245 1 1 0.5897 8.592905812259948 13.07287201374288 17.078719793285508 -5 4 -2
217 1 2 -1.1794 0.6418720697637138 12.110329131081626 20.426818944960445 5 -1 -2
90 1 1 0.5897 1.5500013976735365 11.88276644367032 21.9905915108923 7 -2 2
244 1 2 -1.1794 8.972857274383419 13.284678482730772 17.93138520415691 -5 4 -2
23 1 1 0.5897 2.629175958057774 17.833626185222062 3.579712483763975 -2 2 2
128 1 1 0.5897 3.2900308950854664 22.188919468788015 5.441198043392552 0 0 -4
817 1 2 -1.1794 7.584516863186051 18.11961680118226 1.3711375993940715 4 -3 2
546 1 1 0.5897 5.5615512136996506 20.91187351734153 3.9718781914942687 -4 3 4
792 1 1 0.5897 1.5280620692447187 20.686007658650077 4.425966262286115 0 4 -1
118 1 2 -1.1794 3.901703087058106 20.328604734556894 2.829727650087395 6 -2 -1
119 1 1 0.5897 3.3735417416278297 19.549614481240063 3.0043816100452223 6 -2 -1
127 1 2 -1.1794 2.6770105696176394 21.98611008452464 4.734563437129449 0 0 -4
77 1 1 0.5897 7.802758482550841 20.847706031464654 2.9186007467984174 -6 -4 -2
22 1 2 -1.1794 2.8555508512895433 17.753686508683888 2.6530439806652875 -2 2 2
355 1 2 -1.1794 8.474879360391467 17.151267653960062 5.592055932476296 1 -3 4
819 1 1 0.5897 7.866175897429726 18.969504850680927 1.7097152876013706 4 -4 2
545 1 1 0.5897 6.417504284242925 21.04127793505242 5.213879134672067 -4 3 4
790 1 2 -1.1794 0.8338097931113985 20.045559496680376 4.270696647618061 0 4 -1
544 1 2 -1.1794 6.4684644372924165 20.864762668734652 4.2744637115570105 -4 3 4
791 1 1 0.5897 1.169215111980223 19.2319743011672 4.647359020746411 0 4 -1
120 1 1 0.5897 3.588112532915202 20.977391513688374 3.4598521224358074 6 -2 -1
660 1 1 0.5897 4.95014288645926 19.204197199308823 1.2922119869700401 -2 -1 6
818 1 1 0.5897 8.197717895109037 17.492977289823298 1.7553940545302786 4 -3 2
76 1 2 -1.1794 8.266373964412006 20.642827421390813 2.1066005352457964 -6 -4 -2
555 1 1 0.5897 0.7309441518160709 21.459561423632547 1.2573966629269322 -4 -9 3
356 1 1 0.5897 8.618960173384288 18.097068523921234 5.623344861553033 1 -3 4
78 1 1 0.5897 8.268853314778074 21.465647987222233 1.6174930854009455 -6 -4 -2
688 1 2 -1.1794 1.595213654488542 17.501382241746295 5.084475357710196 4 -2 4
24 1 1 0.5897 3.7844046831350235 17.522251722696133 2.6520881320587506 -2 2 2
658 1 2 -1.1794 5.276634097427018 18.888666992600417 0.44953673515013354 -2 -1 6
659 1 1 0.5897 6.137896907808043 18.52122413426491 0.6482041174361801 -2 -1 6
689 1 1 0.5897 0.7044033970166907 17.224507782515925 4.8698647638833865 4 -2 4
438 1 1 0.5897 6.089898051145313 17.228251075106073 2.2298705466630144 -1 4 2
250 1 2 -1.1794 6.946605264088678 17.910449149344824 9.429408985906445 3 -3 2
26 1 1 0.5897 4.845070257579111 21.546102166672615 10.579358329587874 -1 5 5
435 1 1 0.5897 4.291554649434125 18.52240075485261 7.677600729716469 2 3 -1
603 1 1 0.5897 1.2021743181331266 21.516771980349162 8.774320857248908 3 5 -2
610 1 2 -1.1794 2.5729716301230328 18.86302194468174 8.01615044859734 2 3 -1
612 1 1 0.5897 2.461015168518604 19.792218925112277 8.216942569572483 2 3 -1
251 1 1 0.5897 6.369277244493442 18.164620931176568 10.149372554763623 3 -3 2
611 1 1 0.5897 2.40611847121236 18.41633460118671 8.846144985486326 2 3 -1
191 1 1 0.5897 0.44537311347930447 18.088246855932503 7.899611317386294 6 3 -5
601 1 2 -1.1794 2.155027025884092 21.607359348573596 8.762464939206216 3 5 -2
25 1 2 -1.1794 4.174107387597921 20.86344817966393 10.586973648220395 -1 5 5
252 1 1 0.5897 6.435341094172572 18.084183766543745 8.639029911280387 3 -3 2
280 1 2 -1.1794 8.429694040012935 21.865703006434128 8.629009334788659 -3 0 3
27 1 1 0.5897 3.570753084565335 21.112141338934396 9.886702261531939 -1 5 5
592 1 2 -1.1794 2.212619403717553 18.094267644587212 10.828008862920287 -3 -1 -2
602 1 1 0.5897 2.3408786812904245 22.0824725527064 7.952530399282106 3 5 -3
327 1 1 0.5897 5.859111951923695 20.23486054417214 7.404867727740842 2 -2 -1
233 1 1 0.5897 4.920072630207793 22.303516824604962 6.9903419188772 -1 2 1
509 1 1 0.5897 8.585386062875589 18.601263797387325 8.73192035123091 5 -2 2
433 1 2 -1.1794 5.22043649593242 18.409849279594127 7.475634953333743 2 3 -1
326 1 1 0.5897 7.027758836063198 21.10041214373529 7.8256605569933715 2 -2 -1
434 1 1 0.5897 5.230738874255226 17.861416466993646 6.691171120105256 2 3 -1
325 1 2 -1.1794 6.235656231711742 21.1071509527452 7.288272743814623 2 -2 -1
626 1 1 0.5897 7.1370576854115395 22.026619002403287 10.493224312479297 -4 -3 3
593 1 1 0.5897 2.4811389496902247 17.176558801506573 10.872537738562174 -3 -1 -2
711 1 1 0.5897 5.078393218660327 19.57013737736999 11.081232489626855 -5 -6 -2
587 1 1 0.5897 2.2039194583453665 21.394738865252286 13.408830200975641 -1 1 4
547 1 2 -1.1794 3.7117971057961983 18.380537041062254 13.264455722347355 8 -3 4
609 1 1 0.5897 3.990221435832202 20.953637321889154 14.968883279074888 5 2 2
549 1 1 0.5897 3.9918059765288842 19.10441085265533 13.8247011308748 8 -3 4
594 1 1 0.5897 2.5983345836114293 18.49525670634462 11.606916615729482 -3 -1 -2
607 1 2 -1.1794 4.733957992774524 20.419953978258075 14.689043684475985 5 2 2
130 1 2 -1.1794 1.893672410520959 20.834553768099507 14.942133803054519 -6 1 -1
157 1 2 -1.1794 8.057471109749152 20.08422792195347 12.40151558103895 1 2 -1
131 1 1 0.5897 1.2635446917247708 21.064114272453107 15.625154779403374 -6 1 -1
132 1 1 0.5897 2.0812088840808274 19.90764574443344 15.09032684988364 -6 1 -1
158 1 1 0.5897 7.224775112622519 19.77477608324004 12.044981337062937 1 2 -1
15 1 1 0.5897 0.5260707354280563 21.23643943369256 12.154729275854246 1 -5 -3
586 1 2 -1.1794 2.328063879027853 21.807799400513673 12.554294987733323 -1 1 4
663 1 1 0.5897 5.780866187192167 21.831055270906692 13.834161746263545 -4 -5 2
710 1 1 0.5897 5.265231336119482 18.62730622021232 12.250898180978682 -5 -6 -2
548 1 1 0.5897 3.3373785279084682 17.739954964309167 13.869209091081668 8 -3 4
709 1 2 -1.1794 5.736315596992088 19.033568447948042 11.523375567210303 -5 -6 -2
289 1 2 -1.1794 8.037464914041099 19.92706717718544 15.19287964855629 -8 -5 -7