LAMMPS data file via write_data, version 30 Jul 2021, timestep = 6250000

1296 atoms
2 atom types
864 bonds
1 bond types
432 angles
1 angle types

-10.795447122394695 12.775447122394695 xlo xhi
-9.297092256801347 12.287090256801347 ylo yhi
0.009206339731330004 21.850792660264872 zlo zhi
-9.426978364656252 1.874018068189089 2.8269617013962494 xy xz yz

Masses

1 1.008
2 15.999

Pair Coeffs # lj/cut/tip4p/long/omp

1 0 0
2 0.21084 3.1668

Bond Coeffs # harmonic/omp

1 450 0.9572

Angle Coeffs # harmonic/omp

1 55 104.52

Atoms # full

280 94 2 -1.1794 -9.676695802546064 -4.666156782609717 1.240317394859675 1 1 0
270 90 1 0.5897 -8.574104141435782 -7.596279158138261 1.8468645387097375 1 1 0
269 90 1 0.5897 -9.266966809806723 -6.255857770326639 1.967704658647514 1 1 0
268 90 2 -1.1794 -9.083513708498852 -7.059540844491064 2.453963533629012 1 1 0
300 100 1 0.5897 -5.106984566581809 -7.7368090244855345 3.9372766122498413 1 1 0
314 105 1 0.5897 -9.17448597014971 -6.7678063409274145 4.335278887800281 1 1 0
299 100 1 0.5897 -6.552751515772997 -8.173747107598693 3.8324734461192476 1 1 0
163 55 2 -1.1794 -6.987280076107677 -8.04562868161896 0.49561435874985316 1 1 0
164 55 1 0.5897 -6.257872418771289 -8.58242153422153 0.8055020660797265 1 1 0
322 108 2 -1.1794 -6.559193217715421 -4.912965945050243 3.001187742703105 1 1 0
73 25 2 -1.1794 -8.25473712610507 -3.895113941570484 5.047890222396112 1 0 0
324 108 1 0.5897 -6.927851246898122 -4.630874520578681 3.8382632747796506 1 1 0
315 105 1 0.5897 -8.751258712187306 -5.710560081312117 5.332698027503403 1 1 0
75 25 1 0.5897 -9.105355885570422 -3.57789180883134 4.7443748305332685 1 0 0
273 91 1 0.5897 -10.458367087435956 -1.4260706847920916 0.07200613162697841 1 1 0
260 87 1 0.5897 -6.813612449671021 -6.178312167499531 0.2293498193364402 1 1 0
282 94 1 0.5897 -10.519953290216204 -4.248286902668141 1.4150955017978915 1 1 0
281 94 1 0.5897 -9.026974982580747 -4.03131428745745 1.5420517689116457 1 1 0
69 23 1 0.5897 -11.304350026107231 -2.866033932363089 3.32194999478095 1 0 0
256 86 2 -1.1794 -12.221425788443959 -3.346218470047452 1.9131803738869264 1 1 0
54 18 1 0.5897 -11.554181010067662 -0.16625559477477836 2.1375798928354977 1 0 0
298 100 2 -1.1794 -5.995879408651391 -7.3953250508945505 3.8395500281343615 1 1 0
271 91 2 -1.1794 -10.327692433232487 -0.8293537773738606 0.8089117888135899 1 1 0
83 28 1 0.5897 -9.903829010133615 -1.0307939961314592 4.394834813267798 1 0 0
52 18 2 -1.1794 -12.253930387448866 0.17581726289490796 2.693927530123294 1 0 0
68 23 1 0.5897 -11.404617702293729 -2.7792570333104054 4.830019752662517 1 0 0
84 28 1 0.5897 -8.428192739645464 -0.7304836219575641 4.5512806279031555 1 0 0
59 20 1 0.5897 -13.67078470293852 -0.6996195545636912 3.345457141623288 1 0 0
258 86 1 0.5897 -12.578809458023974 -2.666864726489404 1.341474576866595 1 1 0
67 23 2 -1.1794 -10.78664524255047 -2.681305354576999 4.105642914282304 1 0 0
275 92 1 0.5897 -10.833529372737502 -7.982671867837702 3.177995608011581 1 1 0
98 33 1 0.5897 -12.019868563008009 0.45106973847029685 4.681892629058288 1 0 0
53 18 1 0.5897 -12.468027932931747 1.0276356992345121 2.313712405942687 1 0 0
272 91 1 0.5897 -9.65241923878243 -1.2496856855647032 1.341432133367441 1 1 0
107 36 1 0.5897 -9.408308937867044 1.1809811330692455 3.626382857960388 1 0 0
82 28 2 -1.1794 -9.289299505621566 -0.3124842700231607 4.544902942176816 1 0 0
323 108 1 0.5897 -6.404828114532922 -5.85108960985176 3.1109495365981523 1 1 0
301 101 2 -1.1794 -8.110975943929565 -2.4186258251339448 1.8047056932566614 1 1 0
259 87 2 -1.1794 -6.835901604410552 -5.221539653986327 0.22277008319491312 1 1 0
44 15 1 0.5897 -10.051400530035579 0.9278874727333566 0.5521691658446387 1 0 0
313 105 2 -1.1794 -9.105583645295717 -6.597756135690121 5.274733008635314 1 1 0
302 101 1 0.5897 -7.697917932210677 -2.2500047253055806 2.651611943151734 1 1 0
261 87 1 0.5897 -6.892952708962021 -4.976456181582953 1.146288494469065 1 1 0
633 211 1 0.5897 -5.899358028544633 -6.46796224848705 5.457881975747965 1 1 0
420 140 1 0.5897 -9.432465720893182 -7.126860721782604 9.684761822735188 1 0 0
618 206 1 0.5897 -8.030348854053077 -7.686732394546951 6.2728657850665765 1 1 0
413 138 1 0.5897 -7.654759046033547 -3.7872491856370667 7.857029893846574 1 0 0
419 140 1 0.5897 -8.834102502575885 -5.96726543942717 8.91752857499684 1 0 0
418 140 2 -1.1794 -9.651199100813628 -6.449142945350691 9.045310273345343 1 0 0
414 138 1 0.5897 -6.878263102585091 -5.061713235645781 7.603536286761276 1 0 0
428 143 1 0.5897 -6.730697383989551 -7.328081716015895 9.916556901179229 1 0 0
350 117 1 0.5897 -7.165129439383683 -4.319220986962126 10.0120847233658 0 0 0
412 138 2 -1.1794 -7.495387121011714 -4.660311427794286 8.215278625158964 1 0 0
429 143 1 0.5897 -6.353483437432001 -7.710419283445888 8.501163301288162 1 0 0
99 33 1 0.5897 -11.913292815075856 1.5956649093115214 5.666834435040139 1 0 0
522 174 1 0.5897 -9.923187537385424 2.501796993302438 7.840128995628868 1 0 0
427 143 2 -1.1794 -5.982364202816189 -7.388790632842596 9.32279882627211 1 0 0
616 206 2 -1.1794 -7.686781537355847 -8.389444592876837 6.824425738455044 1 1 0
535 179 2 -1.1794 -9.335337947826119 0.18395506923167382 9.385902643898776 1 0 0
435 145 1 0.5897 -7.838469623015127 -0.8803335105022079 9.765729004199196 0 0 0
424 142 2 -1.1794 -7.998030875208769 -2.0503872702884287 7.0701899497186735 1 0 0
527 176 1 0.5897 -12.267067792020722 1.4959270222520615 8.8628021725137 1 0 0
411 137 1 0.5897 -13.967657224092648 0.22894916752081684 6.314299100509121 1 0 0
402 134 1 0.5897 -11.304806466182576 -0.7732029931304147 6.637969801678032 1 0 0
401 134 1 0.5897 -11.415134333043062 -1.6760167095417096 7.848041930091755 1 0 0
526 176 2 -1.1794 -13.006643713319294 0.9979976497913974 9.211045400709096 1 0 0
400 134 2 -1.1794 -10.781215716685889 -1.1850095886742409 7.325350146775898 1 0 0
528 176 1 0.5897 -12.605288731746061 0.3269565157985568 9.763061230070372 1 0 0
426 142 1 0.5897 -8.933453626956485 -1.850747013230281 7.031972541062796 1 0 0
536 179 1 0.5897 -9.878541470516181 -0.13378112440183365 10.107108543395512 1 0 0
537 179 1 0.5897 -9.67497189341779 -0.26700599245307366 8.612899656666125 1 0 0
433 145 2 -1.1794 -7.0854788072000385 -1.3184489844918232 10.162368057693678 0 0 0
335 112 1 0.5897 -5.155074286576667 -5.752955852670477 9.409687677194636 0 0 0
415 139 2 -1.1794 -8.97519715104211 1.654724561150669 6.474588077261472 1 0 0
74 25 1 0.5897 -7.997557886489781 -3.276223585544251 5.731278221154364 1 0 0
417 139 1 0.5897 -9.227228367478993 1.0651246198262516 5.763918612620223 1 0 0
631 211 2 -1.1794 -5.81029736384477 -5.924148198310391 6.240516078878201 1 1 0
425 142 1 0.5897 -7.569260031658283 -1.1947818378499395 7.058646093153237 1 0 0
835 279 2 -1.1794 -11.486095114040156 -0.6648778497310381 10.855671146462216 1 0 0
97 33 2 -1.1794 -12.133894891511263 0.666258057978272 5.607580973195014 1 0 0
652 218 2 -1.1794 -5.977949973235425 -5.722814916004659 12.646406984012819 0 0 0
780 260 1 0.5897 -7.473478446394567 -4.0629401119381665 15.075175802256837 0 0 0
779 260 1 0.5897 -7.368301516571265 -2.8630600662544072 14.158352762143045 0 0 0
778 260 2 -1.1794 -8.00466946851504 -3.4484116688589097 14.568873585310797 0 0 0
768 256 1 0.5897 -9.669181128900675 -2.5710521803056885 14.790727226621378 0 0 0
654 218 1 0.5897 -6.419388763815657 -5.187467402742778 11.987094904703458 0 0 0
653 218 1 0.5897 -6.667393396471344 -6.284916416202397 12.999756989673637 0 0 0
662 221 1 0.5897 -9.022177012736066 -4.348457194310385 13.30062009041113 0 0 0
661 221 2 -1.1794 -9.281254354348372 -4.774968302395462 12.483801638134189 0 0 0
663 221 1 0.5897 -8.613604881499281 -4.50862864169366 11.851749748455306 0 0 0
684 228 1 0.5897 -8.722703283255944 -6.991798585651749 14.419965216768038 0 0 0
766 256 2 -1.1794 -10.592506656616495 -2.320491739068242 14.82234850009297 0 0 0
866 289 1 0.5897 -12.584213411203839 1.4981658360569696 16.138215840996352 0 0 0
740 247 1 0.5897 -11.238177082558375 -3.560282851126373 12.241972736196121 1 0 0
896 299 1 0.5897 -7.883473240028937 2.4179345776544974 15.794557454700874 0 0 0
788 263 1 0.5897 -4.928825049660444 -4.940757276235816 15.521612914234003 0 0 0
770 257 1 0.5897 -12.432471989450374 3.2012165865708404 13.235316280263236 0 0 0
757 253 2 -1.1794 -9.803090775021628 -6.253819828780246 15.81874646138277 0 0 0
729 243 1 0.5897 -8.166938814524574 -7.619932652449637 12.02000527993865 1 0 0
682 228 2 -1.1794 -8.077827062502944 -7.316990130960771 13.791800262813616 0 0 0
836 279 1 0.5897 -11.694333670327191 -1.5830689957310877 11.027424855147412 1 0 0
762 254 1 0.5897 -9.258012217465334 2.2340695428722004 12.363783041542801 0 0 0
760 254 2 -1.1794 -8.956037265208174 1.5393314865955912 12.948783944266138 0 0 0
791 264 1 0.5897 -11.231788991949713 -0.739825857681712 13.886500509378132 0 0 0
761 254 1 0.5897 -9.755855039637089 1.0868259526320792 13.216645579550308 0 0 0
837 279 1 0.5897 -11.530395685409973 -0.24410529836272943 11.714265841813816 1 0 0
790 264 2 -1.1794 -11.349792939561521 0.11446250589051665 13.471490597353533 0 0 0
792 264 1 0.5897 -11.933562134566085 0.5897834811440408 14.062636663123277 0 0 0
769 257 2 -1.1794 -12.900589287404493 2.9077938942098243 12.453605481848475 0 0 0
771 257 1 0.5897 -12.21458176718761 2.7718116408467868 11.800055778462665 0 0 0
767 256 1 0.5897 -11.062867352018465 -3.1485686518005886 14.917686465979836 0 0 0
888 296 1 0.5897 -10.873701641204097 3.4301318585894105 15.288107850272985 0 0 0
865 289 2 -1.1794 -13.050478175189404 1.122478395248331 15.391397313312105 0 0 0
789 263 1 0.5897 -5.043514410000039 -4.7749114494489815 14.021213416954437 0 0 0
1101 367 1 0.5897 -10.642604931928215 -1.0609877060517672 16.180109134242215 0 0 0
351 117 1 0.5897 -7.295405361748498 -3.168444570628141 10.986898086991808 0 0 0
349 117 2 -1.1794 -7.216880422799665 -4.121438425965282 10.947186680231905 0 0 0
1150 384 2 -1.1794 -6.033419912934942 -4.528390757350456 19.419836252863895 0 0 0
1152 384 1 0.5897 -6.804580334902781 -4.210348914883285 19.889292544688708 0 0 0
1227 409 1 0.5897 -9.22377148570374 -3.182703139977198 20.646164386464477 0 0 0
1109 370 1 0.5897 -8.939222951750898 -3.5598589762407205 17.87386149586844 0 0 0
1089 363 1 0.5897 -6.479082641364077 -4.825690242261247 17.503685728836196 0 0 0
1151 384 1 0.5897 -5.912122806602171 -5.423445529642558 19.736262216611827 0 0 0
1225 409 2 -1.1794 -8.431357913985018 -3.664639629043781 20.882929051150633 0 0 0
1130 377 1 0.5897 -7.358635401761417 -1.6542913908653816 18.554967708564156 0 0 0
1248 416 1 0.5897 -6.026021986661745 -1.4489960669373279 20.898880233851614 0 0 0
1108 370 2 -1.1794 -9.532935727017415 -4.2972860422787775 17.732953324755883 0 0 0
1226 409 1 0.5897 -8.054411965117005 -3.165750748437155 21.607679287583665 0 0 0
1196 399 1 0.5897 -10.197988016422432 1.4311474234974124 16.55460898813064 0 0 0
1221 407 1 0.5897 -11.004790003568347 -2.1333736836488217 19.57958877218016 0 0 0
1087 363 2 -1.1794 -6.579243573593397 -5.115007073497553 16.596767586580434 0 0 0
1129 377 2 -1.1794 -7.993150624708795 -1.7799896345658741 17.84932378748629 0 0 0
1131 377 1 0.5897 -7.46630996635837 -1.7804003219485782 17.050173209745353 0 0 0
1195 399 2 -1.1794 -9.913243787191488 2.3448542612321734 16.561877383152755 0 0 0
1009 337 2 -1.1794 -11.133116921155016 3.8527210602650346 21.019679517605724 0 -1 0
1205 402 1 0.5897 -12.433923845263948 1.2150081758557185 18.478089223362588 0 0 0
1251 417 1 0.5897 -11.82939645559875 2.1038662064398377 21.601343117050654 0 0 0
1249 417 2 -1.1794 -12.205362902207103 1.2286637778276273 21.694534509670504 0 0 0
1259 420 1 0.5897 -9.085322502911406 1.7612498192245898 19.756897047132938 0 0 0
1250 417 1 0.5897 -12.245311107138535 0.8882274416700238 20.80082502150149 0 0 0
1219 407 2 -1.1794 -10.664599488791456 -2.0594274433012227 20.471264907231657 0 0 0
1099 367 2 -1.1794 -10.498556859953196 -0.4540659327760128 16.90609876688049 0 0 0
1246 416 2 -1.1794 -6.340184096445294 -0.9988444722695995 20.114761772818973 0 0 0
1206 402 1 0.5897 -11.53665698759768 -0.0036999484212234535 18.512517849495268 0 0 0
1234 412 2 -1.1794 -8.893532488435959 0.18645405325795572 20.49953762567573 0 0 0
1197 399 1 0.5897 -9.698397014680834 2.5220402382853795 17.477686886645422 0 0 0
1258 420 2 -1.1794 -9.16027713861201 2.622478062804616 19.346240082266483 0 0 0
1236 412 1 0.5897 -8.090008264970368 -0.2743716232134883 20.258268779905507 0 0 0
1100 367 1 0.5897 -9.68890061066144 -0.7582232607394754 17.316296399589454 0 0 0
1088 363 1 0.5897 -6.888721348413931 -6.0180251659980994 16.66574728388163 0 0 0
1216 406 2 -1.1794 -12.766328881913427 2.7675494080685077 17.607704720178532 0 0 0
1235 412 1 0.5897 -9.540265951732657 -0.5079526445953473 20.624669549169433 0 0 0
1260 420 1 0.5897 -9.805320951034389 3.087153502181808 19.87931683678096 0 0 0
1143 381 1 0.5897 -8.660027731531375 -5.299961862215589 21.600153424333804 0 0 0
1218 406 1 0.5897 -13.613118357297356 3.212512596768514 17.572894279101092 0 0 0
1011 337 1 0.5897 -12.019632120063404 4.019522188323293 20.699346795952216 0 -1 0
1110 370 1 0.5897 -10.402744622846196 -3.94459498681674 17.92083522117445 0 0 0
1097 366 1 0.5897 -9.107247460719469 -5.84220772318536 18.599057107161585 0 0 0
1141 381 2 -1.1794 -8.815235837343408 -6.22801644283213 21.775021174227128 0 0 0
1204 402 2 -1.1794 -12.29875454565795 0.3875151640790939 18.93957292497248 0 0 0
1229 410 1 0.5897 -8.025976753528983 3.5869797729226978 18.673762374053048 0 0 0
1096 366 2 -1.1794 -9.026168904733522 -6.708493921282098 18.997741081274896 0 0 0
1217 406 1 0.5897 -12.131832628312468 3.4696393706048223 17.751331859875577 0 0 0
165 55 1 0.5897 -5.47403398835475 -5.707625500295011 21.597609686596684 1 1 -1
758 253 1 0.5897 -9.607044564181852 -5.560194180257733 16.44850122468067 0 0 0
40 14 2 -1.1794 -15.583705327177402 4.180802614692954 1.9439133798702173 1 0 0
177 59 1 0.5897 -14.346130740975028 4.955620765537919 3.5333433193402084 1 0 0
56 19 1 0.5897 -12.610596634414417 5.6980193089477424 0.9835287874138706 1 0 0
66 22 1 0.5897 -14.07896678464887 3.0001678268320777 1.7851723617366482 1 0 0
65 22 1 0.5897 -12.645706202095182 3.418434749503156 1.534411356693028 1 0 0
64 22 2 -1.1794 -13.248453800645816 2.6821102664271077 1.4311474939152693 1 0 0
191 64 1 0.5897 -12.802857913431438 6.35719601107154 4.333536952839802 1 0 0
183 61 1 0.5897 -12.396595838691237 3.678912244860653 4.465017440822959 1 0 0
175 59 2 -1.1794 -13.976197864737824 4.602118365497455 4.342296556558969 1 0 0
176 59 1 0.5897 -14.721285598039746 4.540637141756951 4.940023001637199 1 0 0
42 14 1 0.5897 -15.971435455801462 4.342319094590534 1.0837707714743692 1 0 0
181 61 2 -1.1794 -11.545511380293341 3.349889434316214 4.754343397634891 1 0 0
106 36 2 -1.1794 -9.499444494761748 2.089904760435463 3.340890112917172 1 0 0
55 19 2 -1.1794 -13.470625270484941 6.058085870337706 0.7667481376210327 1 0 0
153 51 1 0.5897 -13.119183314643621 9.342083291189928 1.0453273339245346 1 0 0
45 15 1 0.5897 -10.098217864451053 2.270998527134422 1.248787075328554 1 0 0
173 58 1 0.5897 -15.6526192822424 10.493988187125519 1.2093508921660057 1 0 0
192 64 1 0.5897 -11.360840870042326 6.791864085495808 4.179578031300803 1 0 0
291 97 1 0.5897 -15.588833121711453 10.680172912115536 4.1944022493483235 1 0 0
162 54 1 0.5897 -14.933960079530463 6.77970198087492 1.7572349802809186 1 0 0
160 54 2 -1.1794 -15.469349363357992 7.210113288402004 2.423783050123779 1 0 0
190 64 2 -1.1794 -12.245599032136504 7.134856365212277 4.305305003417438 1 0 0
206 69 1 0.5897 -15.422520430856242 7.395231424841084 4.076905552230578 1 0 0
290 97 1 0.5897 -14.443833060834475 10.733495067508263 5.183512586925181 1 0 0
174 58 1 0.5897 -17.102646961446297 10.208053512267666 1.537574296982076 1 0 0
215 72 1 0.5897 -12.66656896812595 8.508747193267466 3.211322174862641 1 0 0
289 97 2 -1.1794 -14.754490941861933 10.263321586841533 4.409776610749893 1 0 0
172 58 2 -1.1794 -16.255541240757513 9.77958330991279 1.4148114161682332 1 0 0
108 36 1 0.5897 -10.184959206225093 2.4504640084046994 3.9032703483064703 1 0 0
284 95 1 0.5897 -17.815751897019652 12.025678363930512 4.5364969566608035 1 0 0
85 29 2 -1.1794 -11.170529851097207 4.7226320723553705 1.4832696766046691 1 0 0
167 56 1 0.5897 -17.04321051322958 6.260180042772538 3.20635552014164 1 0 0
150 50 1 0.5897 -19.15535145309029 11.568095943855399 1.1619614263612024 1 0 0
161 54 1 0.5897 -15.558447171220418 8.111485398432086 2.11468005687789 1 0 0
285 95 1 0.5897 -17.53676132431 11.990243613082823 3.048968559013397 1 0 0
148 50 2 -1.1794 -18.64466366024779 11.09770505558154 1.8208546628284779 1 0 0
283 95 2 -1.1794 -17.10323420562002 11.952200596387721 3.9015540371736446 1 0 0
193 65 2 -1.1794 -14.316352492882027 11.960117837224034 1.474446287519484 1 0 0
216 72 1 0.5897 -13.465766680176827 9.794117774450372 3.1884350860137567 1 0 0
207 69 1 0.5897 -15.13561548416623 8.570107906747753 4.98736414130027 1 0 0
214 72 2 -1.1794 -12.728450444773555 9.353611256876045 2.7659490252850762 1 0 0
43 15 2 -1.1794 -10.068534252087115 1.869259972889063 0.3804972850843304 1 0 0
205 69 2 -1.1794 -15.437018440765423 7.661782814162615 4.996123563014666 1 0 0
152 51 1 0.5897 -13.290163317755095 8.082534169964513 0.22324618751145142 1 0 0
182 61 1 0.5897 -11.2734651935358 3.958779271282083 5.440955182341516 1 0 0
1118 373 1 0.5897 -16.403205160840493 8.500729890499654 0.017501946642915978 0 -1 1
151 51 2 -1.1794 -13.381146875066797 9.034160145555804 0.17767586886766012 1 0 0
57 19 1 0.5897 -13.82327108094513 5.458374624748695 0.10934536243156392 1 0 0
508 170 2 -1.1794 -13.972000101947984 6.32398275655787 7.186704281250493 1 0 0
644 215 1 0.5897 -13.20900330084155 7.395890893395942 10.050568205511603 1 0 0
643 215 2 -1.1794 -12.446409641056556 7.509320501238838 9.483279639192983 1 0 0
521 174 1 0.5897 -10.896446376383274 3.6609956225679365 7.8624802307644615 1 0 0
510 170 1 0.5897 -14.358207975446309 6.845547626642977 6.483162581020571 1 0 0
509 170 1 0.5897 -14.722651084552414 5.994631524456835 7.680927592781502 1 0 0
532 178 2 -1.1794 -11.343752716901882 5.11821349658941 6.979826457339839 1 0 0
534 178 1 0.5897 -12.175212147939778 5.5292001680479395 7.216487709159733 1 0 0
645 215 1 0.5897 -12.70403679042789 7.110151293547405 8.652292728079695 1 0 0
617 206 1 0.5897 -17.869491615082914 12.895114665940424 7.329690005853178 1 0 0
519 173 1 0.5897 -16.7713119333167 7.326713879551667 6.135886916188605 1 0 0
533 178 1 0.5897 -10.78071331883595 5.847433965744967 6.720401895332118 1 0 0
640 214 2 -1.1794 -14.412535729710415 12.009188074223525 6.631841623970707 1 0 0
642 214 1 0.5897 -15.270798893218188 12.432838147897138 6.618877407540505 1 0 0
327 109 1 0.5897 -13.992839954027675 13.248691391221874 9.69565858527055 0 -1 0
636 212 1 0.5897 -15.557012863435535 7.836615507967304 9.774674255075174 1 0 0
634 212 2 -1.1794 -15.9784910753718 8.252562997670337 9.022640554963449 1 0 0
565 189 2 -1.1794 -13.574281491876361 10.249587145414557 10.781173375097104 0 0 0
635 212 1 0.5897 -15.254756772342459 8.617966061731819 8.513839344092919 1 0 0
630 210 1 0.5897 -13.372431564926107 9.293237295211986 7.402639195152069 1 0 0
629 210 1 0.5897 -14.149135827826019 10.579508840618141 7.586173428053132 1 0 0
518 173 1 0.5897 -16.871974839737028 7.530492313536206 7.632619144990467 1 0 0
628 210 2 -1.1794 -14.068852051125383 9.688739484659143 7.926835544169312 1 0 0
566 189 1 0.5897 -13.786341561600478 9.83369621205633 9.94552861973169 0 0 0
543 181 1 0.5897 -10.877562459097648 6.313416700554393 9.900800378040497 0 0 0
458 153 1 0.5897 -10.123393651367449 3.0945455110340685 10.087724715265525 0 0 0
520 174 2 -1.1794 -10.691454330042315 2.8363381662255236 8.302799440168913 1 0 0
525 175 1 0.5897 -12.133435021127836 8.265540704952892 5.747034139081029 1 0 0
641 214 1 0.5897 -13.806091711414755 12.703065023423106 6.890547371348249 1 0 0
567 189 1 0.5897 -13.505411027466899 11.181554895596337 10.574669885121814 0 0 0
876 292 1 0.5897 -12.973450748850155 4.498992838566121 15.034348198190294 0 0 0
869 290 1 0.5897 -12.798693401326236 8.294397822216782 12.989710976632482 0 0 0
874 292 2 -1.1794 -13.861743500543259 4.839184397196615 15.141477061624458 0 0 0
898 300 2 -1.1794 -14.306369833565686 7.4154471316906605 13.870094031471323 0 0 0
945 315 1 0.5897 -14.537471682108656 7.062026295964722 12.041929783038064 1 0 0
900 300 1 0.5897 -14.869287372025608 7.968255703230886 14.412013492022385 0 0 0
899 300 1 0.5897 -14.20064429824063 6.610655999362097 14.377177884780043 0 0 0
887 296 1 0.5897 -10.591798300771055 4.4016454717562095 14.16199527098784 0 0 0
886 296 2 -1.1794 -11.30630725246709 3.9489522405593505 14.609985055747407 0 0 0
680 227 1 0.5897 -11.229337244912845 9.676069813455618 15.672099150731952 0 -1 0
683 228 1 0.5897 -17.24950238138203 13.409865194741615 14.132102875828487 0 -1 0
875 292 1 0.5897 -14.408635880816124 4.058765229323827 15.230589421174344 0 0 0
848 283 1 0.5897 -14.384464101846069 3.694656712176373 11.661181552925656 1 0 0
956 319 1 0.5897 -17.516085740509332 10.507706923025216 11.9345660578166 1 0 0
649 217 2 -1.1794 -16.048441530234747 8.52961726887638 15.712030838251117 0 -1 0
868 290 2 -1.1794 -12.02050991912806 8.816123183143278 12.793656525258807 0 0 0
870 290 1 0.5897 -12.347774430486336 9.547449304020846 12.270088849621144 0 0 0
877 293 2 -1.1794 -15.976019854533025 9.713766555349038 12.338613905402706 0 0 0
671 224 1 0.5897 -13.72394120364807 11.358669717646594 13.986101777191038 0 -1 0
660 220 1 0.5897 -15.934230017030126 11.520968577829466 14.976154035561256 0 -1 0
879 293 1 0.5897 -15.216761919304414 9.690472042275326 11.756185793108495 0 0 0
658 220 2 -1.1794 -16.80561102100005 11.897615660825045 15.099038156941583 0 -1 0
672 224 1 0.5897 -13.889300142743968 10.489591119957405 15.214469370095754 0 -1 0
878 293 1 0.5897 -15.65294191627512 10.130578546542433 13.137438767413986 0 0 0
670 224 2 -1.1794 -14.371145381701098 10.84234172143425 14.466391009367541 0 -1 0
659 220 1 0.5897 -17.405404920866403 11.163642504164303 14.966107568465643 0 -1 0
943 315 2 -1.1794 -14.625065100758171 6.911331131491666 11.100728637933353 1 0 0
457 153 2 -1.1794 -9.98481241238294 3.3067026980054415 11.01077987935142 0 0 0
727 243 2 -1.1794 -17.612383720728943 13.664497547666775 11.111151773911304 1 -1 0
728 243 1 0.5897 -17.512757181753663 12.714451805304796 11.169758643550232 1 -1 0
459 153 1 0.5897 -9.962327779017436 4.263151135579459 11.036414702269226 0 0 0
944 315 1 0.5897 -14.9055262731941 5.999103623569406 11.028802367074652 1 0 0
1018 340 2 -1.1794 -12.089823286986757 7.250297727699978 20.372704088323545 0 -1 0
1019 340 1 0.5897 -12.660239906355331 6.484997496448441 20.301698466348462 0 -1 0
1020 340 1 0.5897 -11.229501229278522 6.935087782447686 20.0956643911236 0 -1 0
1030 344 2 -1.1794 -9.47760246929509 6.160005976029087 20.095706396916626 0 -1 0
1207 403 2 -1.1794 -12.966931102588102 6.579412211334001 17.099887416751713 0 0 0
1237 413 2 -1.1794 -10.779411069799615 5.157087090686451 17.966149411432042 0 0 0
1208 403 1 0.5897 -12.146042729656346 6.193847433329157 17.40611338650197 0 0 0
1238 413 1 0.5897 -10.451884320414601 5.4637395313424335 18.81169751761113 0 0 0
1003 335 2 -1.1794 -13.837968877613836 4.97034413362778 20.28549522337726 0 -1 0
990 330 1 0.5897 -14.329179107096977 7.13410247622417 18.38996213427773 0 -1 0
1032 344 1 0.5897 -9.128823377685018 5.591899723089185 20.782541162440424 0 -1 0
1035 345 1 0.5897 -15.25542725719794 8.992242920437898 21.390404927649477 0 -1 0
1239 413 1 0.5897 -10.084640481146192 5.377097779847828 17.34561068212883 0 0 0
989 330 1 0.5897 -15.370183407050337 8.195729917786773 18.674364764411514 0 -1 0
1043 348 1 0.5897 -12.294022210039694 9.045144991301177 19.729737233782828 0 -1 0
1002 334 1 0.5897 -16.52700827067691 10.419986187428199 17.98130782416284 0 -1 0
1023 341 1 0.5897 -13.522308440494097 12.170782696204656 17.133872693594107 0 -1 0
981 327 1 0.5897 -12.815957231657457 9.54296703119134 17.449248997258934 0 -1 0
979 327 2 -1.1794 -12.923437981225357 9.288737451658273 16.532703763838903 0 -1 0
1042 348 2 -1.1794 -12.60752881853607 9.869235075629783 19.357432663355823 0 -1 0
1034 345 1 0.5897 -15.141218487569951 7.701239200471063 20.608279620960232 0 -1 0
993 331 1 0.5897 -16.80344833099378 13.094735574164611 16.563047582296612 0 -1 0
1000 334 2 -1.1794 -15.731533427447616 9.88906962962613 18.02088884489504 0 -1 0
1117 373 2 -1.1794 -14.764674827748182 10.77190965239017 21.11622262440921 0 -1 0
991 331 2 -1.1794 -16.586098796917515 13.672955289091052 17.294216149297903 0 -1 0
1098 366 1 0.5897 -17.87364486550434 14.393453734061767 18.408001701572566 0 -1 0
1021 341 2 -1.1794 -14.135754581378375 12.384057341467672 17.837009873215166 0 -1 0
1140 380 1 0.5897 -12.163071471042072 12.844824842208935 20.533542604741683 0 -1 0
992 331 1 0.5897 -15.788061470754883 13.298576291657097 17.667404594340432 0 -1 0
1128 376 1 0.5897 -14.246462693271441 13.965040069247115 20.23434398069636 0 -1 0
1001 334 1 0.5897 -15.017463609556648 10.526443020483137 18.027543740656377 0 -1 0
1138 380 2 -1.1794 -12.548945404585583 13.423112452738705 19.875652178642042 0 -1 0
1127 376 1 0.5897 -15.758250439489839 13.917684232994427 20.300852884974354 0 -1 0
1022 341 1 0.5897 -13.578791714849018 12.572493354333256 18.59239665588597 0 -1 0
1119 373 1 0.5897 -15.492568281672504 11.229343915968586 20.69530948203702 0 -1 0
1044 348 1 0.5897 -13.364858257839868 10.102438088929608 19.894367373802254 0 -1 0
980 327 1 0.5897 -12.998511552058297 8.334903860182456 16.55548034695896 0 -1 0
1126 376 2 -1.1794 -15.008736525871111 14.477347732794163 20.50393868773861 0 -1 0
1111 371 2 -1.1794 -16.837863061734033 12.288002040114046 20.058659302686642 0 -1 0
1033 345 2 -1.1794 -15.171348344317616 8.045324302721026 21.500976156044196 0 -1 0
988 330 2 -1.1794 -15.128942295032804 7.295178833225259 18.890646158756667 0 -1 0
1142 381 1 0.5897 -18.38688693564744 14.970137494129874 20.91114935680124 0 -1 0
1013 338 1 0.5897 -11.372459021435862 11.041537423622794 18.74540223722434 0 -1 0
1209 403 1 0.5897 -13.258784628439134 5.99712242268637 16.398492464157435 0 0 0
1010 337 1 0.5897 -11.016501205089815 4.474373633566318 21.73808880084733 0 -1 0
1113 371 1 0.5897 -17.21183761178022 11.850387145915777 19.293876656999572 0 -1 0
650 217 1 0.5897 -15.928403958452861 9.027719417155291 16.52054122311398 0 -1 0
310 104 2 -1.1794 -3.438150243131048 -8.62055824715127 3.6310499652833306 1 1 0
304 102 2 -1.1794 -1.140508218449364 -7.179589623919357 2.5809013284619686 1 1 0
89 30 1 0.5897 -4.955103112204316 0.9505685328405242 2.136901558259939 1 0 0
292 98 2 -1.1794 -4.507195583829406 -3.3932582205144524 1.952473620915501 1 1 0
318 106 1 0.5897 -2.892817887802864 -4.251726681340479 1.8244185217853404 1 1 0
309 103 1 0.5897 -2.921945139441788 -1.1050383793498426 0.23730674097437585 1 1 0
306 102 1 0.5897 -0.6590268839738105 -7.673914345905645 1.91759370113605 1 1 0
242 81 1 0.5897 -0.9240512350281005 -6.835306206524779 4.511027528094789 0 1 0
316 106 2 -1.1794 -2.006546689537487 -4.59699832491197 1.7167700685819678 1 1 0
305 102 1 0.5897 -1.2172254316852449 -6.298634850309804 2.214844510393121 1 1 0
303 101 1 0.5897 -7.555140983533118 -1.9639548779271774 1.1718940071001516 1 1 0
293 98 1 0.5897 -5.207650547606095 -3.8788400566447665 2.388053072774569 1 1 0
104 35 1 0.5897 -3.95656123839996 -2.7640864657608386 4.801042741344325 1 0 0
11 4 1 0.5897 -2.3266481882978702 -0.7507539443587046 4.244213472267713 0 0 0
311 104 1 0.5897 -2.7006240230756173 -8.113402873042732 3.2918873200886627 1 1 0
26 9 1 0.5897 -4.530818217440331 0.40152577924130384 4.4320234929842295 0 0 0
96 32 1 0.5897 -6.161208384005688 -1.9703776117270237 4.541495387225755 1 0 0
103 35 2 -1.1794 -3.3172701678875445 -2.4308882527090674 4.171388357075384 1 0 0
105 35 1 0.5897 -3.726261396032587 -2.5708730603926915 3.3173296469918263 1 0 0
90 30 1 0.5897 -4.010549785849505 -0.2295050674424104 2.054433377682949 1 0 0
88 30 2 -1.1794 -4.766080420483879 0.1029239968924145 2.539091112910723 1 0 0
294 98 1 0.5897 -4.957399341392593 -2.855170633316673 1.3013601117652962 1 1 0
94 32 2 -1.1794 -6.610865295965622 -1.3842385744003654 3.9328911584178146 1 0 0
95 32 1 0.5897 -5.907721418625291 -0.9851351094534433 3.420563068614847 1 0 0
1262 421 1 0.5897 -1.9071703524736492 -5.756792736707753 0.1153091868610738 0 0 1
3 1 1 0.5897 -1.4486228398898309 -3.645354451612837 4.13156493293882 0 0 0
241 81 2 -1.1794 -1.191348502231314 -6.687494954193227 5.41816323410615 0 1 0
27 9 1 0.5897 -4.341789469002177 1.6549965364838233 5.259441782373237 0 0 0
317 106 1 0.5897 -1.4479839373316707 -3.8202627903304043 1.6889377077602317 1 1 0
25 9 2 -1.1794 -4.669128783196417 0.7570510931054812 5.309901427442733 0 0 0
1285 429 2 -1.1794 -5.970974290322627 -1.9328563282360367 0.04654277157376973 0 0 1
416 139 1 0.5897 -8.16538536999408 1.2803208356399995 6.82144739537645 1 0 0
553 185 2 -1.1794 -3.635575010257588 -7.089187368759614 7.12297768649188 0 1 0
546 182 1 0.5897 -0.09326624800258188 -7.545961012036192 6.642319309533478 0 1 0
346 116 2 -1.1794 -2.0392869215967764 -5.889810535411789 9.324495488124557 0 0 0
404 135 1 0.5897 -5.479098758371603 -4.128271042833067 5.759683429219616 1 0 0
456 152 1 0.5897 -4.43702064263465 0.8204394078431143 9.76729380851619 0 0 0
544 182 2 -1.1794 0.46702218367580883 -7.944949799767312 7.307995719493724 0 1 0
442 148 2 -1.1794 -7.384328520395682 2.40932547494382 9.480340361967759 0 0 0
334 112 2 -1.1794 -4.651008420015759 -4.944532784315326 9.501640768620625 0 0 0
348 116 1 0.5897 -1.5937625087770009 -6.541546833335547 9.865667616751367 0 0 0
554 185 1 0.5897 -3.132850223190328 -6.75743776469821 7.866962641207831 0 1 0
347 116 1 0.5897 -1.3399576757657368 -5.486603879939387 8.81015861463761 0 0 0
336 112 1 0.5897 -3.744108636425457 -5.236286145013432 9.595016332754652 0 0 0
555 185 1 0.5897 -3.015828048874271 -7.084754370069438 6.393520040824756 0 1 0