LAMMPS data file via write_data, version 30 Jul 2021, timestep = 25750000

1008 atoms
2 atom types
672 bonds
1 bond types
336 angles
1 angle types

-3.1333701171303616 14.743369116684569 xlo xhi
-0.14382400117339422 22.723823001172093 ylo yhi
0.03724875054509802 19.192749249447687 zlo zhi
-0.15632928999919404 -6.707064732244593 0.07259711452188242 xy xz yz

Masses

1 1.008
2 15.999

Pair Coeffs # lj/cut/tip4p/long/omp

1 0 0
2 0.21084 3.1668

Bond Coeffs # harmonic/omp

1 450 0.9572

Angle Coeffs # harmonic/omp

1 55 104.52

Atoms # full

21 7 1 0.5897 1.187903439306094 2.0754922706892014 0.9140711755964247 0 0 0
55 19 2 -1.1794 -0.6672934834051487 4.072354140601925 3.5624861082943178 0 0 0
56 19 1 0.5897 -1.4045302721460533 3.667898664163297 3.105315758206394 0 0 0
57 19 1 0.5897 -0.0503315163784932 4.301209523797729 2.8674718766176754 0 0 0
121 41 2 -1.1794 -2.5738568243323696 2.548883332466553 2.4212014133025455 1 0 0
122 41 1 0.5897 -2.501182503696282 2.1961150739227486 1.534451779421206 1 0 0
86 29 1 0.5897 -2.16068053307928 1.4371673455941456 3.8958588196575334 1 0 0
31 11 2 -1.1794 1.5402124114412752 0.89810763464728 2.3467138581921287 0 0 0
32 11 1 0.5897 1.2482155011978895 1.2635838702848858 3.181688413609413 0 0 0
123 41 1 0.5897 -3.466529281150619 2.8904607305946475 2.4710720371820654 1 0 0
46 16 2 -1.1794 1.7235410662806228 4.561051253154083 2.354202447413567 0 0 0
33 11 1 0.5897 0.8369454231626845 0.30354397998829896 2.08591446934949 0 0 0
16 6 2 -1.1794 5.40996261127532 5.002054669344818 0.34390317463971726 0 0 0
6 2 1 0.5897 3.642913816399191 1.5482004974003534 4.628948598340994 0 0 0
48 16 1 0.5897 1.8363176970111628 5.162605712464927 3.090063110898327 0 0 0
47 16 1 0.5897 1.7585245480067844 5.1212435545714605 1.5788272106056032 0 0 0
71 24 1 0.5897 3.2650769104562096 0.5196139476996646 2.0392633742301927 0 0 0
78 26 1 0.5897 0.17817818800686958 2.6462426888698967 4.352126804000227 0 0 0
158 53 1 0.5897 -4.269939574367157 4.291990605121063 4.618068136766457 1 0 0
527 176 1 0.5897 3.953420899800479 1.8672297176550332 0.48039562387395685 0 0 1
54 18 1 0.5897 3.0501033083301152 3.5830968768931752 2.997499619945645 0 0 0
482 161 1 0.5897 -0.9212583032910868 0.08518127374703655 0.6694474924863616 1 1 0
52 18 2 -1.1794 3.675592659458797 3.0581821165717153 3.4969260737881176 0 0 0
70 24 2 -1.1794 3.956012563370977 0.2591880091847657 1.4303675513658558 0 0 0
602 201 1 0.5897 -0.5894803295566033 5.230994864521692 0.7125954379702397 1 0 1
76 26 2 -1.1794 0.7393866735716976 1.9910331712772913 4.766796648478909 0 0 0
53 18 1 0.5897 4.434241116372516 2.9752701884286252 2.919394355731989 0 0 0
18 6 1 0.5897 4.950249275348657 4.165172798954242 0.2768523660471236 0 0 0
101 34 1 0.5897 -2.843188193812313 4.4767349731959225 0.12097715136879174 1 0 0
19 7 2 -1.1794 1.0852728871696478 2.5699018910563987 0.10088565958901718 0 0 0
528 176 1 0.5897 2.8951535201730048 2.8903843231890547 0.1269188465977537 0 0 1
85 29 2 -1.1794 -2.3213223916118455 1.0019610181906742 4.733107918997137 1 0 0
603 201 1 0.5897 -0.14073736518933355 3.909451516438864 0.1263135358293991 1 0 1
601 201 2 -1.1794 -0.870592088534575 4.528645142276538 0.12625346912525315 1 0 1
9 3 1 0.5897 -0.8461891663865879 5.480792057743873 4.543040838912554 0 0 0
87 29 1 0.5897 -3.2739036226408107 1.0041153819580102 4.82571375681006 1 0 0
163 55 2 -1.1794 -2.2087882956999594 1.2710998618701639 0.06215834150889005 1 0 0
134 45 1 0.5897 -2.22833814013958 2.3901301329443214 6.0252350721372 1 0 0
135 45 1 0.5897 -1.5776348941381775 3.4441591442670942 6.8954123096997515 1 0 0
60 20 1 0.5897 2.7990144503155303 3.2931887404602582 6.805057299239799 0 0 0
34 12 2 -1.1794 -0.1916181386630802 0.9055886968273177 7.2780719761018915 0 0 0
35 12 1 0.5897 -0.027270864835305275 1.5921819085351152 7.9243555425818215 0 0 0
36 12 1 0.5897 -1.0514305860678705 0.556373674687281 7.512216614512623 0 0 0
159 53 1 0.5897 -3.131212113817217 4.417701789736365 5.6075591078621105 1 0 0
669 223 1 0.5897 -5.394300433802971 1.8475088071149783 9.003108045805387 1 0 0
124 42 2 -1.1794 -4.902171798999895 2.50098880509414 7.411005969786502 1 0 0
58 20 2 -1.1794 2.062245947742042 3.755380258477355 6.405437285202137 0 0 0
59 20 1 0.5897 1.7830474253460782 3.18684050253287 5.687870757679093 0 0 0
67 23 2 -1.1794 -2.546476318755354 0.1862000853433068 8.779485846444288 0 0 0
43 15 2 -1.1794 -0.45055708193753397 4.852983357202026 7.322718152097432 0 0 0
126 42 1 0.5897 -4.049917150197185 2.9365367576567825 7.404690995706374 1 0 0
45 15 1 0.5897 0.43135160983368737 4.511105540501796 7.17662484113838 0 0 0
133 45 2 -1.1794 -2.431659795999462 3.0997156715681013 6.634477817846363 1 0 0
5 2 1 0.5897 3.2613320190055264 0.15368273264371823 5.0780346573946264 0 0 0
68 23 1 0.5897 -3.2831155301197086 -0.00174894809231399 8.197989460471428 0 0 0
522 174 1 0.5897 2.0996011471970046 5.238883229884405 9.039633783251261 0 0 0
401 134 1 0.5897 2.3045351119405932 0.025245970550899527 8.852961424980135 0 1 0
77 26 1 0.5897 0.1883693753436071 1.5957980501256956 5.442291439571962 0 0 0
69 23 1 0.5897 -2.721995310320565 1.0662233763893312 9.112414942294606 0 0 0
44 15 1 0.5897 -0.44927570313647225 5.137323472331854 8.236609987305489 0 0 0
11 4 1 0.5897 2.1925355437947474 5.314487088683716 5.232918243501009 0 0 0
98 33 1 0.5897 -4.096998688651977 5.196493428404476 8.627386082278237 1 0 0
97 33 2 -1.1794 -4.208000920221452 4.716420603628129 9.448001478010074 1 0 0
22 8 2 -1.1794 0.28884528339359417 2.5819597248212953 9.532383412453603 0 0 0
157 53 2 -1.1794 -3.67406570621057 4.930865254165559 5.009067032215937 1 0 0
4 2 2 -1.1794 3.9643758711464807 0.800833966521033 5.133304260376262 0 0 0
125 42 1 0.5897 -5.512480292891594 3.1633673107262488 7.087014846355879 1 0 0
520 174 2 -1.1794 2.2279939162550706 4.4669909368692 9.590932270295987 0 0 0
574 192 2 -1.1794 0.5735921036758165 0.4848860598236686 11.237051909040797 0 0 0
606 202 1 0.5897 -6.161213861105832 4.618669583119991 9.701369025527834 1 0 0
560 187 1 0.5897 -4.898085992725637 3.605140254486063 12.622340287305017 0 0 0
576 192 1 0.5897 -0.09754201759723813 0.7203899976854061 11.877424683773665 0 0 0
99 33 1 0.5897 -4.2818010219236164 5.397586282024872 10.116307784609308 1 0 0
663 221 1 0.5897 -7.027137460228332 5.613033317437955 13.777443262771785 1 0 0
627 209 1 0.5897 -6.81919846659241 2.4589932090265716 12.481680319692236 1 0 0
23 8 1 0.5897 0.4801355977117123 1.8529907345834962 10.122555090051348 0 0 0
535 179 2 -1.1794 -1.9711555024387186 1.2078488127021907 12.36675915973498 0 0 0
536 179 1 0.5897 -2.1193776268201026 1.6873317522776947 13.181719296271929 0 0 0
537 179 1 0.5897 -2.072839450740118 1.866033178914428 11.679202600116643 0 0 0
575 192 1 0.5897 1.2332481887911664 0.011465933457215222 11.743920420212392 0 0 0
625 209 2 -1.1794 -5.949328827969015 2.1863578757789055 12.190192584409344 1 0 0
556 186 2 -1.1794 0.28281004951409905 3.253223933221509 12.816288183060465 0 0 0
561 187 1 0.5897 -3.803954946140286 3.639460248883095 13.667967333322533 0 0 0
668 223 1 0.5897 -5.772147402768926 1.6567262842113906 10.4565129708399 1 0 0
558 186 1 0.5897 -0.5438544400776051 3.6705494638749534 12.574272680758716 0 0 0
559 187 2 -1.1794 -4.302655730441353 4.202017797914766 13.075468743011232 0 0 0
550 184 2 -1.1794 -1.784892723688026 4.902852721949686 12.077880959896213 0 0 0
552 184 1 0.5897 -2.7026594588853685 4.6441268519835734 12.160344539487244 0 0 0
626 209 1 0.5897 -5.690235550921017 1.506009632380188 12.81170436923594 1 0 0
557 186 1 0.5897 0.03104714209147197 2.5530371613512255 13.418456948228036 0 0 0
523 175 2 -1.1794 -2.4406158924043466 2.5783026271873246 10.065069282205798 0 0 0
524 175 1 0.5897 -3.0132015087714508 3.303868549441457 9.816298007925605 0 0 0
551 184 1 0.5897 -1.649885959000736 5.536478775359756 12.782422876709372 0 0 0
525 175 1 0.5897 -1.5658132745499618 2.8609812036370976 9.79888930801742 0 0 0
662 221 1 0.5897 -7.714625340410337 4.294705465739371 14.062467768034383 1 0 0
667 223 2 -1.1794 -5.527014295241635 1.1721914684077195 9.668391116565457 1 0 0
986 329 1 0.5897 -4.427687933738779 0.2029175332084739 10.757746703341713 1 1 0
987 329 1 0.5897 -3.3548514801366514 0.14327939262331224 11.824100629237334 1 1 0
24 8 1 0.5897 1.0401599387781975 3.167940546717618 9.623329752113413 0 0 0
547 183 2 -1.1794 -3.730085017652379 5.131558832036811 16.703548091462117 0 0 0
581 194 1 0.5897 -3.017985707860144 1.9224206046277725 15.299005508314371 0 0 0
165 55 1 0.5897 -9.508423996994399 0.8062649427430202 18.692183831651484 1 0 -1
630 210 1 0.5897 -8.453300564947934 1.7995530134965336 16.1133503548265 1 0 0
582 194 1 0.5897 -2.189026477111219 3.179526697832354 15.143100725734433 0 0 0
563 188 1 0.5897 -1.0629506586341204 4.9702886031324205 15.479680719104653 0 0 0
639 213 1 0.5897 -6.05331688956851 4.035043823096218 15.436637398078473 1 0 0
571 191 2 -1.1794 -5.979365249769714 0.3605189682800023 17.785394568532965 0 0 0
538 180 2 -1.1794 -3.3248345490323743 1.1253150244646046 16.941606761672382 0 0 0
539 180 1 0.5897 -3.012313232665524 1.756618447545481 17.589600703947355 0 0 0
20 7 1 0.5897 -5.983058936860866 2.0102635386038132 18.63519550795636 0 0 -1
540 180 1 0.5897 -4.260427718955633 1.0379786488749432 17.123399455329483 0 0 0
638 213 1 0.5897 -6.5650967803996885 3.0090076571383086 16.42518484325001 1 0 0
549 183 1 0.5897 -4.394954424847939 4.452777036931373 16.588003862261665 0 0 0
562 188 2 -1.1794 -1.255371179530191 4.2511277815035005 16.08137358674243 0 0 0
510 170 1 0.5897 0.3667134712286986 1.5244438144514287 15.394012623000387 0 0 0
564 188 1 0.5897 -2.0836161573802574 4.4976093569962154 16.49274968923745 0 0 0
637 213 2 -1.1794 -5.758379981863431 3.3965826346583365 16.085973249474897 1 0 0
164 55 1 0.5897 -8.626356364467249 2.0345936986301982 18.621758690034895 1 0 -1
628 210 2 -1.1794 -8.302349005726018 2.5116962669204397 16.734777426186113 1 0 0
593 198 1 0.5897 -7.7355098713413994 0.4199173563261265 14.596541034937394 1 0 0
590 197 1 0.5897 -5.692754615985946 1.6209502664464461 14.952165777633779 1 0 0
526 176 2 -1.1794 -2.8886710772335773 2.7509312148137304 19.14583331452657 0 0 0
508 170 2 -1.1794 0.5016426119119917 1.0989485255961717 14.547380340751406 0 0 0
580 194 2 -1.1794 -2.692666300133853 2.538024325756952 14.642176019208721 0 0 0
591 197 1 0.5897 -4.998180459765084 0.28087882943350884 14.83604147769199 1 0 0
589 197 2 -1.1794 -5.766235819001535 0.7642249246738801 14.531732344370512 1 0 0
661 221 2 -1.1794 -7.232784817766539 5.004421749129321 14.487046501149985 1 0 0
289 97 2 -1.1794 -2.364923844336581 10.01664349198449 2.4689865125548955 1 0 0
255 85 1 0.5897 -2.092742377941534 8.897128110900686 3.978519889850537 1 0 0
146 49 1 0.5897 -1.4915738445901092 6.531499526118301 2.2733147374713605 1 0 0
147 49 1 0.5897 -1.031802081269638 7.403062887744071 1.1240410015396678 1 0 0
332 111 1 0.5897 -2.0157404231506977 9.313048788495587 0.9448641494444124 1 0 0
145 49 2 -1.1794 -0.7053287509558901 6.8228607541079 1.8118211231946273 1 0 0
112 38 2 -1.1794 -3.297316967597512 6.202864611855868 2.534094085407063 1 0 0
291 97 1 0.5897 -3.248054678318545 10.322502331125968 2.675207349207454 1 0 0
188 63 1 0.5897 0.7258339619983802 10.140476122521202 1.1400205473752996 0 0 0
200 67 1 0.5897 0.452364947019432 8.005641212506829 2.458543071287546 0 0 0
221 74 1 0.5897 4.4072143346239505 10.520997425891668 2.973281141279489 0 0 0
187 63 2 -1.1794 0.7911456024109467 10.582479512947831 0.29350890503191396 0 0 0
189 63 1 0.5897 1.7309663791465137 10.62751041933906 0.11824588552261367 0 0 0
290 97 1 0.5897 -1.7870578651006113 10.679561377479057 2.8468007715085544 1 0 0
245 82 1 0.5897 0.9241598312118455 9.501721143341207 4.26498820188232 0 0 0
199 67 2 -1.1794 1.0104641658617197 8.771607419168024 2.5926972748142263 0 0 0
253 85 2 -1.1794 -2.2551244134768753 8.476398049855593 4.8227902379923 1 0 0
113 38 1 0.5897 -3.4986179534984894 5.7899795342454405 3.373853570054765 1 0 0
240 80 1 0.5897 3.2200647937874747 7.329958599216371 1.1499691999655304 0 0 0
331 111 2 -1.1794 -1.7111888735449916 8.839604805798869 0.17084701149265824 1 0 0
201 67 1 0.5897 1.8910144792597263 8.468496334694603 2.3719067560242295 0 0 0
220 74 2 -1.1794 3.6662447497554966 10.655043498604899 3.5640062774406105 0 0 0
239 80 1 0.5897 3.612378631298621 8.79208632817157 1.1369875817365742 0 0 0
174 58 1 0.5897 3.5835456156198973 8.892527632258759 4.484893468825662 0 0 0
238 80 2 -1.1794 3.61947521248599 8.01128225337428 1.6906924838388708 0 0 0
10 4 2 -1.1794 1.9498628804042033 6.0329467051940115 4.648786286723536 0 0 0
222 74 1 0.5897 3.0724776562544447 11.227325842611654 3.0780573086839746 0 0 0
82 28 2 -1.1794 2.2130993166909914 6.111974868163714 0.1395336968024633 0 0 0
224 75 1 0.5897 -0.09829484115026066 11.295960837300186 3.9152080861479805 0 0 0
114 38 1 0.5897 -3.6457725698640546 5.5976694686377515 1.8795517379129654 1 0 0
306 102 1 0.5897 -4.342123304625201 11.289225196165223 4.101438859563336 1 0 0
257 86 1 0.5897 -4.113274696644899 8.205837173048463 4.788551451801219 1 0 0
696 232 1 0.5897 4.146979527832292 11.014698389313933 0.17466666108022694 0 0 1
694 232 2 -1.1794 3.5449752417978404 10.275543647635415 0.08862432221062896 0 0 1
191 64 1 0.5897 0.7046241290579833 9.637228567314791 8.837879351982803 0 0 0
65 22 1 0.5897 2.515442289641742 7.496476238579785 8.782218372178844 0 0 0
109 37 2 -1.1794 -4.324257264079023 6.456295984410666 7.242560631354425 1 0 0
111 37 1 0.5897 -5.260584795369992 6.537285335447579 7.423472090986982 1 0 0
293 98 1 0.5897 -3.9022199382344187 10.190139114464595 6.9971719043104885 1 0 0
110 37 1 0.5897 -4.281340646448244 6.094389291674857 6.357555938480562 1 0 0
292 98 2 -1.1794 -4.824539212060863 9.958982894561789 7.106269910444962 1 0 0
7 3 2 -1.1794 -0.7626139824012768 6.281919018608233 5.060083761159207 0 0 0
246 82 1 0.5897 0.6839294085648109 9.36167080537927 5.753029582029924 0 0 0
294 98 1 0.5897 -4.896990166627461 9.686164925714072 8.02085652799444 1 0 0
172 58 2 -1.1794 3.773102076930483 8.15000351558217 5.058487625750968 0 0 0
64 22 2 -1.1794 2.17419030639404 6.806675116519774 8.213148389247234 0 0 0
837 279 1 0.5897 -6.001616144009345 8.220147633469724 8.822246494105594 1 0 0
202 68 2 -1.1794 0.2443711432958926 8.452367742666437 7.227893543092935 0 0 0
203 68 1 0.5897 -0.6357811272342464 8.171195335692683 7.477514382119114 0 0 0
204 68 1 0.5897 0.8244774505799302 7.796916025926907 7.6152765005577185 0 0 0
173 58 1 0.5897 3.1072230564622556 7.499207802660281 4.836652101506274 0 0 0
235 79 2 -1.1794 -2.266828212099421 7.748072598837073 8.337478334148628 0 0 0
236 79 1 0.5897 -3.0278310217820983 7.388054293313854 7.882114810686579 0 0 0
237 79 1 0.5897 -2.5888134596363894 8.55248657969285 8.74408286984288 0 0 0
302 101 1 0.5897 -1.970296807476362 9.835587728048878 6.2437375459297 1 0 0
301 101 2 -1.1794 -2.2785347308048336 10.571300515938114 6.772663160024479 1 0 0
244 82 2 -1.1794 0.759873207307868 10.013950862782606 5.056606679389965 0 0 0
8 3 1 0.5897 -0.7581291692983698 5.981504942329213 5.96888505130802 0 0 0
588 196 1 0.5897 -1.4014932270550688 6.583553349479437 9.302843449584593 0 0 0
303 101 1 0.5897 -1.4889950451849119 11.077989807689496 6.962365802412392 1 0 0
66 22 1 0.5897 2.9266754030181446 6.534708718134007 7.688011011076979 0 0 0
228 76 1 0.5897 1.7328945446106303 11.258292578894574 6.1594152081568865 0 0 0
835 279 2 -1.1794 -5.674274692376407 8.812304959727705 9.499202012311988 1 0 0
12 4 1 0.5897 1.044890924936099 6.237748073968199 4.8834236884496995 0 0 0
254 85 1 0.5897 -1.6004877189859552 7.7800215431622375 4.873896642127869 1 0 0
691 231 2 -1.1794 -2.3754361411164187 10.048784320726359 10.002848357434027 0 0 0
794 265 1 0.5897 -5.564995425120196 10.676354244358292 12.247573521232013 1 0 0
836 279 1 0.5897 -5.093017283839765 8.269698921814426 10.032050968310497 1 0 0
513 171 1 0.5897 -4.200707478606509 5.939399843999556 13.885382044654873 0 0 0
742 248 2 -1.1794 0.11044385491519204 7.844312788205205 11.539586241351813 0 0 0
724 242 2 -1.1794 0.2800929215057941 10.780986768915206 12.907753735861418 0 0 0
616 206 2 -1.1794 -6.82325657380766 6.4661518131613915 12.219170493684256 1 0 0
693 231 1 0.5897 -2.5001564800522673 9.652514364666331 10.865166096683607 0 0 0
649 217 2 -1.1794 -4.370005634211795 6.875726173166148 11.145716834405455 1 0 0
650 217 1 0.5897 -3.6244421131536555 7.233283352169617 11.62778786046979 1 0 0
651 217 1 0.5897 -5.105204321339333 6.945712791710914 11.75446160496193 1 0 0
795 265 1 0.5897 -6.119925655852213 9.861368398603881 11.098911499029716 1 0 0
744 248 1 0.5897 -0.14459320005708554 7.152534888495515 10.929261293539483 0 0 0
793 265 2 -1.1794 -6.252494405798262 10.047536768212206 12.028334296728767 1 0 0
726 242 1 0.5897 -0.30877174936868723 11.280307966666294 12.341955680328956 0 0 0
759 253 1 0.5897 -6.1657584577937765 8.90502545771969 13.59394401755887 1 0 0
703 235 2 -1.1794 -2.425395136647661 8.470713507509664 12.240754619275348 0 0 0
704 235 1 0.5897 -1.4860560065761925 8.287358846115549 12.234331672845975 0 0 0
705 235 1 0.5897 -2.575949919413816 8.922585361571299 13.070919099772805 0 0 0
743 248 1 0.5897 0.1915061713872075 8.627192719677437 10.994777304631977 0 0 0
750 250 1 0.5897 -3.580133054422304 10.586949780851082 14.115958495608366 0 0 0
692 231 1 0.5897 -1.4278161213880631 10.157036199784978 9.923347163150385 0 0 0
678 226 1 0.5897 0.042287939672353225 9.189918492971309 13.896391635133114 0 0 0
192 64 1 0.5897 0.9356656338158214 10.892574803992105 9.651716700303478 0 0 0
586 196 2 -1.1794 -0.7789287519774013 6.011742693143081 9.751880993411966 0 0 0
587 196 1 0.5897 -1.2840153902748943 5.618853898603617 10.463677756085964 0 0 0
618 206 1 0.5897 -6.936803807968541 5.837253540443863 11.506662192573865 1 0 0
534 178 1 0.5897 1.6569245725833763 6.858524556404137 11.607000282121819 0 0 0
190 64 2 -1.1794 0.4200408939264135 10.08636905619517 9.633679771340308 0 0 0
514 172 2 -1.1794 -1.2296558925995136 6.372414046603139 14.369857242577298 0 0 0
516 172 1 0.5897 -0.8004356971533442 7.226543821229563 14.320285735383896 0 0 0
797 266 1 0.5897 -7.060096342742896 10.708764178776907 16.707038866271652 1 0 0
695 232 1 0.5897 -3.0660242268718703 10.065006616984386 18.334921466123347 0 0 0
741 247 1 0.5897 -6.155367984224091 9.00841581847791 18.292460801975828 0 0 0
613 205 2 -1.1794 -7.635380676224257 6.3590159454691895 16.918149868234543 1 0 0
740 247 1 0.5897 -6.482511489774327 7.704023834549504 17.597349207019796 0 0 0
568 190 2 -1.1794 -1.5872886062912475 7.258831728137853 17.847922182251807 0 0 0
333 111 1 0.5897 -8.168953076956992 9.59882712671407 18.70776585061934 1 0 -1
570 190 1 0.5897 -0.8243172026442158 6.979791179576043 17.34198316582861 0 0 0
758 253 1 0.5897 -5.598863936003909 9.311493663919196 14.937444959887788 1 0 0
83 28 1 0.5897 -4.913999116465514 6.926015076083708 18.859068258635787 0 0 -1
569 190 1 0.5897 -1.760211641908544 6.529516374866315 18.443292453158215 0 0 0
749 250 1 0.5897 -3.232515191826743 9.683484646249017 15.279956604416167 0 0 0
798 266 1 0.5897 -8.198266387851024 9.756692525553298 16.40742263952722 1 0 0
512 171 1 0.5897 -4.759455270232854 7.2308414954839995 14.443521452213671 0 0 0
796 266 2 -1.1794 -7.9219377010145 10.4365077036771 17.021911800855527 1 0 0
706 236 2 -1.1794 -3.4281209131667323 8.956288586897788 16.82947992819573 0 0 0
707 236 1 0.5897 -4.302314745211336 8.769564773093428 17.17144235774979 0 0 0
708 236 1 0.5897 -2.8918647285486685 8.221759971458281 17.127947545838623 0 0 0
739 247 2 -1.1794 -5.747335475474523 8.254376168903313 17.867065650676167 0 0 0
548 183 1 0.5897 -3.8903620457103507 5.748598855853675 15.989524093511946 0 0 0
676 226 2 -1.1794 0.27917722755459184 8.679769032755171 14.670906134121179 0 0 0
805 269 2 -1.1794 -5.646550517706212 11.009480631539082 15.747692002535395 1 0 0
762 254 1 0.5897 -7.614971354738871 8.492534779292326 14.767216020984314 1 0 0
511 171 2 -1.1794 -4.022502759394523 6.625966570582832 14.527995886627155 0 0 0
615 205 1 0.5897 -7.689195487896091 5.924643255877524 16.066989749539268 1 0 0
614 205 1 0.5897 -7.721372466612761 5.649870624120629 17.555325203879093 1 0 0
731 244 1 0.5897 -1.7496863969940808 11.15078729049545 15.37610224587307 0 0 0
84 28 1 0.5897 -4.069475584554 5.699373951795271 18.587667519147672 0 0 -1
654 218 1 0.5897 -9.503452817967807 7.73952717212475 18.46749804625358 1 0 0
757 253 2 -1.1794 -5.886139094054872 8.547933119991782 14.436864485977889 1 0 0
515 172 1 0.5897 -2.161477986465356 6.5763530282860545 14.44803104335662 0 0 0
748 250 2 -1.1794 -2.8786200598933744 10.036335895902159 14.463622398265542 0 0 0
280 94 2 -1.1794 -3.4344162314414626 13.955059123362735 2.906557258403159 1 0 0
281 94 1 0.5897 -3.3286866751291653 13.552897470016612 3.7687114939944117 1 0 0
282 94 1 0.5897 -2.612169055504958 14.42152063974867 2.756846799432824 1 0 0
500 167 1 0.5897 -1.8890951115792463 16.119574983287848 0.39387271950301833 1 0 0
421 141 2 -1.1794 -2.269781217705373 16.267849129264405 4.630828091665887 1 0 0
313 105 2 -1.1794 -1.0669434695903912 15.077210269823793 1.6463551932573566 1 0 0
315 105 1 0.5897 -0.788706833448602 14.224329942764523 1.312750827798055 1 0 0
223 75 2 -1.1794 -0.5052903807718749 11.881642950974932 3.276789258250021 0 0 0
225 75 1 0.5897 -0.7420043321732295 12.65962226896566 3.7815437165655372 0 0 0
314 105 1 0.5897 -0.2764223655163889 15.452997515820007 2.0335960998722387 1 0 0
408 136 1 0.5897 4.1095668813067725 16.270739920393247 1.2319413842320905 0 0 0
184 62 2 -1.1794 5.2004510295226325 12.430575658989202 0.3500721619349048 0 0 0
369 123 1 0.5897 1.1634224837888683 16.623402606347774 3.6002565279147594 0 0 0
180 60 1 0.5897 1.9707677570116413 13.488226390829924 4.169220869500761 0 0 0
367 123 2 -1.1794 1.2364727925100487 16.14284664818903 2.775771479941109 0 0 0
406 136 2 -1.1794 3.6846970241308608 15.728744347727597 1.8967046213121792 0 0 0
252 84 1 0.5897 2.804531176889121 14.633675125706901 0.5146307561588721 0 0 0
407 136 1 0.5897 4.394644568509041 15.207057713973162 2.270844129108351 0 0 0
214 72 2 -1.1794 2.0626587261861653 12.572090022513013 2.530233921662381 0 0 0
216 72 1 0.5897 1.139134334617947 12.324223236962757 2.5714531855357703 0 0 0
368 123 1 0.5897 2.177056675849806 16.10428224696053 2.603104557442919 0 0 0
215 72 1 0.5897 2.1489605845889272 13.038950284554074 1.6990809327887788 0 0 0
423 141 1 0.5897 -2.534025398608354 16.679777926301085 3.8081985794636997 1 0 0
769 257 2 -1.1794 -0.8356762620914231 12.756308822465511 0.03842684438073921 1 0 1
771 257 1 0.5897 -0.3300263351795949 11.954867014360525 0.17329155485201828 1 0 1
770 257 1 0.5897 -1.7303390766272753 12.519325243467817 0.28223415559617915 1 0 1
404 135 1 0.5897 -1.8237651432141324 15.846386682468442 7.799814456016464 0 0 0
326 109 1 0.5897 -2.8560409421827013 11.894459976182644 5.648224114333084 1 0 0
340 114 2 -1.1794 3.7581964379302306 16.20539709438195 5.392458291216878 0 0 0
327 109 1 0.5897 -3.8878918637527056 12.992732268327078 5.791824932491653 1 0 0
405 135 1 0.5897 -2.696899734410342 16.52173465551202 8.835563535304486 0 0 0
211 71 2 -1.1794 -0.4119988932427807 12.465019827186602 7.420396020050004 0 0 0
227 76 1 0.5897 1.622130697384108 12.071383592272705 7.43144396045793 0 0 0
213 71 1 0.5897 -0.5782325656701643 13.144801669167322 6.767290256895584 0 0 0
212 71 1 0.5897 -0.7587887488649048 12.826040371967164 8.236120160878508 0 0 0
178 60 2 -1.1794 2.1428998176680585 13.929926627765168 5.000693612547755 0 0 0
232 78 2 -1.1794 2.00342532565141 14.626139389649248 8.195931129282771 0 0 0
175 59 2 -1.1794 -0.6920997814964172 13.978061915620296 5.081156141412519 0 0 0
234 78 1 0.5897 1.4700134526412327 15.027661409826962 7.510035040843674 0 0 0
370 124 2 -1.1794 0.006668520569971026 16.305054874481044 7.04896404879424 0 0 0
179 60 1 0.5897 2.277455228880772 13.218607600482875 5.626957071394593 0 0 0
277 93 2 -1.1794 -4.396152505075845 13.951491849437248 7.157235228864324 1 0 0
278 93 1 0.5897 -3.917560060980705 14.737403924733318 7.4207544256331195 1 0 0
233 78 1 0.5897 2.8051191873963743 14.355376237125677 7.748794598240734 0 0 0
422 141 1 0.5897 -2.0078360875892782 16.99805058409894 5.191465913293149 1 0 0
403 135 2 -1.1794 -2.6112266239135162 15.715003252603527 8.327681888281628 0 0 0
226 76 2 -1.1794 2.2523724853862372 11.77569149588794 6.774682620123658 0 0 0
267 89 1 0.5897 -3.887921542305903 12.71744534711248 8.629322838371454 1 0 0
279 93 1 0.5897 -5.317403110062905 14.17765214851518 7.28430039891017 1 0 0
341 114 1 0.5897 3.3885352345629407 15.32960592434341 5.280465041686733 0 0 0
1004 335 1 0.5897 -5.287149257342615 16.844573382056296 8.903561633657075 1 0 0
325 109 2 -1.1794 -3.442943467638165 12.453033087932512 5.138565893796153 1 0 0
177 59 1 0.5897 0.20225345370883474 14.31888717107348 5.075372542781245 0 0 0
372 124 1 0.5897 0.25346785330050103 16.727600955521943 6.226327131470017 0 0 0
756 252 1 0.5897 -1.6408702844995733 14.445004812538922 9.287266295783112 0 0 0
690 230 1 0.5897 1.8716929837148193 13.196049746879957 9.156223770611522 0 0 0
371 124 1 0.5897 0.21061593058276395 16.953782866746124 7.722496253502695 0 0 0
462 154 1 0.5897 -4.957541883016212 16.98428368848355 6.567845840893633 1 0 0
265 89 2 -1.1794 -3.934404106429684 12.385344180506554 9.52582607571238 1 0 0
266 89 1 0.5897 -3.403654108818346 11.588896102407272 9.514668631893477 1 0 0
176 59 1 0.5897 -1.235839335181117 14.727113398923095 4.837317229202495 0 0 0
425 142 1 0.5897 -4.015687740610117 16.20940347172445 4.879134394129644 1 0 0
725 242 1 0.5897 0.5709813176381022 11.41103186229289 13.566943374525504 0 0 0
728 243 1 0.5897 -3.3840351484965145 12.006212449426831 12.29007764750455 0 0 0
831 277 1 0.5897 -7.7800371322806186 12.316843746357153 14.002792552379487 1 0 0
718 240 2 -1.1794 -1.626743525633291 12.380315990610871 11.951977183564551 0 0 0
912 304 1 0.5897 0.8833631697076649 15.05383958609799 11.730417160649514 0 0 0
720 240 1 0.5897 -1.4772452844627457 12.879418527638622 12.754861982361318 0 0 0
680 227 1 0.5897 -2.9412150114044255 14.238001444621997 14.335153740924945 0 0 0
871 291 2 -1.1794 -2.0607227821929683 16.42767841875915 12.161302909267107 0 0 0
925 309 2 -1.1794 -5.779226691916666 16.233222664292377 14.344467334882136 1 0 0
784 262 2 -1.1794 -6.438586316427452 14.115422570781362 11.892927400620556 1 0 0
729 243 1 0.5897 -4.263503108410041 12.644584556379643 13.343778910408817 0 0 0
911 304 1 0.5897 -0.39204368689456626 15.869046261838468 11.714254794208927 0 0 0
910 304 2 -1.1794 0.3723227000423166 15.649055180700552 11.181978118895831 0 0 0
1005 335 1 0.5897 -4.84771367138865 15.964965755273218 10.054715816996108 1 0 0
727 243 2 -1.1794 -4.209335336287264 11.88797701642522 12.760082420769464 0 0 0
719 240 1 0.5897 -1.3545695213664035 12.969914463965033 11.248756540918075 0 0 0
786 262 1 0.5897 -6.7379659512844094 13.74135967633335 12.721544759418798 1 0 0
817 273 2 -1.1794 -3.8616556962148825 14.728588333607386 11.12968370466475 1 0 0
818 273 1 0.5897 -4.683054730635485 14.51415834203933 11.57167444824758 1 0 0
819 273 1 0.5897 -3.623046158447486 13.926760911598496 10.66472219516466 1 0 0
873 291 1 0.5897 -2.6564637071369823 15.717913653830516 11.921572418151941 0 0 0
688 230 2 -1.1794 2.0040324534085787 12.495942668838714 9.795447874706031 0 0 0
755 252 1 0.5897 -0.33381026423680993 14.376018927592046 10.047795573012062 0 0 0
773 258 1 0.5897 -6.721879240330555 12.886273440551616 10.596342076888428 1 0 0
682 228 2 -1.1794 -1.10836900259675 13.980623904261284 14.017317293758627 0 0 0
846 282 1 0.5897 0.2711334240219614 16.852795158896747 14.134213300849883 0 0 0
785 262 1 0.5897 -7.064476862628485 14.814814179117361 11.70513263001855 1 0 0
754 252 2 -1.1794 -1.0478582148478952 13.83002695328651 9.718938277636544 0 0 0
1003 335 2 -1.1794 -5.5709346072287875 16.516673421480917 9.75684952052484 1 0 0
684 228 1 0.5897 -0.5377659418482832 14.707667434599106 14.266267980137684 0 0 0
829 277 2 -1.1794 -7.059876142412058 12.869177934466173 14.306784258323765 1 0 0
774 258 1 0.5897 -5.699077672750802 12.291206691963653 9.652408915284546 1 0 0
737 246 1 0.5897 -1.0974164389224894 15.237631646487829 18.27400121482522 0 0 0
251 84 1 0.5897 -5.174335639731408 14.506522659103673 18.873791330188475 0 0 -1
717 239 1 0.5897 -2.8235513084297184 12.494146052123329 16.72585136610381 0 0 0
783 261 1 0.5897 -8.616277360605086 14.365484551594392 16.91600861363461 1 0 0
185 62 1 0.5897 -1.5870358621103344 13.173825145611113 18.827314954189603 0 0 -1
681 227 1 0.5897 -3.937326532967724 13.70176992273376 15.341002124644811 0 0 0
830 277 1 0.5897 -7.420525414191952 13.34288980643498 15.056142069488645 1 0 0
806 269 1 0.5897 -6.073087492666655 11.688946575816535 15.225536726064837 1 0 0
715 239 2 -1.1794 -3.7378188202487053 12.699940997716947 16.92016475041654 0 0 0
716 239 1 0.5897 -3.7130737659733892 13.108801190874972 17.785197584448213 0 0 0
874 292 2 -1.1794 -3.430636990789278 16.219052713746592 16.9052546707657 0 0 0
907 303 2 -1.1794 -6.105115597717141 15.807435062663135 17.908725278040947 0 0 0
807 269 1 0.5897 -4.974566636835142 11.475522325338671 16.245032655435516 1 0 0
876 292 1 0.5897 -2.7975843062282113 15.507536525970528 17.000828839988422 0 0 0
736 246 2 -1.1794 -1.2860046673093466 14.505203056364008 17.687403242577368 0 0 0
909 303 1 0.5897 -5.272803265859002 15.802586937057914 17.436268624650317 0 0 0
781 261 2 -1.1794 -7.783272482469146 13.91741174634043 16.769884568832893 1 0 0
782 261 1 0.5897 -7.671701970061116 13.360686126940262 17.540499010086442 1 0 0
730 244 2 -1.1794 -1.289312260316195 11.839372111989029 15.85572744417752 0 0 0
908 303 1 0.5897 -6.659029244035866 15.194502200944575 17.425392166586853 0 0 0
844 282 2 -1.1794 0.526875645748655 16.14197677133663 14.722102859703641 0 0 0
875 292 1 0.5897 -3.180445382634126 16.655295763158627 16.090833455611836 0 0 0
683 228 1 0.5897 -1.024430486745378 13.352931652868154 14.735110803406364 0 0 0