#include		in.partitions
include		in.temp
variable        temperature equal 262.86
variable	tempDamp equal 100.0
include		in.pressure
variable        pressure equal 7125.0
variable        pressureDamp equal 1000.0 # This is 1 ps
include		in.seed
variable        seed equal 745823

units		real
atom_style	full
read_restart	restart.lmp.${pid}
read_restart	restart.lmp.1
Reading restart file ...
  restart file = 30 Jul 2021, LAMMPS = 30 Jul 2021
  restoring atom style full from restart
  orthogonal box = (0.55648415 1.7469961 0.67890936) to (17.651088 21.882182 21.534286)
  2 by 4 by 4 MPI processor grid
  restoring pair style lj/cut/tip4p/long/omp from restart
  restoring bond style harmonic/omp from restart
  restoring angle style harmonic/omp from restart
  864 atoms
  576 bonds
  288 angles
Finding 1-2 1-3 1-4 neighbors ...
  special bond factors lj:    0        0        0       
  special bond factors coul:  0        0        0       
     2 = max # of 1-2 neighbors
     1 = max # of 1-3 neighbors
     1 = max # of 1-4 neighbors
     2 = max # of special neighbors
  special bonds CPU = 0.003 seconds
  read_restart CPU = 0.011 seconds
include 	in.setup
variable	out_freq equal 1000
variable	out_freq2 equal 10000
variable	out_freq3 equal 1000

timestep	2.0

neigh_modify    delay 7 every 1

include		in.tip4p
# This is TIP4P/Ice

# create groups ###
group ox type 2
288 atoms in group ox
group hy type 1
576 atoms in group hy

# set charges - beside manually ###
set group ox charge -1.1794
Setting atom values ...
  288 settings made for charge
set group hy charge 0.5897
Setting atom values ...
  576 settings made for charge

# ### TIP3P Potential Parameters ###
pair_style lj/cut/tip4p/long/omp 2 1 1 1 0.1577 8.5
pair_coeff 1 1*2 0.000 0.000
pair_coeff 2 2 0.21084 3.1668
bond_style  harmonic
bond_coeff  1 450 0.9572
angle_style harmonic
angle_coeff 1 55 104.52
kspace_style pppm/tip4p/omp 1.0e-5
pair_modify tail yes

thermo          ${out_freq}
thermo          1000
thermo_style    custom step temp pe etotal epair emol press lx ly lz vol pxx pyy pzz pxy pxz pyz enthalpy

restart 	${out_freq3} restart.lmp.${pid} restart2.lmp.${pid}
restart 	1000 restart.lmp.${pid} restart2.lmp.${pid}
restart 	1000 restart.lmp.1 restart2.lmp.${pid}
restart 	1000 restart.lmp.1 restart2.lmp.1


include         in.dump
dump            myDump all atom ${out_freq2} dump.water.${pid}
dump            myDump all atom 10000 dump.water.${pid}
dump            myDump all atom 10000 dump.water.1
dump            myDump2 all dcd ${out_freq2} dump.dcd
dump            myDump2 all dcd 10000 dump.dcd
dump_modify     myDump append yes
dump_modify     myDump2 append yes


variable natoms 	equal  "count(all)"                        # NUMBER ATOMS
variable H      	equal  "enthalpy/v_natoms"                 # ENTHALPY-per-atom
variable Vol      	equal  "vol/v_natoms"                 # volume-per-atom
fix AVG all 		ave/time ${out_freq} 1 ${out_freq} v_Vol v_H file vol_enthalpy.dat
fix AVG all 		ave/time 1000 1 ${out_freq} v_Vol v_H file vol_enthalpy.dat
fix AVG all 		ave/time 1000 1 1000 v_Vol v_H file vol_enthalpy.dat


timer           timeout 23:50:00 every 1000
New timer settings: style=normal  mode=nosync  timeout=23:50:00

fix 		1 all shake 1e-6 200 0 b 1 a 1
       0 = # of size 2 clusters
       0 = # of size 3 clusters
       0 = # of size 4 clusters
     288 = # of frozen angles
  find clusters CPU = 0.001 seconds
fix             2 all nph iso ${pressure} ${pressure} ${pressureDamp}
fix             2 all nph iso 7125 ${pressure} ${pressureDamp}
fix             2 all nph iso 7125 7125 ${pressureDamp}
fix             2 all nph iso 7125 7125 1000
fix             3 all temp/csvr ${temperature} ${temperature} ${tempDamp} ${seed}
fix             3 all temp/csvr 262.86 ${temperature} ${tempDamp} ${seed}
fix             3 all temp/csvr 262.86 262.86 ${tempDamp} ${seed}
fix             3 all temp/csvr 262.86 262.86 100 ${seed}
fix             3 all temp/csvr 262.86 262.86 100 745823

run             250000
PPPM initialization ...
  extracting TIP4P info from pair style
  using 12-bit tables for long-range coulomb (../kspace.cpp:340)
  G vector (1/distance) = 0.37368164
  grid = 24 24 24
  stencil order = 5
  estimated absolute RMS force accuracy = 0.0032278097
  estimated relative force accuracy = 9.720453e-06
  using double precision FFTW3
  3d grid and FFT values/proc = 3549 432
Last active /omp style is kspace_style pppm/tip4p/omp
Neighbor list info ...
  update every 1 steps, delay 7 steps, check yes
  max neighbors/atom: 2000, page size: 100000
  master list distance cutoff = 10.8154
  ghost atom cutoff = 10.8154
  binsize = 5.4077, bins = 4 4 4
  1 neighbor lists, perpetual/occasional/extra = 1 0 0
  (1) pair lj/cut/tip4p/long/omp, perpetual
      attributes: half, newton on, omp
      pair build: half/bin/newton/omp
      stencil: half/bin/3d
      bin: standard
Per MPI rank memory allocation (min/avg/max) = 10.19 | 10.20 | 10.20 Mbytes
Step Temp PotEng TotEng E_pair E_mol Press Lx Ly Lz Volume Pxx Pyy Pzz Pxy Pxz Pyz Enthalpy 
20750000    271.29327   -3833.9631   -3368.9757   -3833.9631            0    5525.2036    17.094604    20.135186    20.855377    7178.4839    5202.5339    5196.4964    6176.5805   -703.91789   -1198.0647    943.82468   -2790.5376 
20751000    260.14085   -3866.5099   -3420.6374   -3866.5099            0    4631.0816    17.136315    20.184315    20.906264    7231.1583     4523.816     6070.759    3298.6697   -394.02702    1141.1342     703.3751    -2932.248 
20752000    261.23781   -3883.3037    -3435.551   -3883.3037            0     7899.251    17.115662    20.159989    20.881067    7205.0444    7229.5399    7616.5524    8851.6609   -294.52153      -290.25   -695.32123   -2605.5121 
20753000    268.71311   -3886.0241    -3425.459   -3886.0241            0    7765.5542    17.087415    20.126718    20.846607    7169.4312    8292.8631    8188.0796    6815.7198    1154.5951    1705.8449   -511.41139    -2613.502 
20754000    258.84283   -3925.3024   -3481.6547   -3925.3024            0    5628.1775    17.115006    20.159216    20.880267    7204.2161    7010.9125    4709.2098      5164.41    309.79063   -374.04919   -769.96298    -2890.324 
20755000    250.21791   -3834.6777   -3405.8128   -3834.6777            0    4341.7702     17.14196    20.190965    20.913151    7238.3076    5003.4744    4856.9563    3164.8798   -601.91132    1504.4241   -861.89878   -2947.4812 
20756000     274.0658   -3878.9879   -3409.2485   -3878.9879            0    5154.9593    17.080714    20.118825    20.838431    7160.9998    5902.6584    6632.9345     2929.285    2117.7254    811.63565   -394.28804    -2870.886 
20757000    259.06407   -3866.0992   -3422.0722   -3866.0992            0    5956.0366    17.101881    20.143756    20.864254    7187.6545    6736.5414    5886.4966    5245.0718     31.37595    278.63865   -1050.4209   -2797.7332 
20758000    269.51968   -3852.0967   -3390.1492   -3852.0967            0    5161.6799    17.117558    20.162222     20.88338    7207.4393    5475.9896    5154.2248    4854.8252     1511.418    885.40174    92.765906    -2847.589 
20759000     266.9383   -3833.8139   -3376.2907   -3833.8139            0    7670.7032     17.10652    20.149221    20.869914    7193.5055    9127.9411    6363.9275    7520.2412   -37.546461   -1250.2882    796.81933    -2571.558 
20760000    268.59775   -3867.1982   -3406.8308   -3867.1982            0    5152.9981    17.113311     20.15722      20.8782    7202.0765    6240.4509    4880.4038    4338.1395   -450.99637   -1491.0876   -316.31402   -2865.5862 
20761000    272.39613   -3874.9381   -3408.0605   -3874.9381            0    9317.5537    17.014144    20.040414    20.757215    7077.5976     9412.414    8305.5895    10234.658    1239.5045   -695.77245    399.46665   -2446.3072 
20762000    274.33817    -3822.969   -3352.7628    -3822.969            0    6329.1434    17.085331    20.124263    20.844064    7166.8078    7124.2966    3935.3886     7927.745   -182.24961   -984.46696   -586.40167   -2691.2373 
20763000    265.84715   -3822.2432   -3366.5903   -3822.2432            0    6857.9566    17.054986    20.088521    20.807043    7128.6894    5772.7663    7709.7022    7091.4014   -2730.9237    609.12251   -581.28663   -2653.6054 
20764000    260.39276   -3885.4832   -3439.1789   -3885.4832            0      6469.97    17.070058    20.106274    20.825431     7147.606     8899.077    5084.4651     5426.368    1133.1233    -376.7454   -1070.7696    -2764.746 
20765000    270.23765   -3863.8174   -3400.6393   -3863.8174            0    7511.4202    17.050021    20.082672    20.800986    7122.4651    9698.2816    7606.7303    5229.2487   -134.59182   -158.34315   -450.45995   -2620.3992 
20766000    270.18518   -3866.4409   -3403.3527   -3866.4409            0    6846.2906     17.03983    20.070668    20.788552    7109.7009     7519.393    7086.7651    5932.7136    951.59689   -654.96962   -735.19578   -2693.4766 
20767000    257.84976   -3829.8596    -3387.914   -3829.8596            0    8730.8589    17.062241    20.097066    20.815894    7137.7905    10488.429    9281.4447    6422.7027   -453.06114   -598.24099    762.28137   -2479.0547 
20768000    253.44599   -3856.2806   -3421.8828   -3856.2806            0    8276.3971    17.042954    20.074349    20.792364    7113.6127    9000.2692    7017.2282     8811.694     845.1068    135.37421   -517.75563   -2563.2501 
20769000    264.93446   -3838.1655   -3384.0769   -3838.1655            0    6883.2716    17.057157    20.091078    20.809692    7131.4121    7434.7257    5986.4395    7228.6497   -217.33481    -247.1513   -467.14381   -2668.1868 
20770000    264.59193   -3887.3065   -3433.8049   -3887.3065            0    6383.8429     17.04863    20.081034    20.799288    7120.7219    6204.1396       6164.5    6782.8889   -1852.6647    1826.4563   -1269.7902   -2770.8529 
20771000    252.54034   -3872.5397   -3439.6942   -3872.5397            0     9660.965    17.029808    20.058865    20.776326    7097.1643    9717.4365    10807.264    8458.1947   -66.006719    642.24721    1282.7927   -2439.7373 
20772000     270.6527   -3892.4721   -3428.5826   -3892.4721            0    8450.4289    17.120098    20.165214     20.88648    7210.6487    9481.4262     8118.804    7751.0565   -288.62874    438.18935     705.8547   -2539.9362 
20773000    241.36314   -3877.7593   -3464.0712   -3877.7593            0    5742.6065    17.207089    20.267679    20.992609    7321.1253    3797.8759    7135.2176    6294.7261    997.40645    1408.2453   -999.54111   -2850.9267 
20774000    280.12881   -3851.3517   -3371.2205   -3851.3517            0    7125.8012    17.172526    20.226967    20.950441    7277.0963    7409.1819    7686.3228    6281.8987    -494.0639   -277.77342    1552.0369   -2614.9665 
20775000    248.59637   -3839.0093   -3412.9236   -3839.0093            0    6054.7069    17.165464    20.218649    20.941826    7268.1221    6643.4966    6293.5178    5227.1063   -372.03968   -25.484337   -186.54368   -2771.1362 
20776000     273.3587   -3835.4556   -3366.9282   -3835.4556            0    8790.2205    17.024507    20.052621    20.769859    7090.5387    10199.278    8418.9351    7752.4484   -1155.0083   -637.08207   -1303.9274    -2457.947 
20777000    279.91549   -3874.6568   -3394.8912   -3874.6568            0    6262.7954    17.109027    20.152174    20.872974    7196.6695     5232.732    5674.3031    7881.3512    435.17063    3370.4742   -454.41038    -2737.573 
20778000    258.18782   -3877.9983   -3435.4732   -3877.9983            0    6684.1267    17.142782    20.191932    20.914154    7239.3482    6457.9315    6477.2243    7117.2244    288.92731    774.76131    851.28139   -2729.7733 
20779000    254.35453   -3893.2082   -3457.2533   -3893.2082            0    8380.7974    17.080663    20.118765    20.838369    7160.9356    8559.4562    7828.7977    8754.1383   -1344.2256    75.661956    1188.5972   -2582.0055 
20780000    272.15331   -3870.5713   -3404.1099   -3870.5713            0    5529.8228    17.126067    20.172245    20.893762    7218.1937    5924.2896     6107.472    4557.7069    429.59849    1225.7204    1136.7449   -2821.9857 
20781000     267.4827   -3846.6986   -3388.2424   -3846.6986            0    6142.6897     17.15932    20.211412     20.93433    7260.3206    5748.4367    7973.7852    4705.8472    378.80975    1479.5623    -199.1513   -2737.8278 
20782000    266.65508   -3870.4093   -3413.3716   -3870.4093            0    5630.2493    17.129806    20.176648    20.898323    7222.9214    4570.5348    5649.1498    6671.0632   -987.72892     965.6978   -44.109113   -2820.2874 
20783000    266.92478   -3862.2078   -3404.7079   -3862.2078            0    6827.6836    17.045638     20.07751    20.795639    7116.9744    8101.8839    7409.5065    4971.6602    663.85192    1060.3659    601.10789   -2696.0368 
20784000     260.2633   -3892.6305   -3446.5481   -3892.6305            0     7023.087    17.050327    20.083033    20.801359    7122.8488    6888.2021    6685.6638     7495.395    466.33044   -912.06485    194.13416   -2716.9937 
20785000    263.56104   -3914.2621   -3462.5275   -3914.2621            0     6586.733    17.027163    20.055749    20.773099    7093.8573    8958.1064    6988.2827    3813.8098    53.135392    1206.4514   -239.34654   -2781.0863 
20786000    262.64447   -3907.9555   -3457.7919   -3907.9555            0    7766.3674    17.044164    20.075774     20.79384    7115.1277    8006.7309    7773.2282     7519.143    517.39138    1430.7395    893.43754   -2651.9005 
20787000     263.2011   -3881.0293   -3429.9116   -3881.0293            0    6310.5306     17.08522    20.124132    20.843928    7166.6679    6317.2326    6877.8399    5736.5192   -1787.9641   -327.11125    662.15594   -2770.3444 
20788000    264.02941   -3880.6445   -3428.1071   -3880.6445            0    9069.9021    17.046895     20.07899    20.797172     7118.548    11178.853    8975.6648    7055.1889   -859.92104    1461.9157   -821.13497   -2486.4996 
20789000    259.54346   -3862.3226    -3417.474   -3862.3226            0    7143.0142    17.065066    20.100394    20.819341     7141.337    8068.7136    7114.4117    6245.9173    36.555506     177.1475    46.817232   -2673.5357 
20790000    261.52374   -3856.2491   -3408.0063   -3856.2491            0    8949.5933    17.061534    20.096233    20.815032    7136.9033    10063.362    9388.1151    7397.3032    149.93262   -575.98605   -2178.8851   -2476.4932 
20791000    279.54984   -3908.3496   -3429.2107   -3908.3496            0    8102.6092    17.049824    20.082441    20.800745    7122.2185     10520.76    7717.1235    6069.9444    167.80062     397.8887    154.48023   -2587.5907 
20792000    252.35272   -3858.5772   -3426.0533   -3858.5772            0    7273.2146    17.078147    20.115802      20.8353    7157.7718    7477.7672     7108.698    7233.1786    1104.1114     735.0731    146.58453   -2666.8114 
20793000    264.16496    -3863.509   -3410.7393    -3863.509            0    6432.9553    17.121359    20.166699    20.888018    7212.2416    5284.6246    8048.6123    5965.6291    502.40276    100.24997   -313.50095   -2734.1009 
20794000    265.13484   -3847.0051   -3392.5731   -3847.0051            0     7433.399    17.073243    20.110024    20.829316    7151.6066    8019.9971    6676.0834    7604.1167    -835.4834    1301.4463    241.60909   -2617.2781 
20795000    253.48821   -3928.3905   -3493.9204   -3928.3905            0    5305.0092     17.12656    20.172826    20.894363    7218.8168    6377.8479    4452.3207    5084.8591    1671.5523    1995.2584    735.44838   -2935.4141 
20796000    262.55692   -3864.5501   -3414.5365   -3864.5501            0    7413.2035    17.097645    20.138768    20.859087    7182.3158    6518.1917    7961.9146    7759.5043   -832.98177     395.1416    53.068992   -2638.0279 
20797000    254.42501   -3864.3469   -3428.2711   -3864.3469            0    6638.9223    17.059235    20.093525    20.812227    7134.0186    5124.2128    7537.4012    7255.1529    267.80378    911.31731    284.02562   -2737.5421 
20798000    272.99162   -3889.2771   -3421.3788   -3889.2771            0    5220.5457    17.094682    20.135277    20.855472    7178.5819     5492.214    4795.6931    5373.7299     37.67359   -1187.9172     438.3574   -2874.8281 
20799000    268.43991   -3834.7012   -3374.6043   -3834.7012            0    8470.1787    17.023836     20.05183     20.76904    7089.7004    8236.2901    8846.7581    8327.4879    2321.4186   -542.73266   -1394.4179   -2498.8217 
20800000    260.93778   -3864.2139   -3416.9754   -3864.2139            0    7287.5599    17.152407    20.203269    20.925896    7251.5489    6154.3013    6349.2538    9359.1246   -51.625611    154.93726   -585.06859   -2646.2693 
20801000    274.97347    -3841.129   -3369.8339    -3841.129            0    8666.3288    17.085101    20.123992    20.843784     7166.519     9050.579    8304.1091    8644.2983    120.83268    1966.6956      410.907    -2464.061 
20802000    268.20764   -3848.1146   -3388.4158   -3848.1146            0    9050.7475    17.032472    20.062002    20.779575    7100.4946    5876.9011    10653.708    10621.633   -632.83253   -61.622522    160.97284   -2451.1799 
20803000     262.3879   -3875.8499   -3426.1261   -3875.8499            0    7249.3222    17.066494    20.102076    20.821083    7143.1295    6236.7574    4972.7575    10538.452   -1833.7298    1442.7013   -937.40172   -2670.9263 
20804000    279.08862   -3855.7108   -3377.3625   -3855.7108            0    6896.6778    17.087195    20.126458    20.846338    7169.1539    4596.3815    7555.1008    8538.5511    58.073225    1409.3837    733.50448    -2656.282 
20805000    271.99377   -3862.5113   -3396.3233   -3862.5113            0    7203.2852    17.064661    20.099917    20.818847    7140.8283    6038.8449    7794.4593    7776.5514    207.22455    878.20085   -525.44207   -2646.1613 
20806000    279.49567    -3843.426     -3364.38    -3843.426            0    5535.5638    17.137676    20.185919    20.907925    7232.8821    5133.4254     4417.158    7056.1081    164.50365    -285.2019    -810.2667   -2780.4656 
20807000    261.87509    -3846.062    -3397.217    -3846.062            0    7639.1852      17.0693    20.105381    20.824507    7146.6539    7171.4893    7636.7435    8109.3228   -807.52661   -1803.2801   -755.69042   -2601.0106 
20808000    262.78842   -3857.6225   -3407.2121   -3857.6225            0    6127.5677    17.129249    20.175993    20.897644    7222.2174    4886.9906    7385.1306    6110.5818     1420.986    78.331474   -648.23385   -2761.8038 
20809000    266.58995   -3846.2752   -3389.3491   -3846.2752            0    7229.0828    17.063043    20.098011    20.816872     7138.797    6986.7718    7638.2292    7062.2474   -1124.7045    8.1259954    1567.3606   -2636.7146 
20810000    261.45592   -3882.4187   -3434.2922   -3882.4187            0    7396.0429    17.053494    20.086763    20.805222    7126.8182    7370.6152    6541.2719    8276.2415     2619.368    1699.3551   -185.44084   -2665.5672 
20811000    269.10128   -3867.8626   -3406.6322   -3867.8626            0    6998.6709    17.105299    20.147783    20.868425    7191.9658    5931.8478    6416.8063    8647.3585    262.03469   -598.03489   -512.36357   -2672.5595 
20812000    260.09993   -3854.5367   -3408.7344   -3854.5367            0    6978.6151    17.137902    20.186185    20.908201    7233.1682    7586.6418    6365.9355     6983.268   -254.83768    519.52863    973.75237   -2672.5718 
20813000    270.59853   -3832.1712   -3368.3746   -3832.1712            0     7304.314    17.116821    20.161354    20.882482    7206.5089    7000.3465    8167.9612    6744.6344    1282.2984   -514.35424      532.814   -2600.6946 
20814000    265.38167   -3873.0672   -3418.2122   -3873.0672            0    6321.8553    17.173123    20.227671     20.95117    7277.8559    6809.0678    6692.1259    5464.3722     576.6646   -281.06364    295.19584     -2747.21 
20815000    249.07797   -3889.5174   -3462.6063   -3889.5174            0     6392.261    17.175444    20.230404    20.954001    7280.8064    5655.3222    6079.7176    7441.7434   -882.69692    484.25634   -1338.4147   -2783.8563 
20816000    270.91869    -3843.397   -3379.0516    -3843.397            0    7137.9766      17.1086    20.151671    20.872452    7196.1303    6469.6445    8069.1985    6875.0869    1364.0422     883.0214    -409.1483    -2629.934 
20817000    249.40571   -3867.2463   -3439.7734   -3867.2463            0    8117.2657    17.106841    20.149599    20.870306    7193.9107    9141.5229    6528.4122     8681.862   -929.62553    349.91709   -1496.3097   -2588.1439 
20818000    260.74577   -3874.4303    -3427.521   -3874.4303            0    6272.6758    17.114786    20.158958    20.879999    7203.9392    4967.7085    5932.1157    7918.2031   -481.15977   -128.26823    766.47709   -2768.5007 
20819000    257.12272   -3920.0543   -3479.3547   -3920.0543            0    5216.8552    17.167581    20.221142    20.944408    7270.8112    5272.2545     5764.358     4613.953    1055.4368   -398.64296   -395.24837   -2926.1733 
20820000    265.80413   -3867.5335   -3411.9543   -3867.5335            0    6925.8903    17.145848    20.195544    20.917894    7243.2332    8495.8085    7184.9569    5096.9054    85.868033   -257.88638   -1278.2161    -2680.337 
20821000    260.55349   -3857.1227   -3410.5429   -3857.1227            0    6500.2091    17.092534    20.132747    20.852851    7175.8759    7463.9442    5688.8076    6347.8755   -700.56042   -368.15732   -858.53678   -2730.2779 
20822000    282.72723   -3827.3279   -3342.7431   -3827.3279            0    6757.1737    17.144287    20.193706     20.91599    7241.2557    9756.4087      5358.66    5156.4522   -575.27213   -449.57578    319.75229   -2629.1431 
20823000    249.82154   -3868.6356     -3440.45   -3868.6356            0    5864.9679    17.079848    20.117805    20.837375    7159.9105    7051.9739    3277.9196    7265.0102   -968.10685    907.84008    512.43809   -2828.0303 
20824000    268.27899   -3879.7098   -3419.8888   -3879.7098            0    7596.8373    17.026314    20.054749    20.772064    7092.7972    8486.8341    6579.0404    7724.6375   -1855.5615   -369.85203   -418.92058   -2634.0631 
20825000    264.91378   -3854.1445   -3400.0913   -3854.1445            0    7848.4357    17.019156    20.046318    20.763331    7083.8548    8612.6995     6849.685    8082.9227    268.05052    -1194.469    1158.0555   -2589.2635 
20826000    262.13812   -3848.6772   -3399.3814   -3848.6772            0    8426.6759    17.021577    20.049169    20.766284    7086.8777     8466.997     8951.114    7861.9168    -890.8612    1202.0943   -1433.8051   -2528.4437 
20827000    246.44864   -3835.4644   -3413.0599   -3835.4644            0    11077.481    17.012579    20.038571    20.755307    7075.6455    8371.7153    11020.204    13840.523    -645.0912    -268.6529    67.682598   -2269.9632 
20828000    281.38379   -3835.7142   -3353.4321   -3835.7142            0    7066.9219    17.069197     20.10526    20.824381    7146.5243     7557.315     6101.597    7541.8538    211.69206    5.6363789   -21.595773    -2616.884 
20829000    262.13178   -3888.6706   -3439.3857   -3888.6706            0    7205.7771    17.147952    20.198022    20.920461    7245.9006    7759.0685    7327.5293    6530.7333    1391.6575    631.76368   -1193.4081   -2677.9222 
20830000    275.90269   -3841.1394   -3368.2517   -3841.1394            0    7008.8804    17.157598    20.209384    20.932229    7258.1351    5750.1904    9101.2702    6175.1807   -1837.6392   -262.03583    681.02993   -2626.3445 
20831000    263.56213   -3852.1532   -3400.4167   -3852.1532            0    5548.0805    17.132333    20.179625    20.901406    7226.1193    5798.8533    5589.6622    5255.7259   -833.99551    186.38821    71.865048   -2815.7293 
20832000    261.64084   -3877.0083   -3428.5648   -3877.0083            0    5923.3585    17.147308    20.197264    20.919676    7245.0841    2966.4389    8284.0886    6519.5479   -959.49456    300.43946    578.55646   -2802.6902 
20833000    255.53617   -3864.7655   -3426.7852   -3864.7655            0    6841.9806     17.10897    20.152107    20.872904    7196.5976    4666.9249    8318.2953    7540.7217    388.33025   -967.19758   -252.04492   -2708.6852 
20834000    267.04366   -3820.9303   -3363.2266   -3820.9303            0    7227.7874    17.109792    20.153075    20.873907    7197.6349    7575.2028    6120.7371    7987.4222   -1862.7839   -565.50927   -1001.2707   -2604.5249 
20835000    265.02376   -3848.2127   -3393.9711   -3848.2127            0    9490.0413    16.982254    20.002852    20.718311     7037.876    9916.4512    10434.416    8119.2569   -56.288161     -214.957   -1150.7852   -2419.9113 
20836000    265.07093   -3854.9768   -3400.6543   -3854.9768            0    5452.6805    17.131407    20.178534    20.900276     7224.947    5367.2982    4769.4182    6221.3252  -0.90934606    287.11851    286.16133   -2826.1138 
20837000    264.73033   -3873.7099   -3419.9712   -3873.7099            0    7760.1937    17.048939    20.081398    20.799666    7121.1092    8432.6684     6442.046    8405.8667   -1098.4685   -1128.7317   -883.49784   -2614.0435 
20838000    281.36756   -3869.5092   -3387.2548   -3869.5092            0    7650.1146    17.115063    20.159284    20.880337    7204.2888    7467.5351    7826.7748    7656.0338   -544.60489    896.00498   -725.12052    -2583.479 
20839000    251.86994   -3873.3147   -3441.6183   -3873.3147            0    6703.8951    17.053848     20.08718    20.805654     7127.262    6848.8367    6652.5831    6610.2654   -483.50006     66.32043   -675.98625   -2744.7899 
20840000    261.83883   -3850.5577   -3401.7749   -3850.5577            0    8547.6887     17.07955    20.117454    20.837011    7159.5355    10498.201    7400.6339    7744.2308   -1015.0894   -1022.3469   -1064.4557   -2509.2724 
20841000    247.93103   -3861.2737   -3436.3284   -3861.2737            0    6943.0574    17.132707    20.180065    20.901862    7226.5918    7577.2023    6337.2883    6914.6816    139.07557   -658.93708   -2039.9273   -2704.5827 
20842000     264.9214   -3860.5338   -3406.4676   -3860.5338            0    7060.8444    17.111425    20.154998    20.875899    7199.6955    8399.9896    7073.2837      5709.26    327.01748    661.84649   -11.598304   -2665.0777 
20843000     247.8741   -3885.2441   -3460.3964   -3885.2441            0    6752.3531    17.111558    20.155154     20.87606    7199.8627     6351.995    7521.3971    6383.6672   -458.26036    182.58241    134.98673   -2751.3817 
20844000    264.37308   -3861.0201   -3407.8937   -3861.0201            0     5895.879    17.077122    20.114594    20.834049     7156.483    4808.0747    6055.0469    6824.5155   -1669.0329    1243.3804     324.1692    -2792.541 
20845000    268.42665   -3898.2256   -3438.1516   -3898.2256            0    5945.1726     17.07062    20.106936    20.826117    7148.3117    4683.2936    7347.5504    5804.6739    179.29596    1661.8656   -574.57635   -2818.3626 
20846000    268.84961   -3836.2265   -3375.4275   -3836.2265            0     5711.174    17.140575    20.189333    20.911461    7236.5526    5031.4974    6045.2633    6056.7614    1061.7428     -118.457    302.95475   -2772.6833 
20847000    278.24785   -3887.7972   -3410.8899   -3887.7972            0    8971.8221    17.115848    20.160209    20.881295    7205.2804     7673.805     9689.165    9552.4961   -280.72635    90.975671    1431.3565   -2468.1163 
20848000    263.16493   -3891.5142   -3440.4585   -3891.5142            0    5721.4535    17.154391    20.205607    20.928317    7254.0665    5255.2695    6729.1677    5179.9233     57.29288   -462.45797   -805.46078   -2835.1681 
20849000    255.74271   -3844.9488   -3406.6145   -3844.9488            0    6041.8549    17.173045    20.227579    20.951075    7277.7564      6017.43    5809.0993    6299.0353   -75.422039    372.67015    510.47434   -2765.3404 
20850000     253.9343   -3871.9825   -3436.7478   -3871.9825            0    5455.7998    17.175326    20.230265    20.953858    7280.6567    6598.5753    6723.7184    3045.1058    1415.2146   -512.74629   -217.56409    -2857.446 
20851000    255.27925   -3897.8926   -3460.3527   -3897.8926            0    4906.2654    17.166017    20.219301    20.942501     7268.825    4209.7384    6512.2496    3996.8081    966.89142   -22.262005    285.15778   -2940.2476 
20852000    272.85105   -3880.0329   -3412.3756   -3880.0329            0    7449.8488    17.062182    20.096997    20.815822    7137.7168    6263.7935    6687.2752    9398.4777     1297.916    1392.0677    735.69152   -2636.8741 
20853000    265.81345   -3853.6776   -3398.0824   -3853.6776            0    6193.9415    17.107937     20.15089    20.871643    7195.2931    6023.0569    5617.0297    6941.7379   -915.51966   -752.14686    341.49852   -2748.1152 
20854000    263.19796   -3856.6608   -3405.5485   -3856.6608            0    8133.9648    17.023314    20.051215    20.768403    7089.0478    8736.4887    8228.3094    7437.0962   -1231.7818    708.14268    1088.6825   -2564.6065 
20855000    266.67036   -3865.6458    -3408.582   -3865.6458            0    7709.1478    17.100339    20.141941    20.862374    7185.7117    7032.1834    10671.737     5423.523    802.83537    955.82064   -1159.5634   -2600.6923 
20856000    250.86877    -3863.146   -3433.1655    -3863.146            0    7934.6754    16.986089     20.00737    20.722989    7042.6451    6753.7069    6399.8111    10650.508    170.03391   -922.92752    918.61111   -2618.1969 
20857000    252.41405   -3859.2747   -3426.6457   -3859.2747            0    7135.0497    17.056942    20.090825     20.80943    7131.1426    7114.0843    6285.2112    8005.8536   -223.41382     418.2922    673.83075   -2684.5977 
20858000    255.23308   -3846.0877    -3408.627   -3846.0877            0    6187.5953    17.083328    20.121903     20.84162    7164.2873    6450.9809     7324.162     4787.643    249.57093   -1180.8803   -1254.3948   -2762.1236 
20859000    261.92154   -3861.1217   -3412.1972   -3861.1217            0    6610.8925    16.998068    20.021479    20.737603     7057.555    6471.7283    6984.9108    6376.0385   -525.44659   -304.41132    745.53799   -2731.7565 
20860000    257.12446   -3867.7731   -3427.0706   -3867.7731            0    4594.0119    17.131531     20.17868    20.900427    7225.1038    5235.3028    2957.0676    5589.6654     474.4699    148.79659    368.57542   -2942.9962 
20861000    266.15352   -3850.4966   -3394.3186   -3850.4966            0     6628.206     17.10333    20.145464    20.866023    7189.4825    6671.0437    4691.5777    8521.9967   -242.51132    1176.4126    -2053.005   -2699.3431 
20862000    256.59915   -3838.3846   -3398.5824   -3838.3846            0    7162.0614    17.052433    20.085514    20.803929    7125.4889    7561.5322    7312.0407    6612.6112    159.30874   -963.99532   -883.04729   -2654.3157 
20863000    256.53835   -3853.2212   -3413.5233   -3853.2212            0    6022.8807    17.071177    20.107592    20.826796    7149.0117     4705.341    7309.7223    6053.5787   -2154.1336    1303.8765    1056.8142   -2785.5717 
20864000    274.48754   -3829.0954   -3358.6331   -3829.0954            0     8391.858    16.957591    19.973802    20.688221     7007.257    8297.2306    11716.797    5161.5464    483.53335     938.7446    459.56532   -2501.0385 
20865000    263.34613   -3848.4188   -3397.0526   -3848.4188            0     6346.375    17.127575    20.174021    20.895602    7220.1002    6251.8305    5256.5378    7530.7568    -112.5303    1944.8175   -979.56386   -2728.7935 
20866000    265.52323   -3866.2544   -3411.1567   -3866.2544            0    6485.6271    17.078499    20.116216    20.835729    7158.2145     6637.063    7064.2302    5755.5882   -356.42423   -266.69976    806.01987   -2734.0882 
20867000     244.9523    -3871.882   -3452.0421    -3871.882            0    5653.4348    17.097267    20.138322    20.858625    7181.8387    6325.0484    4025.7827    6609.4734   -89.040614    -247.9762    891.39739   -2859.9028 
20868000    262.33463   -3891.6274   -3441.9948   -3891.6274            0    6151.1893    17.092563    20.132781    20.852887    7175.9128    7495.5061    5874.1411    5083.9208    705.53558     1002.664   -22.202918   -2798.2523 
20869000    266.38685    -3865.538     -3408.96    -3865.538            0    7313.0644    17.097577    20.138687    20.859004    7182.2294     6873.848    7228.9923    7836.3529    162.97818   -251.63926   -1012.7775   -2642.9498 
20870000    263.33266   -3893.4099   -3442.0668   -3893.4099            0    6406.1524     17.08851    20.128007    20.847942    7170.8092    6879.6984    4922.2106    7416.5481   -164.22904   -636.27577   -654.38333   -2772.1184 
20871000    278.79141   -3905.8464   -3428.0074   -3905.8464            0    6199.2819    17.076384    20.113725    20.833149    7155.5551    6720.7309    6094.0009     5783.114   -353.58512    1894.9132   -2395.6722   -2781.0725 
20872000    280.04629   -3854.5433   -3374.5535   -3854.5433            0    6492.4367    17.137193     20.18535    20.907335    7232.2703    6396.6647    5833.8445    7246.8009    534.59649    149.50601    1289.4388   -2689.7622 
20873000     249.7392   -3878.9561   -3450.9116   -3878.9561            0    6777.4045    17.152193    20.203017    20.925635    7251.2774    7010.1391    6550.5075    6771.5669   -1032.3727   -1310.0639    207.42514   -2734.1846 
20874000    272.02295   -3840.0424   -3373.8044   -3840.0424            0    6625.3367    17.203399    20.263332    20.988107    7316.4157    5683.5503    6694.3738    7498.0861     872.1354   -508.07777   -1635.7414    -2666.865 
20875000    275.77016   -3827.7196    -3355.059   -3827.7196            0    8139.2395    17.090321    20.130141    20.850152    7173.0901    9291.9348    7717.4716     7408.312    594.11694    391.50056    -307.4862   -2503.5956 
20876000    271.04639   -3862.9964   -3398.4321   -3862.9964            0    6910.3868    17.094691    20.135288    20.855483    7178.5938    6082.9921     7849.191    6798.9774   -445.10499    36.219095   -761.68443    -2674.967 
20877000     263.1633   -3875.4588   -3424.4059   -3875.4588            0    6140.4967    17.117283    20.161898    20.883045    7207.0918    6483.9103    7460.6826    4476.8972     4.327923    195.79362   -272.77676   -2778.9903 
20878000    279.55886   -3895.4767   -3416.3224   -3895.4767            0    7355.1691    17.120573    20.165773    20.887058    7211.2481    8703.1604    7207.1105    6155.2365   -482.19515     599.9626    589.72777   -2642.7892 
20879000    277.09109   -3866.0394   -3391.1148   -3866.0394            0    6437.1166    17.096043    20.136881    20.857133    7180.2974    7449.2992    6489.9548    5372.0957   -945.53166   -1802.5664    1854.1306   -2717.0375 
20880000    253.32457   -3864.7398   -3430.5502   -3864.7398            0    8254.9493    17.062487    20.097356    20.816195    7138.0999    7546.3741    8128.8144    9089.6593   -1114.2981      1414.73    365.08284   -2571.1946 
20881000    255.82423   -3882.8428   -3444.3688   -3882.8428            0    7572.2183    17.101884    20.143761    20.864259    7187.6594    8324.0693    7450.1653    6942.4204   -1195.6079    280.68394    907.14285   -2650.6137 
20882000    257.53984   -3829.0464   -3387.6319   -3829.0464            0    8167.6281    17.069793    20.105961    20.825107    7147.2724    8660.9582    7130.3275    8711.5987    30.423147    21.816225    976.69906    -2536.274 
20883000    260.96712    -3852.897   -3405.6082    -3852.897            0    8401.7136    17.088444     20.12793    20.847862    7170.7262    8173.9422    7053.8664    9977.3321   -265.36976    1030.3594    90.918502   -2526.9765 
20884000    256.22549   -3874.1603   -3434.9985   -3874.1603            0    6545.5014    17.136907    20.185012    20.906986    7231.9078    7161.7997    5637.6335     6837.071    1209.3564   -776.28267    55.499928   -2744.6448 
20885000    247.98679   -3890.5086   -3465.4677   -3890.5086            0    6886.7071    17.040402    20.071342     20.78925    7110.4169     7098.375    7503.2598    6058.4864    1523.2099   -1300.8195    469.44389    -2751.329 
20886000    262.41745   -3855.1379   -3405.3633   -3855.1379            0    7382.8725    17.001425    20.025433    20.741699    7061.7371    7919.0144    7322.9822    6906.6209     747.6639     619.7841    933.46371   -2645.0147 
20887000    250.63869   -3844.4043   -3414.8182   -3844.4043            0    6442.4494    17.051522    20.084441    20.802817    7124.3471     9125.625    4460.3068    5741.4163   -620.58453    691.01339    309.55255   -2745.4393 
20888000    272.56641   -3867.3242   -3400.1547   -3867.3242            0    7232.9074    17.037654    20.068106    20.785898    7106.9784    6817.7477    7968.2414    6912.7329   -525.22451    219.76654    1067.1285   -2650.4784 
20889000    238.49102   -3877.7298   -3468.9644   -3877.7298            0    6729.8873     17.05337    20.086617    20.805071    7126.6631    5020.9198    7013.3276    8155.4144    421.18949     75.16607   -568.97012   -2769.4931 
20890000    264.69975   -3874.0931   -3420.4068   -3874.0931            0    7387.5248    17.079871    20.117831    20.837402    7159.9388    8156.9012    6367.8617    7637.8115   -655.67991    8.9852429    2131.5025   -2648.9987 
20891000    251.89551   -3865.9748   -3434.2345   -3865.9748            0    9166.5895     16.97315    19.992129    20.707204    7026.5632    6432.8543    9898.0537     11168.86    876.41385   -5.9019611    675.39025   -2494.8863 
20892000     264.7198    -3884.016   -3430.2953    -3884.016            0    5772.6616    17.141449    20.190363    20.912528      7237.66    6228.8759    5545.6362    5543.4727     778.0334    -90.57637     321.4242   -2820.9687 
20893000    257.05928    -3868.149   -3427.5582    -3868.149            0    5346.8456     17.17285    20.227349    20.950837    7277.5083    4803.1152    6020.4265     5216.995    510.79895    498.47468     98.17607   -2860.0708 
20894000    255.89706   -3856.9522   -3418.3534   -3856.9522            0     7608.249    17.087123    20.126374    20.846251    7169.0639    8728.1256    6670.7638    7425.8577    -1129.874    69.188115    1484.5118   -2622.8848 
20895000    277.27521   -3831.5864   -3356.3462   -3831.5864            0    6968.3314    17.149068    20.199337    20.921823    7247.3157    8344.2643    6539.9339    6020.7961   -514.78401   -1699.6388    910.66025   -2619.8307 
20896000    262.06258   -3871.0415   -3421.8752   -3871.0415            0     6875.274    17.116935    20.161488     20.88262    7206.6523    6513.4006    7809.4403    6302.9811    856.94965    1068.9053    396.50905   -2699.2727 
20897000    244.92603   -3880.5851   -3460.7903   -3880.5851            0    9157.4161    17.118526    20.163363    20.884562    7208.6628    9570.2365    8323.8755    9578.1363    324.13342    1281.0057   -185.19449   -2498.0624 
20898000    247.10497   -3866.6661   -3443.1367   -3866.6661            0    8320.2277    17.028148    20.056909    20.774301    7095.0889    6577.2952     8550.694    9832.6939   -86.778222   -8.5068947    225.18871   -2582.2045 
20899000    271.71682   -3834.7377   -3369.0244   -3834.7377            0    5715.2816    17.123051    20.168692    20.890082    7214.3805    6100.5891    4424.8512    6620.4045   -652.46102   -378.09086   -254.54293   -2767.6948 
20900000    252.87486   -3862.0193   -3428.6005   -3862.0193            0    5222.2373    17.128734    20.175386    20.897016    7221.5663    4486.7792    6351.6113    4828.3214   -871.23898    1641.6966   -1534.7515   -2878.5989 
20901000    269.39209    -3859.569   -3397.8402    -3859.569            0    5261.9548    17.126834    20.173148    20.894697    7219.1625    4428.0972    5195.0484    6162.7187    158.11709   -182.91544   -164.16785   -2843.8401 
20902000    268.05286   -3915.3739   -3455.9405   -3915.3739            0     6328.155    17.063475    20.098519    20.817399     7139.339    7510.4767    4878.8067    6595.1816    568.36559   -162.96493   -389.77538   -2797.0534 
20903000    261.54641   -3877.0223   -3428.7407   -3877.0223            0    7330.6097    17.049443    20.081991     20.80028    7121.7405    7793.5856     8332.939    5865.3044   -565.38264    685.99441    643.49116   -2667.3596 
20904000    248.13252   -3884.0392   -3458.7486   -3884.0392            0    7181.8794    17.061371    20.096042    20.814833    7136.6993    6775.0482    6530.5479    8240.0421   -115.38394   -381.71101   -632.78491   -2711.2482 
20905000    269.62264   -3882.4474   -3420.3234   -3882.4474            0    9491.3939    16.954715    19.970415    20.684713     7003.693     9875.522    10474.587    8124.0726   -252.16888    94.408284    958.23492   -2450.8565 
20906000    258.02879   -3915.1941   -3472.9416   -3915.1941            0     8228.743    17.108937    20.152068    20.872863    7196.5555    6905.5671    8665.0418    9115.6202    1892.7249   -1148.1731   -1860.9773    -2609.299 
20907000    258.49633   -3886.0812   -3443.0273   -3886.0812            0     5735.497    17.087727    20.127085    20.846987    7169.8237    4241.3567    6255.6432    6709.4912    -1.290844   -117.20948   -1143.2923   -2843.2978 
20908000    252.26385   -3855.4551   -3423.0834   -3855.4551            0    5929.7584    17.091424    20.131439    20.851497    7174.4778    5383.2299    5705.4441    6700.6012   -698.66468   -3.9674212   -837.15193   -2802.6386 
20909000    256.91249   -3859.5841   -3419.2449   -3859.5841            0     6735.395    17.109823    20.153112    20.873945    7197.6741    4809.5993    8483.1146    6913.4712    282.83879    2315.3503    -563.2029   -2712.2258 
20910000    275.85677   -3859.8284   -3387.0193   -3859.8284            0    6865.2491     17.06852    20.104462    20.823554    7145.6736    6135.5291    8766.1527    5694.0655   -585.55789    1210.9908   -601.88403   -2671.5758 
20911000    255.22342   -3896.4482    -3459.004   -3896.4482            0    6749.3136    17.078518    20.116238    20.835752    7158.2374    6766.8595    5609.6444     7871.437    140.98911    116.51033   -367.43959   -2754.4057 
20912000    265.31967   -3879.2878    -3424.539   -3879.2878            0    7211.2562    17.073553    20.110391    20.829695    7151.9973    6487.1493    7738.7734    7407.8459    1274.9848    392.08278   -198.97844   -2672.3722 
20913000    268.43295   -3870.2808   -3410.1959   -3870.2808            0    5941.5934    17.159058    20.211104    20.934011    7259.9886    3770.0083    5980.9975    8073.7742    980.86189   -609.66779    174.88846   -2781.1031 
20914000    255.82798   -3871.0003   -3432.5199   -3871.0003            0    6626.7111    17.103074    20.145162    20.865711    7189.1598    6568.0235    7426.2063    5885.9035    1056.8403    276.88918    280.46789   -2737.7323 
20915000    255.14743   -3858.4503   -3421.1363   -3858.4503            0    7648.5665    17.122067    20.167533    20.888882    7213.1365    6739.2193    6988.1397    9218.3406   -763.01852   -504.62625    1260.0465   -2616.5362 
20916000    270.20122   -3866.4722   -3403.3566   -3866.4722            0    6034.5641    17.123657    20.169406    20.890821     7215.146    7898.9531    4513.3644    5691.3748   -612.42722    1842.8759    -302.6186   -2768.3665 
20917000    257.32325   -3892.6607   -3451.6174   -3892.6607            0    7172.7021     17.09591    20.136724     20.85697    7180.1289    8531.6424    6457.9781    6528.4858    745.29653   -52.611523    -195.7613   -2700.5293 
20918000    278.72972   -3848.6798   -3370.9466   -3848.6798            0    7501.2593    17.081781    20.120082    20.839733    7162.3419    6678.2043    6017.6505    9807.9231    431.28388   -744.68616    2512.5616   -2587.3995 
20919000      277.982   -3863.1862   -3386.7346   -3863.1862            0    6431.2489     17.13422    20.181848    20.903709    7228.5076    6813.6769    6103.3619    6376.7079   -836.88397    345.13093    915.77563     -2708.75 
20920000    249.76313   -3833.0908   -3405.0053   -3833.0908            0    7524.9286    17.118206    20.162985    20.884171     7208.258     8677.514    6520.9956    7376.2763   -827.89727   -888.31398    2219.6482   -2613.9468 
20921000    266.03115   -3880.7071   -3424.7389   -3880.7071            0    7985.9096    17.057353    20.091309    20.809931    7131.6576    8224.0501    8113.5456     7620.133    271.73348   -1607.1702    32.573203   -2594.1411 
20922000    255.41836   -3862.8753    -3425.097   -3862.8753            0    7402.8796     17.07281    20.109516    20.828789    7151.0637    5865.8806    6815.6082    9527.1498   -68.394811    611.31121   -336.32135   -2653.0438 
20923000     273.8853   -3906.9248   -3437.4947   -3906.9248            0    7663.3749    17.052667    20.085789    20.804214    7125.7819    8739.3178    6664.8575    7585.9496    1119.5531      386.805   -90.781239   -2641.0998 
20924000    267.51249   -3921.7822    -3463.275   -3921.7822            0    6535.7439    17.079251    20.117102    20.836647      7159.16     6739.159    6509.6275    6358.4451    1615.1248   -326.48599   -448.07816   -2780.8845 
20925000    262.26165   -3870.3187   -3420.8112   -3870.3187            0    7737.5754    17.096589    20.137524    20.857799    7180.9851    8057.7441    7639.1726    7515.8095   -899.71735   -402.69301   -474.54171   -2610.4758 
20926000    270.27058   -3909.0559   -3445.8214   -3909.0559            0    7057.7471     17.04017     20.07107    20.788968    7110.1275     6134.087    8461.4014    6577.7527    504.68752   -1006.2613   -352.75426    -2713.976 
20927000    265.43256   -3856.4022   -3401.4599   -3856.4022            0    5546.0686    17.139022    20.187504    20.909567     7234.586    6081.6462    3101.9049    7454.6547    1249.7866   -892.64911   -1319.0589   -2816.2997 
20928000    261.29621    -3847.644   -3399.7912    -3847.644            0    7002.3953    17.079614    20.117529    20.837089    7159.6165    4917.6767    8387.7244    7701.7848    550.91436    11.317729     652.4905   -2668.6315 
20929000    245.76438   -3861.8931   -3440.6614   -3861.8931            0    4314.9667    17.140152    20.188835    20.910945    7236.0172    3944.6203    3192.7651    5807.5147    749.21668   -75.729505    248.12706   -2985.3034 
20930000    262.59781   -3882.5018   -3432.4181   -3882.5018            0    5928.7258    17.079738    20.117675     20.83724    7159.7719    3843.1743    7025.1163    6917.8868    344.11593   -1567.9645     1264.942   -2813.3528 
20931000    267.74367   -3870.3909   -3411.4874   -3870.3909            0    6304.2575    17.111898    20.155555    20.876475    7200.2922    4938.6714    7077.2903    6896.8109     894.8237   -1036.1327   -10.019461   -2749.4844 
20932000    266.83214    -3843.111   -3385.7698    -3843.111            0     5751.923    17.085238    20.124153     20.84395    7166.6908    5453.8482    4666.1123    7135.8085   -1150.2424   -613.98673   -439.47973   -2784.5855 
20933000    252.38831   -3874.6125   -3442.0276   -3874.6125            0    7332.5046    17.107673    20.150579    20.871321    7194.9608    6900.5694     8312.843    6784.1014    451.06282    943.29579    1381.2327   -2672.6196 
20934000    253.23823   -3872.0565   -3438.0149   -3872.0565            0    8318.6099    17.032338    20.061844    20.779412    7100.3275    8112.7035    9009.3893     7833.737    426.30287    1790.2597    614.26299   -2576.6146 
20935000    262.65096   -3868.1185   -3417.9438   -3868.1185            0    6273.8372     17.17296    20.227479    20.950972    7277.6488    6676.7588    7120.9115    5023.8414    473.79398    500.19016   -1119.0033   -2752.0572 
20936000    268.63007   -3856.1264   -3395.7036   -3856.1264            0    8780.3595    17.000004    20.023759    20.739965    7059.9666    8659.9425    8109.8315    9571.3044   -1258.7434    1645.8718   -1191.4999    -2491.657 
20937000    242.63806   -3853.5966   -3437.7232   -3853.5966            0    8136.3637    17.079418    20.117299    20.836851    7159.3702    8963.3545    6988.5483    8457.1882   -1304.3703    160.62571    636.10828   -2588.1886 
20938000    271.58824   -3823.6798   -3358.1868   -3823.6798            0    9510.3611    17.057846     20.09189    20.810533    7132.2768    9721.8161    8868.2658    9941.0015   -446.61853    1255.9907    451.93603   -2368.9481 
20939000    253.47275   -3871.7031   -3437.2595   -3871.7031            0    6214.3941    17.090064    20.129837    20.849838    7172.7654    8046.7217    5050.5618    5545.8989     135.8325      298.956    1711.7235   -2787.1877 
20940000    287.02621   -3858.4972   -3366.5441   -3858.4972            0    9047.7016    17.079651    20.117573    20.837134    7159.6629    9863.1546    8449.1313    8830.8189   -566.47411   -389.37285    477.77755   -2421.8162 
20941000    272.14749   -3866.2876   -3399.8362   -3866.2876            0    7875.4444    17.076441    20.113792    20.833218    7155.6268    7717.4365    10589.208    5319.6888    1071.0344     548.3358   -257.77984   -2577.9746 
20942000    266.42246   -3852.2309   -3395.5919   -3852.2309            0    8458.7889    17.054047    20.087415    20.805898     7127.512    7221.7058     9563.551    8591.1099    515.11857    389.82809   -733.01493   -2516.3224 
20943000    263.55776    -3846.471    -3394.742    -3846.471            0    6877.5173    17.080875    20.119014    20.838627     7161.202    7725.0015    5321.4012    7586.1494    1099.5679    1526.8524   -970.70157   -2676.4624 
20944000    271.07419   -3851.0911   -3386.4793   -3851.0911            0    7855.9098    17.104395    20.146718    20.867322    7190.8251    7586.5329    7223.4411    8757.7553   -1337.6964    1461.0343    23.006322   -2562.6236 
20945000    253.94164   -3848.8228   -3413.5755   -3848.8228            0    6377.0786    17.106096    20.148722    20.869398    7192.9715      7744.79    5235.4343    6151.0115   -450.18051   -169.60307    1031.0386   -2744.6065 
20946000    265.75906   -3871.6998   -3416.1978   -3871.6998            0    6674.3516    17.196653    20.255385    20.979876    7307.8118    6547.2779    5515.4083    7960.3687   -1710.6574    923.72939   -438.52152   -2704.8659 
20947000    260.77562   -3874.4569   -3427.4964   -3874.4569            0    9563.8009    17.093576    20.133975    20.854123    7177.1892    8649.8082    10039.087    10002.507    473.75164    1078.9053   -457.67244   -2426.4348 
20948000    272.63107   -3885.7483    -3418.468   -3885.7483            0    8769.7083    17.103643    20.145832    20.866405    7189.8771    8531.3689     8555.164     9222.592   -1047.6226    983.03626   -61.455793   -2498.9028 
20949000     267.0718   -3852.0826   -3394.3306   -3852.0826            0    7945.6846    17.127983    20.174502      20.8961    7220.6167    8866.5564    7096.2383    7874.2591   -1169.0763    617.52966   -147.84711    -2557.608 
20950000    256.64255   -3863.5797   -3423.7032   -3863.5797            0    7115.7777    17.119462    20.164465    20.885704    7209.8452    7215.9993     7405.429    6725.9047    840.43117    584.25924   -2515.1879    -2675.492 
20951000    265.58181   -3865.1825   -3409.9844   -3865.1825            0     7649.772    17.030011    20.059103    20.776573    7097.4177    6819.7544    6549.4561    9580.1055   -609.89666    690.44899   -592.64062   -2618.1675 
20952000     250.3767   -3824.2609   -3395.1238   -3824.2609            0    6801.7307    17.102426    20.144399     20.86492    7188.3421    6168.9727     7722.876    6513.3433   -495.09321     751.4576   -39.798756   -2682.0671 
20953000    265.88786   -3875.3141   -3419.5914   -3875.3141            0    7089.9598    17.030192    20.059316    20.776794    7097.6439    7262.4424    7233.4051    6774.0317    918.90013   -110.88193   -1160.1856   -2685.6965 
20954000     256.8647   -3885.0163   -3444.7589   -3885.0163            0     7991.662    17.055562      20.0892    20.807746    7129.4123    7015.7301    9396.3099    7562.9461   -128.25723    616.11311    657.22286   -2613.8246 
20955000     250.0637    -3856.521   -3427.9204    -3856.521            0    6082.7218    17.003466    20.027837    20.744189    7064.2813    7887.7617    4617.8386    5742.5652   -1146.4166   -543.86499   -617.95417   -2801.2461 
20956000    246.62681   -3834.6705   -3411.9606   -3834.6705            0    8635.8214    17.026238    20.054659    20.771971    7092.7016    8684.4747     7367.737    9855.2526   -229.35145    60.653912   -3074.1067   -2518.6731 
20957000    269.78914   -3859.2334    -3396.824   -3859.2334            0    6908.6647    17.099985    20.141524    20.861942    7185.2654    6911.3121    5947.8248    7866.8574    53.272046   -831.32491    592.93322   -2672.8669 
20958000    273.47975   -3853.4332   -3384.6983   -3853.4332            0     8627.704    17.028443    20.057256     20.77466    7095.4574     8517.658    8462.3562    8903.0976    316.44261     570.2278    1012.9471   -2491.9037 
20959000    262.03812   -3868.9424   -3419.8181   -3868.9424            0    6727.8097    17.136453    20.184478    20.906432    7231.3333    6448.9903    7217.2705    6517.1683    931.54167    553.01121   -428.61996   -2710.2926 
20960000    263.15657   -3837.7092   -3386.6679   -3837.7092            0    6503.2958    17.145161    20.194735    20.917057    7242.3635    7640.4972    7090.1321    4779.2581    -179.0671    158.84167    849.33285   -2699.7739 
20961000    251.74588   -3843.9243   -3412.4404   -3843.9243            0    6801.5581     17.13889    20.187349    20.909406    7234.4191    6337.5005    7047.9271    7019.2466    -402.1801   -276.78272    1219.3718   -2694.8313 
20962000    261.54049   -3850.4406   -3402.1691   -3850.4406            0    5377.3767    17.132302    20.179589    20.901369    7226.0799    5777.7576    5681.9767    4672.3958   -421.26045    1012.7881    786.41377   -2835.4745 
20963000    262.77301   -3831.1208   -3380.7368   -3831.1208            0    7024.2436    17.045292    20.077102    20.795216    7116.5402    6041.4885      7110.38    7920.8624    285.30124    729.84567   -1034.5994   -2651.7086 
20964000     257.5677   -3854.2387   -3412.7765   -3854.2387            0    6107.4358    17.085793    20.124807    20.844627    7167.3891    6114.3748    7604.6493    4603.2833    1247.6248   -182.15555    1046.5576   -2774.3723 
20965000    253.37437   -3896.6627   -3462.3877   -3896.6627            0    6958.0876    17.067056    20.102738    20.821769    7143.8357    6997.9574     6611.277    7265.0284    416.39241    557.09954     1357.683   -2737.4558 
20966000    256.32571   -3838.3596   -3399.0261   -3838.3596            0    7109.1416    17.065946     20.10143    20.820414    7142.4417    8300.3521    5712.7645    7314.3081   -681.03553   -112.94842    769.27449    -2658.501 
20967000    252.24996   -3871.2952   -3438.9474   -3871.2952            0    6998.4995    17.060575    20.095104    20.813861    7135.6998    6689.7025    6672.0244    7633.7716    997.05603    1120.2698    425.33054   -2710.6355 
20968000    261.04198   -3859.5417   -3412.1246   -3859.5417            0    6177.8431    17.159461    20.211579    20.934503    7260.5001    7203.1769    5249.8255     6080.527   -84.907577   -1053.8306   -144.54382   -2757.9717 
20969000    261.53309   -3843.1509   -3394.8922   -3843.1509            0    5724.6997    17.119831    20.164899    20.886153    7210.3107    6955.8577    3302.6401    6915.6014   -831.55037   -1306.0735     2190.173   -2792.9114 
20970000    260.22404   -3884.2395   -3438.2244   -3884.2395            0    6994.2278    17.060055    20.094491    20.813227    7135.0475    8309.9156    7558.7728    5113.9949   -805.80991    1276.7721    1165.2748   -2710.4236 
20971000    267.86132   -3886.2306   -3427.1255   -3886.2306            0     6920.597    17.059701    20.094075    20.812796    7134.6038    8124.4087    6466.4732    6170.9091    126.68931    912.90603     462.4802   -2707.0313 
20972000    256.17972   -3875.2891   -3436.2058   -3875.2891            0    5464.9679    17.103389    20.145534    20.866095    7189.5571    4516.9344    6538.2724    5339.6968   -961.15819    -360.8784    504.52653   -2863.1913 
20973000    256.17576   -3868.5247   -3429.4482   -3868.5247            0    7913.5195    17.088173     20.12761    20.847531    7170.3847    7739.5031    8073.6041    7927.4513    1586.9487    36.384351    944.07615   -2601.9101 
20974000    264.07442   -3870.9442   -3418.3297   -3870.9442            0    6282.3826    17.085193    20.124101    20.843896    7166.6346    6200.4586    5890.4771    6756.2121   -614.65982    146.69442   -1034.9809   -2761.7075 
20975000    245.34638   -3855.6862   -3435.1709   -3855.6862            0    8714.7845    17.014774    20.041157    20.757985     7078.385    9844.3631    8533.5682    7766.4221   -392.03887    685.38614   -787.07271   -2535.5351 
20976000    264.57029   -3861.7669   -3408.3024   -3861.7669            0    6198.2282    17.061943    20.096715     20.81553    7137.4162    6312.8394    5310.0065    6971.8386    203.30424    14.441144    481.55023   -2763.1171 
20977000    282.86124   -3832.3497   -3347.5352   -3832.3497            0    6825.6622    17.051426    20.084327      20.8027    7124.2259    7310.0588    7261.5244    5905.4032   -73.716446   -318.59685    274.99775   -2638.3521 
20978000    268.61293   -3862.4324    -3402.039   -3862.4324            0    7911.8987    17.056453    20.090249    20.808833    7130.5291     9022.473    8659.0841    6054.1389    194.32376    1428.8969   -671.04203   -2579.2692 
20979000    254.75335    -3829.474   -3392.8355    -3829.474            0    6529.1694    17.091372    20.131379    20.851434    7174.4129    5861.5403    7169.0332    6556.9347    55.650803    571.71341   -163.56534    -2709.679 
20980000    269.82059    -3841.457   -3378.9937    -3841.457            0    5679.9578     17.08358    20.122201    20.841928    7164.6049    7483.3691    4585.7278    4970.7767   -387.13399    1015.6872    711.02673   -2785.5039 
20981000    268.45907   -3858.7896   -3398.6599   -3858.7896            0    7304.0952    17.068443    20.104371     20.82346    7145.5768    7928.0796    6733.8335    7250.3727   -640.63596    -372.7992    242.03238   -2637.4935 
20982000    264.63962   -3869.2719   -3415.6887   -3869.2719            0    6660.6629    17.075499    20.112682    20.832069    7154.4427    5345.4856    6714.6241    7921.8792   -427.90795   -68.733048   -588.80798   -2720.7137 
20983000    252.57435   -3862.7517   -3429.8479   -3862.7517            0    7033.9243    17.044114    20.075715    20.793779     7115.065    8029.1698    7304.1188    5768.4843    744.72497   -207.19284    1636.6061   -2699.9662 
20984000    271.49194   -3845.8789    -3380.551   -3845.8789            0    7295.0237    17.088535    20.128037    20.847972    7170.8404    7895.7285    7191.1474    6798.1953    874.61818    892.55953   -506.26023   -2617.6421 
20985000    259.26334   -3868.3127   -3423.9442   -3868.3127            0    7203.9663    17.010574     20.03621    20.752861    7073.1443    7078.6406    4977.5914    9555.6667    31.767361   -580.51396    73.060496   -2680.8222 
20986000      263.261   -3831.8954   -3380.6751   -3831.8954            0      10474.1     16.95566    19.971528    20.685865    7004.8635    9638.4106    9561.0937    12222.796    658.33904    1517.7414   -867.02461   -2310.6542 
20987000      274.611   -3863.5922   -3392.9183   -3863.5922            0    6429.3594    17.062201    20.097019    20.815845    7137.7403     8265.153    6306.9264    4715.9989   -1501.8209   -109.22293   -1405.8215   -2723.6438 
20988000    267.30863   -3848.0932   -3389.9353   -3848.0932            0    9134.8423    17.008958    20.034306    20.750889    7071.1285    8783.1811    9311.6492    9309.6967    192.84414   -1461.4603   -1094.4343   -2447.9033 
20989000    262.25953    -3895.818   -3446.3142    -3895.818            0    6063.8072    17.123044    20.168684    20.890074     7214.372    6682.6668    5612.9541    5895.8006   -390.42216    852.26156    -844.4812   -2808.3155 
20990000    263.12466   -3879.4409   -3428.4543   -3879.4409            0    6011.3837    17.124636     20.17056    20.892016    7216.3846    8125.7132    6410.9304    3497.5076   -687.38436   -483.95891       1380.8   -2795.7948 
20991000    259.00142    -3887.156   -3443.2364    -3887.156            0    6130.1736    17.125583    20.171675    20.893172    7217.5818     6007.764    7065.1723    5317.5845   -425.64704    1230.0515   -200.13557    -2797.968 
20992000    261.25714   -3873.3739   -3425.5881   -3873.3739            0    6360.2378    17.143037    20.192233    20.914465    7239.6719    4612.2916    8594.0159     5874.406   -1111.0021   -212.19233   -1339.4543   -2754.0539 
20993000    265.72874   -3838.7679    -3383.318   -3838.7679            0    7593.7958    17.114641    20.158787    20.879823    7203.7561     6250.778    8143.4708    8387.1386    1852.3893   -131.13111   -519.35703   -2585.5184 
20994000    261.83531   -3852.9947   -3404.2179   -3852.9947            0    6904.3044    17.153653    20.204738    20.927417    7253.1302    8279.6809    6430.0347    6003.1975    692.27953   -987.16968    664.15116   -2673.8843 
20995000    269.55637   -3830.8311   -3368.8207   -3830.8311            0    8196.6126    17.055549    20.089184     20.80773    7129.3956    9991.0378    8384.3832    6214.4169    1470.9849   -633.65667     797.2293   -2516.5785 
20996000    263.36676   -3854.1996    -3402.798   -3854.1996            0    5774.9154    17.100762    20.142439    20.862889     7186.244    6271.2212    5066.1146    5987.4104    236.83857   -519.61552    1458.7584   -2797.5638 
20997000    260.71337   -3857.0077   -3410.1539   -3857.0077            0    6195.0172    17.111589    20.155192    20.876099    7199.9027    7628.6717    5798.2195    5158.1604    1239.4805      8.96515   -1463.2043   -2759.6573 
20998000     268.1363   -3833.4111   -3373.8347   -3833.4111            0    6890.3124    17.083184    20.121734    20.841445    7164.1068    6700.8248    8083.7585    5886.3538   -248.85794    -321.9821    282.89251   -2653.9269 
20999000    251.15998   -3834.4153   -3403.9357   -3834.4153            0    8186.9917    17.061092    20.095713    20.814492    7136.3485    7995.4401     6923.601    9641.9341   -1570.6704    1164.5174    585.69492   -2551.8637 
21000000      272.051    -3825.571   -3359.2849    -3825.571            0    5964.1955    17.127537    20.173976    20.895555    7220.0522    7463.7017    3912.8623    6516.0224    91.638263    99.213229   -167.20711   -2731.2727 
Loop time of 363.061 on 64 procs for 250000 steps with 864 atoms

Performance: 118.988 ns/day, 0.202 hours/ns, 688.589 timesteps/s
193.9% CPU use with 32 MPI tasks x 2 OpenMP threads

MPI task timing breakdown:
Section |  min time  |  avg time  |  max time  |%varavg| %total
---------------------------------------------------------------
Pair    | 27.145     | 32.949     | 41.175     |  56.3 |  9.08
Bond    | 0.88424    | 1.1395     | 2.1149     |  20.7 |  0.31
Kspace  | 157.77     | 167.96     | 177.41     |  35.1 | 46.26
Neigh   | 3.6951     | 4.1831     | 4.6585     |  18.4 |  1.15
Comm    | 71.409     | 76.551     | 81.835     |  34.9 | 21.08
Output  | 0.5452     | 0.54558    | 0.54817    |   0.1 |  0.15
Modify  | 67.393     | 70.126     | 76.206     |  19.9 | 19.32
Other   |            | 9.605      |            |       |  2.65

Nlocal:        27.0000 ave          33 max          22 min
Histogram: 2 2 5 6 4 4 4 3 1 1
Nghost:        2560.25 ave        2591 max        2526 min
Histogram: 4 3 3 2 4 1 2 4 5 4
Neighs:        8551.84 ave       10602 max        6239 min
Histogram: 2 3 1 2 5 4 8 4 0 3

Total # of neighbors = 273659
Ave neighs/atom = 316.73495
Ave special neighs/atom = 2.0000000
Neighbor list builds = 14231
Dangerous builds = 0

unfix		3
unfix		2
unfix		1

write_data	data.final.${pid}
write_data	data.final.1
System init for write_data ...
PPPM initialization ...
  extracting TIP4P info from pair style
  using 12-bit tables for long-range coulomb (../kspace.cpp:340)
  G vector (1/distance) = 0.37352241
  grid = 24 24 24
  stencil order = 5
  estimated absolute RMS force accuracy = 0.0032463767
  estimated relative force accuracy = 9.7763669e-06
  using double precision FFTW3
  3d grid and FFT values/proc = 3549 432
Last active /omp style is kspace_style pppm/tip4p/omp
WARNING: Not all mixed pair coeffs generated from mixing. Use write_data with 'pair ij' option to store all pair coeffs. (../write_data.cpp:312)

write_restart   restart.lmp.${pid}
write_restart   restart.lmp.1
System init for write_restart ...
PPPM initialization ...
  extracting TIP4P info from pair style
  using 12-bit tables for long-range coulomb (../kspace.cpp:340)
  G vector (1/distance) = 0.37352241
  grid = 24 24 24
  stencil order = 5
  estimated absolute RMS force accuracy = 0.0032463767
  estimated relative force accuracy = 9.7763669e-06
  using double precision FFTW3
  3d grid and FFT values/proc = 3549 432
Last active /omp style is kspace_style pppm/tip4p/omp
Total wall time: 0:06:03
