LAMMPS (30 Jul 2021)
  using 1 OpenMP thread(s) per MPI task
package omp 0
using multi-threaded neighbor list subroutines
echo both

include		in.partitions
variable        pid world 0
include		in.temp
variable        temperature equal 224.26
variable	tempDamp equal 100.0
include		in.pressure
variable        pressure equal 2625.0
variable        pressureDamp equal 1000.0 # This is 1 ps
include		in.seed
variable        seed world 745823

units		real
atom_style	full
read_restart    restart.lmp.${pid}
read_restart    restart.lmp.0
Reading restart file ...
  restart file = 30 Jul 2021, LAMMPS = 30 Jul 2021
  restoring atom style full from restart
  triclinic box = (-3.2946641 -0.35497168 -0.088104043) to (14.904663 22.934971 19.318102) with tilt (0.28617315 -6.4711560 -0.31558185)
  4 by 4 by 4 MPI processor grid
  restoring pair style lj/cut/tip4p/long/omp from restart
  restoring bond style harmonic/omp from restart
  restoring angle style harmonic/omp from restart
  1008 atoms
  672 bonds
  336 angles
Finding 1-2 1-3 1-4 neighbors ...
  special bond factors lj:    0        0        0       
  special bond factors coul:  0        0        0       
     2 = max # of 1-2 neighbors
     1 = max # of 1-3 neighbors
     1 = max # of 1-4 neighbors
     2 = max # of special neighbors
  special bonds CPU = 2.052 seconds
  read_restart CPU = 2.444 seconds

include 	in.setup
variable	out_freq equal 1000
variable	out_freq2 equal 10000
variable	out_freq3 equal 1000

timestep	2.0

neigh_modify    delay 7 every 1

include		in.tip4p
# This is TIP4P/Ice

# create groups ###
group ox type 2
336 atoms in group ox
group hy type 1
672 atoms in group hy

# set charges - beside manually ###
set group ox charge -1.1794
Setting atom values ...
  336 settings made for charge
set group hy charge 0.5897
Setting atom values ...
  672 settings made for charge

# ### TIP3P Potential Parameters ###
pair_style lj/cut/tip4p/long/omp 2 1 1 1 0.1577 8.5
pair_coeff 1 1*2 0.000 0.000
pair_coeff 2 2 0.21084 3.1668
bond_style  harmonic
bond_coeff  1 450 0.9572
angle_style harmonic
angle_coeff 1 55 104.52
kspace_style pppm/tip4p/omp 1.0e-5
pair_modify tail yes

thermo          ${out_freq}
thermo          1000
thermo_style    custom step temp pe etotal epair emol press lx ly lz vol pxx pyy pzz pxy pxz pyz enthalpy

restart 	${out_freq3} restart.lmp.${pid} restart2.lmp.${pid}
restart 	1000 restart.lmp.${pid} restart2.lmp.${pid}
restart 	1000 restart.lmp.0 restart2.lmp.${pid}
restart 	1000 restart.lmp.0 restart2.lmp.0


include         in.dump
dump            myDump all atom ${out_freq2} dump.water.${pid}
dump            myDump all atom 10000 dump.water.${pid}
dump            myDump all atom 10000 dump.water.0
dump            myDump2 all dcd ${out_freq2} dump.dcd
dump            myDump2 all dcd 10000 dump.dcd
dump_modify     myDump append yes
dump_modify     myDump2 append yes


variable natoms 	equal  "count(all)"                        # NUMBER ATOMS
variable H      	equal  "enthalpy/v_natoms"                 # ENTHALPY-per-atom
variable Vol      	equal  "vol/v_natoms"                 # volume-per-atom
fix AVG all 		ave/time ${out_freq} 1 ${out_freq} v_Vol v_H file vol_enthalpy.dat
fix AVG all 		ave/time 1000 1 ${out_freq} v_Vol v_H file vol_enthalpy.dat
fix AVG all 		ave/time 1000 1 1000 v_Vol v_H file vol_enthalpy.dat



fix 		1 all shake 1e-6 200 0 b 1 a 1
       0 = # of size 2 clusters
       0 = # of size 3 clusters
       0 = # of size 4 clusters
     336 = # of frozen angles
  find clusters CPU = 1.346 seconds
fix             2 all nph tri ${pressure} ${pressure} ${pressureDamp}
fix             2 all nph tri 2625 ${pressure} ${pressureDamp}
fix             2 all nph tri 2625 2625 ${pressureDamp}
fix             2 all nph tri 2625 2625 1000
fix             3 all temp/csvr ${temperature} ${temperature} ${tempDamp} ${seed}
fix             3 all temp/csvr 224.26 ${temperature} ${tempDamp} ${seed}
fix             3 all temp/csvr 224.26 224.26 ${tempDamp} ${seed}
fix             3 all temp/csvr 224.26 224.26 100 ${seed}
fix             3 all temp/csvr 224.26 224.26 100 745823


run             250000
PPPM initialization ...
  extracting TIP4P info from pair style
  using 12-bit tables for long-range coulomb (../kspace.cpp:340)
  G vector (1/distance) = 0.38178894
  grid = 24 30 36
  stencil order = 5
  estimated absolute RMS force accuracy = 0.0020935404
  estimated relative force accuracy = 6.3046347e-06
  using double precision FFTW3
  3d grid and FFT values/proc = 4050 480
Last active /omp style is kspace_style pppm/tip4p/omp
Neighbor list info ...
  update every 1 steps, delay 7 steps, check yes
  max neighbors/atom: 2000, page size: 100000
  master list distance cutoff = 10.8154
  ghost atom cutoff = 10.8154
  binsize = 5.4077, bins = 5 5 4
  1 neighbor lists, perpetual/occasional/extra = 1 0 0
  (1) pair lj/cut/tip4p/long/omp, perpetual
      attributes: half, newton on, omp
      pair build: half/bin/newton/tri/omp
      stencil: half/bin/3d/tri
      bin: standard
Per MPI rank memory allocation (min/avg/max) = 9.338 | 9.346 | 9.354 Mbytes
Step Temp PotEng TotEng E_pair E_mol Press Lx Ly Lz Volume Pxx Pyy Pzz Pxy Pxz Pyz Enthalpy 
17500000    233.20431   -4883.6551   -4417.2176   -4883.6551            0     361.0546    18.199327    23.289942    19.406206    8225.5394    41.932989   -518.05141    1559.2822   -666.73609   -1245.7333    2175.2234   -4373.9052 
17501000    226.32955   -4903.8981    -4451.211   -4903.8981            0   -7.1476884     18.20596    23.124088    19.488876    8204.7433   -128.29348   -462.87126    569.72168   -1539.0978   -305.16128    -757.1405   -4452.0663 
17502000    223.46728   -4891.6645   -4444.7023   -4891.6645            0    1453.5264    18.182618    22.769627    19.707904    8159.2973    2602.3949    2186.5897   -428.40537   -430.48174    722.56996   -582.67522     -4271.74 
17503000    225.65361   -4903.4959   -4452.1609   -4903.4959            0    1948.0361    18.435795    22.714811    19.474815    8155.3825   -993.52286    3443.2892    3394.3419    263.41016    73.965849   -1582.9914   -4220.4656 
17504000      217.142   -4922.2436   -4487.9328   -4922.2436            0    2594.1557     18.00307    23.104444    19.487649    8105.9059    4748.3948    1627.3682    1406.7042   -769.11018   -859.95211   -675.61117   -4181.2612 
17505000    222.40997   -4889.9512   -4445.1038   -4889.9512            0    1673.3238    17.985517    23.458749    19.355796    8166.5534    1765.6421    1670.7417    1583.5876    408.65766    894.08819   -1084.3095   -4245.8095 
17506000    217.86193   -4871.5877   -4435.8369   -4871.5877            0    3667.0472    18.126493    23.121518    19.328364    8100.7497    2322.7722    4252.8379    4425.5316   -422.86141    1051.0759   -1183.0827   -4002.6078 
17507000    218.45832   -4893.5487   -4456.6051   -4893.5487            0     1493.878     18.22883    22.814733    19.631255     8164.362    988.02183    1687.9576    1805.6546   -429.12841   -443.77537   -176.36618   -4278.7308 
17508000    229.29969   -4907.8321   -4449.2044   -4907.8321            0    3555.4687    18.346143    22.668773    19.522509    8119.1094    2830.0967    4554.4739    3281.8355    878.19566   -674.50525   -730.92709   -4028.2053 
17509000    234.45305   -4889.3944   -4420.4593   -4889.3944            0    859.99976    17.997874    23.221394    19.550877    8171.0102    892.24601    1393.7429     294.0104   -344.98124   -491.19526     38.70948   -4317.9768 
17510000    226.95582   -4879.1188   -4425.1791   -4879.1188            0    1714.3915    18.117313    23.180915    19.453807    8170.1298    1290.5477    1401.9107     2450.716   -697.91354   -426.74859    1884.6059   -4220.9043 
17511000    217.84479   -4892.0374   -4456.3209   -4892.0374            0    2289.8296    18.179373    23.074376    19.283734    8089.0962    2029.8387     1514.746     3324.904    371.13313    123.33498   -1450.6406    -4186.187 
17512000     227.7318   -4859.7588   -4404.2671   -4859.7588            0    2221.8392    18.185683    22.823557    19.637967    8150.9736    1415.9199    2949.6029    2299.9947    1482.3122   -806.08002    1015.8917   -4140.1491 
17513000    232.45094   -4878.8449   -4413.9144   -4878.8449            0    2102.1711     18.21458     22.95967     19.45399     8135.673    1091.7228    1988.1939    3226.5968   -835.39569   -935.88817   -529.48443   -4164.4908 
17514000     225.3598   -4904.1496   -4453.4022   -4904.1496            0    3187.3577    18.229835    22.860534    19.436227    8099.9265    2140.3838    3993.0091    3428.6801   -1043.9466    728.97721   -1974.1137   -4076.8824 
17515000    222.06476   -4887.3049   -4443.1479   -4887.3049            0    2984.0696    17.921287    23.234478    19.497724    8118.6915    5756.8203    2009.4147    1185.9736   -381.69066    958.36266    1263.6982   -4089.8258 
17516000    223.23602    -4892.754   -4446.2544    -4892.754            0     2328.831    18.131742    23.056572    19.487161    8146.7211    2037.3165    2310.4144     2638.762   -20.950339   -61.251768   -1065.4654   -4169.5623 
17517000    233.73584   -4905.9089   -4438.4084   -4905.9089            0    3365.9502    18.184302    22.844263    19.463072    8085.0959    1753.7114    4101.7963    4242.3428     1071.924   -149.73944    305.52648   -4041.5197 
17518000    221.21299   -4909.6851   -4467.2318   -4909.6851            0    2183.1345    18.313502    22.764974    19.595774    8169.6033    2154.1665     2804.047    1591.1899    436.51616    640.09639    968.33769   -4207.1216 
17519000    219.72804   -4885.8856   -4446.4024   -4885.8856            0    4619.1853    18.196556    22.849455    19.398268    8065.4388    4282.7718    5467.7106    4107.0736   -952.44433    1606.5286   -98.647635   -3903.0654 
17520000    217.81835   -4885.5448   -4449.8812   -4885.5448            0    1827.8164    18.170694    23.033073    19.502875    8162.4783    1129.6033    2886.2309     1467.615    -459.0253    224.52068    140.04435   -4232.2954 
17521000    222.73161   -4915.3007   -4469.8099   -4915.3007            0    552.20274    18.118007    23.248247    19.452667    8193.6948    1730.0182   -58.556047   -14.853963    -540.1892   -412.15406   -1455.7355   -4403.8236 
17522000    223.54163   -4892.5387   -4445.4278   -4892.5387            0    3372.8478    18.102142    22.932408    19.503264    8096.3061    2551.9214    3345.9837    4220.6382   -542.05884   -1306.2383    -147.9127   -4047.1744 
17523000    224.58327   -4917.5279   -4468.3336   -4917.5279            0    2896.4487     18.24731    22.734358    19.521379     8098.266    3617.1182    2412.9848     2659.243    -644.3021   -319.55166   -114.43676   -4126.2489 
17524000    236.73839   -4871.5772   -4398.0712   -4871.5772            0      3555.86    18.189921    22.759202    19.564651    8099.5323     3910.042    2830.0116    3927.5263    -590.9135   -670.07845   -1214.7227    -3978.041 
17525000    233.18143   -4886.9024   -4420.5108   -4886.9024            0    2197.8546    18.175222    22.887698    19.529712    8124.1454     3013.553    2738.5704    841.44036   -597.45026   -825.57975   -1518.7349   -4160.1038 
17526000    232.52851   -4894.2543   -4429.1686   -4894.2543            0    2586.3918    18.153053    23.111897     19.33974    8114.0167    2200.5512    1742.3398    3816.2844   -471.16026    -265.0259    1221.4971   -4123.1089 
17527000    224.13568    -4862.857   -4414.5579    -4862.857            0    1890.5498     18.13228     23.13803    19.422358    8148.5578    2911.1504     1821.623    938.87609   -1198.0353   -86.633069   -242.15811   -4189.8881 
17528000    223.40893    -4902.153   -4455.3075    -4902.153            0    2017.9899     18.17722     23.10085    19.390742    8142.3516    3005.0399    1521.0076    1527.9223     -573.094    401.35678    705.38737   -4215.6755 
17529000    232.34757   -4910.8172   -4446.0933   -4910.8172            0    1632.0105    18.175333    22.976757    19.503952    8145.0498    395.72479     2972.488    1527.8186   -132.19784    465.03992   -229.79522   -4252.2314 
17530000    240.01064   -4901.2694   -4421.2184   -4901.2694            0    3262.2034    18.206956    22.921527    19.476361    8128.0939    3739.8777    3908.1695     2138.563    877.84023   -66.890389   -755.06593   -4034.5171 
17531000    232.55341     -4881.63   -4416.4945     -4881.63            0    2907.6352    18.251172    22.891746    19.539264    8163.5282    3622.0286    3309.9993    1790.8776    1481.8118    399.32555    90.580318   -4070.3211 
17532000    223.09424    -4879.133   -4432.9169    -4879.133            0    2749.4881    18.080772    22.907386     19.57689    8108.4193    3151.4365    2657.0267    2440.0012   -138.51778    -143.9736   -2101.6977   -4107.7818 
17533000    224.66504    -4892.859   -4443.5012    -4892.859            0    4238.0466     18.16719    22.855643    19.485126    8090.6689    3923.0823    4545.5806    4245.4769   -39.386625    41.957906    482.74533   -3943.4366 
17534000    221.35692   -4911.4556   -4468.7144   -4911.4556            0    3339.1577    18.199509    22.923318    19.286087    8046.0231     1693.114    3706.5115    4617.8476   -1063.4042    -904.2188   -1400.5918   -4076.8876 
17535000     222.1918   -4922.2596   -4477.8485   -4922.2596            0     785.1942    18.137233     22.99578    19.574039    8163.9361    2034.7535    151.79562    169.03352    607.23275   -917.96723    470.94313   -4384.3612 
17536000    211.93309   -4898.0933    -4474.201   -4898.0933            0    3619.1547    18.180657    22.909657     19.42057    8088.9122    3446.2344    4160.5796    3250.6501   -407.19241    649.85248    623.79328   -4047.2547 
17537000    219.83972   -4881.1589   -4441.4523   -4881.1589            0    5005.9034    18.252971    22.756282     19.42396    8068.1254    4195.4857    4480.8061    6341.4184   -583.90535    -114.5685   -484.18436    -3852.431 
17538000    221.02596   -4889.0185   -4446.9392   -4889.0185            0    2964.8622    18.166605    22.944924    19.511516    8133.0123    2671.3248     3440.248    2783.0139    1603.8704    690.90751    576.43281   -4095.2721 
17539000    228.99601   -4912.4003     -4454.38   -4912.4003            0    2697.9501     18.09469    22.919507    19.513901    8092.8319     3163.197    2257.7305    2672.9227    416.35015   -479.78107   -305.57444   -4135.9527 
17540000    217.50276   -4877.2697   -4442.2373   -4877.2697            0    1526.2264    18.353216    22.870864    19.414012    8149.1076    1793.1119    1640.5058    1145.0616    730.85842   -369.99025   -1717.3946   -4260.8509 
17541000    232.26577   -4912.7313   -4448.1711   -4912.7313            0    1625.0387    18.037952    23.013054    19.588946    8131.5351    3506.8556    222.91986    1145.3406   -27.980878   -1435.9949   -1216.4531   -4255.4576 
17542000    237.36555   -4919.4518   -4444.6914   -4919.4518            0    2315.5735    18.038894    23.047369    19.528166    8118.8165    2263.4934    2736.8728    1946.3542     27.16565    -644.7667   -154.21498   -4170.5168 
17543000     229.9395   -4890.2371   -4430.3297   -4890.2371            0    1368.2118     18.29136    23.042521      19.3594    8159.5812    1253.3136    1275.2071    1576.1147    489.10872    141.78235   -358.78777   -4267.5137 
17544000    220.30093   -4918.8086   -4478.1795   -4918.8086            0    2042.3901    18.113835    22.976869    19.528704    8127.8312    3264.7094    1214.2249     1648.236    14.197133   -1069.7388    296.96895   -4236.0826 
17545000    208.86398   -4900.9407    -4483.187   -4900.9407            0    1111.5904    18.382657    22.825356    19.452929    8162.2679   -84.710604    1476.3946    1943.0872    463.27379    -582.1902     936.4053   -4350.8651 
17546000      222.757   -4909.4958   -4463.9543   -4909.4958            0    3069.1826    18.230747     22.93952    19.395202    8111.1623     3166.835    2155.1286     3885.584   -412.21431    -110.3958    280.43492   -4100.8915 
17547000    225.12293    -4895.548   -4445.2743    -4895.548            0    2023.2971    18.075069    23.076619    19.484279    8127.1163    1585.8807     2543.809    1940.2015    -217.3222    947.02554    122.13372   -4205.4617 
17548000    212.42084   -4896.0676   -4471.1997   -4896.0676            0     2748.869    18.138984    23.116354    19.303887    8094.2585    3886.6518    2229.1236    2130.8316    1882.2999   -361.84613    1754.4776   -4146.7054 
17549000    225.89191   -4878.2533   -4426.4416   -4878.2533            0    3533.0201    18.261054    22.891222    19.360205    8092.9111    3590.6426    3131.3165    3877.1011    67.867384   -25.275218   -1730.5831   -4009.4505 
17550000    222.28414   -4907.6044   -4463.0087   -4907.6044            0    4036.2012    18.172401    22.726487    19.546731     8072.699    3917.0414    4888.4876    3303.0745    1608.5251    1183.4753   -27.400324   -3987.8185 
17551000    234.11145   -4865.0644   -4396.8126   -4865.0644            0    1356.0537    18.336454    22.878949    19.530149    8193.2643    1418.5443     1230.688    1418.9289    406.18299   -1146.4945    334.10885   -4234.7772 
17552000    226.63784   -4920.6625   -4467.3588   -4920.6625            0    4202.7062    18.077447    23.104695    19.284092    8054.4619    3678.8042    4665.9186    4263.3959    813.03274    998.16864    1581.5878   -3973.6835 
17553000    221.02168   -4927.4456    -4485.375   -4927.4456            0    2382.6643    18.024471    23.098523    19.491173    8114.9289    3739.5006    2289.2444    1119.2478    97.808007   -897.83294   -472.39201   -4203.3916 
17554000    227.61744   -4879.5063   -4424.2433   -4879.5063            0    1768.4474    18.174506    22.963792    19.543774    8156.7032    2701.4207    1705.5062    898.41521   -1325.3086   -1227.6041    -785.9353   -4213.8739 
17555000    236.51264   -4905.8824   -4432.8279   -4905.8824            0         1104     18.20443    22.903505     19.56592    8157.9176    1297.2444    1746.5088    268.24663    235.24925   -1342.0584    -1402.893   -4301.4797 
17556000    228.89705   -4863.0517   -4405.2293   -4863.0517            0    3258.4956    18.177176    22.929475    19.522413     8136.807    2216.5425    4016.5678    3542.3763   -1515.8272   -1003.7058   -939.51279   -4018.5534 
17557000    213.28473   -4904.1562   -4477.5604   -4904.1562            0    2602.1657    18.133977    22.823352    19.607619    8115.1651    3191.0352    3057.7451    1557.7169   -24.436522    506.46868    1359.8531   -4169.5905 
17558000    219.29013   -4883.3289   -4444.7216   -4883.3289            0    1950.6504    18.361506    23.000887    19.334484    8165.5504    2531.0063    1496.0972    1824.8478    798.71508   -473.10604    -1666.131   -4212.4261 
17559000    224.02722   -4903.1598   -4455.0777   -4903.1598            0    2513.0657    18.009955    23.095669    19.524008    8121.0494    2941.9922    2368.6792    2228.5258    41.029178   -110.15905   -51.043308   -4157.4373 
17560000    227.70652   -4910.0597   -4454.6185   -4910.0597            0    1635.2573    18.239184    22.957892    19.458561    8147.9456     909.3032    1336.9369    2659.5317    660.91793    688.22875    -1501.145   -4260.3018 
17561000     230.2719    -4895.639   -4435.0668    -4895.639            0     3116.606    18.238711    22.794966    19.448537    8085.7447    3312.7787    3323.4544    2713.5849   -983.02182    80.483212     194.7156   -4067.5495 
17562000      240.296   -4878.8266   -4398.2049   -4878.8266            0    3450.7667    18.092556    22.740996    19.732226     8118.681    4828.1903    3402.2673    2121.8424    324.14461    231.86359    1494.7012    -3989.625 
17563000    231.72755   -4888.3677    -4424.884   -4888.3677            0    2530.6552    18.205346     22.93001    19.499683    8140.1185    3486.1812    3111.6292    994.15524    953.41694   -238.01007    567.74771   -4124.4566 
17564000    210.05636   -4875.3907    -4455.252   -4875.3907            0    2340.3775    18.154222    23.038054    19.469337    8142.8157    1783.3876    3612.0556    1625.6893   -290.94814   -29.309245   -77.587936   -4177.3214 
17565000    220.84888   -4911.0099   -4469.2849   -4911.0099            0    2725.4118    18.181387    22.898989    19.421181     8085.725    2027.5617    3683.3363    2465.3376   -2054.5526    228.53048    -1347.808   -4147.8988 
17566000      227.755   -4875.0209   -4419.4827   -4875.0209            0     1363.649    18.169664    22.954897    19.722309    8225.8348    1379.8999    1915.3242    795.72281   -257.45338   -86.294049    148.66871   -4255.8921 
17567000    234.11623   -4929.2841   -4461.0227   -4929.2841            0    2050.1019    18.312665    22.871024    19.403946    8126.9429    332.26544    3022.4153    2795.6249   -957.23008    780.19258   -1424.6902   -4218.0383 
17568000    229.29961     -4904.27   -4445.6424     -4904.27            0    1398.9712    18.196585    23.024272    19.459161    8152.6708    1138.8243    1279.0942    1778.9951      221.509   -61.475399   -1842.1946   -4279.3071 
17569000    222.81064   -4923.0872   -4477.4384   -4923.0872            0     1781.364    18.020669    22.909372    19.660535     8116.699    1863.6627    3032.7311    447.69815    933.08271    333.35255   -702.09532   -4266.5717 
17570000    234.16285   -4907.6687   -4439.3141   -4907.6687            0    1600.8494    18.145598    22.935135    19.513787    8121.0869    3411.0986   -53.460507      1444.91    291.23754   -1499.5962    1208.7438   -4249.7131 
17571000     233.0343   -4914.6426   -4448.5452   -4914.6426            0    2864.1867    18.299923    22.882327    19.430283    8136.3303    2636.9809    2644.8944    3310.6846   -1390.7735    138.64916   -77.373875   -4108.6808 
17572000    236.95283   -4870.7525   -4396.8176   -4870.7525            0    3831.0577    18.049393     22.84137    19.649016    8100.7558     3763.989    4309.1825    3420.0016   -71.767188   -275.72756    1548.0657   -3944.2118 
17573000    221.55045   -4921.0204   -4477.8921   -4921.0204            0    2989.1743    18.141254    23.049319    19.423281    8121.7197    3674.8093    2560.6168    2732.0969    -236.5116   -255.06104    -99.38248   -4123.8335 
17574000      211.572   -4909.7588   -4486.5887   -4909.7588            0    1942.3835    18.177243     23.14786    19.286506    8115.0726    1219.0676    1370.3643    3237.7187   -243.50674   -113.81182    187.44834   -4256.7075 
17575000    218.47339   -4891.2456   -4454.2718   -4891.2456            0    3647.7534    18.155692     22.83577    19.516809    8091.6533     4453.254    4300.6832     2189.323   -411.02978   -419.18364   -818.30373    -4023.806 
17576000    228.12739   -4899.6216   -4443.3386   -4899.6216            0    2173.5595    18.203352    22.653716    19.782763    8157.8887    3020.5727    2250.3954    1249.7104    727.66834   -487.57793    152.61227   -4184.7406 
17577000    215.43058   -4918.0621   -4487.1743   -4918.0621            0    3438.5033     18.27345    22.829924    19.305196    8053.7701    1410.2829    3466.8093    5438.4177   -1080.8002   -194.13264   -121.81031   -4083.3016 
17578000    235.57953    -4879.289   -4408.1009    -4879.289            0    2895.0552    17.978402     23.21572    19.477676    8129.6221    3948.3572    1991.3969    2745.4116    564.39944    51.957442   -128.51869   -4064.8568 
17579000    221.34894   -4903.4861   -4460.7608   -4903.4861            0    2362.0907     18.02763    23.197735    19.381438    8105.3209    3117.8188    1300.9971    2667.4564   -248.94596   -595.60167   -1872.0713   -4181.5433 
17580000    231.54171    -4888.881    -4425.769    -4888.881            0    3174.2715    18.192624    23.093772    19.373506    8139.5133    2264.1441    2463.5104    4795.1599    528.64583    429.51399    389.30853   -4048.9625 
17581000    233.28477   -4903.8785   -4437.2802   -4903.8785            0    241.63995      18.3414    22.613366    19.809454     8216.185    323.31735    1431.5312   -1029.9287    895.78882    -948.7042    1120.3243   -4408.3257 
17582000    213.84448   -4899.0815   -4471.3662   -4899.0815            0    2427.5547    18.107055    22.783511    19.659755    8110.4802    1121.9081     3779.726    2381.0301   -1130.6381    964.18309   -837.88277   -4184.2276 
17583000    231.26707   -4892.1258   -4429.5631   -4892.1258            0    2625.9851    18.180875    23.123499    19.280794    8105.7504    3024.5512    2423.9547    2429.4494   -417.97031   -646.58715    104.53737   -4119.1348 
17584000    236.15916   -4881.1254   -4408.7779   -4881.1254            0    2774.8662    17.964086    23.357229    19.435955     8155.157    5551.2561    1442.1104     1331.232   -341.23491    916.36375   -66.378764   -4078.7503 
17585000    230.15187    -4922.867   -4462.5348    -4922.867            0    1976.1126    18.134326    22.848243    19.604689    8122.9576    2082.1909    2552.0139    1294.1328    215.29787    642.45123   -550.40017   -4228.4346 
17586000    223.10494   -4910.6656   -4464.4282   -4910.6656            0    1279.5842    18.410176     22.63593    19.590787    8164.0971    1394.6196    2011.4644     432.6686    -1145.511    482.59804   -681.19757   -4312.0745 
17587000    222.95678    -4908.579   -4462.6379    -4908.579            0     2559.243    18.144977    22.830189    19.612778    8124.6568    3699.7779      2623.88    1354.0713   -385.77409    -331.5839   -444.55228   -4159.3937 
17588000    229.30785   -4913.0277   -4454.3837   -4913.0277            0    1578.1081    18.206195    23.334216    19.213691       8162.5    1791.7108    711.74624    2230.8672    977.81635   -175.98808   -369.82493   -4266.5231 
17589000    222.12477   -4937.1686   -4492.8917   -4937.1686            0    3957.9688    18.072032     23.02122    19.470167    8100.3725    4809.4949    3667.9445    3396.4671    258.55317   -8.0936699   -41.588087   -4025.3145 
17590000    219.37311   -4902.8931   -4464.1198   -4902.8931            0    3497.7483    18.240703    22.824277    19.484108    8111.8351    2134.5159    3316.5335    5042.1954   -1514.2775   -87.153886    345.58368   -4050.3264 
17591000    228.81409   -4917.7446   -4460.0881   -4917.7446            0     3437.689    18.226249    22.703737    19.591043     8106.851    4129.4282    2399.8738    3783.7651    149.09339   -378.80514    58.158962   -4053.6498 
17592000    223.93683   -4905.2825   -4457.3812   -4905.2825            0    3758.9421    18.017654    22.992018    19.555358    8101.0464    3619.5114    3653.4061    4003.9089    148.00485    627.49302   -923.88429   -4013.2793 
17593000    235.65871   -4900.9531   -4429.6066   -4900.9531            0    2754.0472     18.17775    23.268442    19.257735    8145.4037    4124.0832     774.9109    3363.1476    2343.5622    107.85846    1312.9531   -4102.4468 
17594000    226.48966   -4902.3076   -4449.3003   -4902.3076            0    3543.9211    18.171007    22.943953    19.370051    8075.6592    4239.1959    3571.6446    2820.9229   -1490.1385   -987.49492   -72.484573   -4031.9143 
17595000    213.56952   -4914.2202   -4487.0548   -4914.2202            0    3001.3775      18.0532    22.931068    19.553648    8094.8025    3718.9603    2849.1629    2436.0095     704.0752     210.1418    1552.7243    -4132.729 
17596000    232.98572   -4900.3623   -4434.3621   -4900.3623            0    291.93352    18.371341    22.937741    19.528805    8229.3814   -299.09731    904.68713    270.21074   -665.53497    1056.4482   -1320.6662   -4399.3251 
17597000        224.5   -4902.8913   -4453.8635   -4902.8913            0     1463.925    18.064808    23.078072    19.512912    8134.9517    2258.2892    1059.8281    1073.6577   -513.24868    -1263.519    2158.5526   -4280.1836 
17598000    221.67802    -4890.615   -4447.2316    -4890.615            0    2143.4504    18.044331     22.99144    19.584089     8124.756    3053.2411    1500.2378    1876.8723   -857.28061   -77.242996   -907.39191   -4193.2515 
17599000     212.9634   -4878.8896   -4452.9365   -4878.8896            0    3592.3737    18.310874    22.800227    19.338604    8073.7137    775.06806    3911.1263    6090.9269    823.10876   -514.88892    210.34924   -4029.9458 
17600000    222.58644    -4899.231   -4454.0306    -4899.231            0      2707.97    18.182418    22.862079    19.570955    8135.4091     3790.279    2676.2695    1657.3614   -1380.3748   -603.23498   -1731.9144   -4132.7392 
17601000    218.68985    -4929.967   -4492.5602    -4929.967            0    1587.4947    18.117984    23.033066    19.484826     8131.266    1801.3371    962.80947    1998.3375    52.327972   -389.66498    513.61866   -4304.3053 
17602000    215.98739   -4882.4834   -4450.4819   -4882.4834            0    3322.3742    18.298874     23.13733    19.193318    8126.2033    2989.2169    3619.5214    3358.3843    222.07438    581.35476    861.03566   -4056.7396 
17603000    218.96053   -4873.9476   -4435.9995   -4873.9476            0    2161.0512    17.965606    23.116594    19.579923    8131.6126    3750.1912    2262.7201    470.24224   -87.265504   -195.92194    -503.6498   -4179.7178 
17604000    225.19202   -4887.5318   -4437.1199   -4887.5318            0    2808.6809    18.318868    22.839959    19.510119    8163.0763    2493.5611    2931.8859    3000.5956    652.82791    500.12878   -268.53467   -4102.7462 
17605000    243.60633   -4897.7993   -4410.5565   -4897.7993            0    1960.3169    18.260704    22.755774    19.620057    8152.8488    1016.4387    3161.1333    1703.3786   -521.46076    526.24811   -2165.1002    -4177.473 
17606000    215.73907   -4912.3885   -4480.8837   -4912.3885            0    2502.3384    18.090425    22.960105    19.536429    8114.6135    3502.6694    2513.1218    1491.2239    614.89213    131.52368    14.136607   -4184.7487 
17607000    224.77913   -4895.2912   -4445.7051   -4895.2912            0    1878.7238    18.142665    23.193854    19.296094    8119.7643    2284.9137    746.25167    2605.0059     368.5431   -150.97819   -228.56422   -4223.2296 
17608000    221.83312   -4872.6194   -4428.9258   -4872.6194            0    3719.4913    18.052421    23.245301     19.34783    8119.0061    4459.3322    2058.8484    4640.2932     45.71292    -277.4926    1215.9875   -3988.5106 
17609000    225.53089   -4909.9789   -4458.8892   -4909.9789            0    3533.8918    18.298748    22.845367    19.408053    8113.3738    3970.3998    3342.6015    3288.6742    500.42877    1127.4754   -486.24891   -4040.7406 
17610000    236.38508   -4905.4259   -4432.6265   -4905.4259            0    1817.3663    18.108339    22.834288    19.644139    8122.6754    1396.9498    3052.2319    1002.9172    945.60645   -461.97905   -554.65437   -4217.3397 
17611000    238.64359   -4895.1738   -4417.8572   -4895.1738            0    2907.0711    18.372167    22.759774    19.461519    8137.7639     3285.862    2843.2323     2592.119    452.93389   -849.95544    773.35587   -4072.8432 
17612000    223.00664    -4889.745   -4443.7041    -4889.745            0    3517.7658    18.173232    22.891358    19.417971    8078.0694    3817.8572    4076.3486    2659.0915    414.87776    530.64743    1176.1687   -4029.2749 
17613000     226.0889   -4914.4543   -4462.2486   -4914.4543            0    3160.0216    17.951059    23.322676    19.329936    8092.8012    3191.6846     3323.741    2964.6392    584.28697    1888.0587    834.23073   -4089.2864 
17614000    239.67846   -4919.2005    -4439.814   -4919.2005            0     2165.756    18.192807    23.081218    19.384276    8139.6933    3111.5582    901.20643    2484.5033   -586.52753    74.189913   -1945.9767   -4182.7191 
17615000    224.77566    -4899.286   -4449.7069    -4899.286            0    1440.9713    18.159165    22.914332     19.57103    8143.6058    1962.4766    1562.1908    798.24631    1240.7692   -558.34653     741.3318   -4278.5683 
17616000    228.56484   -4928.1626   -4471.0047   -4928.1626            0    2221.2922    18.162425    22.917611    19.498629    8116.0974     2630.142    1631.2204    2402.5142    53.966442     -338.655    -2625.623   -4208.0815 
17617000    216.87263   -4913.5529   -4479.7808   -4913.5529            0    707.56452    18.092211    23.126727    19.528723    8171.0836    2004.3885    737.32761   -619.02252    1285.6805     269.0251    141.70757   -4395.4626 
17618000    212.09888   -4897.5697   -4473.3458   -4897.5697            0    3596.3923    18.087422    22.875571    19.622799    8119.1312    2246.0448    3793.3118    4749.8204    98.062724    1162.1593    351.12311   -4047.4998 
17619000    220.50414   -4914.0251   -4472.9896   -4914.0251            0    2485.6265     18.19623    22.798951    19.601415    8131.7441    2082.3945    3770.6212    1603.8638    300.44908    758.85005    219.08282   -4178.2113 
17620000    222.90219   -4908.2839    -4462.452   -4908.2839            0    2283.0487    18.260049    22.874973    19.546624    8164.5885    539.23762    3463.3207    2846.5878   -402.56604   -149.44434    1399.2686   -4190.6044 
17621000    221.29924   -4911.0126   -4468.3868   -4911.0126            0    3204.5708    18.176709    22.877296    19.483942    8102.0849    3414.2028    4015.4937     2184.016   -67.962976    605.78594   -509.67716   -4089.7328 
17622000    228.69728   -4884.6931   -4427.2703   -4884.6931            0    1631.7869    18.213484     23.04487    19.461424    8168.4922    2235.0539    1445.4856    1214.8213    431.93064    661.45323   -13.858891    -4232.877 
17623000    221.35185   -4894.0008   -4451.2697   -4894.0008            0    3708.5401    18.055127     22.87227    19.519621    8060.8565    4380.4229    3117.4009    3627.7966    536.32314   -982.54871    1795.9682   -4015.2962 
17624000    226.64027   -4891.7369   -4438.4284   -4891.7369            0    3238.4071    18.118352    22.961688    19.476543    8102.7864    4459.7336    1955.5977    3299.8901   -823.15827   -1713.4731   -2895.3598   -4055.7431 
17625000    228.00175   -4879.5746   -4423.5429   -4879.5746            0    2496.2332    18.205402    23.066032    19.363477    8131.2349     2916.316    2076.3033    2496.0801    429.54097   -454.68292   -1938.8151   -4127.5253 
17626000    229.48163   -4927.0035   -4468.0118   -4927.0035            0    1305.8097    18.044608    23.101768    19.545066    8147.6019    848.05151    1852.6134    1216.7641    336.10706    242.63347    54.985329   -4312.8498 
17627000    222.98205   -4912.1159   -4466.1243   -4912.1159            0    1320.3378    18.077332    23.393969    19.272489    8150.3461    667.05728    110.90177    3183.0542     832.4549    726.87165     -489.683   -4309.1831 
17628000    223.64358   -4914.5916   -4467.2769   -4914.5916            0    3931.8365    18.104956    23.086432    19.293836    8064.4151    4149.4801    3478.6931    4167.3362   -761.67548   -291.91171   -1333.6716   -4004.8488 
17629000    235.33915   -4874.4945   -4403.7871   -4874.4945            0     884.3101    18.312807    22.771655    19.703938    8216.7969    334.16686     1523.722    795.04148   -943.04565    896.85102    1048.3809   -4297.8171 
17630000    222.08714   -4919.0645   -4474.8628   -4919.0645            0    3730.4476    18.450697    22.406082    19.555037    8084.2052    2610.1768    4466.7471    4114.4189    561.51541    164.75375    457.63427   -4035.0436 
17631000    209.52237   -4904.5039   -4485.4333   -4904.5039            0    3728.0643    18.073789    22.848165    19.607976    8097.1709    4989.8657    4067.3847    2126.9424     612.8507   -142.14656    859.57738   -4045.1902 
17632000    231.35422    -4885.837   -4423.0999    -4885.837            0    2952.1653    18.090603     22.92492    19.566903    8114.8962    1696.0839    4135.3953    3025.0168   -212.43792   -91.134864   -735.71516   -4073.7187 
17633000    222.49701   -4875.1626   -4430.1411   -4875.1626            0     4090.988    18.357143    22.981965    19.226133    8111.1828    4331.5765    3920.2696     4021.118    379.50881    380.31215    798.14901   -3946.2047 
17634000    226.15718   -4928.5977   -4476.2554   -4928.5977            0    3754.4591    18.018333    22.922691    19.587467    8090.1852    4423.6392    3458.2203    3381.5177    93.015001    -71.22156   -1101.2261   -4033.2778 
17635000    213.25106   -4895.5545    -4469.026   -4895.5545            0    3458.5326    18.058447    22.970802    19.559126    8113.4581    6288.9762    2322.6743    1763.9474    1097.5842   -397.32271    1208.5221   -4059.7901 
17636000    236.39481   -4908.1082   -4435.2894   -4908.1082            0    2857.0857    18.320219    22.764182    19.469226    8119.5392    2862.9181    2982.9535    2725.3854   -837.53068    343.19014   -740.14373   -4096.9672 
17637000    228.46006   -4918.9938   -4462.0454   -4918.9938            0     2329.329    18.278818    22.804145    19.454908    8109.4441    2519.7194    2812.9733    1655.2943    427.51681    835.28818   -1375.8849   -4186.5605 
17638000    234.46913   -4923.5495   -4454.5823   -4923.5495            0    4031.0056    18.107176    22.874041    19.452002    8056.7139    3287.5134     4915.049    3890.4543   -289.58233    937.97862    426.31713   -3980.9435 
17639000    221.07572   -4920.3721   -4478.1934   -4920.3721            0    2974.0939    18.110461    22.957108    19.453329    8087.9902    3054.5598    3154.1383    2713.5835   -518.87002   -745.87981    133.16987    -4127.384 
17640000    229.99215   -4899.7338   -4439.7211   -4899.7338            0    2505.9245    18.208756    22.990485    19.405452    8123.6679    2200.0451    1394.2903    3923.4382    98.051201   -1752.6945   -1538.5226   -4142.8308 
17641000    217.93121    -4900.162   -4464.2727    -4900.162            0    2999.4552    18.093884    22.924651    19.539037    8104.7141     3127.254    2324.2345    3546.8771   -231.73271   -373.51769    1415.4316   -4109.7402 
17642000    223.83024    -4892.642   -4444.9539    -4892.642            0    3347.5743     18.10832     23.13927    19.390989    8125.0823    4276.9897    2601.0154    3164.7178   -1129.5219   -89.543555   -23.866281   -4048.2797 
17643000    219.19939   -4900.3559     -4461.93   -4900.3559            0    2505.0664    18.186028    23.206543    19.310083    8149.5277    2939.9605    1968.7929    2606.4458      322.541    302.31885    1560.5087   -4164.1966 
17644000    218.86556     -4885.97   -4448.2118     -4885.97            0    4438.2722    18.067963    23.091142    19.366314    8079.8176    7161.5079    3484.1278     2669.181   -1045.6236     1176.241    -1118.457   -3925.2242 
17645000    221.56418   -4898.4345   -4455.2787   -4898.4345            0     1472.758    18.076213    23.107206    19.549201    8165.5208    3391.9938    689.50131    336.77884    895.66817   -876.83199    972.14718   -4279.8943 
17646000    219.00661   -4894.8035   -4456.7632   -4894.8035            0    2626.8779    18.154045    22.949039    19.483557    8117.1982    2330.4282     2276.788    3273.4176   -1256.7306   -757.84114   -1373.7627   -4145.7908 
17647000    222.73705   -4926.0847   -4480.5831   -4926.0847            0    2209.7365    18.309609    22.795386    19.474851    8128.3077    137.07625    3285.3606    3206.7727   -64.657261    270.78246     836.8744   -4218.6343 
17648000    221.23617   -4906.8386   -4464.3389   -4906.8386            0    3440.1303    18.140377    22.903505    19.465972    8087.6873    3370.8708    3942.3544    3007.1657    503.04782   -364.79507    597.21103   -4058.5734 
17649000    232.98274   -4896.8146   -4430.8203   -4896.8146            0    2084.0811     18.13897    22.981646    19.541694    8146.2169    2387.5286    1792.5091    2072.2056   -1223.9536   -850.44948   -1440.8958   -4183.2227 
17650000     214.4155   -4895.1158   -4466.2583   -4895.1158            0     3793.176    18.117301    23.011081    19.369212    8074.9989    3973.5832    3614.4572    3791.4877    71.562128    422.04173    2481.1527   -4019.5528 
17651000    234.14779    -4875.876   -4407.5515    -4875.876            0      1594.22    18.246276    23.052917    19.477256    8192.7159    1942.0805    710.60252    2129.9769   -988.63667     976.1399   -75.895745   -4217.0703 
17652000    222.26838   -4888.0357   -4443.4715   -4888.0357            0    3711.3675    18.205516    22.885656    19.354517    8063.9661    3123.5983    3425.6773     4584.827    1223.0281    92.200637    2265.8552   -4006.9973 
17653000    228.31285   -4893.4042   -4436.7503   -4893.4042            0    1820.5243    18.100441    23.041933    19.489933    8128.6501    3005.5425    1197.9299    1258.1006    1112.9108    312.69953    651.26566   -4220.9307 
17654000    220.58576   -4904.4723   -4463.2735   -4904.4723            0    2521.7881    18.204243    22.981184      19.4758    8147.7996    644.73009    2755.0084    4165.6257    195.69335    387.24514    1148.8033   -4163.6163 
17655000    218.63724    -4898.614   -4461.3125    -4898.614            0    4225.9107    18.340015    22.811333    19.314785     8080.537    3506.2807    3535.2396    5636.2119    437.35252   -150.83723   -563.75458   -3963.3044 
17656000    218.54053   -4916.0569   -4478.9489   -4916.0569            0    1367.1995    18.221323     22.95223    19.525188     8165.824    1386.5138    2277.3193    437.76531    841.54131    567.43068   -157.29579   -4316.1289 
17657000    221.02544    -4896.536   -4454.4578    -4896.536            0    3172.5887    18.187182    22.828997    19.521842    8105.3737    3873.2065    3089.7627     2554.797    281.78955    -582.7726   -1774.3582   -4079.4307 
17658000    219.38418   -4919.5076   -4480.7121   -4919.5076            0    2946.7466    18.148124    22.950298     19.44225    8097.7912    3939.7293    3420.0718    1480.4387    814.60393   -1090.6169    1080.0208   -4132.7073 
17659000    225.44443   -4922.9607    -4472.044   -4922.9607            0     1114.327    17.977318    23.203101    19.498988    8133.6035    1830.6538    490.19209     1022.135   -358.80183   -180.64054   -355.84399   -4339.8622 
17660000    230.07131   -4911.1893   -4451.0182   -4911.1893            0    1523.0429    18.125391    23.181934     19.41285    8156.9225    2192.9279    950.83219    1425.3687   -45.336881    1154.9148   -1480.5205   -4269.8365 
17661000    234.34606   -4941.7437   -4473.0226   -4941.7437            0    1815.4081     18.22977    22.921503    19.468126    8134.8288      1630.62    2046.6697    1768.9348   -446.10585    862.44395   -71.088268    -4257.646 
17662000    228.93728   -4906.3466   -4448.4437   -4906.3466            0    405.68161    18.277395    22.606116    19.783119    8174.0069   -76.360728     2446.606   -1153.2004    -461.1431   -338.45334    689.44826   -4400.0826 
17663000     221.2875   -4897.4168   -4454.8144   -4897.4168            0    1515.1761    18.343357    22.917975    19.332082    8127.0642   -782.89341    2438.3984    2890.0231    384.19147    82.657509    55.146877   -4275.2283 
17664000    221.78843   -4902.5329   -4458.9286   -4902.5329            0    3088.7739    17.914746    23.261927      19.3956    8082.7576    2930.0813    2385.4258    3950.8145    910.93298   -614.99168    144.27412   -4094.8279 
17665000    230.83682   -4924.7705   -4463.0683   -4924.7705            0    2981.2202    18.222975    23.219993    19.275585    8156.2202    2078.9147    1954.8711    4909.8748    598.85556   -234.90462      199.588   -4108.4519 
17666000    232.03009   -4876.9585   -4412.8696   -4876.9585            0    3927.1424    18.166861    22.769293    19.502048    8066.9555    4693.7647     3457.306    3630.3564   -1283.9898     79.60831    -133.6823   -3950.8481 
17667000    229.17239   -4920.2174   -4461.8443   -4920.2174            0    2507.6137    18.161048    22.942939    19.502103    8125.8986    4080.6531    2083.0298    1359.1582    991.45586    1377.4799    1106.4572   -4164.6723 
17668000    221.48296    -4870.696   -4427.7028    -4870.696            0    3588.4029    18.319781    22.924623    19.257364    8087.5936    3072.1555    3259.1371     4433.916    151.19896    -734.0639    -118.0038   -4004.4533 
17669000    234.63422   -4886.2561   -4416.9587   -4886.2561            0    3459.7476    18.081096    22.937526    19.582064    8121.3794    2755.2119    4474.4945    3149.5363    -197.7862    67.099254    216.68301   -4007.1793 
17670000    224.24187   -4888.3255   -4439.8141   -4888.3255            0    3309.3497    18.134217    22.953359    19.523024    8126.2868    2732.7141    3872.3547    3322.9803   -665.76795    70.980499    2237.2748   -4047.6113 
17671000    224.81663   -4882.9316   -4433.2706   -4882.9316            0    2437.7112    18.185945    22.984383    19.437586    8124.7693     2653.628     2670.934    1988.5717    235.17731   -103.61061    1658.1341   -4144.4227 
17672000    221.42915   -4911.8388   -4468.9531   -4911.8388            0    3301.4132     18.09606    22.997473     19.43833    8089.5262    2373.8433    3641.6704     3888.726   -1345.2313   -588.23653     480.5736   -4079.4608 
17673000    224.55645   -4925.9504   -4476.8098   -4925.9504            0    2711.2919    18.275185    22.872796    19.400954    8109.6879    2194.6406    3356.6882    2582.5468    225.56655    446.60777    500.67731   -4156.1413 
17674000    224.96394   -4910.8607   -4460.9051   -4910.8607            0    1502.1919    18.116771    22.926849    19.639436    8157.4455    2274.3453    1392.8874    839.34307   -273.41509    979.46589    43.138462   -4282.1923 
17675000    211.33225   -4876.4951   -4453.8045   -4876.4951            0    4429.7574    18.058657    23.136943    19.295029    8061.8901    5136.5839    3665.1069    4487.5813     1018.526    349.24288    454.30976   -3932.9785 
17676000    214.28725   -4887.6186   -4459.0176   -4887.6186            0    3670.4491    18.165022    23.020194    19.316409    8077.3945    3215.6117    2596.3303    5199.4055   -221.88578    288.17278   -646.57613   -4026.6368 
17677000    226.85641   -4887.5856   -4433.8447   -4887.5856            0    2168.2323    18.069317    23.093825    19.475262    8126.8251    4696.5945    746.34648     1061.756    451.01645   -215.52025    250.49555   -4176.8628 
17678000     235.2373   -4913.5623   -4443.0586   -4913.5623            0    3378.5626     18.26688    22.965154    19.314081    8102.2899    2486.1997     3336.222    4313.2662     36.18158    14.540871    540.73244   -4043.8355 
17679000    225.26413   -4882.7829   -4432.2268   -4882.7829            0    1561.0348    18.269527    22.852838    19.586938    8177.7532    1884.8738    2838.8396   -40.608908    1024.3112    840.79203   -684.47792   -4246.0513 
17680000    229.14294   -4905.7402    -4447.426   -4905.7402            0    1517.7794    18.208623    22.895928    19.565593    8156.9607    1066.4231    2291.8946    1195.0205   -570.00391    34.852569   -964.51272   -4266.8696 
17681000    220.78364   -4908.6354   -4467.0409   -4908.6354            0    3299.1524    18.079956    23.123699    19.338578    8084.9851    5859.8811    1704.7615    2332.8147     793.3156   -843.17858    459.03667   -4078.0338 
17682000     222.1322   -4889.5012   -4445.2093   -4889.5012            0    2680.2006    18.114034    23.105835    19.427697    8131.2662    78.338483    3759.7268    4202.5367    703.55249     81.98433    414.00094   -4127.3746 
17683000    225.17121   -4921.8355   -4471.4653   -4921.8355            0    1571.6196    18.071024    23.076713    19.511506     8136.685    2118.1097     1498.645    1098.1042   -117.87114    279.78776   -236.44953   -4284.9687 
17684000    212.14665   -4902.2514   -4477.9319   -4902.2514            0      1718.47    18.341799    23.045948    19.323348    8168.0594    475.28362    1726.6956    2953.4306   -631.34506   -243.11105     375.5424    -4273.223 
17685000    234.46702   -4896.4476   -4427.4846   -4896.4476            0    1784.5906    18.346032    22.688342      19.6037    8159.8647     529.2882    2364.5432    2459.9404   -214.27228    434.34366    1218.5807   -4215.1125 
17686000    223.76149   -4888.0552   -4440.5046   -4888.0552            0     2222.766     18.22022    22.855042    19.547357    8139.9864    1087.4568    3060.8877    2519.9533    265.00399    350.41115    1454.4623   -4176.6326 
17687000    222.60227   -4904.8941    -4459.662   -4904.8941            0    2950.2181    18.123739    23.144817    19.250196    8074.8914    3586.4302    2529.7031    2734.5209   -583.04567    731.58167   -607.54568   -4112.2325 
17688000    227.93131   -4884.0744   -4428.1836   -4884.0744            0    3322.7893    17.874177    23.414315    19.333762    8091.4037     4717.247    2424.3824    2826.7385    1005.2494    805.42948    -958.3158   -4036.0784 
17689000    219.96565    -4917.894   -4477.9356    -4917.894            0    1664.8283     18.25358    22.846661    19.511756    8137.0532    1143.0297    2538.9379    1312.5173   -920.48117    856.48994     134.2141   -4280.3694 
17690000    235.19356   -4890.2688   -4419.8526   -4890.2688            0    2369.2381    18.423317     22.66343     19.51037    8146.2732     1374.346    3371.4574    2361.9109    965.32231    684.79699   -195.76517   -4138.3752 
17691000    219.53282   -4874.1556   -4435.0628   -4874.1556            0    5410.3172    18.097702     22.76574     19.43652    8007.9938    5080.8127    5391.6537    5758.4851   -51.235171    606.57573     587.7488   -3803.2006 
17692000    237.62567   -4918.0984   -4442.8177   -4918.0984            0    1452.4854    18.156668    23.122456     19.46839    8173.3507    1925.4445    807.83448    1624.1773    675.74138    50.659943   -294.89741   -4269.6815 
17693000    234.87638   -4920.1861   -4450.4043   -4920.1861            0    2631.1005    18.250042    23.020144    19.299881    8108.2394     437.1962    3496.5076    3959.5977    564.51322   -112.37523     1060.864   -4139.2757 
17694000    220.76044   -4883.0279   -4441.4797   -4883.0279            0    2826.4236    18.176166    22.938762    19.497866    8129.4159    2638.5728    2464.6511    3376.0468    -403.5884   -642.85409    1496.8901   -4106.3812 
17695000    222.34104   -4891.2286    -4446.519   -4891.2286            0    3282.7227     18.07684    22.896466    19.644693    8130.8547    3292.8079    4391.4273    2163.9329    -491.3501    985.97356    2284.3042   -4057.2532 
17696000    217.02765   -4893.2573   -4459.1751   -4893.2573            0    1627.0587    18.305009    22.911018     19.43722    8151.7057    837.88795    1570.7113    2472.5769   -1439.0097    -1384.118    413.06312   -4265.7435 
17697000    223.77585   -4897.4953   -4449.9159   -4897.4953            0    3392.4646    18.088184    22.905728    19.437414    8053.3682    3063.3866    4350.8006    2763.2067   -611.08115    84.038995    707.65357   -4051.4706 
17698000    220.85675   -4893.3753   -4451.6346   -4893.3753            0    1811.1981    18.125628     23.01367    19.569031     8162.971    2211.7747    2418.8686    802.95088   -677.31217   -744.31627    -1054.749    -4236.014 
17699000    227.39265   -4893.7786   -4438.9652   -4893.7786            0    793.81534    18.184372    23.067733    19.541344    8197.0513    1413.1099     119.2196    849.11651   -617.84034   -1038.2829   -515.59774   -4344.0681 
17700000    227.80501   -4914.4605   -4458.8223   -4914.4605            0    2977.5651     18.33847    22.960876    19.260005    8109.7589    1273.5575    3704.3978      3954.74   -515.76843    1281.6648   -834.99303   -4106.6582 
17701000    231.46628   -4912.6678   -4449.7066   -4912.6678            0    2750.6511    18.024619    23.046369     19.57281    8130.5844    3919.3015    3322.9911    1009.6606    1553.5459    241.66352    459.42758   -4123.5448 
17702000    226.32087   -4903.0941   -4450.4244   -4903.0941            0     1496.427    18.164479    23.009287    19.505057    8152.1721    3397.8993    637.66561    453.71619    26.164301     268.3928   -435.55876   -4272.5126 
17703000     216.7816   -4915.0097   -4481.4197   -4915.0097            0    3382.9449    18.337891     22.86095    19.315488    8097.4697    1725.3562    3718.7838    4704.6948    318.67783    215.36971    411.39895   -4081.9166 
17704000    228.33231   -4930.0596   -4473.3668   -4930.0596            0    3405.9991    18.001088    22.788407    19.623502    8049.8769    4177.7284    4574.6754    1465.5935   -1626.5936    121.86407    134.17533   -4073.5052 
17705000    222.92458   -4916.4016   -4470.5249   -4916.4016            0    1038.4435    18.314127    22.894747    19.483047    8169.1891   -107.65522    2175.7761    1047.2095   -1170.9442    101.96262   -11.460029   -4346.8055 
17706000    216.35715    -4901.456    -4468.715    -4901.456            0    2311.0043    18.230857     22.87808    19.512907    8138.5803    1495.2176    3085.6573    2352.1381    -759.0139    471.27387    327.26198   -4194.4153 
17707000    223.75011   -4899.0284   -4451.5005   -4899.0284            0     2364.434    18.122168    23.030628    19.533451    8152.5769    3528.3908    2258.2504     1306.661    -1106.827    -1156.448   -965.07216   -4170.3765 
17708000    233.35084    -4904.055   -4437.3245    -4904.055            0    2845.7279    18.121681    22.879196    19.581867    8118.8284    4029.3717    2720.4399    1787.3722    193.82393   -393.98771    224.75343   -4100.3767 
17709000    229.12008   -4909.8831   -4451.6146   -4909.8831            0    3408.1747    18.297936    22.729687    19.443344    8086.6106    4615.8545    3155.3971    2453.2725    1389.1313   -906.55016   -1537.6747   -4049.6718 
17710000    225.44529   -4883.9968   -4433.0784   -4883.9968            0    1282.8562    18.203415    22.848499    19.603153    8153.3571    2231.8411    1479.8789    136.84875    234.39396    554.64442   -1199.9841   -4280.5361 
17711000     227.5389   -4900.9953   -4445.8893   -4900.9953            0    2302.2369    18.251777    22.982277    19.347045    8115.4545    2755.0854    1926.0383    2225.5869   -443.98001    580.26484    -1803.001   -4173.4068 
17712000    226.50398   -4893.7444   -4440.7085   -4893.7444            0    4233.9067    18.000607    22.991575    19.438868    8045.0149    5805.4529    3197.9719    3698.2953    1136.3583    10.385426   -1420.7683   -3943.9514 
17713000    233.65026    -4924.983   -4457.6536    -4924.983            0    2554.0565    18.096893    23.191544     19.34488    8118.9474    3182.2189    1494.6164    2985.3343   -464.97027     459.0297   -686.12416   -4155.2367 
17714000    225.26943   -4907.5792   -4457.0125   -4907.5792            0    3129.1613    18.230513    22.990362    19.285758    8083.1645     3145.842     2894.213    3347.4288   -595.88253    -771.1243   -982.59964   -4088.1324 
17715000    211.25683   -4919.3321   -4496.7924   -4919.3321            0    1574.4633     18.10009    22.998636    19.594376    8156.6957    3650.0702    1310.1886   -236.86894   -1153.3897   -279.03622   -105.98876   -4309.4989 
17716000    221.84372   -4899.8211   -4456.1063   -4899.8211            0    1701.3639    18.294544    22.892764    19.472548      8155.35    933.02647     2583.104    1587.9612   -147.14935     371.1381     184.8552   -4253.7505 
17717000     220.8995   -4923.0187   -4481.1924   -4923.0187            0    2622.9121    18.245058    22.735578    19.462307    8073.1976    2889.1534    2372.0944    2607.4884   -1850.9746   -662.74963   -717.69747   -4172.3725 
17718000    224.78529   -4884.5348   -4434.9364   -4884.5348            0    3961.9234    18.004263    23.005513    19.556186    8100.1196    4500.6999    4057.6842    3327.3859    1540.3469    316.33283    1599.8147   -3966.9068 
17719000    224.95908   -4908.4556   -4458.5096   -4908.4556            0     1820.583    18.312742    22.931247    19.380796    8138.6554    463.29155    3029.2744     1969.183   -480.32235    934.77546   -1460.5665   -4242.4175 
17720000    226.41491   -4942.9114   -4490.0536   -4942.9114            0    2593.5235    18.180635    22.867214    19.491856    8103.5539    2383.2381    3215.6653     2181.667    101.72518    64.126792    1465.4581   -4183.5457 
17721000    221.23472   -4902.5053   -4460.0085   -4902.5053            0    3992.8338    18.324812    22.687287    19.419341    8073.4019     2056.274    4853.3817    5068.8457     558.5518     491.8027   -286.14363   -3989.8831 
17722000    219.83176   -4929.8054   -4490.1148   -4929.8054            0    2288.3615    18.189714    22.922361    19.489146    8126.0229    2282.9567      1938.99    2643.1378   -29.916153   -474.29446   -307.65185   -4218.9217 
17723000     223.4527   -4928.6192   -4481.6862   -4928.6192            0    915.42464    17.981927    23.283628    19.474627    8153.7245    2780.1193   -513.96542    480.12007    389.89814   -850.23342    336.14136   -4372.8297 
17724000    230.61474   -4914.0453   -4452.7874   -4914.0453            0    1709.0668    18.157013    23.176311    19.341773     8139.261    876.71702    2475.8799    1774.6036    662.71352    642.35623    724.28623   -4249.9164 
17725000    219.65351   -4906.7236   -4467.3895   -4906.7236            0    3139.7199     18.09816    22.928145    19.501082    8092.1149    3234.5302    3730.8825     2453.747   -1229.0444    1302.5517    834.40217   -4096.8548 
17726000    219.09669   -4893.7126   -4455.4922   -4893.7126            0    2320.4064    18.263118    22.896329    19.485474    8148.0141    2658.2163    1791.2811    2511.7217    -953.9712    855.91003     566.5654   -4179.7573 
17727000    226.78837   -4845.5717   -4391.9669   -4845.5717            0    2393.7928     18.25392    22.749079    19.609218    8142.9209    4010.6162    3023.5822     147.1801   -1253.9914   -1392.1091    502.99514   -4107.6893 
17728000    217.56611   -4859.9215   -4424.7625   -4859.9215            0    2141.2304    18.120281    23.047525    19.481819    8136.1455    2124.9117    2583.3722    1715.4073    867.19272   -634.87061   -409.74439   -4170.6898 
17729000    226.61565   -4892.8582   -4439.5989   -4892.8582            0     3207.079    18.028376    23.260687    19.466454    8163.3043    4256.9215    2486.3854    2877.9302   -1065.5589   -186.27323   -492.34452   -4057.7852 
17730000    233.23561   -4887.4383   -4420.9383   -4887.4383            0    2551.0241    17.953172    23.412041    19.311712    8117.1065     1860.735    2596.4735     3195.864    -569.0899   -148.06355   -505.04305   -4118.9489 
17731000    221.92586   -4868.8079   -4424.9288   -4868.8079            0    2813.1257    18.130734    22.973055    19.518354    8129.7526    3204.4167    2959.9015     2275.059     291.5214    833.15431    1743.0442    -4091.393 
17732000    226.04591   -4903.0098     -4450.89   -4903.0098            0     2349.144    18.283012    22.824435    19.436759    8110.9481    1362.3037    2325.1598    3359.9686    275.76836   -198.98577   -660.54261   -4173.0101 
17733000    221.26579    -4906.728   -4464.1691    -4906.728            0    2064.7213    18.234114     22.80883    19.544197    8128.4081    1614.0784    2839.3894     1740.696    846.21887    335.11269    1317.8343   -4219.4077 
17734000    221.10173   -4875.2452   -4433.0144   -4875.2452            0    1741.1646    18.214991    23.198917    19.323869    8165.6503    1962.0214    953.84458    2307.6278   -1503.2431   -12.317845   -1714.1391   -4225.6632 
17735000    224.91622   -4919.0001   -4469.1399   -4919.0001            0    3694.7096    18.031774    23.049386     19.43692     8078.398    5347.2383     2865.635    2871.2554    1700.8903    187.75794    562.39081   -4033.8471 
17736000     228.1923   -4920.0243   -4463.6115   -4920.0243            0    1818.6886    18.226301    23.128413     19.37589     8167.818    2134.3387    736.10879    2585.6183    443.29167    760.38813   -2809.7664   -4246.9707 
17737000     223.5395   -4908.4918   -4461.3852   -4908.4918            0    2680.1046    18.156513    22.890563    19.598995    8145.5935    1354.2686    3125.4086    3560.6364    1385.9672    1064.8191    684.04006   -4143.0018 
17738000    228.63383   -4893.6124   -4436.3165   -4893.6124            0    3128.1882    18.214629    22.656726    19.623024    8098.1054    2197.7017    4073.2659     3113.597   -348.22717     125.8599   -1286.2501   -4066.8695 
17739000    219.17084   -4886.3652   -4447.9964   -4886.3652            0    3692.6088     18.26763    22.764041      19.4975    8107.9394    2242.0305    5235.6591    3600.1368    -672.1416    1012.5073    1911.1326   -4011.3603 
17740000    227.63276   -4884.0854   -4428.7917   -4884.0854            0    2978.2307    18.252536    23.000389    19.350608    8123.6837    1930.8355    3027.7411    3976.1156   -460.38972   -565.72544   -1574.1902   -4075.9441 
17741000     215.3081   -4900.6721   -4470.0293   -4900.6721            0     2468.496    18.002304    23.237635    19.403286    8116.9953    3082.3571    1502.9734    2820.1576    751.59319    922.28424   -585.93503   -4177.8136 
17742000    228.47697   -4912.5684   -4455.5862   -4912.5684            0    1681.8029      18.2373    23.082686    19.387936    8161.6596    1561.5643    2262.7372    1221.1072    677.74913    585.25326    253.14905   -4255.4021 
17743000     229.7857    -4886.679   -4427.0792    -4886.679            0    2579.7773    18.214007    22.902952    19.493925     8131.979    2316.4557    2417.6684    3005.2078    1726.8245   -341.30858    731.29656   -4121.1265 
17744000    228.99767   -4893.2912   -4435.2675   -4893.2912            0    2941.2539    18.090733    22.615313    19.789239    8096.3239    3975.4774    3622.2206    1226.0636    581.52603   -248.79646    740.03287   -4087.9743 
17745000    239.83249   -4892.1374   -4412.4428   -4892.1374            0    3413.0083    18.314959    22.795844    19.412578    8104.8477    3390.0164    3715.5552    3133.4534    1243.4413   -348.76276    1019.8017   -4009.0222 
17746000    222.99758   -4902.6275   -4456.6048   -4902.6275            0    1326.0872    18.241317    22.910215    19.510049    8153.4932      1509.62    1085.0866    1383.5549    840.68769  -0.46838219    949.22459   -4298.9193 
17747000    222.82765   -4900.0618   -4454.3789   -4900.0618            0    2822.2171    17.821175    23.283548    19.503411    8092.7491    4279.6562    2528.5694    1658.4257   -738.17559   -340.02531   -2348.6912   -4121.2883 
17748000    223.01447   -4877.6836   -4431.6271   -4877.6836            0    3994.2447     18.07135    23.196415    19.300301    8090.5039    4791.8429    3129.1731    4061.7181   -1116.5342    449.24855   -999.86378   -3960.3394 
17749000    215.77149   -4895.9375   -4464.3679   -4895.9375            0    2242.8191    18.136314    22.985156    19.472088    8117.2516    3137.8286    1815.1535    1775.4751   -745.06202   -678.98629   -88.052505   -4198.8589 
17750000    227.42962   -4873.8635   -4418.9762   -4873.8635            0    1383.1997    18.322743    22.683669    19.683263    8180.8963    2916.6097    1118.9641    114.02511    -1830.303   -183.02826    576.49011   -4253.9466 
Loop time of 608.254 on 64 procs for 250000 steps with 1008 atoms

Performance: 71.023 ns/day, 0.338 hours/ns, 411.013 timesteps/s
99.1% CPU use with 64 MPI tasks x 1 OpenMP threads

MPI task timing breakdown:
Section |  min time  |  avg time  |  max time  |%varavg| %total
---------------------------------------------------------------
Pair    | 27.737     | 31.339     | 34.243     |  29.6 |  5.15
Bond    | 0.28744    | 0.29613    | 0.30879    |   0.9 |  0.05
Kspace  | 288.91     | 300.51     | 319.56     |  33.4 | 49.41
Neigh   | 3.5137     | 4.0317     | 5.2364     |  18.4 |  0.66
Comm    | 103.28     | 125.54     | 139.74     |  59.2 | 20.64
Output  | 1.0572     | 1.0578     | 1.0589     |   0.0 |  0.17
Modify  | 131.4      | 135.82     | 140.83     |  20.0 | 22.33
Other   |            | 9.651      |            |       |  1.59

Nlocal:        15.7500 ave          20 max          11 min
Histogram: 1 2 8 9 8 10 12 8 5 1
Nghost:        2461.48 ave        2492 max        2431 min
Histogram: 3 1 7 9 14 12 5 8 3 2
Neighs:        5119.47 ave        6555 max        3520 min
Histogram: 1 2 8 9 8 10 12 8 5 1

Total # of neighbors = 327646
Ave neighs/atom = 325.04563
Ave special neighs/atom = 2.0000000
Neighbor list builds = 7348
Dangerous builds = 0

unfix		3
unfix		2
unfix		1

write_data	data.final.${pid}
write_data	data.final.0
System init for write_data ...
PPPM initialization ...
  extracting TIP4P info from pair style
  using 12-bit tables for long-range coulomb (../kspace.cpp:340)
  G vector (1/distance) = 0.37781986
  grid = 24 27 36
  stencil order = 5
  estimated absolute RMS force accuracy = 0.0026100187
  estimated relative force accuracy = 7.8599937e-06
  using double precision FFTW3
  3d grid and FFT values/proc = 4050 480
Last active /omp style is kspace_style pppm/tip4p/omp
WARNING: Not all mixed pair coeffs generated from mixing. Use write_data with 'pair ij' option to store all pair coeffs. (../write_data.cpp:312)

write_restart   restart.lmp.${pid}
write_restart   restart.lmp.0
System init for write_restart ...
PPPM initialization ...
  extracting TIP4P info from pair style
  using 12-bit tables for long-range coulomb (../kspace.cpp:340)
  G vector (1/distance) = 0.37781986
  grid = 24 27 36
  stencil order = 5
  estimated absolute RMS force accuracy = 0.0026100187
  estimated relative force accuracy = 7.8599937e-06
  using double precision FFTW3
  3d grid and FFT values/proc = 4050 480
Last active /omp style is kspace_style pppm/tip4p/omp
Total wall time: 0:10:13
