LAMMPS data file via write_data, version 30 Jul 2021, timestep = 31750000

1920 atoms
2 atom types
1280 bonds
1 bond types
640 angles
1 angle types

0.0007479645294825588 24.729253035464154 xlo xhi
-0.02591065399878012 24.755911653985272 ylo yhi
0.0540194045997886 22.755980595401958 zlo zhi

Masses

1 1.008
2 15.999

Pair Coeffs # lj/cut/tip4p/long/omp

1 0 0
2 0.21084 3.1668

Bond Coeffs # harmonic/omp

1 450 0.9572

Angle Coeffs # harmonic/omp

1 55 104.52

Atoms # full

1 1 2 -1.1794 4.432308423951747 1.7668000634024905 4.163213085648664 0 0 0
2 1 1 0.5897 4.6491097635325085 2.4378409882583956 4.81050473006343 0 0 0
3 1 1 0.5897 5.1658511642370275 1.7806089662806515 3.548359764259632 0 0 0
4 2 2 -1.1794 2.754890616274387 1.4601766694061087 1.9234203275252988 0 0 0
5 2 1 0.5897 3.1315885691096024 1.5398002532194488 2.7997819532309194 0 0 0
6 2 1 0.5897 1.829128059155993 1.6742180418848904 2.0397215411456617 0 0 0
10 4 2 -1.1794 3.1997495326141943 4.5644497423230765 3.507952419354406 0 0 0
11 4 1 0.5897 2.863953930619341 5.263623677256275 4.068930535150592 0 0 0
12 4 1 0.5897 2.6260612729539328 4.575166624327462 2.7417617490681416 0 0 0
13 5 2 -1.1794 1.3884840910308682 2.9087642320230733 4.88667317915875 0 0 0
14 5 1 0.5897 2.2107384197135103 3.250044895149065 4.534853473617202 0 0 0
15 5 1 0.5897 1.5181987144566749 1.961059283708158 4.9234997044055975 0 0 0
22 8 2 -1.1794 1.3709853209321416 4.612246335104314 1.4498369266922118 0 0 0
24 8 1 0.5897 1.3514101074190106 5.3471469708885735 0.8367934298973291 0 0 0
23 8 1 0.5897 0.6330003922905407 4.771052782502273 2.0384625898170325 0 0 0
20 7 1 0.5897 3.840152678897408 2.8609853418637776 1.156383578493073 0 0 0
9 3 1 0.5897 4.996946196814794 4.702431556777055 3.6161707695542593 0 0 0
19 7 2 -1.1794 4.6570442831291174 3.24209217821908 0.8342056997340282 0 0 0
21 7 1 0.5897 5.3449734935414055 2.7308184930249366 1.2604529094541679 0 0 0
27 9 1 0.5897 4.692599434393981 5.071199183993075 0.6501637348296444 0 0 0
387 129 1 0.5897 3.871281987951818 0.3217152535621349 1.0124521360656202 0 1 0
28 10 2 -1.1794 1.7188315884762166 0.2670233591414665 4.981028614273388 0 0 0
7 3 2 -1.1794 5.9495602227918365 4.734253397936138 3.5273248809174866 0 0 0
98 33 1 0.5897 0.2610809615787889 5.622580398158839 4.05954883491091 1 0 0
25 9 2 -1.1794 4.633672217668457 6.026626419257115 0.646738730800752 0 0 0
47 16 1 0.5897 5.874146036957047 0.8957922321827099 1.602031236717312 0 0 0
99 33 1 0.5897 0.17277235752730266 4.116502974116741 3.9328019581508142 1 0 0
867 289 1 0.5897 4.566527518076418 0.2973210714023022 5.419648666455315 0 1 0
1455 485 1 0.5897 1.2266810456038864 3.4081048118850004 0.05889600030887365 0 0 1
60 20 1 0.5897 8.51712567878438 -0.010408211944515244 4.6525956037047385 0 0 0
37 13 2 -1.1794 12.009001841423968 4.621186569715923 3.648470678759566 0 0 0
46 16 2 -1.1794 6.256224078495153 1.5681880086245106 2.1661228138999027 0 0 0
8 3 1 0.5897 6.211330048743361 5.508662109350893 4.025391762503769 0 0 0
416 139 1 0.5897 10.034576549955414 0.14752558658276432 1.143840090644576 0 1 0
31 11 2 -1.1794 10.780911725428057 1.3053573797799738 4.380394751678973 0 0 0
32 11 1 0.5897 10.734920693610324 2.086516683019737 4.931733312702474 0 0 0
34 12 2 -1.1794 9.002670974007527 1.5458319609430644 2.1425042410454163 0 0 0
36 12 1 0.5897 9.540541821141224 2.139554089710112 1.618575423541522 0 0 0
39 13 1 0.5897 11.065421602194112 4.767618750260833 3.7162494966728365 0 0 0
40 14 2 -1.1794 9.351545465515255 4.998296805683305 3.6346912999590413 0 0 0
41 14 1 0.5897 8.887261864262754 5.008884342512793 2.797675435727594 0 0 0
42 14 1 0.5897 8.984595510012321 4.248501169327574 4.103166158357072 0 0 0
43 15 2 -1.1794 7.804830857806402 3.063512199397464 4.872315908996871 0 0 0
45 15 1 0.5897 7.130632604687834 3.450754482810623 4.313905571165801 0 0 0
48 16 1 0.5897 7.196933094351469 1.5180476047044984 1.9960438136251046 0 0 0
49 17 2 -1.1794 10.823841250776606 3.3204496515311663 1.0120840565235985 0 0 0
52 18 2 -1.1794 7.662101190124361 5.055966123479428 1.4994599304218743 0 0 0
53 18 1 0.5897 7.806768607777509 4.267499962514968 0.976302009682552 0 0 0
54 18 1 0.5897 6.908955592804303 4.843351744984363 2.0507254872704532 0 0 0
35 12 1 0.5897 9.463754926250614 1.4791807465486873 2.978701578902827 0 0 0
33 11 1 0.5897 10.838570734856857 0.5776111634676642 4.9995430427981775 0 0 0
59 20 1 0.5897 7.770369032563486 1.2506914718684823 5.032248782881548 0 0 0
50 17 1 0.5897 11.509187456328451 2.862384303364076 1.4987088730494786 0 0 0
56 19 1 0.5897 10.846439159357391 5.079678482869898 0.7474314304521652 0 0 0
58 20 2 -1.1794 7.687406624835298 0.2971504820220939 5.0177341078301865 0 0 0
78 26 1 0.5897 12.085976848801096 1.2931068704347934 3.0126349018240055 0 0 0
77 26 1 0.5897 12.069704388875206 0.9838957603829597 1.530738813178191 0 0 0
55 19 2 -1.1794 10.885770006087787 6.024097653263701 0.5962751331245694 0 0 0
1619 540 1 0.5897 7.735044813635363 6.067048298944651 0.0788362610516234 0 0 1
44 15 1 0.5897 7.734878027142774 3.5408159595192212 5.699084739290518 0 0 0
51 17 1 0.5897 10.821283121693508 2.9029855911271554 0.15071114553798637 0 0 0
496 166 2 -1.1794 0.2779454205253131 1.7325625318393985 7.894807852768619 0 0 0
150 50 1 0.5897 1.7716612849664757 5.837181771182152 5.809660646461738 0 0 0
579 193 1 0.5897 0.3191106350725524 5.376383483621044 9.612976446189972 1 0 0
508 170 2 -1.1794 1.5210627953407696 0.20271927413240667 10.638092677755202 0 0 0
494 165 1 0.5897 1.4646780006859164 1.9592550781453808 10.549842230709361 0 0 0
504 168 1 0.5897 1.5451316793455532 3.7987712574453765 6.492550628978223 0 0 0
501 167 1 0.5897 4.666999556306627 4.290337959631169 6.567753895315515 0 0 0
499 167 2 -1.1794 4.784555074279 3.3438912716296048 6.485627795035207 0 0 0
483 161 1 0.5897 4.561653319950681 2.365640487280387 10.576839692406532 0 0 0
492 164 1 0.5897 2.827789120491525 4.039777147817432 9.837722749847925 0 0 0
493 165 2 -1.1794 1.4560361713025898 2.9131691013550034 10.629224744441817 0 0 0
491 164 1 0.5897 2.8384970351935515 4.634239018002988 8.44544731151129 0 0 0
485 162 1 0.5897 3.3395778173303357 1.7365606203862403 8.59872294479142 0 0 0
481 161 2 -1.1794 4.482837904711675 1.6114312647677371 9.992676308246368 0 0 0
482 161 1 0.5897 5.2256027449117095 1.692696565260444 9.394333625747532 0 0 0
502 168 2 -1.1794 1.6383496562328088 4.557853155185608 7.068220664681094 0 0 0
500 167 1 0.5897 4.026194429141654 2.968149981541851 6.932891702637412 0 0 0
490 164 2 -1.1794 3.31031099305903 4.648384572540039 9.278190763919234 0 0 0
503 168 1 0.5897 0.9765692451738558 4.426715244010569 7.747301924823742 0 0 0
498 166 1 0.5897 1.2318475489314642 1.653583839918662 7.909368127564297 0 0 0
484 162 2 -1.1794 2.998757228120511 1.7151660943852836 7.704502134032863 0 0 0
489 163 1 0.5897 5.078686600601006 4.736043437929378 9.295136340160674 0 0 0
486 162 1 0.5897 3.5174418646733345 1.0405653789567517 7.266096107765345 0 0 0
578 193 1 0.5897 0.25279945125053654 3.867330177482802 9.715416316237786 1 0 0
527 176 1 0.5897 6.03722412653632 0.8185035595473337 7.647527730957789 0 0 0
528 176 1 0.5897 5.98749088386046 2.315294882390868 7.425565842109331 0 0 0
629 210 1 0.5897 2.207040862832106 6.169521619328376 10.192969945326425 0 0 0
505 169 2 -1.1794 4.520351077093314 6.102713761140206 6.543368842019575 0 0 0
487 163 2 -1.1794 6.01464824854784 4.928051734655049 9.236105983473546 0 0 0
1347 449 1 0.5897 4.518284652449913 0.303469855487606 11.289931400091268 0 1 0
525 175 1 0.5897 7.566652871766657 2.24448072694768 10.704151330264477 0 0 0
520 174 2 -1.1794 9.486901078912975 4.497211427441938 9.248457866139388 0 0 0
526 176 2 -1.1794 6.352375591398929 1.6479335620102247 8.006760159590218 0 0 0
512 171 1 0.5897 10.121560615916 1.5853772358026577 9.177622146033228 0 0 0
1010 337 1 0.5897 10.739369386659735 2.772322411712614 11.219275332959642 0 0 0
519 173 1 0.5897 11.287260271208622 4.4852758412146345 9.29150174165152 0 0 0
530 177 1 0.5897 10.233701813866004 2.831983668009524 6.805067719674506 0 0 0
534 178 1 0.5897 7.00768752861272 4.874415727789964 7.6968701573525475 0 0 0
513 171 1 0.5897 11.624212575784872 1.5013090793568413 9.34263725077281 0 0 0
488 163 1 0.5897 6.435915558380839 4.221834642743299 9.726108384386414 0 0 0
514 172 2 -1.1794 9.10497991596444 1.7429953456896314 7.617880945784099 0 0 0
558 186 1 0.5897 12.2489422261122 2.0913074032427907 7.2829397691765205 0 0 0
538 180 2 -1.1794 7.671146712657457 0.4872415537183883 10.565927945103983 0 0 0
522 174 1 0.5897 9.130878740580227 4.451562958454932 8.361094868822704 0 0 0
529 177 2 -1.1794 11.013207399211947 3.230176719942428 6.417565483445321 0 0 0
531 177 1 0.5897 10.821585218250165 4.1679375489918655 6.402884075802281 0 0 0
532 178 2 -1.1794 7.706242342474314 4.761775311718212 7.0521611338730015 0 0 0
517 173 2 -1.1794 12.244343294957565 4.504406017528462 9.293689206968873 0 0 0
511 171 2 -1.1794 10.81131798715192 1.5839378176333276 9.841351964577333 0 0 0
523 175 2 -1.1794 7.559905798646457 3.197920161563824 10.78921430453483 0 0 0
516 172 1 0.5897 9.475445440157664 1.0007680152480791 7.140216249846996 0 0 0
1377 459 1 0.5897 10.75036398861876 0.3004079396354449 11.22983778536334 0 1 0
535 179 2 -1.1794 10.609412556814151 5.9885594069061066 6.420700356112995 0 0 0
524 175 1 0.5897 8.328047800938664 3.48821102681898 10.29725388571661 0 0 0
521 174 1 0.5897 9.146701738082792 5.319364476397993 9.601511768460771 0 0 0
533 178 1 0.5897 7.588001059749865 5.4887511443640555 6.440760101720795 0 0 0
515 172 1 0.5897 8.157773052073239 1.6376392546925245 7.5279727404817285 0 0 0
660 220 1 0.5897 7.978351568320085 6.147063995736247 11.383689726793616 0 0 0
961 321 2 -1.1794 4.567475619354261 1.729022305089147 15.516629151677703 0 0 0
962 321 1 0.5897 5.28311558351604 1.6131827647400125 14.891526967858008 0 0 0
963 321 1 0.5897 4.592598227964258 0.9406369776410983 16.058949615232986 0 0 0
964 322 2 -1.1794 2.704547223731288 1.5704400131918157 13.363294431010651 0 0 0
965 322 1 0.5897 3.080070388954479 1.711867025407859 14.232338221018473 0 0 0
966 322 1 0.5897 1.7632737360895026 1.4911763143883379 13.518525815789381 0 0 0
970 324 2 -1.1794 3.225328199562213 4.766997685916209 14.93362622197754 0 0 0
971 324 1 0.5897 4.167596016581753 4.624557764897285 14.842966664741475 0 0 0
972 324 1 0.5897 2.885359528293127 3.929842447878768 15.249719220596383 0 0 0
973 325 2 -1.1794 1.5900653960974982 2.8997182037543148 16.161829361112222 0 0 0
975 325 1 0.5897 0.9063338247462657 3.419947047198985 15.73968443283786 0 0 0
982 328 2 -1.1794 1.2864409557155525 4.504147341770098 12.888148285123759 0 0 0
983 328 1 0.5897 1.3818540943200106 5.136715823989053 12.176092117429702 0 0 0
984 328 1 0.5897 1.951039736263461 4.760573261868195 13.527570810435563 0 0 0
980 327 1 0.5897 3.858143486557369 2.785502930317066 12.409531522883801 0 0 0
981 327 1 0.5897 5.363701272615874 2.864498374254273 12.548508026900233 0 0 0
979 327 2 -1.1794 4.619257982015189 3.2909477267232 12.123908542277707 0 0 0
990 330 1 0.5897 1.5570116259565219 0.9203475051486109 16.540728731318282 0 0 0
986 329 1 0.5897 4.566534092142555 5.2270376633375655 12.002253206053485 0 0 0
967 323 2 -1.1794 5.969811934140399 4.707989619648655 14.902294931626525 0 0 0
1109 370 1 0.5897 0.7172111540452549 5.780987835194928 16.09686913856829 0 0 0
1008 336 1 0.5897 5.9263277334242925 0.8775168468471772 12.908537882423905 0 0 0
988 330 2 -1.1794 1.32530268466749 0.017123962975457804 16.324333354681478 0 0 0
1346 449 1 0.5897 3.7326717919106 0.16186719645497577 12.576301086060662 0 1 0
1110 370 1 0.5897 2.2270051448201893 5.741049909745188 15.991097003968484 0 0 0
976 326 2 -1.1794 0.0023486719621614908 1.430897905555098 13.606851800998108 0 0 0
495 165 1 0.5897 1.432425654368379 3.0753062517276746 11.572296362687817 0 0 0
1460 487 1 0.5897 4.701679233016529 2.819281931624914 16.950065213802336 0 0 0
974 325 1 0.5897 1.665124706619806 3.270373805796696 17.041161708567778 0 0 0
1108 370 2 -1.1794 1.5125606940240377 6.160813213003246 16.470364955142152 0 0 0
968 323 1 0.5897 6.356333370003403 5.391210178257447 15.450121357454217 0 0 0
1006 336 2 -1.1794 6.285680867468231 1.5906064229579606 13.436432468785922 0 0 0
969 323 1 0.5897 6.342523365042485 3.892348724188842 15.237165229125859 0 0 0
1018 340 2 -1.1794 7.654414478967013 0.028272785449117793 16.43076437200973 0 0 0
1017 339 1 0.5897 10.858046593704964 5.016909997738919 12.130968749032204 0 0 0
991 331 2 -1.1794 10.792753714398499 1.374484967188687 15.678731617983603 0 0 0
992 331 1 0.5897 11.474882111454699 1.3407138568126071 15.008005343571831 0 0 0
993 331 1 0.5897 10.950874244177301 0.6016116071581019 16.220912812411203 0 0 0
994 332 2 -1.1794 9.035533524060806 1.5182360835769033 13.497856833242064 0 0 0
995 332 1 0.5897 9.420891812872483 2.186336827376188 12.930892748982881 0 0 0
998 333 1 0.5897 11.172184124873937 4.495266868220229 14.956602265090554 0 0 0
1000 334 2 -1.1794 9.440589670737724 4.341397672908846 15.079012209945052 0 0 0
1001 334 1 0.5897 8.981776879810782 3.694353460155526 15.614859766987644 0 0 0
1002 334 1 0.5897 8.88353140342502 4.453420219825914 14.308677524355836 0 0 0
1003 335 2 -1.1794 7.522678295006614 2.712923146088412 16.243968754361784 0 0 0
1004 335 1 0.5897 7.609610989646392 1.767993885792047 16.369969988021424 0 0 0
1007 336 1 0.5897 7.213815803039167 1.3757404488923954 13.53009359899007 0 0 0
1012 338 2 -1.1794 7.862517825232072 4.960658649773741 12.922961121509138 0 0 0
1014 338 1 0.5897 7.745952404322908 4.235088951814283 12.309571820150326 0 0 0
1011 337 1 0.5897 11.391694818436116 2.8085547829028483 12.584968191722236 0 0 0
1009 337 2 -1.1794 10.658988137801702 3.170090741869581 12.086202893233372 0 0 0
996 332 1 0.5897 9.452414644176864 1.6558501067816398 14.348465096274886 0 0 0
1013 338 1 0.5897 7.0679113234223845 4.953668271485569 13.456705654178728 0 0 0
1038 346 1 0.5897 12.020952114537446 0.8961334243958031 12.878938916562179 0 0 0
1139 380 1 0.5897 8.538626401579089 5.86496528132154 15.837963114901385 0 0 0
997 333 2 -1.1794 12.109568552638455 4.678319061849938 15.021258897890036 0 0 0
540 180 1 0.5897 7.588611772961162 0.10751789116405064 11.440709950228673 0 0 0
1490 497 1 0.5897 11.001237824032799 2.6433992124569174 17.06081432705653 0 0 0
1015 339 2 -1.1794 10.88232312667729 5.9636301671294465 11.991479454928172 0 0 0
1826 609 1 0.5897 4.179347882155827 0.198545526220029 18.2667263006151 0 1 0
1590 530 1 0.5897 2.199875070402436 6.013704703575002 21.514549703072205 0 0 0
1465 489 2 -1.1794 4.528737975855044 5.9350411525220625 17.8191051845223 0 0 0
1454 485 1 0.5897 2.172117198720115 3.586218096713573 21.591898435151403 0 0 0
1464 488 1 0.5897 0.9002066121284861 4.3815740811249775 18.98249839495227 0 0 0
1443 481 1 0.5897 4.705297218989605 2.355187166852945 21.85408315263244 0 0 0
1450 484 2 -1.1794 3.3457579637482824 4.7810193271447226 20.658628186036324 0 0 0
1469 490 1 0.5897 1.5187659708174954 1.2616526510856354 21.86704726415729 0 0 0
1442 481 1 0.5897 4.120845992766875 1.5858665102496219 20.688508652068922 0 0 0
1453 485 2 -1.1794 1.4654886820640523 3.0274754427207746 21.9156678255441 0 0 0
1444 482 2 -1.1794 3.0626589364340155 1.3788935006678844 19.238281085010726 0 0 0
1463 488 1 0.5897 1.699870429889966 5.072902472857073 17.898689954341638 0 0 0
1452 484 1 0.5897 3.035579984157542 4.562393356274151 19.77985425028304 0 0 0
1441 481 2 -1.1794 4.903424281149296 1.6517731540795237 21.23582514474003 0 0 0
1451 484 1 0.5897 4.298484516816169 4.820223143626356 20.574051910507503 0 0 0
1445 482 1 0.5897 2.1432458746478473 1.493639628389754 19.47887135762423 0 0 0
1446 482 1 0.5897 3.2793821491722275 2.164885145606578 18.73672874420569 0 0 0
1461 487 1 0.5897 5.500675074706119 2.71592615351907 18.231832615431355 0 0 0
1459 487 2 -1.1794 4.813551840421596 3.2298589677562903 17.8074795917458 0 0 0
1462 488 2 -1.1794 1.70352481194737 4.303257960707282 18.467833029739722 0 0 0
1466 489 1 0.5897 4.7322807026900575 5.000284852400439 17.78551326131563 0 0 0
1456 486 2 -1.1794 0.28766101775221065 1.5608854456088594 19.19136857095561 0 0 0
1488 496 1 0.5897 6.093748440377032 0.7348308759555505 18.32742308873054 0 0 0
1468 490 2 -1.1794 1.608509805328278 0.3089595395561644 21.841596860648327 0 0 0
1538 513 1 0.5897 0.33293138088965407 4.00970442193654 20.924797662261724 1 0 0
1539 513 1 0.5897 0.17700572860503058 5.511022327083435 20.80706152843179 1 0 0
1487 496 1 0.5897 6.002390865377985 1.3748267563803154 19.696359314881747 0 0 0
1447 483 2 -1.1794 6.117843158328769 4.693431201157088 20.618364384604856 0 0 0
386 129 1 0.5897 4.746324623930406 0.36322449273146673 22.479671013816496 0 1 -1
1470 490 1 0.5897 1.489515733851795 0.032329227875543154 22.750198041835308 0 0 0
1484 495 1 0.5897 8.489695442566797 3.3010566644314783 21.62273088759304 0 0 0
1480 494 2 -1.1794 9.620923626396904 4.585112275740889 20.634009237436825 0 0 0
1494 498 1 0.5897 7.140464721436911 4.388366414623032 19.08296922268019 0 0 0
1474 492 2 -1.1794 9.250076406705704 1.5048063772103595 19.317215896232394 0 0 0
1482 494 1 0.5897 9.2059161127596 4.4673225214101135 19.779519389935285 0 0 0
1005 335 1 0.5897 7.614593196199169 3.0816664583858207 17.12250338732036 0 0 0
1517 506 1 0.5897 12.071170314022346 1.9452911069327665 18.747396572905455 0 0 0
1472 491 1 0.5897 10.927746865743561 1.0493922958597062 22.029825486708983 0 0 0
1475 492 1 0.5897 8.298975627020527 1.4800781034364079 19.211516401164666 0 0 0
1489 497 2 -1.1794 10.87452797475543 3.151449922137649 17.86211890877248 0 0 0
1476 492 1 0.5897 9.560046059424472 0.7070904643039254 18.888404655452337 0 0 0
1491 497 1 0.5897 10.131145922438312 2.7330764022442993 18.296500299685544 0 0 0
1620 540 1 0.5897 8.547410188325811 5.887730992016004 21.515923338809742 0 0 0
1518 506 1 0.5897 12.24352685466865 1.4277191721535936 20.159603504139326 0 0 0
1481 494 1 0.5897 10.559950335767152 4.5747869043851646 20.448271177189202 0 0 0
1485 495 1 0.5897 7.883088268351935 2.0151112719681374 22.142820306107545 0 0 0
1448 483 1 0.5897 6.58599006184266 5.463934139573301 20.940066773099794 0 0 0
1449 483 1 0.5897 6.465232884617967 3.967673274578904 21.13691909697099 0 0 0
1483 495 2 -1.1794 7.826668115915852 2.966983929595729 22.226966892558803 0 0 0
1471 491 2 -1.1794 10.997350263586052 1.8022946640418274 21.442810736565463 0 0 0
1473 491 1 0.5897 10.25903986159843 1.7065056228797768 20.841113572822458 0 0 0
1498 500 2 -1.1794 7.855891971182722 0.24863594522212823 22.089454789308004 0 0 0
1492 498 2 -1.1794 7.8916839041082945 4.294918823513596 18.497086928734802 0 0 0
1496 499 1 0.5897 10.89112605739386 4.981348476428051 17.78624057644673 0 0 0
1495 499 2 -1.1794 10.883538643095283 5.932308015267719 17.89552439962315 0 0 0
1486 496 2 -1.1794 6.5217837492799875 1.3782516655816754 18.892312315859616 0 0 0
1493 498 1 0.5897 7.801925867096193 5.016729808958608 17.874819208904572 0 0 0
121 41 2 -1.1794 4.523661441933586 7.871702064019335 4.373634310684245 0 0 0
122 41 1 0.5897 3.8224559503397084 7.9047590925614495 3.7228392691186873 0 0 0
123 41 1 0.5897 5.329452311101425 7.848775318442974 3.8573875315136514 0 0 0
124 42 2 -1.1794 2.8744347729608495 7.666729966627901 1.9864911199859137 0 0 0
125 42 1 0.5897 3.3952042277232755 6.932431369246173 1.6610132954554024 0 0 0
126 42 1 0.5897 3.2804836155360193 8.440656266748082 1.5960012895003481 0 0 0
129 43 1 0.5897 5.0014617225099585 11.039261203414544 3.727699920198025 0 0 0
130 44 2 -1.1794 3.142367516754768 10.910349288640345 3.7647753260410006 0 0 0
132 44 1 0.5897 2.6520906502635655 10.130584091990396 4.025406010362653 0 0 0
133 45 2 -1.1794 1.4780544621743998 9.065637926544317 4.963279832692436 0 0 0
135 45 1 0.5897 0.8692314976302251 9.59844271274566 4.451643705774852 0 0 0
137 46 1 0.5897 1.0707277564296496 7.659738965396173 2.2366190791760348 0 0 0
139 47 2 -1.1794 4.586108405122338 9.648572909169404 0.8897226781469652 0 0 0
142 48 2 -1.1794 1.4473412536904506 10.757280915417017 1.5473142447689323 0 0 0
143 48 1 0.5897 2.181180228246384 10.842661721419104 2.156008632884229 0 0 0
144 48 1 0.5897 1.554660980982787 11.48778523064397 0.9381085897886878 0 0 0
149 50 1 0.5897 1.530307300901845 7.193400947572731 5.181558662675184 0 0 0
131 44 1 0.5897 2.7465311942997523 11.622026952312725 4.267906355373001 0 0 0
140 47 1 0.5897 4.814668808682992 10.577658434539794 0.8598739594646928 0 0 0
148 50 2 -1.1794 1.718716494268254 6.280671617642798 4.96304184092873 0 0 0
136 46 2 -1.1794 0.13226063591680493 7.76010653848731 2.3965644717587193 0 0 0
218 73 1 0.5897 0.1964872779262559 10.919991509788801 2.821391761559023 1 0 0
168 56 1 0.5897 5.9129788399368115 8.415358992915252 1.6440354092280156 0 0 0
270 90 1 0.5897 0.7578622402443334 12.239156108155289 4.636070158700558 0 0 0
1574 525 1 0.5897 1.7236751143932976 9.609164909237657 0.141693471532107 0 0 1
127 43 2 -1.1794 5.9397221395132105 10.995694719567162 3.5429245206206597 0 0 0
26 9 1 0.5897 5.393415892232112 6.315750640956579 1.1522380594793975 0 0 0
157 53 2 -1.1794 12.258531790311277 10.662592551411965 3.560225772017741 0 0 0
128 43 1 0.5897 6.305598355157661 11.767356286082656 3.9753480689565 0 0 0
198 66 1 0.5897 12.261377799273399 7.743644845233916 2.913189121922997 0 0 0
166 56 2 -1.1794 6.251070060722441 7.64877652990204 2.1070217206209336 0 0 0
178 60 2 -1.1794 7.4192391089789576 6.555659315967506 5.042941547536153 0 0 0
151 51 2 -1.1794 10.865401819422644 7.7297236221362455 4.31698102075284 0 0 0
152 51 1 0.5897 10.11793592533995 7.8056067911245055 3.723799780617341 0 0 0
153 51 1 0.5897 10.64328914590232 6.995999162735944 4.8902231027556535 0 0 0
154 52 2 -1.1794 9.027403304440615 7.811004848513111 1.9692899703554276 0 0 0
155 52 1 0.5897 9.490284237828376 8.601398478820547 1.691173585940295 0 0 0
156 52 1 0.5897 9.52208510129607 7.092162437863316 1.5757444438308137 0 0 0
158 53 1 0.5897 11.317451899346267 10.77573142569441 3.426266915874264 0 0 0
160 54 2 -1.1794 9.538501380726638 10.981500655206988 3.5414033260129325 0 0 0
161 54 1 0.5897 9.037788512003498 11.09006905594004 2.732841787928793 0 0 0
162 54 1 0.5897 9.056672419473431 10.317560159775773 4.0346951933064705 0 0 0
163 55 2 -1.1794 7.711589031251402 9.298688765652129 4.77836870018072 0 0 0
164 55 1 0.5897 6.9803611200261955 9.659708367092708 4.277066932154539 0 0 0
167 56 1 0.5897 7.202693211385108 7.744755556302075 2.067277897423878 0 0 0
169 57 2 -1.1794 11.03500567837881 9.560964121780563 0.7211264487667759 0 0 0
172 58 2 -1.1794 7.711351622079629 10.994576987341613 1.4014170235696355 0 0 0
173 58 1 0.5897 7.57697467612017 10.197828279837093 0.8881607245076626 0 0 0
174 58 1 0.5897 7.009038142027489 10.982388546880566 2.0517401389442846 0 0 0
179 60 1 0.5897 7.56585956914738 7.501333842996505 5.0659282553799585 0 0 0
171 57 1 0.5897 10.851449812161002 10.495444719520629 0.62425810437445 0 0 0
300 100 1 0.5897 8.50924014038991 12.175115921134253 4.498748188021679 0 0 0
197 66 1 0.5897 12.199737753844271 8.37491548985085 1.538553157985914 0 0 0
175 59 2 -1.1794 10.653564597733098 12.221246679494106 0.6883532229953302 0 0 0
57 19 1 0.5897 11.663316635654096 6.311595298956249 1.0749231146251652 0 0 0
650 217 1 0.5897 11.01434685832731 8.92623306370307 5.58773937924714 0 0 0
299 100 1 0.5897 7.627975932611472 12.286054703320266 5.724752207792625 0 0 0
165 55 1 0.5897 7.684352827070088 9.766386288153296 5.613099116426591 0 0 0
180 60 1 0.5897 8.07570258124184 6.2258666734952905 4.429262767212142 0 0 0
621 207 1 0.5897 4.5373118417142075 9.005361940047177 5.740406001569039 0 0 0
507 169 1 0.5897 4.431576714484962 6.6097438868672915 5.736340301172418 0 0 0
134 45 1 0.5897 1.5043647050312166 9.488728403081181 5.8215040486939555 0 0 0
616 206 2 -1.1794 0.02222340460557792 7.521274025272546 7.85499615596738 0 0 0
628 210 2 -1.1794 1.448075413940144 6.340720365450558 10.750633464276005 0 0 0
506 169 1 0.5897 3.9200469736112065 6.523902380238999 7.158624935161128 0 0 0
698 233 1 0.5897 0.397434418235556 11.475723903128621 9.920081783276622 1 0 0
699 233 1 0.5897 0.24702089236439811 10.644790167867207 8.663542166124687 1 0 0
612 204 1 0.5897 2.850444049537518 11.4251164321257 9.775812318411832 0 0 0
624 208 1 0.5897 1.3890502160199343 11.34757847162416 6.6011995708537485 0 0 0
615 205 1 0.5897 0.929985371935385 9.374740812042914 10.369124616323523 0 0 0
614 205 1 0.5897 2.429660517320593 9.56212494206147 10.27895311058964 0 0 0
603 201 1 0.5897 3.891124443099011 7.8774731864849565 9.422781688103937 0 0 0
610 204 2 -1.1794 3.1766563140103172 10.710092271801193 9.22934665732197 0 0 0
601 201 2 -1.1794 4.718436310256819 7.944538940727024 9.899645607809964 0 0 0
619 207 2 -1.1794 4.459342872579332 9.494208179030945 6.559676008377476 0 0 0
630 210 1 0.5897 1.4654717352075215 7.286734268641942 10.895839493059452 0 0 0
611 204 1 0.5897 4.121969967605292 10.854188730001017 9.184671977884792 0 0 0
605 202 1 0.5897 3.11641937275182 8.44583067603766 7.309607612364842 0 0 0
604 202 2 -1.1794 2.777415949035582 7.721567555472801 7.8357499062955345 0 0 0
622 208 2 -1.1794 1.4165634384719465 10.568532519351885 7.156737115284296 0 0 0
602 201 1 0.5897 4.727965859156156 7.177815599325422 10.472651859659809 0 0 0
620 207 1 0.5897 5.226573275302045 9.232877278384867 7.068985855844197 0 0 0
623 208 1 0.5897 2.1887678361102414 10.694265831762278 7.708299301116327 0 0 0
606 202 1 0.5897 1.8267472114035554 7.830986408246979 7.810516544111844 0 0 0
613 205 2 -1.1794 1.7535157429753434 9.09170901752279 10.766668532695256 0 0 0
626 209 1 0.5897 4.4412092305999735 11.263186345670716 6.3799076781080535 0 0 0
647 216 1 0.5897 5.866298085274737 7.790699174613589 8.575204437900398 0 0 0
607 203 2 -1.1794 5.936348747327708 10.879468013131264 9.077202026957782 0 0 0
625 209 2 -1.1794 4.5055595404803945 12.217965063443886 6.355735609461373 0 0 0
648 216 1 0.5897 5.928831120552768 7.145565617814712 7.207053944529601 0 0 0
1101 367 1 0.5897 4.660368942716097 8.807179500103452 11.379372471610552 0 0 0
644 215 1 0.5897 7.7319029072527 9.66518345025799 11.352454030356759 0 0 0
643 215 2 -1.1794 7.752579202186613 9.330066592106501 10.456067666136683 0 0 0
659 220 1 0.5897 7.129356219122913 6.272302464522122 10.136478821246884 0 0 0
642 214 1 0.5897 8.954100123999773 10.469001301941242 9.626587753757 0 0 0
678 226 1 0.5897 12.284645193086387 8.342720552509096 7.3600225091923335 0 0 0
645 215 1 0.5897 7.86984044352898 8.385264046194543 10.555684121035052 0 0 0
633 211 1 0.5897 10.744732768770024 7.115624216068255 10.441740392944716 0 0 0
637 213 2 -1.1794 12.112256254588724 10.551158871273397 9.346826755638345 0 0 0
537 179 1 0.5897 9.897614584086647 6.491644669364102 6.816422319232827 0 0 0
536 179 1 0.5897 11.406119634719436 6.364143878363649 6.79559316073245 0 0 0
641 214 1 0.5897 10.332166994527226 10.791375053051349 9.088800662116961 0 0 0
608 203 1 0.5897 6.301566308348243 11.646139628268868 9.51895190699442 0 0 0
658 220 2 -1.1794 7.939042743209308 6.590167649738692 10.536125668065267 0 0 0
779 260 1 0.5897 8.218735664291046 12.292131247321125 10.047046182187534 0 0 0
649 217 2 -1.1794 10.892108947931645 9.428848568085577 6.3931547287033945 0 0 0
652 218 2 -1.1794 7.664120848442458 10.922091564619915 7.038582982213683 0 0 0
632 211 1 0.5897 11.354446953335183 7.796367587261985 9.234746995509475 0 0 0
634 212 2 -1.1794 9.041237697187926 7.915504073033866 7.693184309548487 0 0 0
635 212 1 0.5897 9.440669515377516 7.815691054120216 8.557328819184077 0 0 0
655 219 2 -1.1794 10.778066821937518 12.198717417015928 6.245965434395899 0 0 0
646 216 2 -1.1794 6.331585713243391 7.831434764630676 7.739667855003801 0 0 0
636 212 1 0.5897 8.099260118764601 7.922459784889093 7.8634942671572485 0 0 0
653 218 1 0.5897 6.893398261488548 10.933922800709558 7.606184179651713 0 0 0
631 211 2 -1.1794 10.617614265659508 7.8518197138003805 9.843285084336754 0 0 0
654 218 1 0.5897 8.406778897522868 10.96050951094945 7.6413286713605 0 0 0
651 217 1 0.5897 10.152893827809363 9.005835854840749 6.83014676243985 0 0 0
640 214 2 -1.1794 9.445916594878975 11.145843203087992 9.161486803652414 0 0 0
609 203 1 0.5897 6.332706353305019 10.132496275963103 9.525810093556078 0 0 0
657 219 1 0.5897 10.863096816506902 11.249545776530583 6.336368217147025 0 0 0
1130 377 1 0.5897 10.615408732645786 8.942768786485164 11.261491142419557 0 0 0
1081 361 2 -1.1794 4.4787435037096985 7.692281554310282 15.740512022795155 0 0 0
1082 361 1 0.5897 4.392661963071671 8.480254249757262 16.277169657942064 0 0 0
1083 361 1 0.5897 4.4910740614214 6.97240979163058 16.37132151961809 0 0 0
1084 362 2 -1.1794 2.983761475138948 7.712887571801558 13.428458143935469 0 0 0
1085 362 1 0.5897 3.2935429279187884 7.717618685000262 14.334137608796235 0 0 0
1086 362 1 0.5897 3.4992006033572913 8.393150594604496 12.99499439955197 0 0 0
1089 363 1 0.5897 4.990288562866096 10.772924642555319 15.131852312018992 0 0 0
1090 364 2 -1.1794 3.1742937802149553 10.808794734442147 15.003913784672653 0 0 0
1091 364 1 0.5897 2.8387690508577816 11.640292785818861 15.33910691035567 0 0 0
1092 364 1 0.5897 2.7176152607618733 10.141619775410401 15.516389512517582 0 0 0
1095 365 1 0.5897 0.7505612889357364 9.338603103521779 16.020420513811807 0 0 0
1097 366 1 0.5897 1.2045971127850228 7.755280275949186 13.295213543814603 0 0 0
1099 367 2 -1.1794 4.697114286087514 9.372347418129882 12.151056602562077 0 0 0
1102 368 2 -1.1794 1.433760088094241 10.828313290143628 12.757528100268402 0 0 0
1104 368 1 0.5897 2.112635696563349 10.804276689152601 13.43195743480568 0 0 0
1093 365 2 -1.1794 1.5512461325468672 9.036697301738434 16.449489498174884 0 0 0
1103 368 1 0.5897 1.6276817224882083 10.078452644070412 12.195034808840791 0 0 0
1100 367 1 0.5897 5.371839085836679 8.979085466239793 12.7045993117349 0 0 0
1094 365 1 0.5897 1.4587434725096378 8.084693237356491 16.487674908451584 0 0 0
1107 369 1 0.5897 4.687270465681403 11.146150456324285 12.244105576598846 0 0 0