LAMMPS data file via write_data, version 30 Jul 2021, timestep = 5250000

1920 atoms
2 atom types
1280 bonds
1 bond types
640 angles
1 angle types

-0.1426705045552623 24.872671504554773 xlo xhi
-0.05037860576545583 24.7803796057623 ylo yhi
-0.03638710997437222 22.846387109976362 zlo zhi

Masses

1 1.008
2 15.999

Pair Coeffs # lj/cut/tip4p/long/omp

1 0 0
2 0.21084 3.1668

Bond Coeffs # harmonic/omp

1 450 0.9572

Angle Coeffs # harmonic/omp

1 55 104.52

Atoms # full

1 1 2 -1.1794 4.447787607602693 1.492249778377152 3.9673929202287264 0 0 0
2 1 1 0.5897 4.467303909443756 2.2288421673602334 4.578307993352401 0 0 0
3 1 1 0.5897 5.0940515062766005 1.7181139398651006 3.298452182499139 0 0 0
4 2 2 -1.1794 2.7407485172164776 1.367942835205137 1.7196774198000284 0 0 0
5 2 1 0.5897 3.111269881026636 1.3180127340622185 2.6007944274559143 0 0 0
6 2 1 0.5897 1.7951754416861532 1.4181800423201323 1.8594565387953217 0 0 0
10 4 2 -1.1794 2.9718204164785926 4.615843267188774 3.53437694003513 0 0 0
11 4 1 0.5897 2.36423179703757 5.197553637009655 3.991121647365527 0 0 0
12 4 1 0.5897 2.580553713182061 4.491173750829514 2.6697899333516717 0 0 0
13 5 2 -1.1794 1.3952823577928994 2.916951011159137 5.297851860587649 0 0 0
14 5 1 0.5897 2.0267647235011332 3.3544970428124983 4.726932380595398 0 0 0
15 5 1 0.5897 1.6217054199446208 1.9887870520836697 5.239305526978273 0 0 0
22 8 2 -1.1794 1.5140306495103004 4.498591055384267 1.2185454869963033 0 0 0
24 8 1 0.5897 1.2540272326655 5.097799256309642 0.5188944875024452 0 0 0
21 7 1 0.5897 5.309408085892513 2.781073765046171 0.5542691465066149 0 0 0
23 8 1 0.5897 0.7280534005122261 4.402003097790451 1.7561990061138675 0 0 0
20 7 1 0.5897 3.8560168099497036 2.3988577254212506 0.736784646908745 0 0 0
19 7 2 -1.1794 4.4270010693951765 2.9932604255936246 0.25012874573851424 0 0 0
9 3 1 0.5897 4.841937209086006 4.746756292426622 3.336851572513744 0 0 0
27 9 1 0.5897 4.147720013749015 4.744215880715597 0.5462449896087427 0 0 0
867 289 1 0.5897 4.414032142312083 0.18427797976737634 5.679442319260817 0 1 0
7 3 2 -1.1794 5.777171654479363 4.770308481821608 3.134494479406124 0 0 0
26 9 1 0.5897 4.843052742037081 5.753458585813258 1.434877807865409 0 0 0
47 16 1 0.5897 5.931634307330451 0.8046703744939553 1.425175980225847 0 0 0
99 33 1 0.5897 -0.048663289851194697 3.7431427436538227 3.9552503260398515 1 0 0
25 9 2 -1.1794 4.299518373815268 5.683550982810313 0.650129130969137 0 0 0
28 10 2 -1.1794 1.7678769041421234 0.0688800021515288 4.793739613763933 0 0 0
98 33 1 0.5897 0.07683181492700442 5.250624561608754 3.8958360303559827 1 0 0
148 50 2 -1.1794 1.3002180904239664 6.153963945114126 4.961379283461709 0 0 0
505 169 2 -1.1794 4.42301733838306 6.077905268766054 6.472299438006342 0 0 0
508 170 2 -1.1794 1.4608399399673968 0.3094928661162733 10.487892319771666 0 0 0
528 176 1 0.5897 6.023482437976964 2.64765084470305 7.5526812825462954 0 0 0
497 166 1 0.5897 -0.009974919250094139 1.0664470410198639 7.559290449171802 0 0 0
1347 449 1 0.5897 4.558477314172994 0.27861169787877865 11.395602586277493 0 1 0
504 168 1 0.5897 1.2042206685187191 4.051578133538651 6.736606248912212 0 0 0
500 167 1 0.5897 3.8130797230875655 2.973051769375518 6.60170128012767 0 0 0
578 193 1 0.5897 0.07688219773082111 4.069135294477975 9.879184849791084 1 0 0
484 162 2 -1.1794 2.936649630348024 1.830757902458329 7.847799848632902 0 0 0
489 163 1 0.5897 4.783153996024577 4.81817725143655 9.267144279991276 0 0 0
490 164 2 -1.1794 2.9883032661916555 4.899811274688718 9.502772026746504 0 0 0
503 168 1 0.5897 0.6301363118006856 4.890846054073517 7.858106978732056 0 0 0
491 164 1 0.5897 2.5522103347503062 4.748766475436692 8.664229833870573 0 0 0
494 165 1 0.5897 1.2528090990482166 2.1690903407854933 10.867914461026524 0 0 0
485 162 1 0.5897 3.3133145395337222 1.8520057891024226 8.727466989977723 0 0 0
527 176 1 0.5897 5.726820365230234 1.1805423890033657 7.326062393329893 0 0 0
486 162 1 0.5897 3.303441823004367 1.0418649150610728 7.448689709270562 0 0 0
482 161 1 0.5897 5.197001436026403 1.7214732358363705 9.507873181747431 0 0 0
502 168 2 -1.1794 1.3518079169386232 4.858280074784386 7.230186936489158 0 0 0
498 166 1 0.5897 1.0273742097842316 1.8908200402731223 8.29144205800371 0 0 0
483 161 1 0.5897 4.473201485353213 2.377440215225602 10.664384360219167 0 0 0
492 164 1 0.5897 2.681442333389105 4.188117393591957 10.06446151837104 0 0 0
481 161 2 -1.1794 4.466940790535517 1.5945570703726826 10.11372694473191 0 0 0
499 167 2 -1.1794 4.61075832925943 3.3202587937246233 6.20253116517266 0 0 0
501 167 1 0.5897 4.576163641328741 4.26092606924767 6.376127102044047 0 0 0
493 165 2 -1.1794 1.2759424989857906 3.1087262542233804 10.686987606902404 0 0 0
496 166 2 -1.1794 0.12159665550064158 1.9146098166888608 7.9829501418289315 0 0 0
150 50 1 0.5897 1.2924496358781061 5.706112761314776 5.807262556570796 0 0 0
487 163 2 -1.1794 5.734302351677864 4.887126902376527 9.18509960426467 0 0 0
488 163 1 0.5897 6.075982933040206 4.243153258779939 9.805362066267413 0 0 0
961 321 2 -1.1794 4.287236169568206 1.623991521486147 15.615909085840224 0 0 0
962 321 1 0.5897 4.967452414524544 1.5930426722588018 14.9432182904355 0 0 0
963 321 1 0.5897 4.3947425533436295 0.8074445929732312 16.103634853784563 0 0 0
964 322 2 -1.1794 2.516268768779076 1.593955579011994 13.534557426250272 0 0 0
965 322 1 0.5897 2.8573098711273692 1.6552538744036558 14.426789734417115 0 0 0
966 322 1 0.5897 1.5652504874376665 1.5781130956472342 13.64170678904258 0 0 0
970 324 2 -1.1794 3.0468417381393564 4.731709779121611 14.769037234087838 0 0 0
971 324 1 0.5897 3.973382681489216 4.569784745487201 14.591637058837055 0 0 0
972 324 1 0.5897 2.792779459452126 4.0343320578685145 15.373425450043555 0 0 0
973 325 2 -1.1794 1.607835192263966 2.9724461286123525 16.355746481879905 0 0 0
975 325 1 0.5897 0.7849551253618128 3.2824975302559865 15.977723020239955 0 0 0
982 328 2 -1.1794 1.0453699502429545 4.687382997553189 12.812667787560917 0 0 0
983 328 1 0.5897 1.215949873038869 5.541926739008326 12.416646367816202 0 0 0
984 328 1 0.5897 1.7943956402910772 4.536205163642458 13.389089222249394 0 0 0
990 330 1 0.5897 1.8036116635383825 1.021230986175273 15.958584522440935 0 0 0
980 327 1 0.5897 3.4875615359972785 2.7572020327274553 12.779371238520847 0 0 0
981 327 1 0.5897 4.996631004868401 2.864105992382721 12.72442145667201 0 0 0
986 329 1 0.5897 4.221349492964028 5.143004170580008 12.149122668753034 0 0 0
979 327 2 -1.1794 4.197243476911646 3.240474160201148 12.356327228901762 0 0 0
1346 449 1 0.5897 3.965668800919624 0.05496890899787302 12.770462013060287 0 1 0
967 323 2 -1.1794 5.84227794074446 4.45322427757577 14.610548010255092 0 0 0
1008 336 1 0.5897 5.780819418968245 1.0539433338298276 12.996879743020305 0 0 0
1460 487 1 0.5897 4.832854735612744 2.6718982896162324 17.019812364771973 0 0 0
495 165 1 0.5897 1.238114043453197 3.5203567250086394 11.550283228340037 0 0 0
988 330 2 -1.1794 1.5204493693572148 0.10855496603526629 16.013578419179474 0 0 0
1109 370 1 0.5897 0.5262303108185961 5.521375349303901 15.859524107643459 0 0 0
985 329 2 -1.1794 4.337451358068539 6.091264399078404 12.208367277199226 0 0 0
1108 370 2 -1.1794 1.17678939246578 6.069742714885224 16.29796764430087 0 0 0
1110 370 1 0.5897 2.0134531395451667 5.797211943562709 15.921292436371045 0 0 0
1006 336 2 -1.1794 6.067582939608033 1.7375490635131527 13.602366031243234 0 0 0
1538 513 1 0.5897 -0.02966437461874495 3.789350036369727 21.23550240082131 1 0 0
1447 483 2 -1.1794 5.779705817151385 4.540103126609507 20.91338993508341 0 0 0
1539 513 1 0.5897 0.08863985987828546 5.296466553762497 21.315374934923405 1 0 0
1455 485 1 0.5897 1.824825585762832 3.1324786777008846 22.784235847791763 0 0 0
1456 486 2 -1.1794 0.11960236905366856 1.2979423454883556 19.144309536279643 0 0 0
1826 609 1 0.5897 3.8612502305046297 -0.030823922867239197 18.18946389597187 0 1 0
1452 484 1 0.5897 2.7510592728222982 4.5156485252559335 19.738108597412605 0 0 0
1590 530 1 0.5897 2.036312766395283 6.1340571994948245 21.52245639223326 0 0 0
1454 485 1 0.5897 2.065752933796528 3.332313527899002 21.303124409011154 0 0 0
1461 487 1 0.5897 5.431714716403011 2.932872164019403 18.385442275882014 0 0 0
1451 484 1 0.5897 3.9678750942563443 4.707885014379031 20.617947300229538 0 0 0
1443 481 1 0.5897 4.58433172319484 1.8436880257157153 21.681957000011643 0 0 0
1441 481 2 -1.1794 4.652473099224247 1.0903683896990919 21.09541346483357 0 0 0
1446 482 1 0.5897 3.2124243460363537 2.169863827138975 18.54815477328026 0 0 0
1459 487 2 -1.1794 4.644162887766394 3.0839839548864885 17.862861702646512 0 0 0
1462 488 2 -1.1794 1.1522696163152117 4.469127990672144 18.65115360120624 0 0 0
974 325 1 0.5897 1.6085052235760757 3.3205122947793133 17.247370599151935 0 0 0
1444 482 2 -1.1794 2.868671077019052 1.4646282693195896 19.096465616873928 0 0 0
1464 488 1 0.5897 0.5857781137114365 4.699347825157301 19.38752094981858 0 0 0
1453 485 2 -1.1794 1.5362946405186748 2.8306692646727205 21.922953005788003 0 0 0
1466 489 1 0.5897 4.297187658695907 4.767651082032624 17.780900075025798 0 0 0
1450 484 2 -1.1794 3.033968006515397 4.910276591226182 20.5629605671432 0 0 0
1469 490 1 0.5897 1.4884433609908352 1.0123228216949631 21.782102249301282 0 0 0
1463 488 1 0.5897 1.0096772550784268 5.16670555453009 18.011453693774705 0 0 0
1445 482 1 0.5897 1.9202200460782937 1.506455722226005 18.974573804530266 0 0 0
1442 481 1 0.5897 4.035013162422193 1.27966510446912 20.38897053309295 0 0 0
1487 496 1 0.5897 5.864072888132671 1.0067759206650788 19.656285466560675 0 0 0
1488 496 1 0.5897 5.916846913313316 0.6106891038112968 18.196146394881175 0 0 0
1465 489 2 -1.1794 4.1673756834366005 5.710244068987114 17.676727577559838 0 0 0
1467 489 1 0.5897 4.863222278773241 6.107627659643707 18.200222223634086 0 0 0
386 129 1 0.5897 4.528681516456915 0.024058461501468287 22.60660590233652 0 1 -1
1468 490 2 -1.1794 1.5999465315836778 0.06407748778613609 21.8497927542924 0 0 0
121 41 2 -1.1794 4.445151227766954 7.619409130181934 4.321225910260989 0 0 0
122 41 1 0.5897 3.801913576595763 7.593486320097133 3.6129013719522733 0 0 0
123 41 1 0.5897 5.292231661396348 7.573074844257486 3.877977745443377 0 0 0
124 42 2 -1.1794 2.793408730335257 7.575591317173655 2.029938018600912 0 0 0
125 42 1 0.5897 3.10919061973031 6.765612115557468 1.6294474280878075 0 0 0
126 42 1 0.5897 3.3276500905639272 8.263631807415656 1.6332386734317124 0 0 0
129 43 1 0.5897 4.878648111374708 10.947491608960975 3.55008693065847 0 0 0
130 44 2 -1.1794 2.9832810741258293 10.818891029376202 3.701899954181904 0 0 0
132 44 1 0.5897 2.442655127903865 10.217104130025962 4.213506165582957 0 0 0
133 45 2 -1.1794 1.0234950881439069 9.102977291760974 4.894421202678322 0 0 0
135 45 1 0.5897 0.41525429602663444 9.628284885439786 4.3745529484326795 0 0 0
137 46 1 0.5897 0.9459927649575093 7.777526753518499 2.013827020781268 0 0 0
139 47 2 -1.1794 4.814558641285047 9.27949848788533 0.7588370914327898 0 0 0
142 48 2 -1.1794 1.3175416629285468 10.63784238628426 1.399072057809256 0 0 0
143 48 1 0.5897 2.0793231111400394 10.517396673431882 1.9659428133171515 0 0 0
144 48 1 0.5897 1.5690014371402634 11.346187290434596 0.8064641241528367 0 0 0
149 50 1 0.5897 1.3586589745064777 7.083424060102839 5.182450719604682 0 0 0
140 47 1 0.5897 4.7274805516658605 10.165995240600962 0.40852023059308223 0 0 0
131 44 1 0.5897 2.6088027862392966 11.682896574200633 3.8734815440392847 0 0 0
621 207 1 0.5897 4.4644739656964045 9.337869627188406 5.505474653432833 0 0 0
128 43 1 0.5897 6.053839155892057 11.729965178723306 4.096341384589784 0 0 0
127 43 2 -1.1794 5.835002367027857 10.9847021631472 3.537000153645479 0 0 0
507 169 1 0.5897 4.380853085147164 6.546937017810134 5.639003351584787 0 0 0
270 90 1 0.5897 0.8102886599634492 12.346311560742517 4.2422484631093775 0 0 0
168 56 1 0.5897 5.946571356061878 8.376778843805203 1.7786151710836378 0 0 0
136 46 2 -1.1794 0.010789943056298906 7.9485920905534435 1.9029120988900081 0 0 0
1574 525 1 0.5897 1.5246410016600354 9.430229964894137 0.06613448307690016 0 0 1
145 49 2 -1.1794 4.59233248437788 12.077183271633448 0.7380454411489816 0 0 0
147 49 1 0.5897 5.335592196762389 12.125577527762879 1.3391980122586258 0 0 0
141 47 1 0.5897 4.634216585274231 8.707785895456272 0.01266166174044514 0 0 0
607 203 2 -1.1794 5.972097360653748 11.041863764372126 9.25459796839698 0 0 0
628 210 2 -1.1794 1.1916362232469673 6.772574986080511 10.82385301039797 0 0 0
698 233 1 0.5897 0.3119092676306756 11.693406945589057 9.849850641566153 1 0 0
612 204 1 0.5897 2.9836207769992553 11.889917252193015 9.48848788356551 0 0 0
134 45 1 0.5897 0.969216449826036 9.474298344382557 5.774944096380087 0 0 0
1101 367 1 0.5897 4.175961744147568 9.005731229067784 11.268612131695 0 0 0
626 209 1 0.5897 4.4240661052476 11.425624700718199 6.412543198278611 0 0 0
629 210 1 0.5897 2.0935455642853005 6.589069324150743 10.561079234979857 0 0 0
605 202 1 0.5897 2.6562064778702776 8.423597214712132 7.18516275724236 0 0 0
613 205 2 -1.1794 1.5045778664524527 9.3507656963682 10.89739103115185 0 0 0
648 216 1 0.5897 5.8910122480762155 7.026644748098189 7.366700265902715 0 0 0
625 209 2 -1.1794 4.2304080474409025 12.36196515044134 6.4567013042996 0 0 0
611 204 1 0.5897 4.13779728519677 11.002025382461259 9.074606856772586 0 0 0
604 202 2 -1.1794 2.503458557453545 7.68645681965319 7.776318348945236 0 0 0
623 208 1 0.5897 2.0815871990158543 10.750967941177587 7.855462082703091 0 0 0
614 205 1 0.5897 2.1927732845242933 9.889498688738769 10.507096190850982 0 0 0
615 205 1 0.5897 0.6919407206355422 9.692142218548593 10.524226800429368 0 0 0
619 207 2 -1.1794 4.517597584392903 9.63794073045878 6.412820884191734 0 0 0
601 201 2 -1.1794 4.365197626567427 7.829731218949746 9.91458425961667 0 0 0
624 208 1 0.5897 1.5289916477824368 11.42796168275006 6.61933546326426 0 0 0
610 204 2 -1.1794 3.1961437593384026 10.988754348083791 9.245724713774468 0 0 0
620 207 1 0.5897 5.098555506526959 9.008573760562415 6.840083717084428 0 0 0
622 208 2 -1.1794 1.3588048707278195 10.710225267539101 7.229299155750447 0 0 0
606 202 1 0.5897 1.5504971361120412 7.623312880809332 7.839910147899801 0 0 0
630 210 1 0.5897 1.121506792518603 7.726614255957095 10.791054869994149 0 0 0
603 201 1 0.5897 3.7566121273490065 7.468286218144578 9.27026473269752 0 0 0
602 201 1 0.5897 4.52838647924556 7.108025539950945 10.52177104280215 0 0 0
647 216 1 0.5897 5.7215288542397005 7.777877447853482 8.670011231348678 0 0 0
506 169 1 0.5897 3.7083257714753586 6.446412367919528 6.99151186026485 0 0 0
699 233 1 0.5897 0.08382886968504463 10.92283728121892 8.566920067321245 1 0 0
750 250 1 0.5897 1.3987310214236757 12.301484252066357 11.396281251533575 0 0 0
1081 361 2 -1.1794 4.217268454514525 7.701150325875769 15.712704921588676 0 0 0
1082 361 1 0.5897 4.285193532381702 8.421629310800997 16.339174103055612 0 0 0
1083 361 1 0.5897 4.18941547544937 6.913129870698826 16.255310682248265 0 0 0
1084 362 2 -1.1794 2.521549304376425 7.620249628800906 13.495974077013418 0 0 0
1085 362 1 0.5897 2.9771856395275984 7.6694791336075765 14.336281614647127 0 0 0
1086 362 1 0.5897 2.8837753212556523 8.343242274767874 12.983874049618484 0 0 0
1089 363 1 0.5897 4.824551920988788 10.724010986407341 15.355742974781194 0 0 0
1090 364 2 -1.1794 3.028787058190745 10.717153581379987 15.26966849540173 0 0 0
1091 364 1 0.5897 2.609190195829705 11.494564190772104 15.638109648737437 0 0 0
1092 364 1 0.5897 2.608159305088285 9.982747352550343 15.716760369149117 0 0 0
1095 365 1 0.5897 0.21745296244162904 9.092810284953275 16.152441596738015 0 0 0
1097 366 1 0.5897 0.7608410540008749 7.686944813191508 13.451750796905177 0 0 0
1099 367 2 -1.1794 4.265930339038782 9.368604363597727 12.149734538228884 0 0 0
1102 368 2 -1.1794 1.34894767975828 10.986095956027565 12.919911378775659 0 0 0
1104 368 1 0.5897 1.935245582366095 10.765949833971524 13.643753804684717 0 0 0
1093 365 2 -1.1794 1.0895531586408758 8.829730767973967 16.446371594694945 0 0 0
1103 368 1 0.5897 1.4792099545331516 10.283264454866895 12.283339868342871 0 0 0
1100 367 1 0.5897 4.903940753728983 8.79921631297738 12.579759775427195 0 0 0
1107 369 1 0.5897 4.605051337749005 11.17032536031848 12.489975022122925 0 0 0
1094 365 1 0.5897 1.0838176093619916 7.874252551359228 16.389690967349466 0 0 0
1105 369 2 -1.1794 4.740133243860307 12.117806177130227 12.504981156494205 0 0 0
1127 376 1 0.5897 5.658538334367675 7.492981578760714 14.386418642707454 0 0 0
987 329 1 0.5897 3.634711521120199 6.383267853463797 12.788927081029465 0 0 0
1128 376 1 0.5897 5.811357361914648 6.923227755781844 12.992249537481632 0 0 0
1178 393 1 0.5897 -0.023897293404306907 11.187111698067772 15.724294533685562 1 0 0
1087 363 2 -1.1794 5.776916716301666 10.629788081961115 15.338551391132212 0 0 0
1088 363 1 0.5897 6.102030611590807 11.39009178263035 15.820644722155714 0 0 0
1588 530 2 -1.1794 1.2875209899959255 6.347529786545421 22.079141459054334 0 0 0
1606 536 2 -1.1794 6.108251533454065 7.23876733938952 19.035122096478588 0 0 0
1589 530 1 0.5897 1.3947450175493086 7.277353038040238 22.279430253004556 0 0 0
1710 570 1 0.5897 2.3643664589099416 11.917591399889577 21.905062134544067 0 0 0
1657 553 2 -1.1794 -0.05304262580665009 10.829742620576193 20.676883248858218 1 0 0
1565 522 1 0.5897 1.6353106748332487 7.583935381290019 19.103538662523405 0 0 0
1570 524 2 -1.1794 3.4596615055645006 10.933535130413526 20.924148111637933 0 0 0
1585 529 2 -1.1794 4.45441213603834 12.177763840233018 17.86748290125226 0 0 0
1658 553 1 0.5897 0.39807185164172554 10.016556788691531 20.903607728616855 1 0 0
1230 410 1 0.5897 1.7090912356938481 12.016214119263864 17.219332853576518 0 0 0
1580 527 1 0.5897 3.8732389229306543 8.954441984503768 18.15117720756885 0 0 0
1563 521 1 0.5897 3.7656919158094433 7.5454286997202775 20.71147868000471 0 0 0
1584 528 1 0.5897 1.3733366253442825 9.844858351041642 17.962392098175016 0 0 0
1571 524 1 0.5897 3.2511478570860493 10.647977118799782 20.034697801122775 0 0 0
1573 525 2 -1.1794 1.6776556227506159 9.001022962767728 22.107170785950075 0 0 0
1562 521 1 0.5897 4.340638714902515 6.933356466438044 21.971047567600202 0 0 0
1564 522 2 -1.1794 2.586748721797531 7.489539360042912 19.148512346349875 0 0 0
1579 527 2 -1.1794 4.6890673727884336 9.418667045773038 17.963856648639776 0 0 0
1582 528 2 -1.1794 1.7005324843315799 10.563570141132216 18.503287084553293 0 0 0
1583 528 1 0.5897 1.0210569431739722 10.694854160035359 19.164524324219585 0 0 0
1566 522 1 0.5897 2.763299592879056 6.641566577982588 18.741144471675085 0 0 0
1587 529 1 0.5897 4.668768318821917 11.247997434631277 17.79152066382307 0 0 0
1581 527 1 0.5897 5.36494156293795 8.903303193479678 18.404039314606287 0 0 0
1575 525 1 0.5897 2.4383928832672925 9.452926291978793 21.742164306109423 0 0 0
1572 524 1 0.5897 4.416210276086375 10.954418326437338 20.951448661898816 0 0 0
1561 521 2 -1.1794 4.417932383073321 7.694578388976083 21.395952319115324 0 0 0
1709 570 1 0.5897 0.8605885625583083 12.046422892584518 21.787620019810873 0 0 0
1608 536 1 0.5897 5.7994116994022376 7.471772732629462 19.91060484299372 0 0 0
241 81 2 -1.1794 4.480077690108686 14.004597246853184 4.345753253483829 0 0 0
242 81 1 0.5897 4.3339971367826795 13.302407914208256 4.979600750659374 0 0 0
243 81 1 0.5897 3.727687634751766 13.955943955244694 3.7560894182232833 0 0 0
244 82 2 -1.1794 2.7004738674908286 13.750030129718047 2.1700394588529552 0 0 0
245 82 1 0.5897 1.75817854972095 13.75999206926817 2.00224246895303 0 0 0
246 82 1 0.5897 3.0449643419532535 14.474172849327653 1.6474282891658694 0 0 0
250 84 2 -1.1794 3.0211947395484158 16.993556193386677 3.417984059827605 0 0 0
251 84 1 0.5897 2.5832195054782936 16.927596626744826 2.5694717343163442 0 0 0
252 84 1 0.5897 3.9548746224656357 16.985552715703886 3.207386376577144 0 0 0
253 85 2 -1.1794 1.3250080920674832 15.338780731988411 4.8729685485104435 0 0 0
255 85 1 0.5897 1.99546748373582 15.887097245985135 4.465527566093371 0 0 0
259 87 2 -1.1794 4.539670941399922 15.579275726920175 0.7757867310533598 0 0 0
262 88 2 -1.1794 1.1088939807977978 16.92569082154698 1.3061846412508085 0 0 0
263 88 1 0.5897 1.1574932266234184 16.274655337617467 0.6062197338964067 0 0 0
264 88 1 0.5897 1.1925017866567773 17.76708951053128 0.8575950615445245 0 0 0
269 90 1 0.5897 1.3946157887489665 13.503206097567418 5.02449712042698 0 0 0
260 87 1 0.5897 4.454772199288657 16.4991985702663 0.525349589490214 0 0 0
254 85 1 0.5897 0.49756629166615185 15.678269253410065 4.532010767578937 0 0 0
339 113 1 0.5897 -0.05621433892982293 17.69445902979634 3.9895402626409853 1 0 0
268 90 2 -1.1794 1.3927764439694992 12.547324019100037 4.97467770332522 0 0 0
740 247 1 0.5897 4.500239858330236 15.312077541208362 5.513524987788525 0 0 0
265 89 2 -1.1794 4.687759324467209 18.425969353247613 0.758247079267847 0 0 0
247 83 2 -1.1794 5.767774573970631 16.940129557017187 3.270715809016063 0 0 0
146 49 1 0.5897 3.859845542699584 12.445589744008794 1.2319149030650667 0 0 0
338 113 1 0.5897 -0.13688226566447645 16.8163569800906 2.759032223045167 1 0 0
389 130 1 0.5897 2.1344114720381384 18.32436241024856 4.391939346341543 0 0 0
287 96 1 0.5897 5.878582278328649 13.82296300158329 3.0753440106206766 0 0 0
288 96 1 0.5897 6.058580534245224 14.58465061239774 1.7795291656728611 0 0 0
726 242 1 0.5897 2.981205127925171 13.71109544438247 7.422680425662968 0 0 0
748 250 2 -1.1794 1.5154658475171463 12.754847739669803 10.561424723627006 0 0 0
736 246 2 -1.1794 0.19885566347878791 14.02294371761276 7.911470721016337 0 0 0
869 290 1 0.5897 0.520346647577454 18.08418943592643 10.25171445540039 0 0 0
870 290 1 0.5897 1.9996305861287444 18.354709865024535 10.42570043711718 0 0 0
627 209 1 0.5897 5.003679857802453 12.747811111357544 6.868216675618052 0 0 0
768 256 1 0.5897 5.970635433183157 14.880214318351682 7.282406995111699 0 0 0
724 242 2 -1.1794 2.842396412184826 14.506773173681438 7.9362948173336205 0 0 0
749 250 1 0.5897 1.5944084515443904 13.678705047624003 10.79900323367049 0 0 0
727 243 2 -1.1794 5.920928810827711 16.92645080223189 9.285829068051179 0 0 0
737 246 1 0.5897 1.1161578358597453 14.254009379223413 8.05752683708566 0 0 0
744 248 1 0.5897 1.5207175575029064 16.176931678026698 6.5599791643357666 0 0 0
818 273 1 0.5897 0.18194769129999827 17.31509454596441 8.559683513177502 1 0 0
730 244 2 -1.1794 3.1662742534784187 17.19127177826046 9.344953184572002 0 0 0
735 245 1 0.5897 1.0738277924790947 15.817943770801767 10.317968721167002 0 0 0
722 241 1 0.5897 3.7415468296974166 14.021192066006895 9.502878681713042 0 0 0
733 245 2 -1.1794 1.6762490103319025 15.367124915061844 10.909585417072732 0 0 0
731 244 1 0.5897 2.941346712079088 16.96629206953504 8.442210463771845 0 0 0
732 244 1 0.5897 2.986881182288428 16.39371284001529 9.842850155502946 0 0 0
728 243 1 0.5897 4.971352519451112 16.982471589146744 9.392284088302702 0 0 0
725 242 1 0.5897 3.2220841935562516 15.205548643217204 7.403643721250964 0 0 0
723 241 1 0.5897 5.24666518963001 14.009061280938026 9.340988012311778 0 0 0
721 241 2 -1.1794 4.551980086654266 13.827828447766878 9.974016123781306 0 0 0
741 247 1 0.5897 4.0937429014688425 16.695494642641442 5.974696071637744 0 0 0
742 248 2 -1.1794 1.5820975893311433 17.02200378454166 7.005246416141742 0 0 0
739 247 2 -1.1794 4.615546781849765 15.93508517224775 6.230968864106255 0 0 0
743 248 1 0.5897 1.6021899480459747 17.665552243986703 6.297005136327819 0 0 0
868 290 2 -1.1794 1.1427059465678975 18.566965216364714 10.795553472188997 0 0 0
1201 401 2 -1.1794 4.621784604768873 13.947854447803927 15.651815878414508 0 0 0
1202 401 1 0.5897 5.3976095441934335 13.848890594461297 15.10003395006415 0 0 0
1203 401 1 0.5897 4.780992849555259 13.367393449571813 16.396045105567893 0 0 0
1204 402 2 -1.1794 2.7962417593714193 13.65189922326309 13.63618206219619 0 0 0
1205 402 1 0.5897 3.264729636058485 13.77856406257705 14.461180538293537 0 0 0
1206 402 1 0.5897 3.1941995759500874 12.87089073694878 13.251691844853205 0 0 0
1210 404 2 -1.1794 3.54187359876858 16.693177700440888 15.180267568456829 0 0 0
1211 404 1 0.5897 3.261130509629596 17.5927553949807 15.347976748329566 0 0 0
1212 404 1 0.5897 4.490338013452382 16.75490897605148 15.067255721813037 0 0 0
1213 405 2 -1.1794 1.5517776332813162 15.370552873448883 16.63235439017445 0 0 0
1214 405 1 0.5897 0.8661640427929866 15.892517777655467 16.215632283082734 0 0 0
1215 405 1 0.5897 2.3484006481557236 15.59180490588591 16.150062652730192 0 0 0
1218 406 1 0.5897 1.0135481083925706 14.042963470037764 13.544675630379844 0 0 0
1222 408 2 -1.1794 1.554001077551312 16.866765777956093 13.152990293942977 0 0 0
1223 408 1 0.5897 1.5867441929088488 17.54586622464626 12.479254683134677 0 0 0
1224 408 1 0.5897 2.43207851551195 16.864156915013623 13.53395548655971 0 0 0
1229 410 1 0.5897 1.5070608042572977 13.45067911798323 16.77970707309352 0 0 0
1220 407 1 0.5897 4.045353274443689 14.870024690773427 13.100679200304342 0 0 0
1219 407 2 -1.1794 4.5866771690638535 15.458790544674786 12.574853247804965 0 0 0
1227 409 1 0.5897 4.748298189417448 17.339973010509965 12.591312964826736 0 0 0
1700 567 1 0.5897 4.59320060253767 15.43510758790955 17.022312458786978 0 0 0
1221 407 1 0.5897 4.726095177380296 14.987279023362936 11.753639070263892 0 0 0
1106 369 1 0.5897 4.738972273617614 12.3750082994879 11.583032340472947 0 0 0
1216 406 2 -1.1794 0.06633532716049312 13.905819764506278 13.556843327008668 0 0 0
1298 433 1 0.5897 0.227944439848846 17.081988448651344 14.50826680976981 1 0 0
734 245 1 0.5897 1.6760871517752822 15.900463724775328 11.704383006523239 0 0 0
1225 409 2 -1.1794 4.594021780254907 18.27336497731426 12.44584530048704 0 0 0
1228 410 2 -1.1794 1.3721902918862254 12.546206619403474 16.497000527978514 0 0 0
1350 450 1 0.5897 1.0260640462579604 18.36072649237578 16.043958082059063 0 0 0
1247 416 1 0.5897 5.887707818369594 14.464684316766283 13.17712946969842 0 0 0
1698 566 1 0.5897 -0.007495470145514188 14.467543966037683 19.02320326074492 0 0 0
1696 566 2 -1.1794 0.3403638500228073 13.702820936293513 19.48185880586432 0 0 0
1830 610 1 0.5897 2.3231502202676686 18.43966004499576 21.87763493623936 0 0 0
1779 593 1 0.5897 0.3891052453482897 17.777463223101837 21.252203779658316 1 0 0
1705 569 2 -1.1794 4.990330856611035 18.538750271611026 18.085660530461546 0 0 0
1586 529 1 0.5897 5.1514517009089715 12.540889377241715 18.413774839001434 0 0 0
1708 570 2 -1.1794 1.6190944460141428 12.416975543205133 22.238758313479913 0 0 0
1687 563 2 -1.1794 6.024536170085287 16.814928858607985 21.083489341518664 0 0 0
1778 593 1 0.5897 0.2687870996964412 16.85731045225338 20.056146299474825 1 0 0
1703 568 1 0.5897 1.5929914828981793 16.448606267339294 18.132180366100947 0 0 0
1728 576 1 0.5897 5.803223724029806 14.563920604772479 18.93705506703288 0 0 0
1699 567 2 -1.1794 4.777290992099969 15.792672742968445 17.890876596247693 0 0 0
1692 564 1 0.5897 2.7421732561381478 17.29268571300849 20.072269923309733 0 0 0
1704 568 1 0.5897 1.9035179238183924 17.897098998177274 17.82039251238909 0 0 0
1682 561 1 0.5897 5.3510129738518195 13.947437075682787 21.115477188404135 0 0 0
1693 565 2 -1.1794 1.526494214319537 15.144679370103521 22.172257999872556 0 0 0
1683 561 1 0.5897 4.648252236956727 13.294399881859492 22.28654006647249 0 0 0
1707 569 1 0.5897 4.958641883564537 17.582242991568965 18.102342357070626 0 0 0
1681 561 2 -1.1794 4.518747304505653 13.935955011791709 21.588112954194962 0 0 0
1689 563 1 0.5897 5.0832110085896325 16.88093366225512 20.923129438556884 0 0 0
1686 562 1 0.5897 3.32469922875384 14.015862994843074 20.147430778923322 0 0 0
1702 568 2 -1.1794 1.7463691506270898 17.296525211983774 18.548934082751636 0 0 0
1697 566 1 0.5897 1.2906876254569877 13.808013361135465 19.43729849302855 0 0 0
1691 564 1 0.5897 2.8105676897220437 16.35606078732379 21.259605597951108 0 0 0
1695 565 1 0.5897 1.7660612778755762 14.224193082378584 22.06501505005778 0 0 0
1684 562 2 -1.1794 2.9790616590024572 14.135090187511803 19.262859267093155 0 0 0
1690 564 2 -1.1794 3.282571960213155 17.069428752549435 20.830083537887297 0 0 0
1685 562 1 0.5897 3.428055461415005 13.472122739950649 18.738404405604136 0 0 0
1701 567 1 0.5897 4.05731943239177 15.477965473867496 18.437470054033994 0 0 0
1694 565 1 0.5897 0.6644721739478461 15.21758620308077 21.762654685814276 0 0 0
1777 593 2 -1.1794 -0.10414393944132172 17.02692324706235 20.921191966355757 1 0 0
261 87 1 0.5897 4.569965325592418 15.106018891616898 22.82714057894064 0 0 -1
361 121 2 -1.1794 4.3803246137996865 20.484850270195874 4.026405418485369 0 0 0
362 121 1 0.5897 3.760275459113288 20.187193242554475 3.36074038234383 0 0 0
364 122 2 -1.1794 2.731280890842358 19.805379037406524 1.901900374381081 0 0 0
365 122 1 0.5897 3.052244220368775 20.615003689370234 1.5048302724048277 0 0 0
370 124 2 -1.1794 3.369170757275016 23.214179148638923 3.2615149028069017 0 0 0
371 124 1 0.5897 4.314317930238428 23.13683539170329 3.13159067481602 0 0 0
372 124 1 0.5897 3.1509469011091604 22.50384258315437 3.8648154803843817 0 0 0
373 125 2 -1.1794 1.4617391677671951 21.420530272437418 4.697737122369996 0 0 0
381 127 1 0.5897 5.158960692242991 21.459747199387557 1.063683309639236 0 0 0
382 128 2 -1.1794 1.4469280943909175 23.410329303391975 1.3492121287888397 0 0 0
383 128 1 0.5897 2.0706243801608895 23.05298611569329 1.9812474836436724 0 0 0
390 130 1 0.5897 1.4772324269428105 19.610167044569888 4.846460773365721 0 0 0
375 125 1 0.5897 0.7287431560036695 21.775348366507693 4.19476279827475 0 0 0
366 122 1 0.5897 1.7865981419776504 19.936144567389917 1.9833941461525213 0 0 0
384 128 1 0.5897 1.4942895662580493 22.814065878249433 0.6019592541855856 0 0 0
379 127 2 -1.1794 4.357970128462774 21.70842122956333 0.6024451864889997 0 0 0
380 127 1 0.5897 4.47133576732763 22.639025609242584 0.409291238730433 0 0 0
363 121 1 0.5897 4.402246550722745 19.77520583913059 4.668349432695358 0 0 0
267 89 1 0.5897 3.926997047626018 18.796874557254288 1.205278443570085 0 0 0