LAMMPS data file via write_data, version 30 Jul 2021, timestep = 22500000

1920 atoms
2 atom types
1280 bonds
1 bond types
640 angles
1 angle types

-0.016968703670709573 24.74696970367119 xlo xhi
0.03927800441570817 24.690722995576873 ylo yhi
-0.07646540950266356 22.886465409506762 zlo zhi

Masses

1 1.008
2 15.999

Pair Coeffs # lj/cut/tip4p/long/omp

1 0 0
2 0.21084 3.1668

Bond Coeffs # harmonic/omp

1 450 0.9572

Angle Coeffs # harmonic/omp

1 55 104.52

Atoms # full

1 1 2 -1.1794 4.732820342813001 1.5037028316145442 4.278048953347011 0 0 0
2 1 1 0.5897 4.896180526799836 2.312792446745018 4.762661207004338 0 0 0
3 1 1 0.5897 5.373678120342493 1.516248914056597 3.567134699716037 0 0 0
4 2 2 -1.1794 3.047858860874642 1.530751080674017 2.10231983858558 0 0 0
5 2 1 0.5897 3.4643712189998017 1.45360853949224 2.960673504583829 0 0 0
6 2 1 0.5897 2.1143383481757927 1.6179014296455887 2.2954419448115804 0 0 0
10 4 2 -1.1794 3.248049069968815 4.614674556907158 3.6907665217624057 0 0 0
11 4 1 0.5897 2.862593263245186 5.388012524952988 4.102549749118894 0 0 0
12 4 1 0.5897 2.781945748776012 4.528166880591645 2.859212182678907 0 0 0
13 5 2 -1.1794 1.2774004621547521 3.106253689621842 5.005697769327589 0 0 0
14 5 1 0.5897 2.115774199375561 3.3598336331346443 4.619510546658749 0 0 0
15 5 1 0.5897 1.289124674904667 2.1492031463509482 4.997488721062057 0 0 0
22 8 2 -1.1794 1.5825460810031935 4.670880476633322 1.4756337980311438 0 0 0
24 8 1 0.5897 1.5459266903623918 5.289034486733019 0.7457667207514996 0 0 0
23 8 1 0.5897 0.7797283907260315 4.835713054038813 1.9702241064618127 0 0 0
20 7 1 0.5897 3.951050636933474 2.8840045105481456 1.1169516586301629 0 0 0
9 3 1 0.5897 5.199596814183691 4.451312771888604 3.61866577067976 0 0 0
19 7 2 -1.1794 4.724623712412035 3.267364853074821 0.7035370384832454 0 0 0
21 7 1 0.5897 5.461795361006515 2.923456066892987 1.2080989469277315 0 0 0
27 9 1 0.5897 4.7930935750881005 5.11108164941024 0.46139312233844376 0 0 0
47 16 1 0.5897 6.116700081332892 0.7803005768819565 1.554722332062399 0 0 0
7 3 2 -1.1794 6.148204304064519 4.437920458502157 3.490905392363259 0 0 0
99 33 1 0.5897 0.01947272597218614 4.102905096631009 3.958182460660101 1 0 0
867 289 1 0.5897 4.6707434461297055 0.24991664421831414 5.551763303678918 0 1 0
25 9 2 -1.1794 4.483917436326533 6.0167973367458885 0.44527017928660295 0 0 0
16 6 2 -1.1794 0.351689131857856 1.6752461212553502 2.2204737520323508 0 0 0
98 33 1 0.5897 0.2190121937423557 5.6027966079955895 4.005282854143715 1 0 0
1455 485 1 0.5897 1.5569034013944454 3.3765151611231605 0.03644080794117639 0 0 1
387 129 1 0.5897 4.194231760550069 0.3122461705417991 1.4085316191631623 0 1 0
28 10 2 -1.1794 1.5012594641282473 0.3844723402931778 4.873482369000007 0 0 0
386 129 1 0.5897 4.6958031211073035 0.3052504653490307 -0.01981390314415421 0 1 0
55 19 2 -1.1794 10.574419842229117 6.1480725224193185 0.7693019211662069 0 0 0
416 139 1 0.5897 10.122196749028396 0.43876050293935415 1.1592362227291142 0 1 0
8 3 1 0.5897 6.475654918333576 5.14250268310536 4.049941768779259 0 0 0
37 13 2 -1.1794 12.324159612660743 4.580027371842478 3.7857436621539984 0 0 0
46 16 2 -1.1794 6.372645295334098 1.5107725347282783 2.1178155599418145 0 0 0
31 11 2 -1.1794 10.931389780221442 1.6446265678667935 4.069630796136721 0 0 0
32 11 1 0.5897 10.929041614151839 2.3082719733839605 4.759365318743173 0 0 0
34 12 2 -1.1794 9.122599931799435 1.5435206878551018 2.0800538792361056 0 0 0
36 12 1 0.5897 9.47736834559853 2.275830004489182 1.57601219811669 0 0 0
39 13 1 0.5897 11.393851674298306 4.798054261673489 3.843537544094433 0 0 0
40 14 2 -1.1794 9.43490226485569 4.952160527464008 3.6483140667843803 0 0 0
41 14 1 0.5897 8.99166416749398 4.877663285471733 2.8032111434347953 0 0 0
42 14 1 0.5897 9.235339409345428 4.130663730580015 4.0971785930595885 0 0 0
43 15 2 -1.1794 7.6751452300590515 2.7625586701741867 4.988204681290338 0 0 0
45 15 1 0.5897 7.081204694578008 3.259225552707421 4.425359801488631 0 0 0
48 16 1 0.5897 7.3279081155895724 1.4616025556959242 2.155420544944818 0 0 0
49 17 2 -1.1794 11.021391743962731 3.5094212943501275 0.85139528964983 0 0 0
52 18 2 -1.1794 7.787881274281477 4.7062690482193705 1.3241107021251346 0 0 0
53 18 1 0.5897 7.729326152338794 4.009415534885434 0.6705622591915961 0 0 0
54 18 1 0.5897 7.136043212941273 4.471281330244791 1.9845265299115002 0 0 0
35 12 1 0.5897 9.587567125054203 1.5799971702762372 2.915937452508496 0 0 0
33 11 1 0.5897 10.938499088157796 0.8105704681089294 4.539155477054071 0 0 0
59 20 1 0.5897 7.521635033953541 0.9648231526506704 4.8976863581673395 0 0 0
50 17 1 0.5897 11.633259834181576 2.980018857343419 1.3628591961216756 0 0 0
56 19 1 0.5897 10.763607488241691 5.210085425253328 0.7458791719790712 0 0 0
78 26 1 0.5897 12.090244422754688 1.5304288967824653 2.7046858651575434 0 0 0
77 26 1 0.5897 12.244535004628702 0.6446066069616573 1.48679509042115 0 0 0
1619 540 1 0.5897 7.4572682808560184 6.025023208077809 0.016245014646673828 0 0 1
51 17 1 0.5897 11.06938474927012 3.1449618959048187 -0.03236535533151752 0 0 0
1347 449 1 0.5897 4.712505475214875 0.47435640986608335 11.183734907012004 0 1 0
579 193 1 0.5897 0.280128437901931 5.388852629911601 9.912165142166918 1 0 0
496 166 2 -1.1794 0.0743384276309438 1.8134487488445459 7.852434346600536 0 0 0
629 210 1 0.5897 2.2908162840312443 6.056177066488365 10.148448603403802 0 0 0
494 165 1 0.5897 1.724289380990852 1.8508816223000477 10.69959797962996 0 0 0
504 168 1 0.5897 1.3079068153054043 4.192991804932788 6.579896236021757 0 0 0
501 167 1 0.5897 4.768319927860107 4.192934773706604 6.542025048357733 0 0 0
499 167 2 -1.1794 4.830894640962341 3.239349925317818 6.488080336419773 0 0 0
483 161 1 0.5897 4.6703508768418756 2.3968129728499914 10.496494223788597 0 0 0
492 164 1 0.5897 2.915791014138368 3.982079140378033 9.621698535282697 0 0 0
493 165 2 -1.1794 1.6686326367691626 2.7926002374034473 10.537673813479195 0 0 0
491 164 1 0.5897 2.7029126406229174 4.781514947090358 8.353898587862078 0 0 0
485 162 1 0.5897 3.0978312383826134 1.6536641277911457 8.52069208930685 0 0 0
481 161 2 -1.1794 4.587930478687604 1.708067173507102 9.836952660538646 0 0 0
482 161 1 0.5897 5.469624929192405 1.6146276504996457 9.476100301642955 0 0 0
502 168 2 -1.1794 1.4530701463036022 4.934787326132485 7.167119750108343 0 0 0
500 167 1 0.5897 4.036941916778647 2.9220398971904373 6.9184887957162315 0 0 0
490 164 2 -1.1794 3.2421697825893228 4.744536880148897 9.143877106896012 0 0 0
503 168 1 0.5897 0.8577295887403925 4.7803060646820486 7.90056871282256 0 0 0
498 166 1 0.5897 1.0183253146975062 1.8319115623800055 7.694630249443593 0 0 0
484 162 2 -1.1794 2.752503638386049 1.7477630818691647 7.632947309205445 0 0 0
489 163 1 0.5897 5.028784955898486 4.7862041201306935 8.96230138171677 0 0 0
486 162 1 0.5897 3.1917085635665 1.0614787839387094 7.130642716232434 0 0 0
527 176 1 0.5897 6.095150346773112 0.6429092787663722 7.615092896268387 0 0 0
528 176 1 0.5897 6.000367727102212 2.141789333276497 7.425161746025828 0 0 0
487 163 2 -1.1794 5.975279444768729 4.790958867314719 9.105419440019745 0 0 0
578 193 1 0.5897 0.31962620662708474 3.8849909485573 9.74325262700869 1 0 0
150 50 1 0.5897 1.686089844952485 6.174945537272653 5.778574099101943 0 0 0
505 169 2 -1.1794 4.559734234622667 6.130976338661008 6.524079883289378 0 0 0
488 163 1 0.5897 6.160057323474019 3.946641099054488 9.516693790658927 0 0 0
896 299 1 0.5897 11.362580587187846 0.15673259430164627 6.6816665812021405 0 1 0
659 220 1 0.5897 6.829282338403338 5.974189476648725 10.234557771024921 0 0 0
526 176 2 -1.1794 6.508816902195447 1.4663385380820841 7.874004591700191 0 0 0
535 179 2 -1.1794 10.993904102119988 5.94318674999326 6.366384720798393 0 0 0
514 172 2 -1.1794 9.15623160747716 1.586401556902492 7.725942300720333 0 0 0
517 173 2 -1.1794 12.248888121991056 4.607645664224722 9.232872040049605 0 0 0
532 178 2 -1.1794 7.924419469980278 4.615178048483535 7.183485738586636 0 0 0
44 15 1 0.5897 7.542137291083378 3.1308341685788745 5.861617898023753 0 0 0
534 178 1 0.5897 7.134172553911776 4.747289234279736 7.707274237261007 0 0 0
558 186 1 0.5897 12.15965805801407 2.0905527678780893 7.280702859151755 0 0 0
538 180 2 -1.1794 7.772258589431093 0.36436348808609914 10.743345473918557 0 0 0
516 172 1 0.5897 9.46918653301464 0.9578618078189483 7.075419381074892 0 0 0
520 174 2 -1.1794 9.402507283996194 4.733997668445335 9.511572792057772 0 0 0
529 177 2 -1.1794 10.910082059909977 3.1240061432556328 6.305257164863269 0 0 0
530 177 1 0.5897 10.182952763102408 2.8881439189389577 6.881391376341542 0 0 0
521 174 1 0.5897 8.97445295165035 5.471259690393113 9.946787172998611 0 0 0
524 175 1 0.5897 8.360164115276337 3.4966887658807617 10.510975594308876 0 0 0
522 174 1 0.5897 8.99456201227166 4.6963112316930316 8.646489769938093 0 0 0
513 171 1 0.5897 11.654617644699368 1.5640072377182943 9.468016256556565 0 0 0
515 172 1 0.5897 8.202305382096649 1.5158839283724677 7.688363340089077 0 0 0
531 177 1 0.5897 10.958887848169102 4.078413472386056 6.3588769668600245 0 0 0
511 171 2 -1.1794 10.81372818267314 1.7276951614543319 9.895134999567532 0 0 0
523 175 2 -1.1794 7.540456960131903 3.1401655003160833 10.853435716926638 0 0 0
525 175 1 0.5897 7.614668204703772 2.1955064285926373 10.71829660139192 0 0 0
533 178 1 0.5897 7.917058613134002 5.33474119272966 6.55235015826374 0 0 0
512 171 1 0.5897 10.182497777494314 1.7641627354722078 9.176476220760364 0 0 0
519 173 1 0.5897 11.297927408115756 4.681054105349139 9.314372895261828 0 0 0
1377 459 1 0.5897 10.902779370571489 0.2529290734026556 11.231232349335025 0 1 0
961 321 2 -1.1794 4.500978627371898 1.7526113333740825 15.731408046393836 0 0 0
962 321 1 0.5897 5.286492249509512 1.7355383326563385 15.184620763937042 0 0 0
963 321 1 0.5897 4.661226297757802 1.0890759006565396 16.40238303719679 0 0 0
964 322 2 -1.1794 2.8108424344148397 1.5259164173944146 13.44637807556467 0 0 0
965 322 1 0.5897 3.120261200117836 1.6939117964871024 14.336447909476169 0 0 0
966 322 1 0.5897 1.8582316306992683 1.5993347725118459 13.50554350927299 0 0 0
970 324 2 -1.1794 3.137411448787289 4.717024237273624 15.022143106485853 0 0 0
971 324 1 0.5897 4.086809409917525 4.636742800047348 15.114660440691056 0 0 0
972 324 1 0.5897 2.7837957559287374 3.993548062312881 15.539559982168932 0 0 0
973 325 2 -1.1794 1.6041605961700411 2.8787243398836178 16.415794624133664 0 0 0
975 325 1 0.5897 0.8315357726593483 3.258492904146691 15.997319630175788 0 0 0
982 328 2 -1.1794 1.4454653680080742 4.426711316079849 12.676305252516798 0 0 0
983 328 1 0.5897 1.4116360460407982 5.197733019902843 12.11014561428047 0 0 0
984 328 1 0.5897 2.190497239744312 4.5868395399359825 13.255588153318659 0 0 0
980 327 1 0.5897 3.832071335119175 2.7429900960821385 12.643117487609885 0 0 0
981 327 1 0.5897 5.343811958025007 2.8071188880690188 12.695510799229073 0 0 0
979 327 2 -1.1794 4.5819337044481 3.2240324049997544 12.292992482051632 0 0 0
990 330 1 0.5897 1.5168854218904746 1.0821130111963106 16.413051888833927 0 0 0
986 329 1 0.5897 4.344577996466245 5.158229215163944 12.305841623516821 0 0 0
967 323 2 -1.1794 5.91528554408116 4.709559795143595 15.208652723599506 0 0 0
1008 336 1 0.5897 5.888086546076188 0.8738840134310253 13.196243989215308 0 0 0
1346 449 1 0.5897 4.067130763990114 0.2316292586514841 12.531475878929076 0 1 0
1109 370 1 0.5897 0.7023078708336246 5.97741086500217 16.070923351104735 0 0 0
988 330 2 -1.1794 1.4880646274004832 0.13042922400833262 16.31498932106759 0 0 0
976 326 2 -1.1794 0.14021992568731093 1.5978599353401781 13.596521594054838 0 0 0
1058 353 1 0.5897 0.08835543725029972 4.7607796010234 14.10295440830394 1 0 0
1460 487 1 0.5897 4.561209932332342 2.9865924122410994 17.11400945132685 0 0 0
1110 370 1 0.5897 2.214634309938699 5.969747955973031 16.14186693668217 0 0 0
985 329 2 -1.1794 4.580775429265641 6.085197504910971 12.272625678679645 0 0 0
495 165 1 0.5897 1.6134251809735585 3.183197311779686 11.409769903252878 0 0 0
1006 336 2 -1.1794 6.34351027261612 1.5551893976774804 13.690827898917712 0 0 0
968 323 1 0.5897 6.470288546467162 5.325254098534885 15.687314522045847 0 0 0
1376 459 1 0.5897 10.366050494123412 0.2135766661401073 12.646212724604203 0 1 0
997 333 2 -1.1794 12.150150124029222 4.598532232545753 15.062704617489489 0 0 0
969 323 1 0.5897 6.298264523778349 3.8510918597137787 15.389058286562586 0 0 0
1017 339 1 0.5897 10.894927364274405 5.030328135429385 12.136814962794368 0 0 0
991 331 2 -1.1794 10.850418862317513 1.6823262714249385 15.82430352170423 0 0 0
992 331 1 0.5897 11.481350212874183 1.6280618328548297 15.10650261345619 0 0 0
993 331 1 0.5897 10.97723860889056 0.8715969636825189 16.31704377243903 0 0 0
994 332 2 -1.1794 9.162001773946187 1.4055691189587356 13.618784849915004 0 0 0
995 332 1 0.5897 9.485236331523648 2.160736746653183 13.127432407569643 0 0 0
998 333 1 0.5897 11.204833488000926 4.745581122061226 15.029369152766332 0 0 0
1000 334 2 -1.1794 9.463843788525024 4.658961376481845 15.00750063022947 0 0 0
1001 334 1 0.5897 9.106282159143637 3.8637213503688574 15.402374665752205 0 0 0
1002 334 1 0.5897 8.969840602242748 4.766277116754794 14.194682612452477 0 0 0
1003 335 2 -1.1794 7.7393080382538395 2.7055384379460237 16.323452044953264 0 0 0
1004 335 1 0.5897 7.736505236392266 1.7671639596164388 16.512124558917026 0 0 0
1007 336 1 0.5897 7.268522670958955 1.4267706341910655 13.48056296200517 0 0 0
1012 338 2 -1.1794 7.61334545432847 4.7444956294429135 13.087143790457457 0 0 0
1014 338 1 0.5897 7.423395912231859 4.055148006568048 12.450837372917253 0 0 0
1011 337 1 0.5897 11.521988271234298 2.9672028434412834 12.67610889438451 0 0 0
1009 337 2 -1.1794 10.722331035405059 3.2600441602746004 12.238967123573243 0 0 0
996 332 1 0.5897 9.454153204614233 1.560781107024534 14.516978207484444 0 0 0
1013 338 1 0.5897 6.829928231494734 4.787348845060752 13.635525388017152 0 0 0
1490 497 1 0.5897 10.830073485921961 2.9515934185138315 17.110651035542542 0 0 0
1038 346 1 0.5897 12.335198550210075 0.8125314507306465 13.195549055284147 0 0 0
1139 380 1 0.5897 8.48114921590365 5.85070405357552 16.076752323839838 0 0 0
1018 340 2 -1.1794 7.772270032181262 0.08492548778052288 16.729230443211243 0 0 0
1010 337 1 0.5897 10.690137919455237 2.749193942294995 11.43016600161026 0 0 0
660 220 1 0.5897 7.478209864514709 5.904882302841563 11.600543161646943 0 0 0
1015 339 2 -1.1794 11.071101427344434 5.9711326487600624 12.13358954310796 0 0 0
1537 513 2 -1.1794 0.041378497256200575 4.537502490042858 20.63474413426361 1 0 0
974 325 1 0.5897 1.6289320910821155 3.2809459436477364 17.28399424578783 0 0 0
1826 609 1 0.5897 4.0288045524702305 0.2271890583441866 18.692087186042823 0 1 0
1539 513 1 0.5897 0.25736604684409814 5.405536217417462 20.975380872424385 1 0 0
1465 489 2 -1.1794 4.3062166865596465 5.950664256439153 17.950646528371653 0 0 0
1468 490 2 -1.1794 1.2222605979883219 0.16213991462755994 21.963312895592974 0 0 0
1454 485 1 0.5897 2.3104789492294664 3.318776044059906 21.687631885551255 0 0 0
1464 488 1 0.5897 1.0367075424663403 4.4684970704474045 19.231272967875416 0 0 0
1443 481 1 0.5897 4.790938326222342 2.3121849012209243 22.165473581084534 0 0 0
1450 484 2 -1.1794 3.3409928138105225 4.641785861578624 20.8880431255206 0 0 0
1469 490 1 0.5897 1.359773246399314 1.0848830542386274 22.17729797860237 0 0 0
1442 481 1 0.5897 4.082729174805822 1.7419398682010026 20.955059688647946 0 0 0
1453 485 2 -1.1794 1.597747448248073 2.900007655046311 22.17025273858067 0 0 0
1444 482 2 -1.1794 2.8635069987867503 1.496457061639439 19.55092840957647 0 0 0
1463 488 1 0.5897 1.6131863205704364 5.252209103157801 18.07141670200838 0 0 0
1452 484 1 0.5897 3.001762302198451 4.672719752329828 19.993523749583787 0 0 0
1441 481 2 -1.1794 4.792245984259269 1.5614363925515047 21.571729362821532 0 0 0
1451 484 1 0.5897 4.291718762066167 4.687091544089543 20.785917717052655 0 0 0
1445 482 1 0.5897 1.935461412072564 1.3308840301987517 19.384602779539886 0 0 0
1446 482 1 0.5897 3.097901498813157 2.189842018203824 18.934124306240985 0 0 0
1461 487 1 0.5897 5.389957414588314 2.7893069988729464 18.36546385644577 0 0 0
1459 487 2 -1.1794 4.630148952554162 3.26350276178746 18.02764820481919 0 0 0
1462 488 2 -1.1794 1.7293410281008672 4.444086544018088 18.571021102580595 0 0 0
1466 489 1 0.5897 4.456948880493239 5.005448392789279 17.95124296664011 0 0 0
1487 496 1 0.5897 6.05113754922227 1.6012407957437862 20.1072240788677 0 0 0
1488 496 1 0.5897 6.091018732532865 0.9740254752394295 18.730003020566734 0 0 0
1590 530 1 0.5897 2.397966257007227 6.169638028104409 21.67560281696303 0 0 0
1538 513 1 0.5897 0.44725580930847736 3.929464459820777 21.2526049405011 1 0 0
1456 486 2 -1.1794 0.17816415347637224 1.3667323688510469 19.164408773768738 0 0 0
1447 483 2 -1.1794 6.08584523205825 4.592978454671289 20.741174627264616 0 0 0
1498 500 2 -1.1794 7.730691370676784 0.14582408830313653 22.257978201374623 0 0 0
1495 499 2 -1.1794 10.733586707281038 5.970477199654728 18.06953765981773 0 0 0
1483 495 2 -1.1794 7.712876041132578 2.930647818606638 22.19048173444618 0 0 0
1485 495 1 0.5897 7.731698658963989 1.9756398558638504 22.129205655232337 0 0 0
1475 492 1 0.5897 8.325546441985177 1.3450852089434573 19.117356042986614 0 0 0
1005 335 1 0.5897 7.8286676044752195 3.122356564774909 17.180449769156187 0 0 0
1620 540 1 0.5897 8.318509333294577 6.006404365869211 21.734261542999157 0 0 0
1448 483 1 0.5897 6.404869146901805 5.35883539352702 21.218527201830387 0 0 0
1496 499 1 0.5897 10.79197034913347 5.016502104153123 18.017814729420927 0 0 0
1517 506 1 0.5897 12.222749983597598 2.174208244791533 18.68990451659274 0 0 0
1474 492 2 -1.1794 9.255839667909243 1.5249365418421408 19.253591092117475 0 0 0
1486 496 2 -1.1794 6.5663151136946585 1.5777241931669486 19.300834481448394 0 0 0
1480 494 2 -1.1794 9.497012264986726 4.7908267953218235 20.902762876035027 0 0 0
1473 491 1 0.5897 10.28463381267198 1.7894235072899087 20.716663954596637 0 0 0
1494 498 1 0.5897 7.31743376872051 4.672204541512344 19.275788232240515 0 0 0
1477 493 2 -1.1794 12.319180062131293 4.841605168786064 20.798358031242035 0 0 0
1491 497 1 0.5897 10.37987330242288 2.9025369241141865 18.555189863027188 0 0 0
1481 494 1 0.5897 10.441184576936138 4.812811082385052 20.746521243507758 0 0 0
1471 491 2 -1.1794 10.93283248580791 1.9195518062451444 21.408884527780987 0 0 0
1484 495 1 0.5897 8.494249664612537 3.2169142479026425 21.717403693438644 0 0 0
1472 491 1 0.5897 10.816696347603072 1.1684098461374484 21.990656293096105 0 0 0
1449 483 1 0.5897 6.400075257760049 3.845328585847445 21.249559725841962 0 0 0
1518 506 1 0.5897 12.175758767812809 1.5536642924851265 20.069923150469407 0 0 0
1493 498 1 0.5897 7.840615167480179 5.136831532709746 17.933325206504673 0 0 0
1489 497 2 -1.1794 11.002120489238656 3.3352333803747323 17.970531882800316 0 0 0
1482 494 1 0.5897 9.118474463107466 4.562582632303874 20.05375753326349 0 0 0
1492 498 2 -1.1794 7.991962666261902 4.489238393989798 18.621722380814763 0 0 0
1476 492 1 0.5897 9.70739978859269 0.8713062511568894 18.719679364622618 0 0 0
1856 619 1 0.5897 11.514248933329881 0.1856727430502687 18.423556563404787 0 1 0
121 41 2 -1.1794 4.560180382678478 7.702759533368158 4.267696532879236 0 0 0
122 41 1 0.5897 3.7854247988449394 7.701706643921147 3.7055133779177374 0 0 0
123 41 1 0.5897 5.287072243053152 7.511072533935994 3.6751071768280603 0 0 0
124 42 2 -1.1794 2.820271394567629 7.813684178742526 2.1150563445750055 0 0 0
125 42 1 0.5897 2.991652229367195 7.0168532091787865 1.6132101904567056 0 0 0
126 42 1 0.5897 3.4136172346557507 8.465068236265731 1.741062435395364 0 0 0
129 43 1 0.5897 4.877189248461564 10.85245396515627 3.374126919672949 0 0 0
130 44 2 -1.1794 3.023331055662876 10.879961087763313 3.4792656502475943 0 0 0
132 44 1 0.5897 2.517056912612698 10.101048653372885 3.7098972781199113 0 0 0
133 45 2 -1.1794 1.2828933295518457 9.129851124743837 5.118480155013021 0 0 0
135 45 1 0.5897 0.6537066679606437 9.638623376537515 4.607087429506773 0 0 0
137 46 1 0.5897 0.9362846118899932 7.869735815346703 2.1294273475148344 0 0 0
139 47 2 -1.1794 4.630867765193591 9.486740469529334 0.6388700591998788 0 0 0
142 48 2 -1.1794 1.09787783315583 10.830702979689105 1.3499039973635556 0 0 0
143 48 1 0.5897 1.8032154441896413 11.17360059799489 1.8987107407627142 0 0 0
144 48 1 0.5897 1.0160091943068248 11.46662317579465 0.6392190400546867 0 0 0
149 50 1 0.5897 1.4939188559152414 7.430440895072637 4.954854112865147 0 0 0
131 44 1 0.5897 2.616457183430908 11.587362617092708 3.979495960658392 0 0 0
140 47 1 0.5897 4.567479636173027 10.431235562485984 0.4972286889132024 0 0 0
168 56 1 0.5897 5.840176367136976 8.246194044162856 1.4771347230045038 0 0 0
621 207 1 0.5897 4.40199496551909 8.945704676389925 5.652117923745533 0 0 0
145 49 2 -1.1794 4.456928073960085 12.19173791433652 0.5465819656974027 0 0 0
136 46 2 -1.1794 -0.013338963140825114 7.90896713118498 2.2435887785923523 0 0 0
26 9 1 0.5897 5.152395846400924 6.507060904703588 0.9238545230912258 0 0 0
127 43 2 -1.1794 5.828680374904846 10.775626836432528 3.4457044084138966 0 0 0
128 43 1 0.5897 6.095757393923225 11.551696197053893 3.9382082148593005 0 0 0
166 56 2 -1.1794 6.15508204710407 7.4560721440475755 1.9161319374156036 0 0 0
218 73 1 0.5897 0.02218086730396878 10.624028984916604 2.844738396223693 1 0 0
148 50 2 -1.1794 1.6941925256361536 6.4976688982910655 4.877490660186702 0 0 0
270 90 1 0.5897 0.6594752544314596 12.19586377866111 4.521646350869037 0 0 0
1574 525 1 0.5897 1.5150321018264428 9.536152809043406 -0.05234574499413114 0 0 1
197 66 1 0.5897 12.188619421073017 8.301590689430137 1.448788063907675 0 0 0
300 100 1 0.5897 8.146346552940468 11.99031351357677 4.580948229466901 0 0 0
57 19 1 0.5897 11.383276884789574 6.548082340349372 1.0887449658366515 0 0 0
178 60 2 -1.1794 7.504944334468665 6.38909440844947 5.090577238166527 0 0 0
151 51 2 -1.1794 11.269595526680167 7.695116798591528 4.201745731864449 0 0 0
152 51 1 0.5897 10.447867426442738 7.606611442080767 3.7187964505070874 0 0 0
153 51 1 0.5897 11.24916157705078 6.984259733579229 4.842391474703269 0 0 0
154 52 2 -1.1794 8.950827715140898 7.872652468216224 2.2010226920736105 0 0 0
155 52 1 0.5897 9.489149215157585 8.613117717226517 1.9214862065344918 0 0 0
156 52 1 0.5897 9.287835550636439 7.128940058623226 1.7015084382514747 0 0 0
158 53 1 0.5897 11.184557843491469 10.903436815757825 3.5878345110853433 0 0 0
160 54 2 -1.1794 9.280558835621056 10.946051738271647 3.779926651768961 0 0 0
161 54 1 0.5897 8.706757137849651 11.097897347970841 3.028967986314064 0 0 0
162 54 1 0.5897 8.875270004885284 10.215959110558842 4.24778976830408 0 0 0
163 55 2 -1.1794 7.59865663045286 9.14341840471679 4.986726783819022 0 0 0
164 55 1 0.5897 6.996429907136854 9.594391368638064 4.394959123389301 0 0 0
167 56 1 0.5897 7.044856653236063 7.674166256430344 2.193779118654185 0 0 0
169 57 2 -1.1794 10.957417882285865 9.54487326907881 0.9228935748493885 0 0 0
172 58 2 -1.1794 7.637562116515148 11.01031364190805 1.4260642468281526 0 0 0
173 58 1 0.5897 7.705686999751939 10.207641091405474 0.9091139219048012 0 0 0
174 58 1 0.5897 6.867436340963752 10.875443179300094 1.9783403870995553 0 0 0
179 60 1 0.5897 7.194893825183888 7.294060746518209 5.057763704220537 0 0 0
171 57 1 0.5897 10.836918149165147 10.493933370837865 0.9532251058807124 0 0 0
650 217 1 0.5897 10.998539809675947 8.934969529611607 5.545705598404825 0 0 0
175 59 2 -1.1794 10.747278973198611 12.195850943008196 0.7544098242228782 0 0 0
198 66 1 0.5897 12.264412471936229 7.490484231909936 2.7247538286587822 0 0 0
157 53 2 -1.1794 12.14019764007595 10.886737158243712 3.641060235558244 0 0 0
180 60 1 0.5897 8.309027201824636 6.391873057570567 4.571204780127551 0 0 0
1739 580 1 0.5897 7.460073393180033 12.2026779810177 0.0675614307138552 0 0 1
170 57 1 0.5897 10.764501789034323 9.307345823326155 0.015953165786861234 0 0 0
507 169 1 0.5897 4.634742873061281 6.643900286422954 5.719439601195384 0 0 0
628 210 2 -1.1794 1.6040614949595795 6.428544756590693 10.701597747411354 0 0 0
616 206 2 -1.1794 0.20801138213914902 7.98756091175878 7.898890919672403 0 0 0
134 45 1 0.5897 1.4477825056097526 9.663527319285496 5.89576380916258 0 0 0
506 169 1 0.5897 3.8836337249060584 6.579192991560126 7.0322602125857046 0 0 0
698 233 1 0.5897 0.1660246529582154 11.456684878351426 9.749549369448586 1 0 0
625 209 2 -1.1794 4.33271659905539 12.154212146281552 6.106440063516141 0 0 0
699 233 1 0.5897 0.2756952764719373 10.676896963560358 8.45663110548477 1 0 0
612 204 1 0.5897 2.8711921160744907 11.567038186440092 9.706183829087594 0 0 0
613 205 2 -1.1794 1.6625889542612948 9.161393301235464 10.722665862299255 0 0 0
620 207 1 0.5897 5.172144901235132 9.187214450483076 6.932900914649501 0 0 0
602 201 1 0.5897 4.810653903395293 7.057537023310287 10.548482040047386 0 0 0
610 204 2 -1.1794 3.176359243197982 10.768475945008396 9.275663983959229 0 0 0
615 205 1 0.5897 0.7992398515492226 9.483700341869548 10.463684782041224 0 0 0
603 201 1 0.5897 4.077769979973886 7.872444389899396 9.504145390465176 0 0 0
604 202 2 -1.1794 3.010788553942859 7.701590330106864 8.025963101023061 0 0 0
623 208 1 0.5897 2.102302861850311 10.950249790756134 7.825583028909437 0 0 0
619 207 2 -1.1794 4.389928139361325 9.464919973869936 6.45613070907455 0 0 0
614 205 1 0.5897 2.2765817214540602 9.659432749590438 10.18302564622019 0 0 0
630 210 1 0.5897 1.729066961568233 7.3751512775582295 10.634779283074774 0 0 0
626 209 1 0.5897 4.3755875454636435 11.198231408014962 6.086135187693334 0 0 0
601 201 2 -1.1794 4.824898462070128 7.903914862458149 10.101720810270375 0 0 0
611 204 1 0.5897 4.12312507412087 10.766347229963479 9.41703344739049 0 0 0
606 202 1 0.5897 2.0548761347668387 7.7410394328177885 8.058141119709846 0 0 0
624 208 1 0.5897 1.5470465529267265 11.615257728103693 6.584111699916392 0 0 0
622 208 2 -1.1794 1.4244626739157502 10.85764272856994 7.1560834546442305 0 0 0
605 202 1 0.5897 3.266989046141725 8.483947718598264 7.5376498827274485 0 0 0
647 216 1 0.5897 5.913139320640862 7.77750342337113 8.620296004471943 0 0 0
607 203 2 -1.1794 5.916315101915365 10.708407394341002 9.425373021192918 0 0 0
648 216 1 0.5897 6.034732183074723 7.124011409047164 7.260187154028311 0 0 0
536 179 1 0.5897 11.705246450929899 6.26398749514419 6.920777878126324 0 0 0
652 218 2 -1.1794 7.486338891641277 10.81389000726133 7.221383994899682 0 0 0
646 216 2 -1.1794 6.399163765975685 7.827571559433307 7.797198602475781 0 0 0
609 203 1 0.5897 6.3968813635487844 9.913127311143992 9.65513550124667 0 0 0
637 213 2 -1.1794 12.185916484165228 10.54484758116357 9.311521577488852 0 0 0
640 214 2 -1.1794 9.491435779377007 10.846068868938778 9.081678720459212 0 0 0
631 211 2 -1.1794 10.852716201957877 7.737828491191351 9.932657358279233 0 0 0
608 203 1 0.5897 6.516699710238689 11.422145137343994 9.64067806186389 0 0 0
649 217 2 -1.1794 10.874542585214487 9.367387786209617 6.390581029199087 0 0 0
779 260 1 0.5897 8.423265501026403 11.996970589185143 10.16013365803141 0 0 0
655 219 2 -1.1794 10.827644605844476 12.184636108656175 6.381568767189873 0 0 0
657 219 1 0.5897 10.920233677276332 11.238063150055858 6.489168275182509 0 0 0
658 220 2 -1.1794 7.463907288167748 6.421148009070418 10.794671192395093 0 0 0
642 214 1 0.5897 9.127759562565886 10.105450005602663 9.56686589282894 0 0 0
654 218 1 0.5897 8.325044253483457 10.769923237176851 7.6806854752937 0 0 0
641 214 1 0.5897 10.43901700685379 10.7596460947351 9.186452029235234 0 0 0
537 179 1 0.5897 10.206007963980733 6.349221237909605 6.727839137137152 0 0 0
653 218 1 0.5897 6.8310517689976775 10.667403173815352 7.903585923578392 0 0 0
632 211 1 0.5897 11.581858363804443 7.628140589408201 9.32224372910929 0 0 0
299 100 1 0.5897 7.304541908515518 12.038878314477348 5.838293669562728 0 0 0
165 55 1 0.5897 7.399302386280824 9.50243830043512 5.851329808099115 0 0 0
635 212 1 0.5897 9.703207058701604 7.397353017076139 8.496898662568324 0 0 0
633 211 1 0.5897 11.02244487851882 7.100377473065901 10.626208678363898 0 0 0
651 217 1 0.5897 10.197037000865292 8.851115916435756 6.827288635686727 0 0 0
643 215 2 -1.1794 7.978533134918413 9.170695625018372 10.812895098251234 0 0 0
645 215 1 0.5897 7.699342278079658 8.255575110076741 10.840693549541886 0 0 0
634 212 2 -1.1794 9.260872597520322 7.482793946411204 7.652357567682705 0 0 0
636 212 1 0.5897 8.330116672123156 7.525036613362768 7.872041281708672 0 0 0
1130 377 1 0.5897 10.632831217610615 8.954932090892134 11.399878512806593 0 0 0
678 226 1 0.5897 12.206408042461254 8.286539268838043 7.408088309229906 0 0 0
1081 361 2 -1.1794 4.603729177957476 7.739010179532816 15.978277279244018 0 0 0
1082 361 1 0.5897 4.667908477891517 8.53707709001403 16.50280699976919 0 0 0
1083 361 1 0.5897 4.458065253405979 7.042301329385125 16.618232856714815 0 0 0
1084 362 2 -1.1794 2.903957882876021 7.752543053745981 13.823753295651162 0 0 0
1085 362 1 0.5897 3.4398294828424856 7.821984838589461 14.613848169349282 0 0 0
1086 362 1 0.5897 3.203593953190995 8.47094071828589 13.266706357682828 0 0 0
1089 363 1 0.5897 4.888836258781454 10.811050714231225 15.18891571116995 0 0 0
1090 364 2 -1.1794 3.163620890519131 10.872343990167609 15.153663761832226 0 0 0
1091 364 1 0.5897 2.6535290743836266 11.616654443188118 15.473068720987534 0 0 0
1092 364 1 0.5897 2.7295691479202264 10.105729445995888 15.527956238562068 0 0 0
1095 365 1 0.5897 0.7407713225636678 9.293828638944499 16.035315588935273 0 0 0
1097 366 1 0.5897 1.0664941681224114 7.5809597364754975 13.655141090176834 0 0 0
1099 367 2 -1.1794 4.703871841205709 9.409142455548137 12.397922985559795 0 0 0
1102 368 2 -1.1794 1.4426387421758138 10.97225432343703 12.90558321007977 0 0 0
1104 368 1 0.5897 2.1847840486495866 11.047107120939765 13.50550398338948 0 0 0
1093 365 2 -1.1794 1.5279547926657024 9.017815621916538 16.504853992878758 0 0 0
1103 368 1 0.5897 1.689574841361934 10.26903068857685 12.305026013905382 0 0 0