LAMMPS data file via write_data, version 30 Jul 2021, timestep = 500000

2268 atoms
2 atom types
1512 bonds
1 bond types
756 angles
1 angle types

-0.1411178744978372 46.80111587449612 xlo xhi
-0.047649079411403505 20.04765007941195 ylo yhi
-0.01294907441864801 20.71294707441708 zlo zhi

Masses

1 1.008
2 15.999

Pair Coeffs # lj/cut/tip4p/long/omp

1 0 0
2 0.21084 3.1668

Bond Coeffs # harmonic/omp

1 450 0.9572

Angle Coeffs # harmonic/omp

1 55 104.52

Atoms # full

1044 348 1 0.5897 5.704277108915504 8.956246917354827 8.060438715955954 0 0 0
791 264 1 0.5897 5.601496668810425 1.4810340384356038 6.47187643807504 0 0 0
20 7 1 0.5897 0.7548095219225235 7.307706965521074 1.8002499723882488 0 0 0
4 2 2 -1.1794 3.8456208438141575 1.3389769673978045 3.170975206248237 0 0 0
5 2 1 0.5897 3.158099690427926 1.1829803698533838 3.8184701365142892 0 0 0
790 264 2 -1.1794 5.425605154577213 1.9933915530679074 7.2610546001155445 0 0 0
2 1 1 0.5897 3.695795142606194 2.7626791723153286 0.4891342125610417 0 0 0
10 4 2 -1.1794 1.401190048999161 4.499143890961177 3.570444624831543 0 0 0
11 4 1 0.5897 1.3552653498006066 5.242804560314132 2.9695368940300786 0 0 0
12 4 1 0.5897 2.3361092408200004 4.38712043354776 3.7426457593317934 0 0 0
13 5 2 -1.1794 4.587868509501644 5.883165391551776 1.3632609046478104 0 0 0
14 5 1 0.5897 4.399281553965889 5.218148542527518 2.0253976064398422 0 0 0
15 5 1 0.5897 3.797099502044268 5.916827475073329 0.824905692168532 0 0 0
16 6 2 -1.1794 4.108327910106588 4.014913330336112 3.453096132573685 0 0 0
17 6 1 0.5897 4.576982078712637 4.201942621940428 4.266516277265714 0 0 0
18 6 1 0.5897 3.938574320605081 3.073436908133061 3.4849711568180615 0 0 0
773 258 1 0.5897 4.046670319609708 4.731486533874003 9.922447407667962 0 0 0
1039 347 2 -1.1794 0.7586910424934156 8.52964394932696 8.912615680859302 0 0 0
34 12 2 -1.1794 5.477801594947875 2.2235471660503676 0.4216589373640261 0 0 0
1010 337 1 0.5897 3.161654029763332 9.168587735215356 7.119187164372238 0 0 0
24 8 1 0.5897 2.1799339600391066 0.18201536063514345 5.661076486549159 0 0 0
25 9 2 -1.1794 2.1084011411713495 5.410094697733052 6.472944276429141 0 0 0
26 9 1 0.5897 1.4203849606349535 5.406986716624871 7.138449385991422 0 0 0
27 9 1 0.5897 2.498683479843581 4.537764721477008 6.527159818971509 0 0 0
29 10 1 0.5897 5.573406553789418 0.7467267469217552 4.163244940874992 0 0 0
31 11 2 -1.1794 0.7054729967591283 2.282344069603045 2.024731441151954 0 0 0
32 11 1 0.5897 0.9523952656608714 3.0644975050533483 2.518181978702639 0 0 0
762 254 1 0.5897 3.9773766471065466 0.3258377342574739 9.831164753224916 0 0 0
254 85 1 0.5897 3.117973502199849 9.460961769090805 0.0032520485132646777 0 0 0
19 7 2 -1.1794 0.844506668852043 6.361637926739038 1.6857122688669668 0 0 0
6 2 1 0.5897 3.6866841467941702 0.685385196503819 2.489949730281958 0 0 0
256 86 2 -1.1794 4.0015119760391995 7.88882885184755 3.282252884157829 0 0 0
257 86 1 0.5897 4.027918160211729 7.187581774293191 2.631262152674284 0 0 0
258 86 1 0.5897 3.150387678246937 7.788550183023288 3.708639800220193 0 0 0
776 259 1 0.5897 0.7399586026004584 5.086517727904496 9.434263058944001 0 0 0
274 92 2 -1.1794 1.8248397709436575 7.4137114393929435 4.679149147144473 0 0 0
275 92 1 0.5897 2.029822647363934 6.636308429809492 5.198625026950915 0 0 0
276 92 1 0.5897 1.7602759800226608 8.120976223437198 5.320899064903183 0 0 0
3 1 1 0.5897 2.3052004898117064 2.4638485620712562 1.007732371606661 0 0 0
1041 347 1 0.5897 0.8921671140725884 9.278619697622087 9.493520663945183 0 0 0
7 3 2 -1.1794 5.429011666248782 4.5364594606210344 5.696599858092885 0 0 0
285 95 1 0.5897 1.2893525881325818 9.285615947014021 1.2731043501553398 0 0 0
23 8 1 0.5897 0.942628674889709 0.9936374250881632 5.341230862865842 0 0 0
283 95 2 -1.1794 0.6390051792164184 9.02783270811466 1.9264527140890735 0 0 0
270 90 1 0.5897 4.064089277257831 9.636249130107673 3.6796144613356088 0 0 0
757 253 2 -1.1794 2.573204893194385 2.572796042915657 7.397003850758675 0 0 0
758 253 1 0.5897 2.403435816745913 2.0387372751778545 6.620983687972409 0 0 0
759 253 1 0.5897 3.4926909177941288 2.4075547757862394 7.6056076491429465 0 0 0
21 7 1 0.5897 -0.04567748009803253 6.0228956996490455 1.781077609013887 0 0 0
8 3 1 0.5897 5.536865075901255 5.434451511212082 6.009956440862675 0 0 0
22 8 2 -1.1794 1.8732176964350993 0.9172392828215192 5.13041366282057 0 0 0
1009 337 2 -1.1794 2.266987426247369 9.116030008351558 6.782906216235358 0 0 0
769 257 2 -1.1794 4.177373464792636 5.923250639699833 8.59598794242546 0 0 0
770 257 1 0.5897 4.10857132537036 6.66045315770866 9.20264248910527 0 0 0
771 257 1 0.5897 3.359838029976074 5.944691327132826 8.098542999679985 0 0 0
777 259 1 0.5897 0.5607170810409814 6.545313097725502 9.071444195088397 0 0 0
498 166 1 0.5897 0.1521572455575423 7.14235570670379 4.984572204996601 1 0 0
1040 347 1 0.5897 0.03179819366757636 8.79093352136494 8.347264507838572 0 0 0
775 259 2 -1.1794 0.3524752305814688 5.6599891469690835 8.773024889928525 0 0 0
787 263 2 -1.1794 0.4076408229494095 1.8303905490564483 9.003156788360302 0 0 0
789 263 1 0.5897 1.1361858672323146 2.089314535273604 8.438844344678126 0 0 0
1011 337 1 0.5897 1.7744139893299284 8.680175086649431 7.478361467711319 0 0 0
1042 348 2 -1.1794 5.025613418068287 9.154575287866095 7.415186167039697 0 0 0
282 94 1 0.5897 5.195393131974561 7.774182888617319 4.7075325923346245 0 0 0
224 75 1 0.5897 0.29961849900045623 4.2343462766169635 5.146649769459587 1 0 0
1281 427 1 0.5897 0.4866633435743295 0.07923516320923793 8.662870324794328 0 1 0
1539 513 1 0.5897 1.9066965401722258 6.330167656479816 0.29947750584734045 0 0 1
288 96 1 0.5897 5.545251427868231 8.830106486572662 0.8009091425846138 0 0 0
524 175 1 0.5897 0.5130345368479977 0.4933975909860834 2.060345076012521 0 1 0
1 1 2 -1.1794 2.7708321569311156 2.945754581108114 0.32420710680689435 0 0 0
281 94 1 0.5897 5.410504649405475 8.12046168688776 6.165542547607705 0 0 0
9 3 1 0.5897 5.454530784253478 4.000904813012034 6.489555151258005 0 0 0
286 96 2 -1.1794 4.883352633059263 8.886146159338072 0.1116912672319751 0 0 0
761 254 1 0.5897 3.7836255764806537 1.8198407290686318 9.980348827619604 0 0 0
1012 338 2 -1.1794 4.2033233367086345 7.898341624531491 10.293079803374118 0 0 0
1531 511 2 -1.1794 0.547554457033408 5.879875994778337 15.777279497351296 0 0 0
255 85 1 0.5897 1.9191514546784778 9.177461631925459 19.8491181058114 0 0 -1
1538 513 1 0.5897 2.1181218627969036 5.1209757688508235 20.139347240752926 0 0 0
1532 511 1 0.5897 0.7370254047284874 6.814870605071372 15.699186545430019 0 0 0
1758 586 1 0.5897 -0.05833106305781313 0.8713529948863854 19.152838370570763 1 0 0
287 96 1 0.5897 5.105822076848859 8.17813362388794 20.233053558068804 0 0 -1
1521 507 1 0.5897 5.068702091058962 4.025180949308932 18.589179107449475 0 0 0
2010 670 1 0.5897 -0.10527454133063685 7.19708656461836 18.785881247284202 1 0 0
2036 679 1 0.5897 1.0812065765727437 0.05798163346122295 15.927382107394529 0 1 0
779 260 1 0.5897 2.085383798805527 1.7073533750490033 12.81696286665904 0 0 0
1536 512 1 0.5897 2.177908663689578 0.42804203398581947 19.514852365887002 0 0 0
781 261 2 -1.1794 2.0760673201750626 5.630606776887166 13.679218052937204 0 0 0
782 261 1 0.5897 1.4860878921773948 5.722388242995473 14.42739608950494 0 0 0
783 261 1 0.5897 2.212273715404371 4.686876998292282 13.59535807086065 0 0 0
1775 592 1 0.5897 0.9505339593669608 9.964138211386697 17.142623698189496 0 0 0
1545 515 1 0.5897 1.126415482285546 2.5915596363338573 16.780467202512845 0 0 0
1788 596 1 0.5897 1.9249618106690551 7.17698978908996 19.19713180328076 0 0 0
1534 512 2 -1.1794 1.869420011103439 1.1997094058858166 19.03988466082088 0 0 0
1523 508 1 0.5897 0.7206330651027363 3.9077600034178714 18.511300340482983 0 0 0
1030 344 2 -1.1794 1.837693607925789 7.840726481326862 11.897124228860573 0 0 0
1031 344 1 0.5897 0.8923320683305245 7.712610970064367 11.975575356791941 0 0 0
1032 344 1 0.5897 2.220016900791568 7.1133499441688075 12.38802684176788 0 0 0
1787 596 1 0.5897 2.005513207424637 7.862891841750609 17.84991324940605 0 0 0
1513 505 2 -1.1794 2.4811083574687363 3.06285340466281 14.016092205388343 0 0 0
1514 505 1 0.5897 1.9576757962128526 2.7805094075202854 14.766134586242044 0 0 0
1515 505 1 0.5897 3.3876051973573955 2.9885762064871937 14.314457778050434 0 0 0
1516 506 2 -1.1794 3.8256953939394736 1.1356229922070458 17.186242238681906 0 0 0
1517 506 1 0.5897 3.033010073983396 1.2113541544552255 17.717457067702824 0 0 0
1518 506 1 0.5897 4.517115260731156 0.9286607485934616 17.815029744594014 0 0 0
1546 516 2 -1.1794 5.079639737845659 3.041456273435844 14.484114103071079 0 0 0
778 260 2 -1.1794 1.794670145100912 1.0148203712583106 12.223565959841071 0 0 0
1522 508 2 -1.1794 1.399939351397214 4.069303712047827 17.85653576569537 0 0 0
784 262 2 -1.1794 5.531602518390391 0.8258361656226864 12.948414920342994 0 0 0
1524 508 1 0.5897 1.1530764642793518 4.902470642794215 17.455145192579877 0 0 0
1525 509 2 -1.1794 4.451888424006677 5.9494353049933215 15.168888928290622 0 0 0
1526 509 1 0.5897 4.357600733386007 5.173029583134157 15.72073233422794 0 0 0
1527 509 1 0.5897 3.6468405024245985 5.975473950613974 14.651691122878473 0 0 0
1528 510 2 -1.1794 4.025498522200019 4.039150615455474 17.116075527662005 0 0 0
1529 510 1 0.5897 3.216708782119472 4.132424423585162 17.61949915874738 0 0 0
1530 510 1 0.5897 4.021018661341571 3.1284943530616642 16.821289744097776 0 0 0
1013 338 1 0.5897 3.3217624040749625 7.958724224918386 10.661154949293929 0 0 0
1548 516 1 0.5897 5.006222493893186 2.3442352499214154 13.832400957895391 0 0 0
780 260 1 0.5897 2.2821733394093044 1.1714370652067878 11.414811002798137 0 0 0
1535 512 1 0.5897 2.1780633162753613 1.9412331957458677 19.560571217007258 0 0 0
785 262 1 0.5897 4.904144291076132 0.8629825657070235 12.226481684176479 0 0 0
1797 599 1 0.5897 1.641645664468523 8.868025253476503 15.13527862750398 0 0 0
1543 515 2 -1.1794 0.9527760664929623 2.0535133203429017 16.008066299146456 0 0 0
1786 596 2 -1.1794 1.466176837307595 7.8044963793376505 18.63856707293194 0 0 0
1800 600 1 0.5897 4.519270838261237 9.280636796728242 14.039186307939918 0 0 0
1002 334 1 0.5897 -0.10109528479081686 0.8685478030481961 12.562933031481627 1 0 0
768 256 1 0.5897 2.156796640521949 4.11568477242689 10.82809510394208 0 0 0
1795 599 2 -1.1794 0.994784005277588 8.608117421577454 15.791239655169566 0 0 0
1782 594 1 0.5897 4.131756854205123 9.922380473634176 17.37147537260892 0 0 0
1766 589 1 0.5897 2.275721799240492 8.973651866616734 13.066791765347572 0 0 0
1768 590 2 -1.1794 3.8576979951393193 8.06876770515775 17.069177747960616 0 0 0
1769 590 1 0.5897 4.448314743624144 7.782770397995901 17.76605799243552 0 0 0
1770 590 1 0.5897 3.922751105914159 7.3841174819660225 16.403401728909905 0 0 0
1798 600 2 -1.1794 5.4551698129877755 9.367119925924477 14.220541344468142 0 0 0
774 258 1 0.5897 4.466108793681697 4.2499742552301445 11.295103300317505 0 0 0
760 254 2 -1.1794 3.759476262547354 1.0003654440900036 10.474413912724266 0 0 0
1765 589 2 -1.1794 2.735070361021899 9.374395710877236 13.804803184259237 0 0 0
1014 338 1 0.5897 4.763100356958163 7.696241989572709 11.04279437500748 0 0 0
766 256 2 -1.1794 1.2021102789642706 4.0598629095299374 10.869750130467386 0 0 0
1544 515 1 0.5897 0.17690592344185602 2.448310923552869 15.610039317238812 0 0 0
1520 507 1 0.5897 5.596353955805785 3.6334128831103434 19.95302484095459 0 0 0
981 327 1 0.5897 -0.035746959826930436 4.4685192000981555 12.406823399773325 1 0 0
1796 599 1 0.5897 0.15495252373131102 8.879855247061098 15.42095455891073 0 0 0
772 258 2 -1.1794 3.8753216541531224 4.04742330660882 10.56969758922556 0 0 0
1537 513 2 -1.1794 2.479944066119852 5.983781798775482 20.341511038303075 0 0 0
253 85 2 -1.1794 2.1944704645884294 9.684390138158694 20.612973038572008 0 0 -1
1547 516 1 0.5897 5.566179145050509 2.644446189615354 15.206555144902234 0 0 0
1794 598 1 0.5897 5.504784755421724 6.1781198845560406 19.069685460017304 0 0 0
1519 507 2 -1.1794 5.718972012477025 4.269052877211943 19.247923888802788 0 0 0
1026 342 1 0.5897 3.996608438158648 9.745783438908674 10.37011229798063 0 0 0
767 256 1 0.5897 0.9907729710422277 3.2340445868000742 10.434338511132903 0 0 0
1296 432 1 0.5897 4.899870489232732 16.75626447039716 7.066526669423234 0 0 0
1279 427 2 -1.1794 0.34237771968318925 19.257482760728546 8.429606528686664 0 0 0
1293 431 1 0.5897 0.5374060932756981 14.61083080949213 9.093522532462702 0 0 0
1027 343 2 -1.1794 0.5778510288579612 12.687654842604326 8.916615196246127 0 0 0
265 89 2 -1.1794 4.310757965693078 12.165399802484536 1.7252092458252732 0 0 0
266 89 1 0.5897 3.7398175327213514 12.390421326763834 0.9905944802314053 0 0 0
507 169 1 0.5897 1.7047381392055974 15.585666338650954 0.6781439348816592 0 0 0
263 88 1 0.5897 2.139541479579536 10.81804093472978 3.913355087673727 0 0 0
269 90 1 0.5897 4.308385662582715 11.10660986513623 3.4146581493087664 0 0 0
261 87 1 0.5897 4.995149536319761 11.188113288318801 5.252816833947425 0 0 0
272 91 1 0.5897 1.5851380440937244 12.735646932789376 1.5084534038908168 0 0 0
273 91 1 0.5897 0.9224525300171353 12.143492578358828 2.7340819425112164 0 0 0
277 93 2 -1.1794 2.4946933250344796 12.064330218435906 6.965756160727908 0 0 0
278 93 1 0.5897 2.201222141349623 11.162313309867491 6.8374744142518695 0 0 0
279 93 1 0.5897 2.2887938590257804 12.503340786988955 6.140450966203197 0 0 0
1019 340 1 0.5897 0.6938423136028836 11.527506546315214 10.228339869156565 0 0 0
525 175 1 0.5897 0.7534484047088111 19.166792914048877 2.521044831771861 0 0 0
506 169 1 0.5897 3.1190953474280634 15.900045924922843 0.2391015827806638 0 0 0
535 179 2 -1.1794 0.552934907384744 15.608076788630223 2.2389430173337472 0 0 0
508 170 2 -1.1794 3.9755190292259996 14.399386024309795 3.3546974114405104 0 0 0
509 170 1 0.5897 3.9574759775719928 15.291574278581065 3.008446939428561 0 0 0
510 170 1 0.5897 4.086190871675826 13.844529757669154 2.582600091822852 0 0 0
523 175 2 -1.1794 0.5854097820111713 19.69046738113878 1.7376055479001826 0 0 0
514 172 2 -1.1794 1.009019249511757 17.92984434705612 3.8399202801628536 0 0 0
1280 427 1 0.5897 0.5777878254235888 18.769283497797897 9.21859002069786 0 0 0
516 172 1 0.5897 0.7368081110052818 17.132952768863387 3.3848475792428507 0 0 0
517 173 2 -1.1794 4.612467734666043 19.22873579252513 1.6136375224616089 0 0 0
1025 342 1 0.5897 4.058405979345758 11.161649695141461 9.837801653874289 0 0 0
537 179 1 0.5897 0.6802107566016523 14.679732130058062 2.4343620895751106 0 0 0
520 174 2 -1.1794 3.676423875036295 17.430427501927205 3.5261604667981166 0 0 0
521 174 1 0.5897 2.731612845345063 17.56276120350601 3.604234600592126 0 0 0
522 174 1 0.5897 3.9892604688437476 18.204320479738616 3.0577028982453753 0 0 0
515 172 1 0.5897 0.35957308744756455 18.043683228773126 4.533846592986102 0 0 0
1292 431 1 0.5897 0.6816698903709267 16.058990885992397 9.510494700304625 0 0 0
526 176 2 -1.1794 1.791631812011356 14.103262548178845 5.0293595203705594 0 0 0
527 176 1 0.5897 2.5274408400448323 14.134261896135001 4.417889100590398 0 0 0
528 176 1 0.5897 2.0065584344636926 14.754936234209639 5.696717536028685 0 0 0
529 177 2 -1.1794 2.3760039689439485 19.0095734650993 6.755275392464051 0 0 0
530 177 1 0.5897 2.1828470497320454 18.082758351809172 6.614154369917314 0 0 0
531 177 1 0.5897 1.659479509100122 19.322680144536736 7.307383218133613 0 0 0
534 178 1 0.5897 5.3631289784474525 14.924925760902026 6.069267929098513 0 0 0
259 87 2 -1.1794 5.669108101627313 11.578445678467798 5.809307465457283 0 0 0
519 173 1 0.5897 4.214976076000138 19.15519682905732 0.7459626699776143 0 0 0
262 88 2 -1.1794 1.1844989841299016 10.77045390863769 3.86969820773661 0 0 0
518 173 1 0.5897 5.555103434744436 19.215981003371343 1.447650325461265 0 0 0
1291 431 2 -1.1794 0.6580340197490023 15.49199069339781 8.739653444805418 0 0 0
271 91 2 -1.1794 0.8120645735964365 12.820540619086763 2.0665064260731683 0 0 0
533 178 1 0.5897 5.2319471989080295 14.58936928714783 4.598837325986692 0 0 0
1021 341 2 -1.1794 4.6336613518811625 12.459233392995566 8.700781498873011 0 0 0
1022 341 1 0.5897 4.410407468160607 13.107949259227427 9.368287691514102 0 0 0
1023 341 1 0.5897 4.052376487264355 12.65986829228188 7.967214658848631 0 0 0
268 90 2 -1.1794 3.9279316317298747 10.505947288456898 4.05552101469383 0 0 0
1278 426 1 0.5897 3.750459005371366 16.35979687512953 10.100776815780783 0 0 0
1028 343 1 0.5897 1.2762391279934848 12.573066096550217 8.272104531802984 0 0 0
1261 421 2 -1.1794 2.001498064720905 16.27588291272229 6.559954091064084 0 0 0
1262 421 1 0.5897 1.3981930871749086 16.086290017012974 7.278526019461763 0 0 0
1263 421 1 0.5897 2.866510062260762 16.063233052030085 6.910392400445565 0 0 0
513 171 1 0.5897 4.783191938657365 17.58028466596867 5.029522399146802 0 0 0
1273 425 2 -1.1794 4.25357689568826 19.02017580317615 8.648023967340743 0 0 0
1274 425 1 0.5897 4.008973730578769 18.31768621426034 9.250445452737445 0 0 0
1275 425 1 0.5897 3.6980491678996517 18.882632372588173 7.880729606733261 0 0 0
1043 348 1 0.5897 5.1979858960536545 10.059774117903169 7.156113517993922 0 0 0
1294 432 2 -1.1794 4.579140822237701 15.923112099852549 7.411796834155703 0 0 0
2042 681 1 0.5897 1.7647395903653136 19.059768793495365 0.31231395181043664 0 0 1
538 180 2 -1.1794 5.074873433978642 15.997988681474549 0.27779641077371514 0 0 0
1295 432 1 0.5897 5.310483006182776 15.578160843645875 7.92406024654013 0 0 0
267 89 1 0.5897 5.180384017481752 12.07715596907702 1.3350298147333068 0 0 0
750 250 1 0.5897 0.02342136274740786 14.072183042271973 4.8474925012146315 1 0 0
264 88 1 0.5897 1.00754765335876 10.094536605644919 3.215435290003536 0 0 0
511 171 2 -1.1794 5.435820063203902 17.89477264452909 5.655172569522896 0 0 0
260 87 1 0.5897 5.567028409399992 12.521884301122322 5.683952784504335 0 0 0
1020 340 1 0.5897 1.9725061767649645 10.944700717835364 10.791665161327561 0 0 0
2050 684 2 -1.1794 5.352122386659928 16.029991857416825 13.913389655386991 0 0 0
1267 423 2 -1.1794 5.591062562701562 18.195600917626813 12.161705780985617 0 0 0
505 169 2 -1.1794 2.2043294945129155 16.004449336499253 20.703121877950267 0 0 -1
1781 594 1 0.5897 2.883644439504806 10.729453504481434 17.65924642262587 0 0 0
1033 345 2 -1.1794 2.050799368947998 12.049206888538068 13.787648444872577 0 0 0
1034 345 1 0.5897 2.847483050979286 12.366297793728712 14.213109809901367 0 0 0
1035 345 1 0.5897 1.3383358817652953 12.384194672330443 14.332118727665426 0 0 0
1774 592 2 -1.1794 1.1491421824644559 10.712368487204587 17.705596133823207 0 0 0
1783 595 2 -1.1794 0.4987521579843889 12.831088963338374 15.877595465523278 0 0 0
2029 677 2 -1.1794 4.310863574971782 19.04944470357294 15.417521192254952 0 0 0
1269 423 1 0.5897 5.646158439816173 19.032746440772545 12.622544594801644 0 0 0
1286 429 1 0.5897 2.2850380049768995 19.583703978261532 12.825683899206402 0 0 0
1277 426 1 0.5897 4.115975458174071 17.382714042754245 11.15527365676749 0 0 0
2048 683 1 0.5897 0.1483621245307734 15.819463673464181 15.528540604800453 0 0 0
1016 339 1 0.5897 5.082964465845963 10.686663596730751 11.775776480008325 0 0 0
1282 428 2 -1.1794 1.7206801763283903 14.04928536734225 11.659519464818151 0 0 0
1283 428 1 0.5897 1.8510141314622026 14.703612156203514 12.345892323443943 0 0 0
1284 428 1 0.5897 1.82052163416851 13.209015826956756 12.10695732770009 0 0 0
1285 429 2 -1.1794 2.467829074508038 18.794958817890073 13.33626709925487 0 0 0
1785 595 1 0.5897 0.8194996915489525 13.714531742455828 16.058887015822044 0 0 0
1265 422 1 0.5897 4.758533040233224 14.256969580663048 11.199916344558815 0 0 0
2038 680 2 -1.1794 1.7090093258983827 14.326351099422837 18.57969023708778 0 0 0
2035 679 2 -1.1794 0.779348992992849 19.29569931193862 15.627956301073766 0 0 0
2030 677 1 0.5897 5.233591496706522 19.123439770609615 15.173853343535411 0 0 0
2051 684 1 0.5897 4.39904969577641 15.957104775600005 13.862238758372058 0 0 0
1773 591 1 0.5897 4.842428658306649 11.365144450662399 19.073216213857485 0 0 0
2049 683 1 0.5897 1.194765170986717 16.25537570296915 16.532038235155845 0 0 0
1270 424 2 -1.1794 0.7799090200793337 17.508566820821898 10.755375818649815 0 0 0
1789 597 2 -1.1794 2.329079101345648 12.504234396851139 20.51646724838448 0 0 0
1776 592 1 0.5897 0.8249729300271254 11.470822351661594 17.219907235829147 0 0 0
1777 593 2 -1.1794 4.292736701380786 12.357332269083175 15.214356887721323 0 0 0
1778 593 1 0.5897 4.089648519593897 11.716855617746129 15.896108305665527 0 0 0
2024 675 1 0.5897 5.265823979948339 17.753862805823527 18.898315025172067 0 0 0
1268 423 1 0.5897 5.638033308716517 17.536762417465873 12.854501025995225 0 0 0
2043 681 1 0.5897 2.3775658136432503 17.91360425496332 20.261904489809176 0 0 0
1018 340 2 -1.1794 1.0280735762264106 10.98470314885279 10.942414604826812 0 0 0
1272 424 1 0.5897 1.7180110624831988 17.430666942023674 10.929078013139712 0 0 0
2047 683 2 -1.1794 1.0324060683312404 15.618775384139846 15.835889156752938 0 0 0
1287 429 1 0.5897 3.199673625862224 19.039875307048966 13.902560153369132 0 0 0
1791 597 1 0.5897 1.9107841959728145 13.043651101099346 19.845415667449885 0 0 0
2240 747 1 0.5897 0.4777983353695906 17.878166206495962 19.18712491567841 1 0 0
2017 673 2 -1.1794 2.458475060482561 16.078493507276924 13.390649682264714 0 0 0
2018 673 1 0.5897 2.464337327056316 17.03376062573267 13.330335699650686 0 0 0
2019 673 1 0.5897 1.9588857228400403 15.891269209586019 14.185397302612943 0 0 0
2020 674 2 -1.1794 3.9654833389704836 14.465666848409674 16.922696525088348 0 0 0
2021 674 1 0.5897 3.091714951203538 14.379235648513452 17.303922129846733 0 0 0
2022 674 1 0.5897 4.033487130578906 13.733448673409567 16.309946088143462 0 0 0
1024 342 2 -1.1794 3.744157659205059 10.644962939110544 10.579780285928033 0 0 0
2040 680 1 0.5897 0.7622709747727161 14.428252846140595 18.481814390750884 0 0 0
2026 676 2 -1.1794 1.4830640560337578 17.654866478383212 17.607228862801357 0 0 0
2027 676 1 0.5897 2.41851634614037 17.773464992956736 17.77196758254592 0 0 0
2028 676 1 0.5897 1.280115116703714 18.282313013555616 16.91342443588632 0 0 0
2037 679 1 0.5897 1.2872789922718963 19.126074991802568 14.834544867564603 0 0 0
1779 593 1 0.5897 5.209237709827273 12.19081482870514 14.993964576029404 0 0 0
2039 680 1 0.5897 1.9581755042813858 14.997323099385879 19.21526430030157 0 0 0
2032 678 2 -1.1794 4.18814610393676 17.30000956599827 17.612693436528858 0 0 0
2033 678 1 0.5897 4.284469163731328 17.822218587085185 16.81628413063016 0 0 0
2034 678 1 0.5897 3.8726505507830096 16.450067684857746 17.30563983066898 0 0 0
1772 591 1 0.5897 5.589416538050223 10.676111664853886 20.19535961250932 0 0 0
1271 424 1 0.5897 0.40466607499722473 17.79530812312195 11.587982745461826 0 0 0
1780 594 2 -1.1794 3.820726810916874 10.820314341385227 17.486325052237213 0 0 0
2041 681 2 -1.1794 2.4598330970821345 18.855256898443685 20.412678497486077 0 0 0
2031 677 1 0.5897 4.150549374152776 19.805140825457208 15.98272171369206 0 0 0
2046 682 1 0.5897 5.29211584057693 14.349894746291694 18.24963825483063 0 0 0
1266 422 1 0.5897 3.2962221384014017 14.484208684694114 10.880522812724093 0 0 0
2052 684 1 0.5897 5.673342026617805 15.168551436250254 13.647010785575995 0 0 0
1771 591 2 -1.1794 5.463960923283471 11.530386051325111 19.782202639933402 0 0 0
540 180 1 0.5897 5.314069365331508 15.50362756186322 20.21969999738983 0 0 -1
1767 589 1 0.5897 2.5129121390541216 10.303812149630602 13.74964021118299 0 0 0
1790 597 1 0.5897 2.1736141005707155 11.603684222826224 20.231767445288924 0 0 0
1276 426 2 -1.1794 3.5570219329532042 17.251731511377958 10.389320578776386 0 0 0
1264 422 2 -1.1794 4.175605508354564 14.589591480056011 10.517405952029375 0 0 0
2025 675 1 0.5897 5.679833007035595 17.643480365312975 20.350345337894524 0 0 0
1505 502 1 0.5897 -0.09029674766849638 14.318567401999482 11.916026653795399 1 0 0
807 269 1 0.5897 10.46799326869719 5.567462408490593 7.662854867742628 0 0 0
305 102 1 0.5897 10.407828017642457 9.880294782797336 3.387155623739612 0 0 0
51 17 1 0.5897 11.00672647580026 5.119049020361063 2.3057997848664704 0 0 0
1049 350 1 0.5897 11.029287130157476 7.785854962640834 9.408274984045843 0 0 0
1050 350 1 0.5897 10.514135792596104 9.15158072737846 9.809866098093242 0 0 0
39 13 1 0.5897 10.184810260522196 2.406167885192014 0.060907907897231106 0 0 0
804 268 1 0.5897 7.78755929504149 3.077231162054441 10.054752186448235 0 0 0
40 14 2 -1.1794 11.24223204498895 1.4249228303731793 3.2600856752566947 0 0 0
324 108 1 0.5897 10.827513789395583 9.359190803360795 0.6108183901130254 0 0 0
805 269 2 -1.1794 10.83938779586711 6.096412428460418 8.36892197291633 0 0 0
46 16 2 -1.1794 7.640315495578692 4.241173520551983 3.8955592223100095 0 0 0
47 16 1 0.5897 6.972529100531122 4.10580720903901 4.567876451918603 0 0 0
48 16 1 0.5897 7.343826311539943 5.014090882584865 3.415016136221601 0 0 0
56 19 1 0.5897 6.288447093961541 6.035301549489504 1.695400223994808 0 0 0
809 270 1 0.5897 10.768898990960693 5.069018744488956 10.00329313064582 0 0 0
52 18 2 -1.1794 10.50083079665179 4.060901810828676 3.761314304339171 0 0 0
53 18 1 0.5897 9.55726287836637 4.109602991382054 3.9148860649024075 0 0 0
58 20 2 -1.1794 8.944184716391304 0.8126016369732084 4.7891238102498175 0 0 0
55 19 2 -1.1794 7.225989259537631 6.1582552993856385 1.8443081429882675 0 0 0
1045 349 2 -1.1794 9.529286183283979 9.156220630218275 7.207109586158192 0 0 0
57 19 1 0.5897 7.323856273117142 7.098518419507482 1.9944382081160104 0 0 0
1076 359 1 0.5897 7.460009749908153 7.234692805287473 8.858385493250182 0 0 0
1574 525 1 0.5897 9.742310095060537 5.334300446965438 0.5102260664868621 0 0 1
35 12 1 0.5897 6.055388771474086 2.158076541153455 1.182169681534624 0 0 0
61 21 2 -1.1794 8.730452243459077 5.376145147276796 6.606308925090774 0 0 0
62 21 1 0.5897 8.070223019717565 5.271640933048962 7.291471556058947 0 0 0
63 21 1 0.5897 8.900396351343293 4.485710976697229 6.298962047674189 0 0 0
67 23 2 -1.1794 7.621564041061832 1.9125379883861289 2.152641699653162 0 0 0
68 23 1 0.5897 8.267606417386299 2.1494423625677195 1.4872301003813215 0 0 0
69 23 1 0.5897 7.643234020209533 2.63766876727522 2.777099401934684 0 0 0
42 14 1 0.5897 10.496861242067855 0.9976305338351308 3.6821106249799587 0 0 0
1075 359 2 -1.1794 7.405994061276023 8.190043516458399 8.882774986258909 0 0 0
812 271 1 0.5897 6.07256590849324 5.683671905627479 8.701116237919509 0 0 0
292 98 2 -1.1794 10.682982963736352 8.05265966570762 3.374018971088297 0 0 0
797 266 1 0.5897 10.807230735268872 0.9368283805676261 9.583534259883727 0 0 0
294 98 1 0.5897 9.96675757054587 7.804317050615775 3.9584984071954885 0 0 0
1573 525 2 -1.1794 8.914838839582593 5.104400149038779 0.08748794944043352 0 0 1
310 104 2 -1.1794 8.543617990373885 7.523275789339187 5.018661353212262 0 0 0
311 104 1 0.5897 8.433752973008783 6.696340704441967 5.4880555301884595 0 0 0
312 104 1 0.5897 7.657893962597261 7.879691203696769 4.949883865714494 0 0 0
319 107 2 -1.1794 7.352494272757396 8.815832459621884 1.9640059447335014 0 0 0
813 271 1 0.5897 7.301193690072734 5.042980939913229 9.311002255805956 0 0 0
321 107 1 0.5897 8.017877418459266 8.976935427006064 1.2949916277393079 0 0 0
1046 349 1 0.5897 10.467651195271513 8.968448617739488 7.22922952533169 0 0 0
824 275 1 0.5897 7.449254504984759 0.9412358722644546 9.503606824033627 0 0 0
1047 349 1 0.5897 9.222671854495346 8.751815101719133 6.395504722889043 0 0 0
793 265 2 -1.1794 9.277831473087257 2.654972602847061 6.701917655799961 0 0 0
794 265 1 0.5897 10.163302057345948 2.462460247502169 7.010387432135669 0 0 0
795 265 1 0.5897 9.112250865607567 2.0000642234426445 6.02374660130282 0 0 0
1077 359 1 0.5897 8.135159601031972 8.485630593142 8.337602640286134 0 0 0
823 275 2 -1.1794 7.503380658190418 1.7656073860824961 9.020176836119957 0 0 0
45 15 1 0.5897 11.562834717762808 4.394340522833308 5.081337320642147 0 0 0
59 20 1 0.5897 8.040912604418267 0.8040041247646125 4.47241942104038 0 0 0
825 275 1 0.5897 8.391356189533267 1.776446528682591 8.662881819413606 0 0 0
320 107 1 0.5897 7.590334078392879 9.399442015669548 2.6844753825695333 0 0 0
54 18 1 0.5897 10.631433025846409 3.2130006224364274 3.3367820050420787 0 0 0
811 271 2 -1.1794 7.0125771527848375 5.566580303667535 8.563477892549141 0 0 0
1575 525 1 0.5897 8.241621485497012 5.413371898839857 0.6937718309285522 0 0 1
792 264 1 0.5897 6.266521840740533 2.0280743091946882 7.717048636831914 0 0 0
796 266 2 -1.1794 10.476079280211291 1.469413291940735 10.306681080219043 0 0 0
49 17 2 -1.1794 11.077456706291644 5.87513614633992 1.7230826644995194 0 0 0
293 98 1 0.5897 10.765162611377875 7.3158246101519655 2.7685844297226065 0 0 0
28 10 2 -1.1794 6.071601822079279 0.5789579022446317 4.9631959712108555 0 0 0
60 20 1 0.5897 9.015148008087893 0.02839705706399223 5.333378431377284 0 0 0
561 187 1 0.5897 7.55994420087487 0.030308895088402676 2.0586160926985233 0 1 0
798 266 1 0.5897 10.748727069958768 2.3615195672296343 10.09214414736509 0 0 0
1048 350 2 -1.1794 10.666275642884969 8.269895020862743 10.150015907674529 0 0 0
1055 352 1 0.5897 7.683831833033052 9.49181710881115 10.014361666594363 0 0 0
37 13 2 -1.1794 9.231822797020993 2.495780087385019 0.06880692955309767 0 0 0
280 94 2 -1.1794 5.743361312050849 7.561843782646491 5.46311798795442 0 0 0
554 185 1 0.5897 11.574187351455707 -0.02891181255154862 1.5792559149075298 0 1 0
815 272 1 0.5897 8.917842246347695 1.0041889172521778 11.146683036852094 0 0 0
290 97 1 0.5897 9.083398311770566 8.972339188120543 19.60979704357483 0 0 -1
1566 522 1 0.5897 10.982857623303119 4.208873663536377 18.006859468512346 0 0 0
1541 514 1 0.5897 6.869621371921163 0.8613400091993694 18.590774252037882 0 0 0
38 13 1 0.5897 9.078551099176131 3.436795080239902 20.70980073104551 0 0 -1
1802 601 1 0.5897 10.19128556539081 9.224915960005005 13.703359547941107 0 0 0
803 268 1 0.5897 7.279122756339423 4.046680536299005 11.100497137873766 0 0 0