LAMMPS data file via write_data, version 30 Jul 2021, timestep = 29000000

1920 atoms
2 atom types
1280 bonds
1 bond types
640 angles
1 angle types

-0.057544423133094824 24.787545423127597 xlo xhi
0.025534329962264124 24.704466670028935 ylo yhi
0.009619697462492027 22.800380302544596 zlo zhi

Masses

1 1.008
2 15.999

Pair Coeffs # lj/cut/tip4p/long/omp

1 0 0
2 0.21084 3.1668

Bond Coeffs # harmonic/omp

1 450 0.9572

Angle Coeffs # harmonic/omp

1 55 104.52

Atoms # full

1 1 2 -1.1794 4.7430332309156435 1.4485765868642548 4.162720597438269 0 0 0
2 1 1 0.5897 4.760395532330759 2.1989619682521924 4.756764989540274 0 0 0
3 1 1 0.5897 5.421228796819428 1.6396458147863338 3.514800734361462 0 0 0
4 2 2 -1.1794 2.909196563639742 1.749513746040042 2.0961345130680935 0 0 0
5 2 1 0.5897 3.335590575261276 1.6361481015570847 2.9456171803670097 0 0 0
6 2 1 0.5897 1.9730764491485981 1.695317551483293 2.2883886012197774 0 0 0
10 4 2 -1.1794 3.113063095720589 4.537534093546279 3.6919116151931544 0 0 0
11 4 1 0.5897 2.624855337641911 5.229417063935015 4.138232327668026 0 0 0
12 4 1 0.5897 2.6109433590212507 4.364953906830759 2.895438133948591 0 0 0
13 5 2 -1.1794 1.2973646145975641 2.885578106262775 5.005935624265872 0 0 0
14 5 1 0.5897 2.0298342708753707 3.2846374964331666 4.536371206966072 0 0 0
15 5 1 0.5897 1.4327976085929872 1.943320201690954 4.905641910556122 0 0 0
22 8 2 -1.1794 1.4648117997067498 4.5665657349697675 1.5509495187134594 0 0 0
24 8 1 0.5897 1.3689014237752295 5.3270642747653465 0.9776173427425808 0 0 0
23 8 1 0.5897 0.7214909554994902 4.623374287864897 2.1513650281039465 0 0 0
20 7 1 0.5897 3.7199787265003184 3.0782558968609 1.1482330596137102 0 0 0
9 3 1 0.5897 5.0741136400238505 4.626069328794746 3.68111404049212 0 0 0
19 7 2 -1.1794 4.446730816161927 3.385431900064448 0.6062728064027629 0 0 0
21 7 1 0.5897 5.228745961663331 3.034014588474955 1.031945564790159 0 0 0
27 9 1 0.5897 4.392532978216138 5.155348456060465 0.6458263821608553 0 0 0
7 3 2 -1.1794 6.017567220678879 4.672453206053808 3.5263139112340527 0 0 0
98 33 1 0.5897 0.08062138049658185 5.683039369807972 4.048769751418611 1 0 0
387 129 1 0.5897 4.005140158540699 0.4546661016039619 1.3794919561210437 0 1 0
28 10 2 -1.1794 1.4268418289365843 0.18301161800143662 4.820765307297382 0 0 0
47 16 1 0.5897 6.000371272796713 1.2177465741224032 1.4269287646352957 0 0 0
16 6 2 -1.1794 0.19545488719655613 1.6265949693637998 2.221295173327645 0 0 0
25 9 2 -1.1794 4.272122949979219 6.103933623791017 0.6898212541110468 0 0 0
150 50 1 0.5897 1.5608504904122713 6.137925991049845 5.661485304493004 0 0 0
867 289 1 0.5897 4.5738868435232884 0.2316454714110039 5.558285583842612 0 1 0
385 129 2 -1.1794 4.62616460462393 0.037908695557788974 0.7820810523351038 0 1 0
8 3 1 0.5897 6.294387475852789 5.474288829749531 3.9698085288790836 0 0 0
46 16 2 -1.1794 6.370588586241227 1.9326891298167614 1.944670108711474 0 0 0
180 60 1 0.5897 8.280321353639321 6.037043724108635 4.472420127341815 0 0 0
77 26 1 0.5897 12.013688345173026 0.9392292444441593 1.7113143176495902 0 0 0
31 11 2 -1.1794 10.739227049132946 1.5574020651345648 4.324634653029091 0 0 0
32 11 1 0.5897 10.73609776960675 2.314919464318223 4.909805960435287 0 0 0
34 12 2 -1.1794 9.07779329386898 1.4780449350954354 2.1783558439725947 0 0 0
36 12 1 0.5897 9.49779775697285 2.172563420268084 1.6709143476232355 0 0 0
39 13 1 0.5897 11.217826110769607 4.835827845197136 3.6034988551091955 0 0 0
40 14 2 -1.1794 9.378277197433482 4.834098571625435 3.6229715093087376 0 0 0
41 14 1 0.5897 9.063611952126339 4.835984074944528 2.7189382011222247 0 0 0
42 14 1 0.5897 8.965452057773748 4.066743698544781 4.019195452140733 0 0 0
43 15 2 -1.1794 7.853196432605173 2.973118805314209 4.9415352404063215 0 0 0
45 15 1 0.5897 7.105274692236323 3.3152279948354098 4.451822827303976 0 0 0
48 16 1 0.5897 7.303647393713192 1.7276051512184478 2.004345625194788 0 0 0
49 17 2 -1.1794 10.61729094860573 3.292199627608818 0.8806143415073189 0 0 0
52 18 2 -1.1794 7.774489758350757 4.90007156711053 1.4177493262033938 0 0 0
53 18 1 0.5897 7.884399041318531 4.1647579568766 0.8148359243484998 0 0 0
54 18 1 0.5897 7.017618185842157 4.6607775804509854 1.9526622129845954 0 0 0
35 12 1 0.5897 9.52010301196477 1.4997971635895606 3.0269865601152577 0 0 0
33 11 1 0.5897 10.719544532602557 0.8010964814632906 4.911049790134905 0 0 0
59 20 1 0.5897 7.678120139535258 1.156300884874885 4.998947868477489 0 0 0
50 17 1 0.5897 11.348852466189228 2.9706116653849777 1.4075390176307256 0 0 0
56 19 1 0.5897 10.794444034685469 5.143786601315085 0.7697190679338515 0 0 0
58 20 2 -1.1794 7.6102840251221 0.20196962942270805 5.029127904947822 0 0 0
37 13 2 -1.1794 12.163958298909064 4.698995854590975 3.6518365587591073 0 0 0
78 26 1 0.5897 12.01138561998066 1.6398378699374885 3.053396415406263 0 0 0
416 139 1 0.5897 10.19153724167081 0.14995215495050548 1.1799173702211616 0 1 0
55 19 2 -1.1794 10.829095392457258 6.097836860082576 0.7001618803182295 0 0 0
51 17 1 0.5897 10.684104936124863 2.8090530874099855 0.056968548577557954 0 0 0
579 193 1 0.5897 0.13402236477050927 5.374477119712426 9.637646296442224 1 0 0
494 165 1 0.5897 1.5201792476533786 2.094363349883057 10.799136025601037 0 0 0
504 168 1 0.5897 1.3392638138445436 3.9452166536897035 6.497346899640961 0 0 0
501 167 1 0.5897 4.756557882060556 4.238867923685799 6.354942398482072 0 0 0
499 167 2 -1.1794 4.680888402021503 3.288490819624514 6.26946938864939 0 0 0
483 161 1 0.5897 4.543905826280656 2.1459487871261156 10.450675365141054 0 0 0
492 164 1 0.5897 2.733625667559188 4.1680316227579794 9.565792461836256 0 0 0
493 165 2 -1.1794 1.6412838342232448 3.01990825998793 10.587111625594327 0 0 0
491 164 1 0.5897 2.6970889581702018 4.8194515852211515 8.199639209101983 0 0 0
485 162 1 0.5897 3.1967619652769836 1.7878972045099375 8.650614651530208 0 0 0
481 161 2 -1.1794 4.520186908720041 1.3341565085291451 9.944026091215944 0 0 0
482 161 1 0.5897 5.2473191189343815 1.4151305472389892 9.326795387022516 0 0 0
502 168 2 -1.1794 1.4026556818322837 4.7782654682598915 6.964547739408834 0 0 0
500 167 1 0.5897 3.942990493552837 3.054882483323859 6.832657505355569 0 0 0
490 164 2 -1.1794 3.2287005066925984 4.753708840269198 8.992950483356289 0 0 0
503 168 1 0.5897 0.7064217023318932 4.739269595317711 7.620286692932591 0 0 0
498 166 1 0.5897 1.0062077196439325 1.7510289373659818 7.881446515625512 0 0 0
484 162 2 -1.1794 2.902453278284921 1.8769983442298457 7.74411807365447 0 0 0
489 163 1 0.5897 4.9917511751314265 4.900080609051089 9.188941311770575 0 0 0
486 162 1 0.5897 3.350263056645486 1.1722988825175373 7.276015459289547 0 0 0
527 176 1 0.5897 5.868129030003143 0.5554375046200892 7.326641330207888 0 0 0
528 176 1 0.5897 5.836057425765784 2.0690074957627083 7.330448887807001 0 0 0
487 163 2 -1.1794 5.946106844024037 4.828000965425237 9.204019211739183 0 0 0
578 193 1 0.5897 0.3393167597058093 3.8756541631920673 9.695259609147255 1 0 0
505 169 2 -1.1794 4.696923634559595 6.138471480686947 6.601818649049929 0 0 0
496 166 2 -1.1794 0.0519265522254706 1.7925988255611023 7.819509627471383 0 0 0
508 170 2 -1.1794 1.5200723728820003 0.23772856708724038 10.645407293729221 0 0 0
1347 449 1 0.5897 4.760530550372803 0.25949067604979204 11.358104417458167 0 1 0
488 163 1 0.5897 6.1255948972770495 4.154853706697405 9.86047229978589 0 0 0
896 299 1 0.5897 11.417289154796233 0.2225924048481643 6.811407850202361 0 1 0
525 175 1 0.5897 7.5967134427391585 2.1204513818871127 10.60139306657456 0 0 0
534 178 1 0.5897 6.933242135465229 4.749500597027966 7.601167324740194 0 0 0
558 186 1 0.5897 12.144149726719 2.193885264508241 7.273884118890478 0 0 0
522 174 1 0.5897 8.91963292912753 4.642677564081425 8.60873872957463 0 0 0
531 177 1 0.5897 10.78766521941244 4.205899167436352 6.376142624394937 0 0 0
1377 459 1 0.5897 10.811468192084988 0.1016922203250815 11.23978986746718 0 1 0
535 179 2 -1.1794 10.72040349533885 5.913249040596597 6.352870909158483 0 0 0
519 173 1 0.5897 11.241190027558414 4.393035994263698 9.380863774901027 0 0 0
526 176 2 -1.1794 6.315412034747767 1.3211391334452252 7.687045478025621 0 0 0
514 172 2 -1.1794 9.145489930534472 1.5718855557054334 7.84411627280319 0 0 0
533 178 1 0.5897 7.851655537219681 5.431557578718971 6.609561706783038 0 0 0
538 180 2 -1.1794 7.598462421064982 0.24640184430565068 10.647039845769935 0 0 0
44 15 1 0.5897 7.841714331783091 3.457880239432926 5.766861213298926 0 0 0
524 175 1 0.5897 8.27855856553606 3.399768599284035 10.165075365462322 0 0 0
517 173 2 -1.1794 12.1819199417842 4.4904085585192135 9.233330836372192 0 0 0
521 174 1 0.5897 9.133134993479162 5.391338303252995 9.907186049672102 0 0 0
659 220 1 0.5897 7.047339989076165 5.932179158999607 10.14845322855778 0 0 0
529 177 2 -1.1794 10.977034164878336 3.2681532762926464 6.408074994987031 0 0 0
512 171 1 0.5897 10.08423648776933 1.4460821980654506 9.407081679276049 0 0 0
532 178 2 -1.1794 7.77587084717585 4.650661585963501 7.157948965400511 0 0 0
516 172 1 0.5897 9.534416512716723 0.9771141147672577 7.20282852039364 0 0 0
520 174 2 -1.1794 9.45903203341277 4.648166395361256 9.399495399047382 0 0 0
530 177 1 0.5897 10.228325627618307 2.887617548777955 6.867283128576891 0 0 0
511 171 2 -1.1794 10.83850162274993 1.3896643088258553 9.99372442017928 0 0 0
513 171 1 0.5897 11.589245085055829 1.2823545402937189 9.409667939855519 0 0 0
515 172 1 0.5897 8.201510260171089 1.4498523249939932 7.742985895192795 0 0 0
523 175 2 -1.1794 7.557575485324569 3.0715186292165275 10.702366504078876 0 0 0
1010 337 1 0.5897 10.964092434149427 2.533762858079454 11.339666428940777 0 0 0
961 321 2 -1.1794 4.3970820142513904 1.788636681967758 15.598637801781292 0 0 0
962 321 1 0.5897 5.023610219111619 1.7249998221042602 14.87775117251506 0 0 0
963 321 1 0.5897 4.543661664003514 0.9958889954391841 16.114708234024057 0 0 0
964 322 2 -1.1794 2.8938673753193065 1.6833236599008459 13.232749664610683 0 0 0
965 322 1 0.5897 3.1074329546896755 1.8928200487839795 14.142035151114197 0 0 0
966 322 1 0.5897 1.97042248622108 1.432354285381344 13.254828938896987 0 0 0
970 324 2 -1.1794 3.175247570565352 4.863051056392582 14.846087854279709 0 0 0
971 324 1 0.5897 4.111211433524136 4.6633048279469405 14.829049616979896 0 0 0
972 324 1 0.5897 2.785329998561523 4.1436213454907564 15.34271939357717 0 0 0
973 325 2 -1.1794 1.519678415206141 3.032497617484074 16.13792552663017 0 0 0
975 325 1 0.5897 0.7964716210126147 3.447030940085634 15.667417850629882 0 0 0
982 328 2 -1.1794 1.3188420771437837 4.7386470536199425 12.740109086213725 0 0 0
983 328 1 0.5897 1.3261315090691632 5.529650437581785 12.2011042808531 0 0 0
984 328 1 0.5897 2.077634889047236 4.83353979283902 13.315851216488808 0 0 0
980 327 1 0.5897 3.937177557219752 2.946856392418131 12.174918244982136 0 0 0
981 327 1 0.5897 5.450225283353604 2.9471377607242513 12.225365423416198 0 0 0
979 327 2 -1.1794 4.7084978771612525 3.3267528627027887 11.754223264990125 0 0 0
990 330 1 0.5897 1.6517308044677248 1.2618596661822368 16.330563546599812 0 0 0
986 329 1 0.5897 4.654196295697607 5.174957094437683 12.007238085268325 0 0 0
967 323 2 -1.1794 5.968189660582227 4.625021570432968 14.900517338481919 0 0 0
1346 449 1 0.5897 3.873937885929376 0.25721545933772194 12.585274318658 0 1 0
1008 336 1 0.5897 5.982502039677178 0.857000695019952 13.258579398417869 0 0 0
1109 370 1 0.5897 0.6027845847822374 5.974069777041952 15.88866191456788 0 0 0
985 329 2 -1.1794 4.609017176478553 6.1190563366518 11.855941342025988 0 0 0
1110 370 1 0.5897 2.1119401530260316 6.041312999337974 15.987683143652841 0 0 0
988 330 2 -1.1794 1.6733636236798928 0.30645968155196834 16.275836024407596 0 0 0
1058 353 1 0.5897 0.016245862004796496 4.681821666347044 14.074813710195784 1 0 0
976 326 2 -1.1794 0.15657347322932516 1.6242299492417684 13.339686501465483 0 0 0
1460 487 1 0.5897 4.533294484531805 2.920841947100435 17.050553242260577 0 0 0
974 325 1 0.5897 1.4921305614900826 3.4221287355925325 17.011837518893856 0 0 0
495 165 1 0.5897 1.495554793441405 3.4769262180034106 11.415475576653973 0 0 0
1006 336 2 -1.1794 6.2317286366055775 1.7333947930028286 13.551957791495926 0 0 0
969 323 1 0.5897 6.317035684620258 3.764278013119855 15.132195290858856 0 0 0
1376 459 1 0.5897 9.925066727657807 0.15450778243247432 12.465965042953004 0 1 0
968 323 1 0.5897 6.491342832836597 5.241757610834253 15.412573019051228 0 0 0
1017 339 1 0.5897 11.018049035602687 5.0997748146051265 12.005066961033352 0 0 0
991 331 2 -1.1794 10.635032134003835 1.553917462600877 15.70066862046118 0 0 0
992 331 1 0.5897 11.357656435199116 1.4812684894015733 15.07713935550507 0 0 0
993 331 1 0.5897 10.849627266498052 0.9264306578469745 16.390946414910132 0 0 0
994 332 2 -1.1794 8.969159318335052 1.6099051559073054 13.441368832296796 0 0 0
995 332 1 0.5897 9.585742142943353 2.2546076290072254 13.094335068118873 0 0 0
998 333 1 0.5897 11.380297498254464 4.173907822314709 14.778188991265127 0 0 0
1000 334 2 -1.1794 9.59732093139402 4.433733724162174 14.83997872912459 0 0 0
1001 334 1 0.5897 9.05356714830661 3.874035825340263 15.394348145468209 0 0 0
1002 334 1 0.5897 9.113949223113279 4.497961666446256 14.01626263112852 0 0 0
1003 335 2 -1.1794 7.764790770618729 2.9884002571085175 16.28123163614208 0 0 0
1004 335 1 0.5897 7.783133226715974 2.031952471998239 16.314707735386776 0 0 0
1007 336 1 0.5897 7.186736036562894 1.7045587356317542 13.609805303837296 0 0 0
1012 338 2 -1.1794 7.76648554370088 4.73218787703766 12.883549177439768 0 0 0
1014 338 1 0.5897 7.657528803279412 3.9853614737413463 12.294779569701642 0 0 0
1011 337 1 0.5897 11.6038161409657 2.7437177528134926 12.69565496142785 0 0 0
1009 337 2 -1.1794 10.921613187292781 3.0878320767131577 12.119082454107355 0 0 0
996 332 1 0.5897 9.287530818715087 1.4246464539595582 14.324889592010992 0 0 0
1013 338 1 0.5897 7.0579440254951855 4.640922480507836 13.520647680726242 0 0 0
1038 346 1 0.5897 12.00989951945315 0.7024205970784317 13.102826502883302 0 0 0
1139 380 1 0.5897 8.569577291073763 5.935796361618801 15.708475750933053 0 0 0
997 333 2 -1.1794 12.302158367702756 4.315853424675798 14.993236948130344 0 0 0
1490 497 1 0.5897 10.695651134718226 2.833113895328513 17.030556556471836 0 0 0
1015 339 2 -1.1794 11.027068132127068 6.05693452893782 12.001188131054137 0 0 0
660 220 1 0.5897 7.620722530084771 5.9308369807817485 11.549620382565935 0 0 0
1018 340 2 -1.1794 7.6188983010346965 0.10257944922426653 16.213571051759835 0 0 0
1497 499 1 0.5897 11.003129973719872 6.16649260793859 16.84463691964683 0 0 0
1826 609 1 0.5897 3.964787260646525 0.15482857460207464 18.26700896624218 0 1 0
1465 489 2 -1.1794 4.307345130615751 6.160250586724994 17.844061173075247 0 0 0
1590 530 1 0.5897 1.9380977704782367 5.92747554201386 21.580699828487532 0 0 0
1538 513 1 0.5897 0.12666326401080918 3.7494013179617682 20.885093768070107 1 0 0
1454 485 1 0.5897 2.2399661865648604 3.66030015006826 21.491307457277223 0 0 0
1464 488 1 0.5897 0.922292712034428 4.54326262812229 19.111350110659885 0 0 0
1443 481 1 0.5897 4.514758334219105 2.3055193077643517 21.9158802267185 0 0 0
1450 484 2 -1.1794 3.147227514226811 4.893823783138001 20.622102272596386 0 0 0
1469 490 1 0.5897 1.436667204951219 1.1285033326296603 21.97332665723693 0 0 0
1442 481 1 0.5897 3.968924681493756 1.4955056091729806 20.7591837658722 0 0 0
1453 485 2 -1.1794 1.6330816506301873 3.0460693050874106 21.904418513017298 0 0 0
1444 482 2 -1.1794 2.8638669613825276 1.4726892714682782 19.144126735722885 0 0 0
1463 488 1 0.5897 1.406836992209133 5.207148079961127 17.83993303261491 0 0 0
1452 484 1 0.5897 2.9106567902661555 4.7587040752486285 19.704457483263504 0 0 0
1441 481 2 -1.1794 4.740873978453045 1.594277622734208 21.316483695423706 0 0 0
1451 484 1 0.5897 4.1043173873980185 4.880964473704332 20.627583479527075 0 0 0
1445 482 1 0.5897 1.917642261495554 1.61178155366094 19.10502168262063 0 0 0
1446 482 1 0.5897 3.239683382151124 2.2776022471140958 18.78757730383419 0 0 0
1461 487 1 0.5897 5.257827040423744 3.1504120166838607 18.359900231517614 0 0 0
1459 487 2 -1.1794 4.477347439353655 3.411030502862296 17.870845211684426 0 0 0
1462 488 2 -1.1794 1.5577768756344486 4.4471633564948645 18.401992539807686 0 0 0
1466 489 1 0.5897 4.390078001687442 5.2067452987215495 17.859306405566443 0 0 0
1488 496 1 0.5897 5.942032912040941 1.1763767558231595 18.590798720950886 0 0 0
1456 486 2 -1.1794 0.16942894800020036 1.6334242985947869 19.283785911958702 0 0 0
1447 483 2 -1.1794 5.87338714437527 4.711226027224652 20.73939952103258 0 0 0
1487 496 1 0.5897 5.892661973090745 1.8377818161859618 19.951736824157102 0 0 0
1539 513 1 0.5897 0.003422329213556674 5.242168047831229 21.105101701150332 1 0 0
1468 490 2 -1.1794 1.5085615895093587 0.17613136145645622 21.90953976958044 0 0 0
1455 485 1 0.5897 1.432424435629499 3.441010275089553 22.752978020010467 0 0 0
386 129 1 0.5897 4.500213646733188 0.49274252506700583 22.740043422097123 0 1 -1
1486 496 2 -1.1794 6.398325176551941 1.8144976352816913 19.139307680753674 0 0 0
1005 335 1 0.5897 7.693501056661317 3.2592500095436256 17.19657604285168 0 0 0
1856 619 1 0.5897 11.517831298979374 0.2144164583371488 18.52306193117994 0 1 0
1448 483 1 0.5897 6.31301191560855 5.468080608356277 21.12689714938466 0 0 0
1518 506 1 0.5897 11.97575971550038 1.6003942358782575 20.096925528740364 0 0 0
1483 495 2 -1.1794 7.625427117740321 3.112993503466707 22.059040033247918 0 0 0
1473 491 1 0.5897 10.139171708390007 1.5449911895018318 20.970424828542967 0 0 0
1517 506 1 0.5897 12.015467905181021 2.3219979688421857 18.766604349011423 0 0 0
1472 491 1 0.5897 10.95739108662646 0.9339929264406085 22.088095349350247 0 0 0
1485 495 1 0.5897 7.706636651007231 2.1610290135214982 22.117493255866044 0 0 0
1494 498 1 0.5897 7.12266446006785 4.7608892898062445 19.239376803784047 0 0 0
1480 494 2 -1.1794 9.440715793882944 4.901407311355744 20.75483107625253 0 0 0
1481 494 1 0.5897 10.389669513767068 4.803948020684792 20.676046206656316 0 0 0
1477 493 2 -1.1794 12.215504768352734 4.708432983780656 20.61362824470679 0 0 0
1482 494 1 0.5897 9.116142944356199 4.8232025191518355 19.857708860309025 0 0 0
1471 491 2 -1.1794 10.957999615713424 1.6515753238152207 21.454573651842935 0 0 0
1495 499 2 -1.1794 10.827361891849712 5.911701589166144 17.75044141547216 0 0 0
1476 492 1 0.5897 9.310557746900354 0.9482490019999702 18.928060365311204 0 0 0
1449 483 1 0.5897 6.235168377315685 3.9582800706544026 21.206778196996645 0 0 0
1475 492 1 0.5897 8.13126581724482 1.7959818394391704 19.355302877136722 0 0 0
1489 497 2 -1.1794 10.871987463893305 3.2276848611964413 17.884669345176192 0 0 0
1498 500 2 -1.1794 7.790425484482807 0.400913028224776 22.06586306100047 0 0 0
1496 499 1 0.5897 10.879291689939787 4.955916833387788 17.745277192305558 0 0 0
1474 492 2 -1.1794 9.078100570561311 1.7067200529482607 19.463741677650397 0 0 0
1492 498 2 -1.1794 7.791531686435513 4.529278841844355 18.594993164571264 0 0 0
1491 497 1 0.5897 10.177162357062379 2.8930845501109688 18.45169006987885 0 0 0
1620 540 1 0.5897 8.311702151632327 6.054326688408681 21.65698124090312 0 0 0
1484 495 1 0.5897 8.300983691090934 3.3734937365889506 21.432926977129462 0 0 0
1493 498 1 0.5897 7.804502033561533 5.268008566345348 17.986404927564344 0 0 0
121 41 2 -1.1794 4.673606337912844 7.63319862864596 4.257622241403195 0 0 0
122 41 1 0.5897 3.90122320544539 7.576248933181072 3.6951046465376955 0 0 0
123 41 1 0.5897 5.407682563437193 7.718867794020064 3.649308766972692 0 0 0
124 42 2 -1.1794 2.734455329419997 7.83104597922561 2.249796183947448 0 0 0
125 42 1 0.5897 2.90699274550769 7.049477151157212 1.7247764117966153 0 0 0
126 42 1 0.5897 3.3088930354562227 8.500907757209875 1.8789175223590462 0 0 0
129 43 1 0.5897 4.949113296505002 10.633422469209197 3.4781156069668215 0 0 0
130 44 2 -1.1794 3.088631628608488 10.839306385514536 3.3928436324087 0 0 0
132 44 1 0.5897 2.7622724222978037 10.042021646090637 3.8100738341810243 0 0 0
133 45 2 -1.1794 1.349747996209307 9.15753696402372 5.032511698695128 0 0 0
135 45 1 0.5897 0.6073402132331779 9.538953771761939 4.563902657700837 0 0 0
137 46 1 0.5897 1.0092324251560516 7.74988094774984 2.099771046309082 0 0 0
139 47 2 -1.1794 4.430379602243757 9.561800636333128 0.7772501613869239 0 0 0
142 48 2 -1.1794 1.1589594869193631 10.823868360729684 1.5474713339501567 0 0 0
143 48 1 0.5897 1.9691839721556343 10.756126606763692 2.0526475024396906 0 0 0
144 48 1 0.5897 1.3052023387814362 11.563167664062693 0.9572873122097977 0 0 0
149 50 1 0.5897 1.4879654810205858 7.438046889631611 4.889250789245099 0 0 0
131 44 1 0.5897 2.633812613132401 11.55007763134807 3.8447260301143005 0 0 0
140 47 1 0.5897 4.548898923500168 10.502296605603682 0.6443220722578554 0 0 0
148 50 2 -1.1794 1.6489201137055496 6.500800802980836 4.7800894983169755 0 0 0
168 56 1 0.5897 5.883830689340964 8.350993694840842 1.6202513209592138 0 0 0
136 46 2 -1.1794 0.057286075451504825 7.838740488067074 2.145811401325807 0 0 0
127 43 2 -1.1794 5.904047749364533 10.60333173376644 3.5365362333800756 0 0 0
218 73 1 0.5897 -0.03800844022876558 11.082052571221652 2.9356701747095406 1 0 0
270 90 1 0.5897 0.7205471216595295 12.157977819760188 4.666621800082723 0 0 0
26 9 1 0.5897 5.047755813421714 6.42317435623699 1.151034722012388 0 0 0
621 207 1 0.5897 4.6970502269122605 8.817900898358264 5.613655382577076 0 0 0
145 49 2 -1.1794 4.740185437122009 12.338057834340932 0.7541286608456468 0 0 0
128 43 1 0.5897 6.1358104113722405 11.362633671660888 4.071334523658299 0 0 0
1574 525 1 0.5897 1.445140838127726 9.600018860638356 0.14452704150279463 0 0 1
157 53 2 -1.1794 12.23301668353073 10.922693857479128 3.5316084560765755 0 0 0
197 66 1 0.5897 12.26609732910951 8.51001691026801 1.5939977647432404 0 0 0
166 56 2 -1.1794 6.268588747879111 7.5606268930008795 1.9991116915759592 0 0 0
151 51 2 -1.1794 10.833322201093937 7.601193913929628 4.14048424261062 0 0 0
152 51 1 0.5897 10.118539081779932 7.693000971582936 3.5104753232780745 0 0 0
153 51 1 0.5897 10.513578919891543 6.959150834743051 4.774371184189832 0 0 0
154 52 2 -1.1794 9.099134032479283 7.92635869175702 2.076196110633595 0 0 0
155 52 1 0.5897 9.651468316569723 8.64245309537515 1.7625415287576123 0 0 0
156 52 1 0.5897 9.375162669344908 7.167514734077909 1.5621674660760312 0 0 0
158 53 1 0.5897 11.280109011717284 10.979391496156179 3.461094090623343 0 0 0
160 54 2 -1.1794 9.41247506768224 10.958058223841526 3.5657163923532145 0 0 0
161 54 1 0.5897 8.820779749766666 10.98277211261201 2.813680517183235 0 0 0
162 54 1 0.5897 9.045912410758385 10.283522862795932 4.137465364548419 0 0 0
163 55 2 -1.1794 7.826582303750462 9.105365768231767 4.893202872960494 0 0 0
164 55 1 0.5897 7.040455894212163 9.351599719602097 4.405745526908809 0 0 0
167 56 1 0.5897 7.208978228271589 7.655168501884857 1.847610376466699 0 0 0
169 57 2 -1.1794 10.971966115154526 9.552850789729396 0.7193745806905352 0 0 0
172 58 2 -1.1794 7.5817005106205615 11.065660986878132 1.450440946996717 0 0 0
173 58 1 0.5897 7.655319346686814 10.293432725763996 0.8896290726745957 0 0 0
174 58 1 0.5897 6.898313493778567 10.839740178714205 2.0814725901036226 0 0 0
179 60 1 0.5897 7.702001608673599 7.341993748312591 4.977012304244696 0 0 0
171 57 1 0.5897 10.863144082405872 10.502389361323619 0.6666270901693364 0 0 0
175 59 2 -1.1794 10.7067389336147 12.207395761532252 0.6471663597269594 0 0 0
650 217 1 0.5897 10.717833299794332 9.087820674066897 5.468693264609732 0 0 0
300 100 1 0.5897 8.119829562473198 12.17580619895989 4.471624305005716 0 0 0
57 19 1 0.5897 11.47518545477475 6.362881807670336 1.3548220940932971 0 0 0
178 60 2 -1.1794 7.62373089964894 6.3926625511206145 5.071325558410329 0 0 0
165 55 1 0.5897 7.806935163159676 9.657334726963471 5.6750154678550695 0 0 0
1739 580 1 0.5897 7.482132296108308 12.320360089773125 0.06162352472519197 0 0 1
1619 540 1 0.5897 7.440149179731998 6.234331181280163 0.09096346770932229 0 0 1
134 45 1 0.5897 1.3154859988972554 9.556639401638314 5.901900864148368 0 0 0
628 210 2 -1.1794 1.3686042243499066 6.469889842522148 10.539602116021092 0 0 0
507 169 1 0.5897 4.713316170711441 6.602761806445139 5.764884050023841 0 0 0
506 169 1 0.5897 3.887784872243664 6.42983825697806 7.022102409488084 0 0 0
698 233 1 0.5897 0.3383160950890609 11.65623355067319 9.857308609857506 1 0 0
603 201 1 0.5897 3.9067006952298886 7.877077461480602 9.310861450718216 0 0 0
630 210 1 0.5897 1.2854129058642563 7.423144804152516 10.564741277869416 0 0 0
612 204 1 0.5897 2.812145457013562 11.673367912193518 9.680449070677307 0 0 0
619 207 2 -1.1794 4.566380759711836 9.434374014561572 6.334186782952945 0 0 0
604 202 2 -1.1794 2.8338731753446433 7.730289306193605 7.7879868889844035 0 0 0
602 201 1 0.5897 4.621373414660273 7.249932873209754 10.488966980319718 0 0 0
606 202 1 0.5897 1.8872561755464474 7.854853222222146 7.720036475341925 0 0 0
610 204 2 -1.1794 3.1044596780987987 10.869795483722287 9.25024014460631 0 0 0
605 202 1 0.5897 3.2063825000823507 8.41199389705112 7.228720250741206 0 0 0
613 205 2 -1.1794 1.501101313327818 9.238121263576804 10.793416291493406 0 0 0
623 208 1 0.5897 2.0993625083345333 10.944175520479991 7.793858254958248 0 0 0
601 201 2 -1.1794 4.580383083306399 8.05192092685533 9.968006141093607 0 0 0
614 205 1 0.5897 2.239719512942332 9.485643306074868 10.237158204233296 0 0 0
615 205 1 0.5897 0.7470579923821877 9.678063270168357 10.400851917612867 0 0 0
626 209 1 0.5897 4.3313122493599066 11.236748352283918 6.264965881500258 0 0 0
611 204 1 0.5897 4.014610046952892 11.043559877700337 9.010126551223706 0 0 0
624 208 1 0.5897 1.5236674436917301 11.49592445052495 6.506934327219654 0 0 0
620 207 1 0.5897 5.286229142736971 9.253251837958503 6.938558862358945 0 0 0
622 208 2 -1.1794 1.3665937963310821 10.840602172695288 7.18675546781346 0 0 0
647 216 1 0.5897 5.838239371055154 7.9828753716793415 8.801315749376007 0 0 0
648 216 1 0.5897 5.991598800910007 7.146447671022564 7.548759028018719 0 0 0
699 233 1 0.5897 0.16184657050600754 10.93839396769669 8.536090470177855 1 0 0
625 209 2 -1.1794 4.352925589803594 12.184576746459053 6.396898154839187 0 0 0
616 206 2 -1.1794 0.031154599646377346 7.799220279991229 7.746442528516032 0 0 0
607 203 2 -1.1794 5.820603114371867 11.00714955180349 9.097725285629043 0 0 0
629 210 1 0.5897 2.2354084075174634 6.3144463091168 10.164469179264614 0 0 0
627 209 1 0.5897 5.1879984564562145 12.346820678158128 6.835719914453308 0 0 0
641 214 1 0.5897 10.487131505582912 10.756701742222866 9.18265194233126 0 0 0
642 214 1 0.5897 9.178284589143452 10.198608690586093 9.699704198926765 0 0 0
636 212 1 0.5897 8.139314806159563 7.6920412182815046 7.843433825896012 0 0 0
779 260 1 0.5897 8.51773505775356 12.138067654410444 10.069115168961181 0 0 0
536 179 1 0.5897 11.54170477430274 6.283550680873635 6.676245791492632 0 0 0
635 212 1 0.5897 9.492224061283073 7.529162393673466 8.502998035398365 0 0 0
646 216 2 -1.1794 6.367637357424058 7.897150435273064 8.008428516001358 0 0 0
608 203 1 0.5897 6.197127021356136 11.88016451576076 9.20872055455158 0 0 0
652 218 2 -1.1794 7.6216645848524465 10.787005935257312 7.0733898757454305 0 0 0
640 214 2 -1.1794 9.547710022963892 10.937273096629546 9.215807195664116 0 0 0
653 218 1 0.5897 6.933191587720063 10.769587798561922 7.73819203975593 0 0 0
632 211 1 0.5897 11.38783240021539 7.803419932818527 9.302716995671338 0 0 0
633 211 1 0.5897 10.784454117997328 7.143814141222958 10.524553532749225 0 0 0
678 226 1 0.5897 12.122736100421866 8.582932192709148 7.222240300663724 0 0 0
537 179 1 0.5897 10.040398951443503 6.363777502573358 6.8537346074882475 0 0 0
658 220 2 -1.1794 7.678689869484737 6.38394310717237 10.708416465216795 0 0 0
651 217 1 0.5897 10.098828573479068 8.969394383024532 6.845226220141216 0 0 0
649 217 2 -1.1794 10.665075557769809 9.530776717403127 6.315627398042098 0 0 0
609 203 1 0.5897 6.366071634613613 10.439523468799024 9.642261336898558 0 0 0
645 215 1 0.5897 7.69149867559355 8.421485679695724 10.657936617847264 0 0 0
634 212 2 -1.1794 9.07091817620903 7.59527084690884 7.646012242405268 0 0 0
299 100 1 0.5897 7.4523166493554776 12.110021752060321 5.828875405449022 0 0 0
637 213 2 -1.1794 12.27900893572035 10.845702709627428 9.258602186475883 0 0 0
654 218 1 0.5897 8.437104997072423 10.823701941908284 7.573340162127591 0 0 0
631 211 2 -1.1794 10.661070933007977 7.876748551800341 9.921338167090484 0 0 0
657 219 1 0.5897 10.647003801674618 11.296727848822268 6.285706180268955 0 0 0
643 215 2 -1.1794 7.6057774155314055 9.366520565940455 10.532186748016578 0 0 0
655 219 2 -1.1794 10.549093559691567 12.246587447649176 6.352255815331164 0 0 0
1130 377 1 0.5897 10.752339603945156 8.955854746563455 11.330999104872626 0 0 0
644 215 1 0.5897 7.804291994279177 9.74176372483249 11.39013469600063 0 0 0
780 260 1 0.5897 7.812540365071128 12.27329185563105 11.401945055014073 0 0 0
1081 361 2 -1.1794 4.527460603096169 7.640779894782627 15.511495457096679 0 0 0
1082 361 1 0.5897 4.603421082891551 8.48823010793117 15.950038104152558 0 0 0
1083 361 1 0.5897 4.349503303705912 7.020022112393036 16.218091709526306 0 0 0
1084 362 2 -1.1794 2.744434183508888 7.731705376497894 13.398205818471363 0 0 0
1085 362 1 0.5897 3.2451813480706573 7.537317642989899 14.190510853213404 0 0 0
1086 362 1 0.5897 3.2529341780185423 8.409671722183036 12.953186477608869 0 0 0
1089 363 1 0.5897 5.1582465981382475 10.876527191197018 14.867996781569884 0 0 0
1090 364 2 -1.1794 3.279912613652381 10.955576308600826 14.958366216084459 0 0 0
1091 364 1 0.5897 2.777761966963717 11.652147306562043 15.381312699221331 0 0 0
1092 364 1 0.5897 2.906529567676971 10.145605507489673 15.305903780729734 0 0 0
1095 365 1 0.5897 0.9589764696783816 9.442119125472573 15.738973819257241 0 0 0
1097 366 1 0.5897 0.997801421976348 7.661921836359226 13.557403183087326 0 0 0
1099 367 2 -1.1794 4.657316891870295 9.48004384007881 12.357121147612661 0 0 0
1102 368 2 -1.1794 1.5158357360421881 11.076083643988339 12.945324713135973 0 0 0