LAMMPS data file via write_data, version 30 Jul 2021, timestep = 9750000

864 atoms
2 atom types
576 bonds
1 bond types
288 angles
1 angle types

0.13270229595258698 18.07487010405088 xlo xhi
0.025096792655148192 23.6040810073512 ylo yhi
0.026622172243449427 22.186573627760957 zlo zhi

Masses

1 1.00794
2 15.9994

Atoms # full

707 1 1 0.5897 3.045174094644686 1.8975262602993828 3.6784416414125296 0 0 0
706 1 2 -1.1794 2.9153924731830134 2.0250458037218326 2.7386988042506255 0 0 0
30 1 1 0.5897 5.159596965306065 4.404978518456209 2.019915810261441 0 0 0
708 1 1 0.5897 2.0693219395014504 2.467662426184673 2.671159694674083 0 0 0
29 1 1 0.5897 4.305318150117771 3.170260133496313 2.2134615669667426 0 0 0
28 1 2 -1.1794 5.086450460932684 3.4867962184492445 1.7596828690764499 0 0 0
3 1 1 0.5897 0.38895560763471193 3.941664575365578 2.3083431654927002 0 0 0
597 1 1 0.5897 1.0340308538198797 5.6291525069420665 3.6781151509194867 0 0 0
188 1 1 0.5897 3.1033180664703504 0.21816320629206876 2.5605920790051573 0 1 0
494 1 1 0.5897 6.336235028450567 2.3145081490205737 2.4624837932345685 0 0 0
493 1 2 -1.1794 6.9556131370933185 1.7018020450001516 2.8589449795319846 0 0 0
495 1 1 0.5897 7.8097299823424935 1.9718061896981909 2.521476571192356 0 0 0
1 1 2 -1.1794 0.40740154252205496 2.9849087761513124 2.2889521065025544 0 0 0
846 1 1 0.5897 7.265095848782418 1.6499782800786595 4.483528235214906 0 0 0
844 1 2 -1.1794 7.519082010130301 1.8364232896176755 5.387383294466055 0 0 0
20 1 1 0.5897 0.6976393425202009 2.4967602837825598 0.5198229683249675 0 0 0
595 1 2 -1.1794 0.8935128914806801 5.701164648927233 2.734003633252333 0 0 0
137 1 1 0.5897 5.262713267351524 5.901544622114556 3.858888595410508 0 0 0
819 1 1 0.5897 7.122963128861635 0.043243681097230535 2.1514429809907205 0 0 0
487 1 2 -1.1794 3.2037728835582424 1.7088585394180347 5.419931463814266 0 0 0
181 1 2 -1.1794 1.0473696693608154 5.8111051295102945 5.491687416669656 0 0 0
112 1 2 -1.1794 0.7278165234349775 5.510198340469141 10.282066175298992 0 0 0
845 1 1 0.5897 7.643274200419477 0.9744142766304019 5.784481869297957 0 0 0
82 1 2 -1.1794 5.386172071063571 3.0196798815416654 6.450438534823858 0 0 0
84 1 1 0.5897 6.156837370174236 2.6303103121779805 6.037235840440178 0 0 0
674 1 1 0.5897 3.888460959109597 2.3088722979564658 10.153190163278408 0 0 0
83 1 1 0.5897 4.643567759299578 2.5839943773660883 6.032118141532782 0 0 0
356 1 1 0.5897 7.2740999120975225 0.6960882535950875 9.647574821306808 0 0 0
685 1 2 -1.1794 5.599265249843056 5.5920871945813575 5.827005964429976 0 0 0
673 1 2 -1.1794 3.1896225752581433 1.8291058076257178 10.597843742277618 0 0 0
35 1 1 0.5897 0.7435557027748865 3.777638557525747 9.954881235704054 0 0 0
489 1 1 0.5897 3.2703316039462997 0.8367364044623529 5.808642252191579 0 0 0
274 1 2 -1.1794 5.10283191851134 3.101533100607606 9.192373502191375 0 0 0
678 1 1 0.5897 5.123095913564327 4.805194843837825 9.829836889208918 0 0 0
183 1 1 0.5897 0.902291914307819 4.881490658857133 5.667436449969658 0 0 0
36 1 1 0.5897 1.5434111871837224 2.5013751183504502 9.802814154920855 0 0 0
355 1 2 -1.1794 7.356989735626109 1.601846996213895 9.945673632800103 0 0 0
114 1 1 0.5897 1.536806704057122 5.8689596263800015 9.917212711839086 0 0 0
785 1 1 0.5897 0.7587436964329776 3.4433156915607603 7.443494241450729 0 0 0
276 1 1 0.5897 5.96159832984651 2.780348560803239 9.467487295174008 0 0 0
675 1 1 0.5897 3.2217355810364396 0.9512626768850706 10.217692303495392 0 0 0
275 1 1 0.5897 5.182605331419213 3.2190296814416888 8.245733148310029 0 0 0
176 1 1 0.5897 8.772819001842958 2.6205912638507045 9.471367125801345 0 0 0
784 1 2 -1.1794 0.9172727465499452 3.225363167929624 6.525017035839532 0 0 0
488 1 1 0.5897 2.4905171829849104 2.1311528348859454 5.898675428942866 0 0 0
786 1 1 0.5897 0.2891654052221071 2.529445006947515 6.331667043748302 0 0 0
34 1 2 -1.1794 0.7612815533179508 2.94774141180354 9.47831786421968 0 0 0
676 1 2 -1.1794 5.268086603645238 5.565916286751927 10.39236069609087 0 0 0
357 1 1 0.5897 7.317140047464093 1.5449286115161018 10.900349768775426 0 0 0
686 1 1 0.5897 5.6326663084713235 4.661803737911976 6.049713343117783 0 0 0
166 1 2 -1.1794 2.722010981777303 1.5035073693859284 13.18917653185479 0 0 0
167 1 1 0.5897 2.897747104897163 1.4379736054625145 12.250524822760871 0 0 0
457 1 2 -1.1794 5.057717053364577 2.8584789634413155 13.869036946539842 0 0 0
458 1 1 0.5897 5.755319160782236 2.343363768985928 13.463751392150995 0 0 0
459 1 1 0.5897 4.248677820255502 2.4363015986919416 13.580041037037555 0 0 0
762 1 1 0.5897 4.952553182359994 4.671298933706786 13.433411114254186 0 0 0
594 1 1 0.5897 7.952035164314804 1.969708624184104 13.198119747107736 0 0 0
168 1 1 0.5897 2.0701543321232236 2.2005076124584098 13.263201317776748 0 0 0
466 1 2 -1.1794 0.7139169458178455 3.367871395186103 14.021629785056733 0 0 0
71 1 1 0.5897 5.153041567786318 3.2958002178447585 15.649454105597918 0 0 0
593 1 1 0.5897 7.3246199945703205 0.5940166079467608 13.124088908072347 0 0 0
592 1 2 -1.1794 7.206007555285063 1.4968407428481025 12.829210628984356 0 0 0
468 1 1 0.5897 0.6903036309261565 3.2421908638028736 14.97026547326713 0 0 0
365 1 1 0.5897 0.7730543519128453 4.998032002886142 13.50413774617363 0 0 0
113 1 1 0.5897 0.8048384721973081 5.655231137890637 11.22506787869129 0 0 0
760 1 2 -1.1794 5.209752034166944 5.577900367296914 13.265943618432257 0 0 0
761 1 1 0.5897 5.106764200874536 5.685829891164712 12.32044311580284 0 0 0
70 1 2 -1.1794 5.198914215774181 3.3881940672827606 16.60107687538457 0 0 0
364 1 2 -1.1794 0.6669841448606697 5.867836066824393 13.119018918501894 0 0 0
754 1 2 -1.1794 7.09114727672415 1.7213182816532735 17.443391017482313 0 0 0
290 1 1 0.5897 3.1605519066134793 0.8457827953861646 17.347164997407358 0 0 0
72 1 1 0.5897 4.559521946871989 2.7586757881220736 16.934405558630868 0 0 0
755 1 1 0.5897 7.08638976957646 2.005245522394403 18.357488072518958 0 0 0
571 1 2 -1.1794 0.6810293963681454 5.322697761522348 17.99127476312349 0 0 0
42 1 1 0.5897 7.665983967711617 1.1685095361422 20.65500814056692 0 0 0
289 1 2 -1.1794 3.3380839981428156 1.7505846486786523 17.603944429279363 0 0 0
41 1 1 0.5897 6.730053013520922 2.353578024675663 20.54801036614136 0 0 0
143 1 1 0.5897 5.519788460221664 5.162531091304073 20.727599224426477 0 0 0
569 1 1 0.5897 2.5988320506207714 2.099861832079355 20.986599107257973 0 0 0
599 1 1 0.5897 8.860318660304419 2.53283124973318 17.157642894536178 0 0 0
570 1 1 0.5897 3.1708069434109873 1.6048560398773837 19.675225652752573 0 0 0
40 1 2 -1.1794 7.524218742574567 1.9793360074617068 20.166534716538717 0 0 0
291 1 1 0.5897 2.5295621792919807 2.2208324998044424 17.400315141987654 0 0 0
667 1 2 -1.1794 5.447364248010713 3.429855591245551 21.183713399731733 0 0 0
756 1 1 0.5897 6.440908009294944 2.2784930909025665 17.01562304359288 0 0 0
568 1 2 -1.1794 3.3736844342140095 1.6851849686006544 20.60722122171513 0 0 0
648 1 1 0.5897 0.6195792817354955 5.349315079415681 19.971501551963865 0 0 0
669 1 1 0.5897 4.77756348751923 2.826217738978871 20.862442972037616 0 0 0
278 1 1 0.5897 5.161167600296281 4.937664570353868 17.498555471130466 0 0 0
21 1 1 0.5897 0.7348494263269683 3.3578208204930355 21.435178248396394 0 0 0
19 1 2 -1.1794 0.8243081071910556 2.452273774231936 21.732038663638367 0 0 0
277 1 2 -1.1794 5.142235836361791 5.829186941542771 17.84633677131843 0 0 0
134 1 1 0.5897 0.6309067569373903 3.733217265057331 17.250420368788568 0 0 0
646 1 2 -1.1794 0.7621345206966349 5.155309479789072 20.89796237389144 0 0 0
133 1 2 -1.1794 0.8419841391449748 2.882510007924767 16.865872241784167 0 0 0
647 1 1 0.5897 1.5868667060612835 5.59223487661959 21.110531430881583 0 0 0
668 1 1 0.5897 5.27793697024092 3.4982950694173467 22.123308039879582 0 0 -1
572 1 1 0.5897 1.5093930393377037 5.746978773565295 17.767502176250844 0 0 0
253 1 2 -1.1794 2.974311828677966 7.305826317669739 1.9257556150599775 0 0 0
123 1 1 0.5897 3.073492779866524 8.999775367732791 2.4106160017788145 0 0 0
121 1 2 -1.1794 3.2239738576855634 9.841273051734229 2.8411652430603453 0 0 0
122 1 1 0.5897 3.2231369207590714 9.636071891049182 3.7761079651922147 0 0 0
44 1 1 0.5897 1.4735531039621586 10.315952555964833 2.793662658621139 0 0 0
218 1 1 0.5897 6.410977740750194 10.466982560529587 2.0481167877208555 0 0 0
43 1 2 -1.1794 0.6560435978960661 10.770825110657427 2.5910266705420213 0 0 0
219 1 1 0.5897 4.923358969605403 10.387198580256328 2.3179786979068817 0 0 0
217 1 2 -1.1794 5.57799696563031 10.883218436724112 1.8263601727833756 0 0 0
415 1 2 -1.1794 7.697478138415417 7.027359260433316 2.0571912596117077 0 0 0
255 1 1 0.5897 2.1775171767650017 6.785777890619233 2.0304412893685426 0 0 0
254 1 1 0.5897 3.189274036646795 7.23109503363001 0.9959883104482219 0 0 0
417 1 1 0.5897 8.348828944073817 6.4556164130521445 2.4634942360452112 0 0 0
66 1 1 0.5897 7.712680231410284 9.662564220951776 3.7665378263249747 0 0 0
65 1 1 0.5897 7.728526114503409 8.663064286740141 2.629659771188302 0 0 0
64 1 2 -1.1794 7.820202212107089 9.597070699613626 2.817658580741948 0 0 0
416 1 1 0.5897 6.85571557755638 6.68025624104843 2.3525981613178653 0 0 0
162 1 1 0.5897 7.884849031477654 7.260138384658588 0.17888404369890396 0 0 1
363 1 1 0.5897 5.436209258119302 10.705178663763348 0.037378735370936104 0 0 1
138 1 1 0.5897 4.4626889872499556 6.392211602811249 2.6709658107973975 0 0 0
136 1 2 -1.1794 5.263571775965379 5.921512138206104 2.9018901510326853 0 0 0
396 1 1 0.5897 0.8749736364830683 10.947001051122196 0.5073744369329348 0 0 0
45 1 1 0.5897 0.8753477658749105 11.70003516894442 2.6588317903627727 0 0 0
794 1 1 0.5897 2.471146741896012 10.007365433567944 5.917279678963174 0 0 0
713 1 1 0.5897 8.3039130817537 10.001708179289919 5.888020083140092 0 0 0
10 1 2 -1.1794 3.2994558267361493 7.066386441202967 6.644641467955262 0 0 0
651 1 1 0.5897 3.8132692867917846 6.330376239550392 9.630194948560021 0 0 0
526 1 2 -1.1794 7.252669740493889 6.95768588151189 9.139520936492618 0 0 0
577 1 2 -1.1794 5.462650714405548 10.868474115902776 6.771115589071829 0 0 0
145 1 2 -1.1794 8.04444412055738 6.737292319545349 6.511060776384669 0 0 0
820 1 2 -1.1794 7.576010931850849 9.630700846233736 10.275488825476941 0 0 0
182 1 1 0.5897 0.31546475362329773 6.2536162368281625 5.921542979186344 1 0 0
580 1 2 -1.1794 5.225278871059896 10.928841229730365 9.512756790593484 0 0 0
650 1 1 0.5897 3.123978071610275 6.964572811003458 8.440849365572483 0 0 0
822 1 1 0.5897 8.324760426237836 10.177517917365918 10.037563014521035 0 0 0
527 1 1 0.5897 7.078880218694782 7.864910380621762 9.390247964495686 0 0 0
15 1 1 0.5897 1.388941826990777 10.448043535070543 9.940979218620123 0 0 0
582 1 1 0.5897 5.43630086885358 11.003169096551398 8.582070237299499 0 0 0
11 1 1 0.5897 2.6606988253643835 6.583041375866743 6.120615194197244 0 0 0
581 1 1 0.5897 5.9582257129465015 10.439733959116932 9.88668009152705 0 0 0
147 1 1 0.5897 7.912008116027044 6.742570147502586 7.459041167351566 0 0 0
649 1 2 -1.1794 3.0302238187743344 6.82217189190547 9.382738964147038 0 0 0
793 1 2 -1.1794 3.297642644634118 9.614787910914513 5.63606381289153 0 0 0
146 1 1 0.5897 7.221666685110565 6.4010338375910285 6.155702228448552 0 0 0
258 1 1 0.5897 3.733648347394191 9.940948418840692 9.887944759693536 0 0 0
12 1 1 0.5897 3.413860150657617 7.894915877886569 6.17924792941221 0 0 0
257 1 1 0.5897 2.9210682816230267 8.678656298935083 10.083059178474443 0 0 0
550 1 2 -1.1794 0.7699125177441555 10.705832178556047 6.650938762369881 0 0 0
795 1 1 0.5897 3.9723210462589775 10.175416697321507 6.019154116662962 0 0 0
256 1 2 -1.1794 2.9305054585856283 9.612610867350915 10.292217431189625 0 0 0
528 1 1 0.5897 8.029546896119205 6.714179875958693 9.64296607847036 0 0 0
578 1 1 0.5897 6.108484537233331 10.335533957273267 6.3073018951653514 0 0 0
551 1 1 0.5897 0.7352952016687737 10.70334695727129 7.607506501992441 0 0 0
13 1 2 -1.1794 0.6759487756452326 10.974800519072438 9.579852615095177 0 0 0
687 1 1 0.5897 4.92909899929387 5.9537398270358715 6.406952979371309 0 0 0
677 1 1 0.5897 5.951553050071991 6.066807573972103 9.947126271142038 0 0 0
714 1 1 0.5897 7.7994775827790015 8.578226949024852 5.783755506959394 0 0 0
552 1 1 0.5897 0.7855446579791141 11.633000851102858 6.413776475457765 0 0 0
14 1 1 0.5897 0.6877201170288709 11.780687731737656 10.096157895049386 0 0 0
579 1 1 0.5897 5.494715005089898 11.71913320334589 6.333505738510778 0 0 0
712 1 2 -1.1794 7.565141249145911 9.481689818018332 5.57172217901271 0 0 0
826 1 2 -1.1794 7.392338701372657 6.924075689612026 14.217193112187255 0 0 0
225 1 1 0.5897 2.7506721404825325 6.887476369344074 15.94501278434104 0 0 0
332 1 1 0.5897 2.7676180929291734 8.123441905179272 13.829036699710635 0 0 0
797 1 1 0.5897 3.1120057785395803 10.028254414228282 12.06911696155554 0 0 0
796 1 2 -1.1794 3.0298699153987108 9.944965194103748 13.019143161742994 0 0 0
798 1 1 0.5897 2.152994021177975 10.275685317351353 13.214138454837915 0 0 0
722 1 1 0.5897 4.589350445733828 10.82513463134365 13.585723617544419 0 0 0
261 1 1 0.5897 0.8759456748052815 11.160321251487188 14.977103184020615 0 0 0
723 1 1 0.5897 5.0175002059589415 11.214788945874721 14.984558377187689 0 0 0
828 1 1 0.5897 7.35281465128489 6.8713129935944695 15.172120404396322 0 0 0
259 1 2 -1.1794 0.6981667345479992 11.101147671393937 14.038422063857016 0 0 0
331 1 2 -1.1794 2.7683490304087663 7.255069519181365 14.231590923637786 0 0 0
333 1 1 0.5897 3.6424654738896622 6.90837188336685 14.052663038338654 0 0 0
721 1 2 -1.1794 5.318459414966855 11.205055791358294 14.07595054844254 0 0 0
475 1 2 -1.1794 7.547371374335164 9.867058127876547 13.072635139126481 0 0 0
476 1 1 0.5897 6.765776601390902 10.245597600582071 13.475240057363372 0 0 0
477 1 1 0.5897 7.570842295356721 8.966090585527443 13.394847767184194 0 0 0
827 1 1 0.5897 6.728736718475354 6.304015229051096 13.914901414776613 0 0 0
851 1 1 0.5897 8.809472062092794 6.180946885252148 13.487675974721304 0 0 0
821 1 1 0.5897 7.539871572358199 9.675809099145361 11.230936674665799 0 0 0
104 1 1 0.5897 8.854246581323995 10.90207475674316 13.652152152692711 0 0 0
366 1 1 0.5897 1.2593626157610918 6.426763696094622 13.621927114433282 0 0 0
521 1 1 0.5897 6.542778143128531 6.772316406594817 17.198072959090826 0 0 0
141 1 1 0.5897 7.639307153662933 9.051139387407833 20.569957693074095 0 0 0
395 1 1 0.5897 0.2657488955815488 10.449327890144158 21.37384956066204 0 0 0
160 1 2 -1.1794 7.938696936063318 6.999326330783975 21.419390205138907 0 0 0
224 1 1 0.5897 2.8191425703142414 7.715990715350679 17.210189053464525 0 0 0
9 1 1 0.5897 6.57633182635008 10.387023579057786 17.32313069173027 0 0 0
522 1 1 0.5897 7.319034786453218 8.071331813101231 17.239608318335524 0 0 0
627 1 1 0.5897 2.1407274518224395 9.943890195616513 17.23192666799459 0 0 0
140 1 1 0.5897 6.885770623790013 10.363748399496217 20.601067354791645 0 0 0
5 1 1 0.5897 4.06060461409961 6.614084082677711 21.220896010716103 0 0 0
690 1 1 0.5897 2.3548462541385358 9.802407563770666 20.80478959619685 0 0 0
625 1 2 -1.1794 2.915315021008225 9.452259981570652 17.5050105344811 0 0 0
688 1 2 -1.1794 3.070910561482883 9.390619378706143 20.321112543179698 0 0 0
161 1 1 0.5897 7.063142060528537 6.67351174263753 21.21070957925751 0 0 0
223 1 2 -1.1794 2.7275751026969624 6.815419798292892 16.899220551250163 0 0 0
689 1 1 0.5897 3.86272765746557 9.800778717931475 20.669059454315956 0 0 0
394 1 2 -1.1794 0.9615986243484699 11.01046871239232 21.716172391931053 0 0 0
626 1 1 0.5897 2.9045127897164584 9.499029896454996 18.461013660548897 0 0 0
139 1 2 -1.1794 7.640201024037896 9.933371913073684 20.198732487508234 0 0 0
6 1 1 0.5897 3.0606334084383504 7.681159959120291 20.829435318174998 0 0 0
287 1 1 0.5897 9.073090465537744 10.730177333870692 20.855302499580727 0 0 0
8 1 1 0.5897 7.484263568609176 9.87960396446224 18.42318704987782 0 0 0
7 1 2 -1.1794 7.348776296539271 9.842865212733518 17.4763399636845 0 0 0
680 1 1 0.5897 4.207193318602759 10.748979003334306 17.106808209385726 0 0 0
4 1 2 -1.1794 3.1318196784446055 6.838613338481245 21.277967800691613 0 0 0
361 1 2 -1.1794 5.272200330433071 10.741554912395067 21.254991083595648 0 0 0
445 1 2 -1.1794 0.8963922983952182 10.888787876376007 16.75944108809603 0 0 0
144 1 1 0.5897 5.308838764448672 6.078284410007379 19.540709191427815 0 0 0
246 1 1 0.5897 8.86728141587001 10.45403446946056 16.806341197108548 0 0 0
362 1 1 0.5897 5.235483713686042 11.676563730776639 21.053709509342866 0 0 0
279 1 1 0.5897 4.301912001099731 6.182775062555053 17.55458922058413 0 0 0
446 1 1 0.5897 0.8236407697546698 11.734347422747854 17.20201371877802 0 0 0
711 1 1 0.5897 8.879215694065795 6.168815327910295 17.59101472084523 0 0 0
142 1 2 -1.1794 5.522804013707717 6.085377738266012 20.473660306521474 0 0 0
520 1 2 -1.1794 7.366175305123884 7.171435678132714 16.91699023650565 0 0 0
679 1 2 -1.1794 4.917738690549965 11.330176375714117 16.835553181781926 0 0 0
200 1 1 0.5897 5.148535676417204 13.470489472495998 4.940876691834964 0 0 0
173 1 1 0.5897 4.406999038662656 13.627280584117798 2.833362427948074 0 0 0
172 1 2 -1.1794 5.262608997390224 13.254582523593372 3.0462841259670492 0 0 0
373 1 2 -1.1794 0.8443334438968507 13.543659559776868 3.020121221126764 0 0 0
558 1 1 0.5897 3.0354497831068508 14.868275722864377 1.1124128595041773 0 0 0
556 1 2 -1.1794 2.9868758491027925 14.928974846538129 2.066457474234305 0 0 0
557 1 1 0.5897 2.179104010147909 14.469223889457592 2.295368480550216 0 0 0
478 1 2 -1.1794 7.380676759408819 14.788382320069429 2.042513870280474 0 0 0
174 1 1 0.5897 5.243990986700936 12.377255738977661 2.6640910026117526 0 0 0
293 1 1 0.5897 3.010826196863626 16.580234763356312 2.680921691079539 0 0 0
479 1 1 0.5897 8.181794418303571 14.32965370449172 2.2956495529581673 0 0 0
449 1 1 0.5897 7.327008672783197 16.430189506049924 2.7597800182803143 0 0 0
480 1 1 0.5897 6.6727124289452835 14.235380210543514 2.3730226759001023 0 0 0
317 1 1 0.5897 7.53294628744647 14.626552470570717 0.32894021853329586 0 0 0
374 1 1 0.5897 0.7041850170238619 13.428620296670386 3.95999200738868 0 0 0
448 1 2 -1.1794 7.2346785370126465 17.300546994114484 3.147182480815042 0 0 0
308 1 1 0.5897 7.256179765946099 17.247066244487854 4.860900689171782 0 0 0
294 1 1 0.5897 3.0147567435943614 17.50436848716698 3.8799858546974777 0 0 0
292 1 2 -1.1794 3.1231163959503294 17.49784122329758 2.928963707180191 0 0 0
450 1 1 0.5897 6.4571043248028 17.66872909756362 2.7275505828225346 0 0 0
384 1 1 0.5897 2.521961028554663 16.64623639632801 10.165795819499284 0 0 0
518 1 1 0.5897 7.544018510800217 15.53864299566339 6.369233189672711 0 0 0
454 1 2 -1.1794 5.075960019546054 13.740743825554556 10.169889133606498 0 0 0
766 1 2 -1.1794 0.6075691933073997 13.543494144341992 10.494492609515351 0 0 0
811 1 2 -1.1794 2.680630556789177 14.966202095473523 9.293268439629003 0 0 0
199 1 2 -1.1794 5.357339023150057 13.363904794247317 5.868922036380535 0 0 0
813 1 1 0.5897 2.0593822849659342 14.312615196675166 9.61435621507878 0 0 0
17 1 1 0.5897 2.7127114724011645 15.063142532829028 7.43832011498964 0 0 0
239 1 1 0.5897 2.9072198529962296 16.4982463499174 5.947619842568786 0 0 0
201 1 1 0.5897 6.227869668912575 13.750219936640821 5.964975209164944 0 0 0
377 1 1 0.5897 6.594034079866872 14.40874220595727 9.932349212147495 0 0 0
18 1 1 0.5897 3.7450506912434993 14.331666584903344 6.606973661211299 0 0 0
382 1 2 -1.1794 2.6789067008477323 17.489474733806585 10.590606564510525 0 0 0
812 1 1 0.5897 3.5391418389149494 14.6247182863749 9.543546388238214 0 0 0
456 1 1 0.5897 5.151813282559319 12.795909585751115 10.037079050538955 0 0 0
376 1 2 -1.1794 7.365679292668938 14.884270496367494 9.62458898407508 0 0 0
16 1 2 -1.1794 2.9805939895570117 14.903021857504918 6.5334297835822195 0 0 0
517 1 2 -1.1794 7.612868816926875 14.674509889646352 6.775017456379082 0 0 0
186 1 1 0.5897 7.505650789448045 16.602266688638245 10.082323082980778 0 0 0
378 1 1 0.5897 7.391474850962211 14.715928773173074 8.682662350705456 0 0 0
519 1 1 0.5897 8.372046075445843 14.271413628224765 6.353767629423433 0 0 0
307 1 2 -1.1794 7.281730510160908 17.220424054339247 5.817385171228386 0 0 0
656 1 1 0.5897 1.5621998576114626 13.936031636876479 5.848056199243642 0 0 0
238 1 2 -1.1794 2.9147954136774814 17.43225360302122 5.73861359577566 0 0 0
655 1 2 -1.1794 0.7972099500598974 13.374544758659983 5.722423767989764 0 0 0
59 1 1 0.5897 8.81858345035113 14.253807435009055 10.25380881327896 0 0 0
184 1 2 -1.1794 7.520956703499966 17.54376703469821 10.253918046997901 0 0 0
309 1 1 0.5897 8.140707192236096 17.576608101710036 6.044537737096655 0 0 0
296 1 1 0.5897 7.095484602075127 15.098531971482084 15.229209535159075 0 0 0
232 1 2 -1.1794 2.8351011482399375 14.766919097185157 13.86737522957713 0 0 0
234 1 1 0.5897 2.9146185167958873 14.745736181865393 14.821048999198833 0 0 0
606 1 1 0.5897 2.7244476296272397 16.64859914607156 13.361740421970532 0 0 0
427 1 2 -1.1794 5.246308903872211 13.751388158250974 13.043209420795396 0 0 0
233 1 1 0.5897 3.651174934380457 14.380218547140739 13.549900994237744 0 0 0
639 1 1 0.5897 1.1201394065648298 14.147724146974738 13.451951570286273 0 0 0
429 1 1 0.5897 5.958038586964409 14.283368277576256 13.39913498066381 0 0 0
428 1 1 0.5897 5.3658638907365575 12.890915080860283 13.445007723535232 0 0 0
637 1 2 -1.1794 0.33311845508119053 13.70412761182474 13.135562954573302 0 0 0
638 1 1 0.5897 0.33107848700146925 12.86353616394338 13.593328880774209 0 0 0
295 1 2 -1.1794 7.250043463673309 15.402230653393957 14.334731294500546 0 0 0
270 1 1 0.5897 7.412129863085696 16.827415306717786 13.27454303537167 0 0 0
297 1 1 0.5897 7.995486402034291 14.884328253056745 14.030848698698497 0 0 0
269 1 1 0.5897 7.543147853819793 17.59229757573083 11.974701542153845 0 0 0
604 1 2 -1.1794 2.8692310927719036 17.57925771432105 13.19138702456637 0 0 0
605 1 1 0.5897 2.8825791890865835 17.649273574560983 12.236847452768375 0 0 0
767 1 1 0.5897 0.6653385229267192 13.784244167280152 11.419110997872316 0 0 0
823 1 2 -1.1794 2.860707857311039 14.78136199610596 16.631716237671245 0 0 0
455 1 1 0.5897 5.014375042445915 13.845455575276725 11.119345984859269 0 0 0
610 1 2 -1.1794 7.530716324036495 17.37720435903291 17.946014607744647 0 0 0
664 1 2 -1.1794 3.0761833706805515 15.135152189646401 21.426969797197778 0 0 0
824 1 1 0.5897 3.622985173961353 14.358004284849944 17.026650335921268 0 0 0
52 1 2 -1.1794 0.7394834216826617 13.543521689371522 17.817385861501666 0 0 0
825 1 1 0.5897 2.1091248344434232 14.35747430764134 17.046096564036727 0 0 0
584 1 1 0.5897 2.884747300405268 16.445152503425984 17.475365122210857 0 0 0
125 1 1 0.5897 5.06105361715525 13.598655784474447 18.914387328213955 0 0 0
124 1 2 -1.1794 4.9815898364841065 13.805872124920214 17.98327807563129 0 0 0
684 1 1 0.5897 4.205478607480788 13.940913419272254 20.780282492017765 0 0 0
157 1 2 -1.1794 7.511743634960643 17.108117928794304 20.6459280557955 0 0 0
666 1 1 0.5897 3.058732368809336 16.02091729969009 21.064696728486073 0 0 0
126 1 1 0.5897 5.794913416876903 14.262859991756171 17.76888089990516 0 0 0
583 1 2 -1.1794 2.909068555429001 17.30500287046011 17.89513360827913 0 0 0
318 1 1 0.5897 7.344462040747379 15.452122272993181 21.234007282363212 0 0 0
665 1 1 0.5897 2.315038193258771 14.702580164575359 21.039907556830148 0 0 0
451 1 2 -1.1794 0.9711217311947541 13.561555081060273 20.493375625144836 0 0 0
683 1 1 0.5897 5.710747903622119 13.825800738959316 20.89455392023162 0 0 0
316 1 2 -1.1794 7.443242390278861 14.55025201694737 21.538964313615004 0 0 0
682 1 2 -1.1794 4.939016607550204 13.364491669257841 20.566006389702732 0 0 0
53 1 1 0.5897 0.7690328331167642 13.446061559487415 18.7691468346707 0 0 0
452 1 1 0.5897 0.9229359908515503 12.743340717402676 20.987700192857243 0 0 0
51 1 1 0.5897 8.212417000769983 14.21613203417423 17.191365221345798 0 0 0
50 1 1 0.5897 7.576180430209614 15.575504250410685 17.388823058676017 0 0 0
159 1 1 0.5897 7.53432028660742 17.315880363297815 19.711817973271284 0 0 0
117 1 1 0.5897 9.093739307540236 14.037548416373825 20.800785533061674 0 0 0
585 1 1 0.5897 3.73028152006469 17.695105796834703 17.595600340345882 0 0 0
681 1 1 0.5897 4.74798829967847 12.149634594467365 17.300115136304992 0 0 0
158 1 1 0.5897 8.25916124367888 17.578953288915745 21.01463177529137 0 0 0
453 1 1 0.5897 0.2578579247950182 14.095547130818114 20.84316851206366 0 0 0
49 1 2 -1.1794 7.405556167983428 14.704993278934953 17.029338300455098 0 0 0
267 1 1 0.5897 5.9884133244210425 21.90969231606913 2.5886634775028847 0 0 0
696 1 1 0.5897 1.7652396316974737 21.77632634957559 2.750075371264491 0 0 0
266 1 1 0.5897 4.505263642119149 21.740982782235182 2.8414793492918635 0 0 0
265 1 2 -1.1794 5.356556684330643 21.352429910229887 3.043027916329044 0 0 0
818 1 1 0.5897 8.13762046463603 22.498904420075373 2.1725427318442216 0 0 0
228 1 1 0.5897 5.397209205933143 19.60403490113828 2.3886561993962756 0 0 0
344 1 1 0.5897 1.48448968360669 18.372472746386595 2.60203350420907 0 0 0
817 1 2 -1.1794 7.302294945000036 22.757243329904362 1.7829402092401148 0 0 0
343 1 2 -1.1794 0.6925808646370981 18.87101794156709 2.4005498132921903 0 0 0
226 1 2 -1.1794 5.332621606247511 18.75499768289095 1.9515031573228119 0 0 0
187 1 2 -1.1794 3.317568029420542 22.890997648838454 2.3389883987109266 0 0 0
227 1 1 0.5897 4.536238301710265 18.36145199982816 2.3081176891262887 0 0 0
695 1 1 0.5897 0.9515520257152634 20.509324829967962 2.9061841851494403 0 0 0
694 1 2 -1.1794 0.9290826980376333 21.449817460634083 3.082518685570677 0 0 0
249 1 1 0.5897 5.457068343388695 21.2970317757216 4.8025908481276725 0 0 0
189 1 1 0.5897 3.3851098372960853 22.886968209163356 1.384183796171578 0 0 0
321 1 1 0.5897 8.486732724681447 18.515056432210496 2.4232428506262282 0 0 0
413 1 1 0.5897 0.8066060107757711 21.6759920816679 5.0506439538609875 0 0 0
345 1 1 0.5897 0.6930674241863319 18.94689356958948 1.4463553663943147 0 0 0
602 1 1 0.5897 5.573639823738416 18.8107083943397 0.14732605814582828 0 0 0
555 1 1 0.5897 5.157806818842081 20.351335195058642 10.17823881367984 0 0 0
86 1 1 0.5897 7.73163780590722 22.385680172286392 8.223941013832606 0 0 0
87 1 1 0.5897 8.078155573124313 21.99564011308271 9.64512249716688 0 0 0
37 1 2 -1.1794 3.13381055558872 22.857959075238515 9.391050529255141 0 0 0
700 1 2 -1.1794 3.1811995334929155 22.690875020946375 6.698618327737183 0 0 0
33 1 1 0.5897 6.757097203701615 22.47987705494966 6.4128184612541155 0 0 0
32 1 1 0.5897 8.249096522119757 22.305122283145852 6.2242221076395134 0 0 0
383 1 1 0.5897 3.444723390532423 17.846102257225937 10.14046025718933 0 0 0
39 1 1 0.5897 3.842927288751398 22.29549576164349 9.702559219481024 0 0 0
414 1 1 0.5897 0.636794587724062 20.622568691598705 6.124537240353671 0 0 0
701 1 1 0.5897 3.1504450718535595 22.910552712040644 7.629755102214647 0 0 0
185 1 1 0.5897 8.398422537932262 17.821419809603825 9.990716558962355 0 0 0
342 1 1 0.5897 0.6477036958209175 18.908514139589858 7.619592860690403 0 0 0
102 1 1 0.5897 5.148173021578575 18.728601745984967 8.633303845289538 0 0 0
341 1 1 0.5897 1.4462704551705958 18.42484561883601 6.427844009908979 0 0 0
385 1 2 -1.1794 5.187724725169972 18.657646991555108 6.730281372080195 0 0 0
387 1 1 0.5897 5.259544090430259 19.48848311023867 6.260506130212809 0 0 0
38 1 1 0.5897 2.3335703223807083 22.3938097964352 9.636955943114685 0 0 0
340 1 2 -1.1794 0.5699946880016906 18.71054725854062 6.686325472451491 0 0 0
405 1 1 0.5897 0.732413310757351 19.75669182830813 9.882281897217744 0 0 0
553 1 2 -1.1794 5.186057835025336 21.24432511905586 10.521628577148938 0 0 0
404 1 1 0.5897 1.2963905590329459 18.353273843005002 9.945711841046672 0 0 0
94 1 2 -1.1794 0.9584843483748824 21.509945779762763 10.330875564178907 0 0 0
554 1 1 0.5897 5.910115327784663 21.65898705303422 10.052520440879121 0 0 0
101 1 1 0.5897 5.765587896187092 18.243473800275957 9.92765305618341 0 0 0
702 1 1 0.5897 2.3714624591899094 22.205756119273822 6.5396408335137926 0 0 0
31 1 2 -1.1794 7.589177780891815 22.94755076283404 6.485020782012474 0 0 0
100 1 2 -1.1794 4.996833057893669 18.693924724102484 9.577823972458072 0 0 0
386 1 1 0.5897 5.894225126554362 18.11884033211578 6.374201077584519 0 0 0
85 1 2 -1.1794 7.367794019887798 22.34735326858269 9.108471272449254 0 0 0
403 1 2 -1.1794 0.662123205884884 18.893600755749777 9.47452974073401 0 0 0
240 1 1 0.5897 3.724205099992785 17.75942754520562 6.131161559159252 0 0 0
412 1 2 -1.1794 0.7620666210908812 21.563293923459998 6.000145359174948 0 0 0
247 1 2 -1.1794 5.4118655105851605 21.244165813391174 5.757258041423272 0 0 0
248 1 1 0.5897 4.64867754385308 21.77252310551282 5.991006039612175 0 0 0
95 1 1 0.5897 0.25548008862517335 22.11979563815562 10.106995351715504 1 0 0
788 1 1 0.5897 7.3781392544970545 22.721255404499352 14.974514031431221 0 0 0
88 1 2 -1.1794 5.153834095065591 21.29518376711644 13.34150690556278 0 0 0
381 1 1 0.5897 1.3915561058738322 21.841425445522983 13.487673126935187 0 0 0
90 1 1 0.5897 5.180013332441705 20.358852729272854 13.538265737742435 0 0 0
763 1 2 -1.1794 5.141728255346293 18.66976275251791 14.186171827082799 0 0 0
738 1 1 0.5897 3.51580726330883 22.445791711650624 14.01672271153272 0 0 0
89 1 1 0.5897 4.95477243564203 21.33841491479905 12.406230329555132 0 0 0
787 1 2 -1.1794 7.361435397914568 22.589472646730652 14.026567961788512 0 0 0
764 1 1 0.5897 4.343913600400902 18.233758156382418 13.886739404519252 0 0 0
502 1 2 -1.1794 0.7160128058025758 18.86549133324256 14.085763628962658 0 0 0
379 1 2 -1.1794 0.68787910309312 21.426179899681625 12.988998623434487 0 0 0
736 1 2 -1.1794 2.655369436000242 22.640128045449114 14.388447565393179 0 0 0
350 1 1 0.5897 2.615531507740092 22.835866224374012 16.21763344598962 0 0 0
504 1 1 0.5897 0.7587346385566369 18.93666270118282 15.039354928901357 0 0 0
380 1 1 0.5897 0.7242989987761083 20.50450221837544 13.244541129982286 0 0 0
765 1 1 0.5897 5.844794920226205 18.251852849535453 13.688875412228136 0 0 0