LAMMPS data file via write_data, version 30 Jul 2021, timestep = 2250000

1296 atoms
2 atom types
864 bonds
1 bond types
432 angles
1 angle types

-10.534920855843565 12.514920855843565 xlo xhi
-9.089112657860527 12.079110657860527 ylo yhi
0.20946989242943914 21.650529107575938 zlo zhi
-8.971590768469031 1.600255331685954 2.528222039198137 xy xz yz

Masses

1 1.008
2 15.999

Pair Coeffs # lj/cut/tip4p/long/omp

1 0 0
2 0.21084 3.1668

Bond Coeffs # harmonic/omp

1 450 0.9572

Angle Coeffs # harmonic/omp

1 55 104.52

Atoms # full

282 94 1 0.5897 -10.375935348227559 -4.138737224856517 1.7269653746100846 1 1 0
281 94 1 0.5897 -8.955960276067191 -3.7066659065571192 1.4294785278313515 1 1 0
280 94 2 -1.1794 -9.504233134529958 -4.48414621432887 1.5346873579881144 1 1 0
299 100 1 0.5897 -6.54031031039305 -7.815809749921149 3.993588765649932 1 1 0
163 55 2 -1.1794 -7.2779832757832 -8.033073158458636 0.8325591571534472 1 1 0
164 55 1 0.5897 -6.437555330878001 -8.347284810073532 1.1658531391730382 1 1 0
270 90 1 0.5897 -8.407657169488683 -7.442274825853996 2.173104057706663 1 1 0
269 90 1 0.5897 -9.203235921480152 -6.155729394669062 2.234509877409218 1 1 0
268 90 2 -1.1794 -9.147074456027756 -7.030149182104152 2.6198891944472558 1 1 0
275 92 1 0.5897 -10.326332923579601 -8.178400418316693 3.2738870791443895 1 1 0
324 108 1 0.5897 -7.1351074567934205 -4.231048251315179 3.653787443942625 1 1 0
73 25 2 -1.1794 -8.345732715883823 -3.70926620874714 4.917518806507105 1 0 0
298 100 2 -1.1794 -5.924067182328515 -7.0868844748408275 4.064500106129813 1 1 0
314 105 1 0.5897 -8.897193413117915 -6.680637464881466 4.3552215938517955 1 1 0
323 108 1 0.5897 -6.259933592172972 -5.443446358208693 3.4170101591524205 1 1 0
3 1 1 0.5897 -1.471277806884622 -3.460449060551947 4.3949979500324075 0 0 0
300 100 1 0.5897 -5.064286394128937 -7.4857944902575815 3.93111559284453 1 1 0
313 105 2 -1.1794 -8.815977905437833 -6.387327671270825 5.262780321045253 1 1 0
315 105 1 0.5897 -8.711758316885108 -5.437914085749405 5.199683949171908 1 1 0
322 108 2 -1.1794 -6.405075645760613 -4.545036236689121 3.1202439231781924 1 1 0
260 87 1 0.5897 -6.928174379402298 -6.232660081421598 0.5470262436585877 1 1 0
310 104 2 -1.1794 -3.4343405867511656 -8.28227685415827 3.853846153255166 1 1 0
261 87 1 0.5897 -6.751070820505259 -4.960591832754373 1.348493190752765 1 1 0
306 102 1 0.5897 -0.5428048208754124 -7.37304895779177 2.265838312316251 1 1 0
242 81 1 0.5897 -1.1261758964620725 -6.6264101267776 4.621926470338825 0 1 0
199 67 2 -1.1794 0.6082726031068901 -8.08556113333768 0.9047573783875142 1 1 0
304 102 2 -1.1794 -1.260486730712616 -7.004635494714302 2.781010618657652 1 1 0
293 98 1 0.5897 -4.943541028280392 -3.800647808336338 2.2236893198386896 1 1 0
305 102 1 0.5897 -1.4354271652044073 -6.155248973350382 2.3757638949810715 1 1 0
318 106 1 0.5897 -2.5415676838700154 -4.110143322076229 1.5860731557543295 1 1 0
311 104 1 0.5897 -2.656810926410124 -7.98081836561743 3.3840320993647306 1 1 0
316 106 2 -1.1794 -1.729758306944257 -4.616854606882695 1.5667041607022676 1 1 0
243 81 1 0.5897 -1.0065516039718432 -5.374485853238507 5.464698843625701 0 1 0
241 81 2 -1.1794 -1.229354180405947 -6.303900210149262 5.517268955609263 0 1 0
317 106 1 0.5897 -1.0385917720132518 -3.9595904564184883 1.4867068605719347 1 1 0
633 211 1 0.5897 -5.707497584443166 -6.093245090462757 5.553889040400134 1 1 0
1262 421 1 0.5897 -2.1209911261868086 -5.797201129539266 0.3015787923547541 0 0 1
1226 409 1 0.5897 -9.845514217459048 -5.67778887432044 0.21345733964692068 0 0 1
259 87 2 -1.1794 -6.7261614943492365 -5.301619437022483 0.45441497381964124 1 1 0
420 140 1 0.5897 -8.887135479583778 -6.383593495557807 10.018644042084748 1 0 0
414 138 1 0.5897 -6.869740387515482 -4.858321423232102 7.501588323626912 1 0 0
413 138 1 0.5897 -7.514629405157243 -3.522000019167079 7.802052656177376 1 0 0
412 138 2 -1.1794 -7.446627700563699 -4.419809099321042 8.127000735169817 1 0 0
350 117 1 0.5897 -7.256321771946734 -4.145642968331892 9.816078289956748 0 0 0
429 143 1 0.5897 -6.522301025149323 -7.031130117674168 8.630993995408398 1 0 0
428 143 1 0.5897 -6.683015786682405 -7.144985525384897 10.132110508181663 1 0 0
427 143 2 -1.1794 -6.054492125439118 -6.894859701543887 9.454891698769995 1 0 0
627 209 1 0.5897 -10.279412825843668 -6.758436639707465 6.446824065128302 1 1 0
618 206 1 0.5897 -7.764994255877362 -7.340570703469515 6.429543269345354 1 1 0
419 140 1 0.5897 -8.708979060636265 -5.479109981494316 8.817692989795528 1 0 0
418 140 2 -1.1794 -9.367779678649692 -5.985398340086972 9.292914852369385 1 0 0
356 119 1 0.5897 0.9258978212464442 -7.000620398112993 10.240053499772744 0 0 0
616 206 2 -1.1794 -7.370365573703523 -7.8654646244979345 7.1259901340229055 1 1 0
544 182 2 -1.1794 0.2963529302316754 -7.858328494692527 7.302796649067311 0 1 0
349 117 2 -1.1794 -7.2073075795280035 -3.9186921827471597 10.744728853049962 0 0 0
631 211 2 -1.1794 -5.521058605922699 -5.428304354169057 6.2166947437657525 1 1 0
553 185 2 -1.1794 -3.3805478239238704 -6.873445554964217 7.194202355545276 0 1 0
346 116 2 -1.1794 -1.9791184580003378 -5.726487315633469 9.322632548245412 0 0 0
546 182 1 0.5897 -0.10536295313876387 -7.284532135138941 6.6503639481574 0 1 0
347 116 1 0.5897 -1.2218367192065536 -5.420028171527891 8.823871646162663 0 0 0
336 112 1 0.5897 -3.570026453074199 -5.0866105241697115 9.532403740549896 0 0 0
334 112 2 -1.1794 -4.4152513627204755 -4.6797712438778785 9.722731639577551 0 0 0
335 112 1 0.5897 -5.043105861080585 -5.401100869923416 9.682756373289484 0 0 0
359 120 1 0.5897 -4.822193688500949 -3.2014650921889167 8.802895003861257 0 0 0
348 116 1 0.5897 -1.608070936974796 -6.295152093323717 9.997342908871282 0 0 0
632 211 1 0.5897 -4.852010136716592 -5.825907127915537 6.773910049171456 1 1 0
555 185 1 0.5897 -2.71725059529029 -6.735585246243308 6.517995993442439 0 1 0
554 185 1 0.5897 -2.958960159576213 -6.589938465293688 8.005435426805905 0 1 0
351 117 1 0.5897 -6.873270120294558 -3.02175502903037 10.75521760127903 0 0 0
404 135 1 0.5897 -5.252037926546526 -3.7506991625343336 5.7546587725563185 1 0 0
626 209 1 0.5897 -10.332248643637776 -6.720111296078407 7.959394261772006 1 1 0
357 119 1 0.5897 1.03966853186685 -7.197448000378433 8.743247555445345 0 0 0
327 109 1 0.5897 -4.5502680321172235 -7.920683882614832 9.856301908308541 0 0 0
545 182 1 0.5897 -0.4400294793752959 -8.191033056903073 7.815839793937152 0 1 0
617 206 1 0.5897 -8.115367850644757 -8.211970627812386 7.616972921157192 1 1 0
74 25 1 0.5897 -8.05388288278731 -3.2344575645832307 5.695726814494584 1 0 0
652 218 2 -1.1794 -5.969803849288932 -5.236269660960174 12.83646625110647 0 0 0
780 260 1 0.5897 -7.4987752965158965 -4.074443933742646 15.246845083115296 0 0 0
779 260 1 0.5897 -7.375081952056679 -3.0829986477900686 14.109372668238567 0 0 0
778 260 2 -1.1794 -8.015206203466256 -3.486539965059917 14.695549531643383 0 0 0
768 256 1 0.5897 -9.63222327099329 -2.6943389772241435 14.973764396828992 0 0 0
654 218 1 0.5897 -6.369535575839709 -4.823079987254252 12.071106380830615 0 0 0
653 218 1 0.5897 -6.654478331921163 -5.806090365007712 13.186711122277831 0 0 0
788 263 1 0.5897 -5.03587865262857 -4.596886691860228 15.635697835970065 0 0 0
766 256 2 -1.1794 -10.518082233951427 -2.3336843646510816 15.010036926056932 0 0 0
740 247 1 0.5897 -10.839089640699445 -3.461682074778407 11.942373343518554 1 0 0
729 243 1 0.5897 -8.053662253598773 -7.217667511844383 12.080170566261577 1 0 0
684 228 1 0.5897 -8.648788401020948 -6.533293978997541 14.396847243373731 0 0 0
682 228 2 -1.1794 -8.007348677632823 -6.905021915838688 13.791373117897997 0 0 0
663 221 1 0.5897 -8.680736751665913 -4.240204969868921 11.781251289588765 0 0 0
662 221 1 0.5897 -8.996226995355126 -4.238420006949074 13.261991316867926 0 0 0
661 221 2 -1.1794 -9.353647980810702 -4.495855548077198 12.41215811190917 0 0 0
757 253 2 -1.1794 -9.871680514267466 -5.865448979396042 15.69139189381889 0 0 0
794 265 1 0.5897 -1.8951455159202322 -5.315440249689509 16.256006215014313 0 0 0
678 226 1 0.5897 -4.310237506170946 -6.048536673478405 12.58494286072233 0 0 0
789 263 1 0.5897 -4.9282642770038345 -4.674455944244057 14.12754406487007 0 0 0
677 226 1 0.5897 -2.8053080961688623 -5.935124920723717 12.46738671593652 0 0 0
699 233 1 0.5897 -1.0107326735331377 -4.369786056787969 11.790381619639533 0 0 0
668 223 1 0.5897 -3.218069365391763 -3.503189061780126 12.163867450580671 0 0 0
816 272 1 0.5897 0.20675935297016146 -4.141763400176131 15.067492870421852 0 0 0
814 272 2 -1.1794 -0.24394329850218988 -3.5165942883010652 14.49977607475218 0 0 0
804 268 1 0.5897 -1.807657349337605 -2.6985002358316557 14.858013264177767 0 0 0
803 268 1 0.5897 -3.2950201326966067 -2.96893231041458 14.936028702925324 0 0 0
802 268 2 -1.1794 -2.653162540360185 -2.2590164396571506 14.948172369708333 0 0 0
795 265 1 0.5897 -2.992551637886704 -5.4560690211919 15.222756394035704 0 0 0
793 265 2 -1.1794 -2.1437422836139444 -5.816468991659995 15.479217304220347 0 0 0
720 240 1 0.5897 -0.7901728374450041 -6.6420420702712155 14.358008432490843 0 0 0
718 240 2 -1.1794 -0.10157846874708909 -6.940124531561397 13.763693517426933 0 0 0
698 233 1 0.5897 -1.2354001491012863 -4.290343499240254 13.285487003349578 0 0 0
667 223 2 -1.1794 -4.005408599730401 -3.0359030036714794 11.884755822753824 0 0 0
657 219 1 0.5897 -0.44624867450161965 -7.068441500733472 12.053377793718346 0 0 0
676 226 2 -1.1794 -3.515522632536828 -6.575749193146846 12.503389284356686 0 0 0
697 233 2 -1.1794 -1.6803464406385977 -4.494390306923652 12.46292478239528 0 0 0
774 258 1 0.5897 -5.372229958707785 -2.4482842572389414 12.961375851788489 0 0 0
787 263 2 -1.1794 -4.43006606174208 -4.441720416640013 14.911019480978416 0 0 0
727 243 2 -1.1794 -8.066639631222404 -7.454509569789038 11.15279081443862 1 0 0
767 256 1 0.5897 -11.090845756910374 -3.098917264808672 14.960192677542997 0 0 0
689 230 1 0.5897 1.1928187096845217 -5.825264723291302 13.002874782435567 0 0 0
655 219 2 -1.1794 -0.4916685423584699 -7.344856586312366 11.138048311038188 0 0 0
749 250 1 0.5897 -10.318909173579657 -6.041992380608381 12.265983267451373 1 0 0
669 223 1 0.5897 -4.3083403545539385 -3.5153925944815345 11.113688184969998 0 0 0
326 109 1 0.5897 -3.613060157863485 -7.6335529651383425 11.009971643538496 0 0 0
1089 363 1 0.5897 -6.524248247413521 -4.780042929421633 17.405140041310034 0 0 0
1248 416 1 0.5897 -6.10995207684743 -1.677565258618122 20.70024532234324 0 0 0
1152 384 1 0.5897 -7.190922785594438 -4.0757827807283435 19.695321066920055 0 0 0
1225 409 2 -1.1794 -8.484577857756598 -3.736073904781019 20.936911439343284 0 0 0
1123 375 2 -1.1794 1.0711651019610358 -5.208461008768754 16.412944363964225 0 0 0
1227 409 1 0.5897 -9.199518786396144 -3.2857236481392285 20.48720747461617 0 0 0
1109 370 1 0.5897 -8.759052565203762 -3.5153651278863567 17.68292703478895 0 0 0
1219 407 2 -1.1794 -10.609376719076737 -2.1658837148894925 20.21840747052352 0 0 0
1108 370 2 -1.1794 -9.365716962702825 -4.226828480431153 17.887677576305318 0 0 0
1143 381 1 0.5897 -8.690160887504637 -5.4214547846834575 21.482722710738123 0 0 0
1186 396 2 -1.1794 1.2734214487330124 -4.763203628537757 19.087604786305192 0 0 0
1151 384 1 0.5897 -6.24947885374785 -5.241346835200134 19.478472209456427 0 0 0
1150 384 2 -1.1794 -6.404398750346489 -4.334247443108776 19.214948585337705 0 0 0
1177 393 2 -1.1794 -1.1184214408515398 -6.55336732895131 21.64744226600481 0 0 0
1097 366 1 0.5897 -9.127040241505211 -5.917880920131795 18.571969280938234 0 0 0
1187 396 1 0.5897 1.3817157300478176 -5.650482561150186 19.430074372960195 0 0 0
1110 370 1 0.5897 -10.23244062386748 -3.823080125826145 17.843913791196055 0 0 0
1129 377 2 -1.1794 -7.653637889953023 -2.092799500927872 17.549161710909114 0 0 0
1121 374 1 0.5897 -5.036467918101147 -3.4393045522011274 18.499843415849615 0 0 0
1142 381 1 0.5897 -8.795178461131044 -6.614402168374111 20.55657383855701 0 0 0
1124 375 1 0.5897 0.9489004693932177 -6.157030961263089 16.45156102534574 0 0 0
1130 377 1 0.5897 -7.146851314765314 -1.844045102542184 18.322131656929248 0 0 0
1087 363 2 -1.1794 -6.494514657961689 -5.1372379683849685 16.51754668600334 0 0 0
1144 382 2 -1.1794 -1.725956921480165 -4.317509849753191 17.957506083536863 0 0 0
1257 419 1 0.5897 -3.283787518794279 -2.5356063394352777 19.519441062471163 0 0 0
1122 374 1 0.5897 -4.659236101353503 -2.500975974212958 17.373210553988745 0 0 0
1131 377 1 0.5897 -7.061622682826887 -1.9365807677073885 16.81339372605561 0 0 0
1133 378 1 0.5897 -1.398031202510932 -5.984155281076997 18.58753197240015 0 0 0
1165 389 2 -1.1794 -0.044383445234318586 -2.171589113527377 17.639176698814044 0 0 0
1120 374 2 -1.1794 -4.280657445188513 -3.0530802323849375 18.057423596762188 0 0 0
1188 396 1 0.5897 0.6813894791566444 -4.337287376445248 19.707544855340323 0 0 0
1255 419 2 -1.1794 -2.798745936740854 -2.366533873569443 20.32713166335674 0 0 0
1256 419 1 0.5897 -3.4318392610350035 -2.530214716680792 21.026154513731356 0 0 0
1261 421 2 -1.1794 -0.6301256228535674 -3.879431975393585 21.013509864063206 0 0 0
1263 421 1 0.5897 -1.46039755897041 -3.6256149968873084 20.610566343385344 0 0 0
1146 382 1 0.5897 -2.6023937076892096 -3.936216154509186 17.90646492800351 0 0 0
1145 382 1 0.5897 -1.1347983302406508 -3.582742020041257 17.79381597044579 0 0 0
1141 381 2 -1.1794 -8.752620656437712 -6.376617713272804 21.482827271632207 0 0 0
1088 363 1 0.5897 -6.7436905036030375 -6.055724392727638 16.62006360836518 0 0 0
1179 393 1 0.5897 -0.9591786801787858 -5.618234925769876 21.519365913583854 0 0 0
1125 375 1 0.5897 0.9360284722790748 -4.9122489272576555 17.313112794553305 0 0 0
1096 366 2 -1.1794 -9.066712046650245 -6.849924029052394 18.781541985449408 0 0 0
201 67 1 0.5897 2.0176486921171133 -6.125859708238199 21.599770466654714 1 1 -1
165 55 1 0.5897 -5.860294697490612 -6.063591471066669 21.5181657455732 1 1 -1
758 253 1 0.5897 -9.650535038348536 -5.273039328606419 16.409982969801828 0 0 0
84 28 1 0.5897 -7.936446084570589 -0.2541416176013733 4.057692049331875 1 0 0
99 33 1 0.5897 -11.771195943984509 1.606264142615684 5.3220053265031515 1 0 0
292 98 2 -1.1794 -4.158966424689921 -3.403810099028691 1.8454125703269102 1 1 0
301 101 2 -1.1794 -7.922456189848688 -2.21709927769583 1.595631474059378 1 1 0
107 36 1 0.5897 -9.244442565713637 1.666941724840461 3.439014480325648 1 0 0
69 23 1 0.5897 -10.84027140591431 -2.413705131784872 3.3041548635159477 1 0 0
272 91 1 0.5897 -9.361847045334512 -1.0927870724557014 1.3865559725848813 1 1 0
271 91 2 -1.1794 -10.183908456825467 -0.715872920974002 1.073022423564561 1 1 0
258 86 1 0.5897 -12.3911841770093 -2.73595947095565 1.400851364657165 1 1 0
75 25 1 0.5897 -9.099526346052794 -3.2113148427102054 4.6012632750411 1 0 0
52 18 2 -1.1794 -12.303558576435679 0.08342236887338927 2.647636686316474 1 0 0
53 18 1 0.5897 -12.325229096572631 0.9822461013906185 2.3191249217505288 1 0 0
54 18 1 0.5897 -11.515132042518681 -0.29525924847711416 2.2588352624581476 1 0 0
82 28 2 -1.1794 -8.806172581124727 0.1312878476156989 4.163345278082182 1 0 0
83 28 1 0.5897 -9.393504745065457 -0.6202347686466823 4.243270935591255 1 0 0
98 33 1 0.5897 -11.9587464676353 0.36810353949716834 4.471327210606868 1 0 0
68 23 1 0.5897 -11.158328654021865 -2.552974353282318 4.777783136119259 1 0 0
67 23 2 -1.1794 -10.478926821488935 -2.2502073486062315 4.175329283472087 1 0 0
88 30 2 -1.1794 -4.361467736592748 -0.03876155922127644 2.7641674790613324 1 0 0
59 20 1 0.5897 -13.492821570896965 -0.8783831181532875 3.5527097304401054 1 0 0
302 101 1 0.5897 -7.479184038821178 -2.12352118225206 2.438833804379033 1 1 0
26 9 1 0.5897 -4.20209737337195 0.2694006635627133 4.543910048383192 0 0 0
89 30 1 0.5897 -4.47748067687991 0.8209539387063902 2.3595471230303438 1 0 0
96 32 1 0.5897 -6.071900953998482 -1.758920193896203 4.644951748900188 1 0 0
256 86 2 -1.1794 -11.956090252167739 -3.24683494664652 2.0834747294822478 1 1 0
105 35 1 0.5897 -3.259405631039158 -2.7079203826978215 3.3398582416049694 1 0 0
95 32 1 0.5897 -5.75228472056919 -0.8722690176307566 3.460145667917617 1 0 0
90 30 1 0.5897 -3.74890255693885 -0.49486315968341543 2.187126587770825 1 0 0
103 35 2 -1.1794 -2.8920074490089425 -2.448568984717072 4.184837687722311 1 0 0
27 9 1 0.5897 -3.9005029175508357 1.4875188378791648 5.3907087381330685 0 0 0
94 32 2 -1.1794 -6.482397035869948 -1.283901220067829 3.922365470010286 1 0 0
303 101 1 0.5897 -7.230694387218526 -2.0936242595082017 0.9456858120012284 1 1 0
294 98 1 0.5897 -4.4901580909918595 -2.822589222317937 1.1607312766579416 1 1 0
104 35 1 0.5897 -3.607516495697271 -2.577331126965605 4.807469921221446 1 0 0
44 15 1 0.5897 -9.947719686388007 1.0512972853203149 0.5226530490999927 1 0 0
97 33 2 -1.1794 -11.822468020401407 0.651924126915107 5.375294524201285 1 0 0
25 9 2 -1.1794 -4.112860624766064 0.5562496433796831 5.452780097723428 0 0 0
1046 349 1 0.5897 -4.878464373884753 1.4450864405864596 0.4066558414679601 0 -1 1
273 91 1 0.5897 -10.442583302406113 -1.2781341376328523 0.3428356269270889 1 1 0
1249 417 2 -1.1794 -13.311899816763352 -1.8297738289103105 0.2422581116034867 0 0 1
309 103 1 0.5897 -2.6357750864920373 -1.5546275178302063 0.36585309001471816 1 1 0
527 176 1 0.5897 -11.894236953593001 1.5434858898644812 8.706886592343276 1 0 0
433 145 2 -1.1794 -6.766549020583346 -1.2988287479515002 10.136807735839076 0 0 0
526 176 2 -1.1794 -12.634551702351093 1.116919543442279 9.138314581869174 1 0 0
522 174 1 0.5897 -9.84547177487043 2.2308039432021385 7.550685142239199 1 0 0
426 142 1 0.5897 -8.825835514000858 -1.5688456106665942 7.039653779057101 1 0 0
537 179 1 0.5897 -9.358049437893929 -0.2199475507124493 8.688589744021629 1 0 0
536 179 1 0.5897 -9.73773666915623 -0.04537590403443659 10.143744506946184 1 0 0
535 179 2 -1.1794 -9.026170694786895 0.11142368775728606 9.523025135047618 1 0 0
528 176 1 0.5897 -12.234947667310308 0.5626237135777519 9.808654911379197 1 0 0
435 145 1 0.5897 -7.65344261053785 -1.0316829721637806 9.895630105772376 0 0 0
400 134 2 -1.1794 -10.405944968644214 -0.8182579523267695 7.266476345691339 1 0 0
424 142 2 -1.1794 -7.9461903086804995 -1.9461067480001928 7.03393198807801 1 0 0
401 134 1 0.5897 -11.04804709946085 -1.3861785729546598 7.692324611531859 1 0 0
402 134 1 0.5897 -10.918952862264 -0.2959661197741088 6.6497983921099895 1 0 0
411 137 1 0.5897 -13.351974298383645 0.1888601914607566 6.370153476380191 1 0 0
328 110 2 -1.1794 -2.812955441497367 -0.7808909967215989 7.430697897066143 0 0 0
415 139 2 -1.1794 -8.648096553661585 1.5958341005993404 6.481675448140384 1 0 0
425 142 1 0.5897 -7.360956142148661 -1.1910216019742936 7.092805318414084 1 0 0
464 155 1 0.5897 -1.862726929888444 -0.256982053623819 10.253224415449703 0 0 0
443 148 1 0.5897 -7.825030951811119 1.5927304423972668 9.474916312039058 0 0 0
456 152 1 0.5897 -4.308109728850026 0.6018253776370877 10.028436254701 0 0 0
444 148 1 0.5897 -6.370114489138601 1.9510997628876012 9.68993581284489 0 0 0
454 152 2 -1.1794 -4.782225930031286 1.1101829005307131 9.370370445643603 0 0 0
330 110 1 0.5897 -3.2410977713015274 -0.33073279843780234 6.70245887212779 0 0 0
455 152 1 0.5897 -4.096985795847444 1.5499515517568394 8.867150543842026 0 0 0
329 110 1 0.5897 -3.5172542468103574 -1.2661653169892304 7.860385011067793 0 0 0
442 148 2 -1.1794 -7.238367369098908 2.340617104264643 9.587219351420167 0 0 0
416 139 1 0.5897 -7.821957944384076 1.2764303619735884 6.844472839242785 1 0 0
405 135 1 0.5897 -5.0188965928150004 -2.5729480197070025 6.676838904934056 1 0 0
360 120 1 0.5897 -5.616512872810069 -1.9289164131058456 9.00683804714715 0 0 0
358 120 2 -1.1794 -4.94183263225857 -2.319242354900963 8.451252466135466 0 0 0
339 113 1 0.5897 -5.650418401212657 0.34030747210616497 6.511900325367695 0 0 0
338 113 1 0.5897 -5.781811977983975 0.5974446217379388 7.998078029353994 0 0 0
337 113 2 -1.1794 -6.26897877173262 0.2757581211682485 7.2395402702483755 0 0 0
434 145 1 0.5897 -6.504549772506913 -0.6763025615889315 10.815063222370188 0 0 0
403 135 2 -1.1794 -5.090245539754397 -2.807284040722463 5.751478424889578 1 0 0
465 155 1 0.5897 -1.8064279631513092 -0.42983250509185567 8.75020505960699 0 0 0
417 139 1 0.5897 -8.826498787019235 1.0141290142506296 5.742737245801117 1 0 0
764 255 1 0.5897 -3.613710324811226 -1.3535688830210217 11.311981167772938 0 0 0
888 296 1 0.5897 -10.569250892786284 2.9089053887322898 14.99768443557106 0 0 0
772 258 2 -1.1794 -6.173379346934087 -2.0875349934868854 13.341101548895058 0 0 0
760 254 2 -1.1794 -8.73912890554904 1.58818024053528 12.572551107840729 0 0 0
762 254 1 0.5897 -9.218125173282349 2.0843820888273417 11.908763173986491 0 0 0
792 264 1 0.5897 -11.451258116851793 0.43164479401105815 14.277688707405261 0 0 0
837 279 1 0.5897 -11.149345629130824 -0.1684692040694138 11.883877304430278 1 0 0
896 299 1 0.5897 -8.07592447112063 2.3479708556836787 15.525879210611022 0 0 0
791 264 1 0.5897 -10.624594827386668 -0.8200649695829245 14.073324958819594 0 0 0
790 264 2 -1.1794 -10.804936618594358 0.038779976983297715 13.691042407755276 0 0 0
761 254 1 0.5897 -9.412872905054765 1.082372621079985 13.02685663806331 0 0 0
770 257 1 0.5897 -12.04137714986561 2.597097360254823 12.98929784289722 0 0 0
805 269 2 -1.1794 -4.748623898276634 2.7689946681687463 12.573327239526728 0 0 0
818 273 1 0.5897 -5.724060251876173 -1.7915257572173857 15.050681638030158 0 0 0
897 299 1 0.5897 -7.818845945248965 2.3134949448202793 14.034290921435957 0 0 0
835 279 2 -1.1794 -11.210798495964667 -0.4201561389231525 10.962370853622737 1 0 0
865 289 2 -1.1794 -12.769819062889372 0.9900080915221974 15.433340413226725 0 0 0
895 299 2 -1.1794 -7.4015689768408075 2.523716716672018 14.869702741446842 0 0 0
806 269 1 0.5897 -4.2350516946867796 2.9266266684858575 13.365538659120615 0 0 0
784 262 2 -1.1794 -6.258753466224139 0.39813045265957747 12.168018087286493 0 0 0
769 257 2 -1.1794 -12.48667427143199 2.42306694201749 12.160051887563442 0 0 0
786 262 1 0.5897 -7.135120205615983 0.7829831990709977 12.16590703896777 0 0 0
797 266 1 0.5897 -1.7714321136764593 1.14180253954577 13.049216970823919 0 0 0
836 279 1 0.5897 -11.320750525650018 -1.3708546220820539 10.980120691359469 1 0 0
773 258 1 0.5897 -6.196598180868604 -1.180683017153056 13.035567619888711 0 0 0
924 308 1 0.5897 -2.8374802829242336 2.9499844035714045 15.296447177269421 0 0 0
827 276 1 0.5897 -2.759436214580174 -0.6495439287225224 14.25062592059835 0 0 0
826 276 2 -1.1794 -2.950398252304492 0.20797970744218652 13.870535121939485 0 0 0
765 255 1 0.5897 -3.219026444208647 -0.13703502867277173 12.121970123726822 0 0 0
903 301 1 0.5897 -6.025534686587667 1.4561341665379253 15.226925767956716 0 0 0
785 262 1 0.5897 -5.681102348075827 1.118339296468255 12.42047097998768 0 0 0
901 301 2 -1.1794 -5.176896619689357 1.1270571016055175 15.522993547351135 0 0 0
828 276 1 0.5897 -3.7527863193779076 0.4913923817740482 14.308745230600271 0 0 0
771 257 1 0.5897 -11.842783111614565 2.6506511371570323 11.48935384564679 0 0 0
866 289 1 0.5897 -12.385431030025321 1.5728277433140558 16.088132584275257 0 0 0
763 255 2 -1.1794 -3.3083869841627083 -0.45085259823559376 11.222070227823238 0 0 0
819 273 1 0.5897 -5.329223711504614 -0.6285378111916842 15.935761495761858 0 0 0
817 273 2 -1.1794 -5.49276336314288 -1.5714984044685503 15.95309827688692 0 0 0
1294 432 2 -1.1794 -1.6934619692030939 2.4290443743604992 19.25081218249943 0 0 0
1218 406 1 0.5897 -13.304828703815275 2.9099698242943397 17.681721077863916 0 0 0
1247 416 1 0.5897 -5.691070960386234 -0.8096601348363617 19.532632580190842 0 0 0
1246 416 2 -1.1794 -6.455963494708812 -1.2246023167810574 19.931229076076477 0 0 0
1100 367 1 0.5897 -9.078242451147624 -0.890057437630233 17.345201252834677 0 0 0
1009 337 2 -1.1794 -11.40289051045556 3.463926964325424 20.780983121077877 0 -1 0
1260 420 1 0.5897 -10.134377459118777 2.722027072888988 19.685420984558352 0 0 0
1259 420 1 0.5897 -9.156035652879346 1.5674424974039578 19.644712215319363 0 0 0
1258 420 2 -1.1794 -9.408724290287399 2.3624268980372207 19.175201424019857 0 0 0
1285 429 2 -1.1794 -4.099329116912853 0.7668498445114889 21.500022319157907 0 0 0
1251 417 1 0.5897 -11.646813223500816 1.6476671595550183 21.578324404201965 0 0 0
1236 412 1 0.5897 -7.965959435790701 -0.3619207528409465 20.39581069753774 0 0 0
1235 412 1 0.5897 -9.433574204626485 -0.7217797041817278 20.30608300587332 0 0 0
1234 412 2 -1.1794 -8.843220796404214 0.014143680093868127 20.467380961462762 0 0 0
1197 399 1 0.5897 -9.643037706959184 2.3414314298116157 17.303836562680512 0 0 0
1216 406 2 -1.1794 -12.390593468344026 2.630756210175573 17.633445162772073 0 0 0
1206 402 1 0.5897 -11.202332082615547 -0.09428923187683225 18.356783278059034 0 0 0
1099 367 2 -1.1794 -9.928797796528547 -0.599926955482724 17.015786329677212 0 0 0
1250 417 1 0.5897 -11.766138990075723 0.36129572502339435 20.789087379635774 0 0 0
1204 402 2 -1.1794 -11.955223747034559 0.2197501112003799 18.857509390090495 0 0 0
1205 402 1 0.5897 -12.117593338757054 1.1005445395420335 18.519697332330903 0 0 0
1195 399 2 -1.1794 -9.678758422656998 2.017804398932089 16.40368179527066 0 0 0
1217 406 1 0.5897 -11.890542097614606 3.4468809370927076 17.627049863196106 0 0 0
1287 429 1 0.5897 -3.945194231225484 1.7112400921504243 21.475718956087373 0 0 0
1233 411 1 0.5897 -1.8037116525049797 2.2489576800212614 17.49057526228569 0 0 0
1196 399 1 0.5897 -9.782119447295038 1.0704216131434787 16.4932389746018 0 0 0
1232 411 1 0.5897 -1.986372925889448 1.0710907922488726 16.557221601490266 0 0 0
1295 432 1 0.5897 -1.5223949554138994 1.6018326116702166 19.701084198978748 0 0 0
1136 379 1 0.5897 -1.5663414544641814 -1.075080703748002 17.545364473999847 0 0 0
1271 424 1 0.5897 -1.7842807809914305 -0.7806302610552205 20.269963745974668 0 0 0
1254 418 1 0.5897 -5.713109973004183 3.103043598827181 17.94794681162707 0 0 0
1229 410 1 0.5897 -7.994097942756188 3.5007915763296413 18.67796144454302 0 0 0
1252 418 2 -1.1794 -4.872632588590122 2.6763443385480645 17.781580907838084 0 0 0
1135 379 2 -1.1794 -2.31373902925845 -0.665563499142694 17.109628165166672 0 0 0
1240 414 2 -1.1794 -4.372944309830089 0.17884122626099774 18.79807990265498 0 0 0
1241 414 1 0.5897 -4.509259148475815 1.0576259985219014 18.443912674669686 0 0 0
1270 424 2 -1.1794 -1.0713979184566629 -0.15761056413979446 20.41042554525737 0 0 0
1296 432 1 0.5897 -2.3169382349817287 2.885358935779495 19.815860260103726 0 0 0
1045 349 2 -1.1794 -3.494227871543984 3.44440617929569 21.079713074826625 0 -1 0
1286 429 1 0.5897 -4.09282139666811 0.4989321296775966 20.581066193837344 0 0 0
1242 414 1 0.5897 -3.7584801482270382 -0.2322665496438816 18.190082598009475 0 0 0
1253 418 1 0.5897 -4.254780010071914 3.3987811557216645 17.66988570996133 0 0 0
1137 379 1 0.5897 -2.5344976313174055 -1.2655863768909335 16.39726264811091 0 0 0
1272 424 1 0.5897 -0.27767816460649186 -0.650281246282086 20.201972904916513 0 0 0
1011 337 1 0.5897 -12.180543347086749 3.7898940679432815 20.328030052774462 0 -1 0
1231 411 2 -1.1794 -1.82302851802433 2.0142261610985344 16.562765551178686 0 0 0
1047 349 1 0.5897 -4.370989341575367 3.734123693191929 20.827769884001285 0 -1 0
1101 367 1 0.5897 -10.158606544943726 -1.2433008618645527 16.345356799157496 0 0 0
902 301 1 0.5897 -4.991237187240291 1.624481676207406 16.31945247414832 0 0 0
40 14 2 -1.1794 -15.08255649772242 3.9544878490089186 1.8553527846552342 1 0 0
177 59 1 0.5897 -14.044598831504056 4.533690376959733 3.2958134908372934 1 0 0
42 14 1 0.5897 -15.497730459246117 4.370132603301949 1.0996100069955137 1 0 0
101 34 1 0.5897 -4.197028438447951 3.3216480615577346 1.692251024602131 1 0 0
55 19 2 -1.1794 -13.190174500446515 6.214520436440743 0.7038472198548407 1 0 0
56 19 1 0.5897 -12.425166751497372 5.800269472674088 1.1030072880006132 1 0 0
66 22 1 0.5897 -13.551257658639054 3.10968875384013 1.5446169843968136 1 0 0
65 22 1 0.5897 -12.049529503139613 3.2518358626559856 1.4177879092544519 1 0 0
64 22 2 -1.1794 -12.74420079110111 2.597690674640633 1.4928470573449746 1 0 0
191 64 1 0.5897 -12.663673494599333 6.328667405105467 3.993171629848718 1 0 0
162 54 1 0.5897 -14.462365663148525 6.6935763402419735 2.0287617166079066 1 0 0
183 61 1 0.5897 -12.20483311230345 3.7752418937258536 4.528389223682778 1 0 0
181 61 2 -1.1794 -11.420160476312128 3.3446701843750954 4.867596863735467 1 0 0
176 59 1 0.5897 -14.23018375948863 4.6375349746136845 4.794780115742494 1 0 0
175 59 2 -1.1794 -13.592988397305707 4.795428454590924 4.098154069275591 1 0 0
108 36 1 0.5897 -10.128190825798852 2.8778695935841405 3.650068359787971 1 0 0
111 37 1 0.5897 -4.447233991287035 3.5091881920185255 4.344336877045594 0 0 0
190 64 2 -1.1794 -12.010858443489965 7.025203888233838 4.062259106929247 1 0 0
45 15 1 0.5897 -9.718333739437833 2.2662738473077013 1.3961975451355493 1 0 0
211 71 2 -1.1794 -5.9611169966877995 4.608520560733938 4.125202647340726 1 0 0
85 29 2 -1.1794 -10.89269953275855 4.7211521173173825 1.5995552665913029 1 0 0
192 64 1 0.5897 -11.177227479109108 6.564258163734024 4.15573067641998 1 0 0
86 29 1 0.5897 -10.50710644964716 4.906513723328661 2.4558262525592247 1 0 0
106 36 2 -1.1794 -9.33333112043388 2.5898874692147107 3.2012377519311155 1 0 0
100 34 2 -1.1794 -4.75188644451948 2.5438787054804592 1.7501216825956605 1 0 0
204 68 1 0.5897 -9.168148304189565 5.144380042469379 4.5195215311879915 1 0 0
76 26 2 -1.1794 -7.155806273054618 3.699578663383276 1.850463315880436 1 0 0
77 26 1 0.5897 -7.857286376764675 3.3140414606102464 2.375316897217901 1 0 0
78 26 1 0.5897 -7.568339351888883 4.439479865497802 1.4047767857596107 1 0 0
203 68 1 0.5897 -8.969098974799152 6.107149055870554 3.3681942735468815 1 0 0
202 68 2 -1.1794 -9.648010827741357 5.644401388143395 3.8592350877321926 1 0 0
102 34 1 0.5897 -5.643115740333838 2.8766461484113606 1.644755608379957 1 0 0
87 29 1 0.5897 -10.180154899329148 4.870082213574186 0.9780233222628588 1 0 0
213 71 1 0.5897 -6.345680521454191 4.368334831159535 3.282198677573449 1 0 0