LAMMPS data file via write_data, version 30 Jul 2021, timestep = 33750000

864 atoms
2 atom types
576 bonds
1 bond types
288 angles
1 angle types

0.14915534052987134 18.0584170594684 xlo xhi
0.21164256532404302 23.417535234691364 ylo yhi
0.07888779492679632 22.134308005063986 zlo zhi

Masses

1 1.00794
2 15.9994

Atoms # full

707 1 1 0.5897 3.1845910762570275 1.9862120809553616 3.930309948749086 0 0 0
706 1 2 -1.1794 3.2126090738854516 2.044247734225949 2.975386612756602 0 0 0
30 1 1 0.5897 5.480012283041755 4.154683280726859 2.234790499974135 0 0 0
708 1 1 0.5897 2.4200328330005867 2.526789411329976 2.7409444318288756 0 0 0
29 1 1 0.5897 4.681785928293368 2.871739719668696 2.1434079277454186 0 0 0
28 1 2 -1.1794 5.494194047842988 3.280505230523175 1.8452982643806042 0 0 0
3 1 1 0.5897 0.8544771345662081 4.2186154446376865 2.475598376236073 0 0 0
20 1 1 0.5897 0.7275776370262789 3.148984978336854 0.5197873980038386 0 0 0
495 1 1 0.5897 8.277703762250091 2.1680386746526565 2.6592665148554264 0 0 0
494 1 1 0.5897 6.77426513823722 2.3072446522188685 2.552485140317883 0 0 0
493 1 2 -1.1794 7.458723089536852 1.8287416419323133 3.0199692079362177 0 0 0
1 1 2 -1.1794 0.9385917742535258 3.2865077579002455 2.275083955128359 0 0 0
846 1 1 0.5897 7.479257395302219 1.8723166934740552 4.844676243043328 0 0 0
597 1 1 0.5897 0.8669787718573941 5.834505042810297 3.9614777978897022 0 0 0
2 1 1 0.5897 0.15158401446713066 2.88896916790259 2.64731509207712 0 0 0
595 1 2 -1.1794 0.8677180505606767 5.932791103894644 3.0094466585979136 0 0 0
136 1 2 -1.1794 5.16310530922037 5.711026563807972 2.860323577780412 0 0 0
137 1 1 0.5897 5.22320829319887 5.827768212207531 3.8083638800392086 0 0 0
188 1 1 0.5897 3.126731218043996 0.3254716602658121 2.5606651067760886 0 1 0
83 1 1 0.5897 4.650931687403434 2.859843163429379 6.335463720423215 0 0 0
183 1 1 0.5897 0.9459801989553165 4.975865331829045 6.125263208708258 0 0 0
82 1 2 -1.1794 5.383987322438701 3.375730514262734 6.670833055352184 0 0 0
785 1 1 0.5897 0.9188682757014762 3.3142063279752656 7.784755542695222 0 0 0
674 1 1 0.5897 3.9712103128830867 2.467353320239576 9.980430823507081 0 0 0
356 1 1 0.5897 7.383559416161642 1.1317890963879744 10.103340247385876 0 0 0
419 1 1 0.5897 9.06482150456211 2.6783394916426233 6.423975416980585 0 0 0
845 1 1 0.5897 7.441484557600512 1.0710487662746953 6.128417008881152 0 0 0
181 1 2 -1.1794 0.9731928507010693 5.854547864704678 5.74674339783623 0 0 0
673 1 2 -1.1794 3.1479251889408384 2.146428375179462 10.348091309751405 0 0 0
34 1 2 -1.1794 0.731176888700448 3.366417416598191 9.589423578074209 0 0 0
274 1 2 -1.1794 5.329849871075244 3.356650661527633 9.324262528059585 0 0 0
678 1 1 0.5897 5.217932190484991 4.917676709085381 9.989343428062673 0 0 0
35 1 1 0.5897 0.6922894753662235 4.254491053579561 9.944258491051489 0 0 0
36 1 1 0.5897 1.5801491604896676 3.030359335706872 9.876233188992847 0 0 0
355 1 2 -1.1794 7.509132803036401 2.054940888656623 10.322720053679856 0 0 0
488 1 1 0.5897 2.3963124433047795 2.5084631188104867 6.1319873668335525 0 0 0
84 1 1 0.5897 6.160450366717545 2.8628326004625193 6.447130284132325 0 0 0
276 1 1 0.5897 6.162070470303594 2.9682755073158282 9.59358451762041 0 0 0
675 1 1 0.5897 3.0716603491877343 1.2505175272031537 10.020024359466445 0 0 0
275 1 1 0.5897 5.373053620917854 3.377712239719075 8.36837982606358 0 0 0
686 1 1 0.5897 5.2224111208164095 5.0314882984071545 5.985101302606834 0 0 0
784 1 2 -1.1794 0.9795566237109722 3.2736365486068237 6.830455899760772 0 0 0
489 1 1 0.5897 3.0492185468171855 1.1427536184356788 6.138831109017834 0 0 0
112 1 2 -1.1794 0.5668779478618109 5.99212047320514 10.338740654223429 0 0 0
176 1 1 0.5897 8.990726662861643 2.8601990257794534 9.725484922360417 0 0 0
844 1 2 -1.1794 7.565869622698129 1.9591444061581316 5.7938755435907465 0 0 0
676 1 2 -1.1794 5.203180717388277 5.793194392662251 10.37579625025523 0 0 0
487 1 2 -1.1794 3.132763346386582 2.019800247598215 5.764793911348933 0 0 0
786 1 1 0.5897 0.1521381557827226 2.880117610545679 6.553897791437167 0 0 0
685 1 2 -1.1794 5.161161186554766 5.931391244585974 5.664907307623215 0 0 0
166 1 2 -1.1794 3.081911303000497 1.8816646929628968 13.116731471892578 0 0 0
167 1 1 0.5897 3.104625151267688 1.9071576061098783 12.160253018865067 0 0 0
457 1 2 -1.1794 5.2150155961657685 3.2977293640021212 14.037518495204438 0 0 0
458 1 1 0.5897 5.987499414089131 2.8272008011495093 13.724718238942836 0 0 0
459 1 1 0.5897 4.47467348086193 2.808789473256609 13.678607433871507 0 0 0
762 1 1 0.5897 5.164435060998192 4.992893422146726 13.536704643355028 0 0 0
594 1 1 0.5897 8.305068142951951 2.366533759090745 13.378915365761676 0 0 0
168 1 1 0.5897 2.324495587665565 2.416857098026391 13.353116429107306 0 0 0
468 1 1 0.5897 0.8328194232355698 3.2603508917301416 14.793665545122415 0 0 0
466 1 2 -1.1794 0.9276465897198445 3.328749188794094 13.843745300725146 0 0 0
593 1 1 0.5897 7.507922057636397 1.0802886219806234 13.339003902473248 0 0 0
592 1 2 -1.1794 7.460514254091758 2.007686389789858 13.107017352165306 0 0 0
365 1 1 0.5897 0.740527356246204 4.957294613650705 13.339126096962191 0 0 0
71 1 1 0.5897 5.203057660489543 3.2667147416034865 15.836914852057605 0 0 0
357 1 1 0.5897 7.607288735279934 2.0641301257092968 11.274719403431813 0 0 0
737 1 1 0.5897 2.8903340731272738 0.24780084056425492 13.836779119534269 0 1 0
364 1 2 -1.1794 0.5652245339755779 5.861059480945155 13.077265810913078 0 0 0
467 1 1 0.5897 0.2122224891094403 2.7989214983774073 13.49240471057598 0 0 0
761 1 1 0.5897 5.092502686427761 5.8103280629386935 12.264676473020915 0 0 0
760 1 2 -1.1794 5.175116156305568 5.894102083690419 13.214505202295506 0 0 0
133 1 2 -1.1794 0.7398670454631812 3.180833879420522 16.592697222966283 0 0 0
113 1 1 0.5897 0.5411592032449367 5.955021850871784 11.294763438615387 0 0 0
754 1 2 -1.1794 7.654366716793522 1.88508629481697 17.60720441764423 0 0 0
21 1 1 0.5897 0.520572511139979 3.8792669229755634 21.265532661016106 0 0 0
144 1 1 0.5897 5.174058378293277 5.68369029325795 19.288143618162273 0 0 0
755 1 1 0.5897 7.564729910718773 1.9006609568981354 18.559960757031618 0 0 0
290 1 1 0.5897 2.894280231253506 1.1906318710584798 17.554204791155154 0 0 0
42 1 1 0.5897 7.35087527478115 1.060215164197666 20.6698087046387 0 0 0
289 1 2 -1.1794 2.968992273533959 2.122647813610712 17.758825510409896 0 0 0
41 1 1 0.5897 6.585423778766143 2.3615310680415074 20.559653049198946 0 0 0
143 1 1 0.5897 5.207595592751377 4.953862468821947 20.613903562351293 0 0 0
569 1 1 0.5897 2.084783503518078 2.313729161438828 20.864990996394926 0 0 0
291 1 1 0.5897 2.2321994108186534 2.5284134765880606 17.302246685097856 0 0 0
570 1 1 0.5897 2.824697066627149 2.0871770825467237 19.564025589721112 0 0 0
40 1 2 -1.1794 7.391192441160524 1.930959367910945 20.274496836515937 0 0 0
323 1 1 0.5897 7.590946810473784 0.26058366865711946 17.128910115096613 0 1 0
667 1 2 -1.1794 5.184745208379952 3.3769092174344832 21.181836254083812 0 0 0
134 1 1 0.5897 0.7406595580837247 4.027156467391929 17.03971675418931 0 0 0
568 1 2 -1.1794 2.9094624354839365 1.98081117912469 20.511400413126495 0 0 0
756 1 1 0.5897 6.877161523901992 2.341688289919868 17.285567353186085 0 0 0
669 1 1 0.5897 4.359682967078141 2.9090832719828716 21.053867055099595 0 0 0
278 1 1 0.5897 5.2215230874755445 4.955003160619731 17.311819744914906 0 0 0
19 1 2 -1.1794 0.5416432787666234 3.002091566294155 21.647915939724736 0 0 0
142 1 2 -1.1794 5.2060743408623 5.831987862042084 20.233133086868385 0 0 0
72 1 1 0.5897 4.551895202625135 2.746250634926843 17.100420833195955 0 0 0
646 1 2 -1.1794 0.6354005194101415 5.5507349433707756 20.630659078577384 0 0 0
648 1 1 0.5897 0.5372341106539733 5.567364716849308 19.67875867343724 0 0 0
70 1 2 -1.1794 5.335178097470071 3.1947029276911323 16.782101108828137 0 0 0
277 1 2 -1.1794 5.275602036296331 5.883529249260704 17.5376935923012 0 0 0
668 1 1 0.5897 5.326239351464479 3.359376814406914 22.128245122965094 0 0 -1
360 1 1 0.5897 8.734055897638418 2.689353660382205 20.995249622814924 0 0 0
462 1 1 0.5897 9.017940863368526 5.961173173968954 20.488015060942583 0 0 0
571 1 2 -1.1794 0.663101604386668 5.6813139958778915 17.762754855873162 0 0 0
253 1 2 -1.1794 3.0407678408755365 7.055146304069943 1.7351855848121889 0 0 0
123 1 1 0.5897 3.2042941168294816 8.833424311652717 2.340577106557188 0 0 0
121 1 2 -1.1794 3.1665374977877034 9.755609773246217 2.5940622723050617 0 0 0
122 1 1 0.5897 3.1158473265928395 9.739904538138585 3.549679819835695 0 0 0
44 1 1 0.5897 1.5183148439231777 10.420125749417926 2.3410103341360142 0 0 0
218 1 1 0.5897 6.168464904051675 10.583615677826286 2.1889232753704086 0 0 0
255 1 1 0.5897 2.2316741825906607 6.621234612745807 2.0054721654907244 0 0 0
219 1 1 0.5897 4.658501746315101 10.688781027759925 2.1791720199201863 0 0 0
43 1 2 -1.1794 0.6880401793392329 10.886216436485066 2.244235204598823 0 0 0
415 1 2 -1.1794 7.379801346351225 6.9748908587624445 1.7201055319513798 0 0 0
417 1 1 0.5897 8.166965837008439 6.568965622954873 2.0828200811778026 0 0 0
254 1 1 0.5897 3.019878221547309 7.027597374687839 0.7787211048414092 0 0 0
217 1 2 -1.1794 5.4504635074232874 11.139641683503822 1.8867582259585027 0 0 0
66 1 1 0.5897 7.430120831691693 9.49741010794705 3.6837678713546596 0 0 0
65 1 1 0.5897 7.451499744744929 8.636817667653817 2.4386349025127974 0 0 0
64 1 2 -1.1794 7.493594900619954 9.54751678114852 2.7301024968791685 0 0 0
416 1 1 0.5897 6.65763060974772 6.455307784393514 2.0729362096015587 0 0 0
773 1 1 0.5897 8.96298106012377 10.373414719733574 2.1675719626391934 0 0 0
396 1 1 0.5897 0.6476846033444836 11.033065168537192 0.48184762302567136 0 0 0
138 1 1 0.5897 4.363032957994558 6.173749347575238 2.6118280108446243 0 0 0
793 1 2 -1.1794 3.1694863540568488 9.639354652873026 5.296229492442742 0 0 0
45 1 1 0.5897 0.8525050443502604 11.75036364190261 2.621445285624226 0 0 0
363 1 1 0.5897 5.466594224105967 10.904554410093361 0.1254353258904382 0 0 1
712 1 2 -1.1794 7.344142408070086 9.505771418674147 5.555981089396416 0 0 0
256 1 2 -1.1794 2.8871775364829397 9.760731820679922 10.461819058248388 0 0 0
12 1 1 0.5897 3.0351021732527097 8.05751481595152 6.289710871715962 0 0 0
10 1 2 -1.1794 2.994511517136179 7.258353547398279 6.814851439408864 0 0 0
687 1 1 0.5897 4.341156888458343 6.26138960665797 6.031867337394368 0 0 0
526 1 2 -1.1794 7.503006307564875 6.929088278091196 9.324083204317033 0 0 0
577 1 2 -1.1794 5.167729669339506 10.692772714107154 6.762719964835567 0 0 0
145 1 2 -1.1794 7.582451557993213 6.965363383962117 6.503028921634314 0 0 0
551 1 1 0.5897 0.8728205828875204 10.681246240546352 7.516694304758312 0 0 0
794 1 1 0.5897 2.3991279450642162 10.008166678601341 5.728074115846781 0 0 0
580 1 2 -1.1794 5.282381853821785 10.82485389642628 9.51768185631202 0 0 0
650 1 1 0.5897 2.9692456016744604 7.217763258082093 8.670237647168133 0 0 0
822 1 1 0.5897 8.190260860667756 9.893997909405199 10.015413792564873 0 0 0
527 1 1 0.5897 7.468868893853094 7.796745868373895 9.72669273549369 0 0 0
15 1 1 0.5897 1.3839236638720338 10.358546367284687 9.731978068149056 0 0 0
582 1 1 0.5897 5.275763886317647 10.67446073531186 8.57249876952737 0 0 0
820 1 2 -1.1794 7.441854351618764 9.42997684641121 10.390312264957775 0 0 0
581 1 1 0.5897 6.008848933261853 10.291841333175638 9.8403858445319 0 0 0
147 1 1 0.5897 7.525187408277387 7.010595951512055 7.457339249842633 0 0 0
649 1 2 -1.1794 2.941997744936335 7.159356078458341 9.625163894770491 0 0 0
528 1 1 0.5897 8.254075122418268 6.502601285901994 9.736367211965677 0 0 0
13 1 2 -1.1794 0.5670727463762117 10.676232429068666 9.347551830960207 0 0 0
258 1 1 0.5897 3.6379512705939243 10.205406964895284 10.06865689431515 0 0 0
713 1 1 0.5897 8.040919538396821 10.048496808736413 5.924684596815968 0 0 0
257 1 1 0.5897 2.9991953726361453 8.841397663392307 10.220205891621708 0 0 0
146 1 1 0.5897 6.735005791986448 6.615810668018969 6.228072259394075 0 0 0
578 1 1 0.5897 5.904541890193588 10.227241841660062 6.367284373386898 0 0 0
550 1 2 -1.1794 0.874995405377127 10.652594424097485 6.560038041636897 0 0 0
714 1 1 0.5897 7.492622034326246 8.637520157433466 5.930391281519219 0 0 0
651 1 1 0.5897 3.7335194390058755 6.674623716909337 9.858613496951202 0 0 0
11 1 1 0.5897 2.274420321793768 6.756644820127488 6.43309052979859 0 0 0
795 1 1 0.5897 3.9121240807665907 10.05124545676078 5.73759937565353 0 0 0
114 1 1 0.5897 1.3937536716971595 6.430120020544735 10.137756995558526 0 0 0
677 1 1 0.5897 6.016752849801923 6.200388940104824 10.078716737638576 0 0 0
165 1 1 0.5897 8.983517276685983 6.043957543429205 5.983457997392871 0 0 0
552 1 1 0.5897 0.7726438563625659 11.565823030210563 6.292389043853386 0 0 0
182 1 1 0.5897 0.15634325517650183 6.2639421935566 6.031562292143789 1 0 0
579 1 1 0.5897 5.219496464007716 11.576748271348972 6.399401995979251 0 0 0
14 1 1 0.5897 0.5944488176813412 11.62438975174483 9.475429772840945 0 0 0
826 1 2 -1.1794 7.498286926699186 7.273709740205609 13.88174572397851 0 0 0
827 1 1 0.5897 6.663668749487189 6.8772926961239635 13.632302018458775 0 0 0
332 1 1 0.5897 2.7957990815261855 8.000421019722637 13.714770096086411 0 0 0
797 1 1 0.5897 2.7796718039136357 9.751677005695441 12.224161502854429 0 0 0
796 1 2 -1.1794 2.7766682702268577 9.673866013775001 13.17807917588012 0 0 0
798 1 1 0.5897 2.0914338476265537 10.276899475883877 13.465863265968263 0 0 0
722 1 1 0.5897 4.3285022212612745 10.526188795334685 13.649399590174529 0 0 0
261 1 1 0.5897 0.8242249595262036 11.198487086258057 14.856267801489855 0 0 0
723 1 1 0.5897 5.119757201291462 11.000864195866926 14.849361991881391 0 0 0
828 1 1 0.5897 7.524878614202571 7.1969745253321245 14.835383772806404 0 0 0
259 1 2 -1.1794 0.6890021332521594 11.253552519356283 13.91038158758727 0 0 0
331 1 2 -1.1794 2.761986614901042 7.1130135281104625 14.071792305138938 0 0 0
225 1 1 0.5897 2.8398114268577 6.946442982352014 15.86587428257468 0 0 0
721 1 2 -1.1794 5.126339792626587 10.995677072644035 13.892310892354105 0 0 0
475 1 2 -1.1794 7.552753079167928 9.877140131626266 13.053573454871938 0 0 0
476 1 1 0.5897 6.679544281043348 10.116640205883844 13.363553100398345 0 0 0
477 1 1 0.5897 7.662068316419226 8.965758857544232 13.324770398426192 0 0 0
333 1 1 0.5897 3.6040247924736777 6.7259445002055545 13.832820442973263 0 0 0
366 1 1 0.5897 1.2996615039650257 6.3608675351406045 13.433330057829142 0 0 0
821 1 1 0.5897 7.553662681642601 9.51926761321025 11.336643134597608 0 0 0
851 1 1 0.5897 8.927804026333364 6.327414048664466 13.427066493581885 0 0 0
104 1 1 0.5897 9.018116704582118 10.776914909691136 13.678258576409236 0 0 0
520 1 2 -1.1794 7.557007191445191 7.065620911400054 16.603678182009542 0 0 0
679 1 2 -1.1794 5.273241948493225 10.975994155593483 16.61228903111271 0 0 0
521 1 1 0.5897 6.7678090629393 6.630300005092703 16.92559788234096 0 0 0
141 1 1 0.5897 7.671104662436582 8.650440306911738 20.43405454661455 0 0 0
361 1 2 -1.1794 5.335856019985184 10.804819305380894 21.23799766715716 0 0 0
9 1 1 0.5897 6.836286288266782 10.164001460755566 17.033484472653672 0 0 0
4 1 2 -1.1794 2.905779053972328 6.953959815545249 21.08823908330661 0 0 0
627 1 1 0.5897 2.3754433507726525 10.155814778413916 17.25687346335997 0 0 0
394 1 2 -1.1794 0.7679217226124553 10.959069395654264 21.590649342178107 0 0 0
279 1 1 0.5897 4.391748314524993 6.218763987168873 17.388112135455106 0 0 0
140 1 1 0.5897 6.759619793356789 9.846075073716031 20.610308180641493 0 0 0
161 1 1 0.5897 6.870646461563535 6.561158589529417 20.703990039282278 0 0 0
690 1 1 0.5897 2.245268541601057 10.203114890589868 20.630286063014164 0 0 0
625 1 2 -1.1794 3.0987392224742503 9.597346985970733 17.541392262995792 0 0 0
688 1 2 -1.1794 2.9315464883705062 9.663191427781396 20.2384797932946 0 0 0
647 1 1 0.5897 1.4419034512869229 6.038346631419428 20.797269250348034 0 0 0
224 1 1 0.5897 2.7958809564948375 7.853204578823502 17.07719240108147 0 0 0
689 1 1 0.5897 3.744338526537481 9.99378072871589 20.620623093232286 0 0 0
447 1 1 0.5897 0.22602786816037224 10.767156526068852 17.029489424675855 1 0 0
626 1 1 0.5897 3.076243418730069 9.643861333663097 18.49708705209004 0 0 0
139 1 2 -1.1794 7.564387586315356 9.565601022779028 20.17483178828614 0 0 0
6 1 1 0.5897 2.8848648218885447 7.860966713054162 20.783242887135746 0 0 0
362 1 1 0.5897 5.247145062002832 11.700338109946086 20.91200042329441 0 0 0
8 1 1 0.5897 7.488436097776584 9.689978779624594 18.314632576376727 0 0 0
7 1 2 -1.1794 7.603739413300231 9.69775249967199 17.364548182622745 0 0 0
160 1 2 -1.1794 7.671198707205746 6.9224464277750535 21.084181223125654 0 0 0
5 1 1 0.5897 3.7380358284499398 6.6106924240847444 20.763465218303644 0 0 0
522 1 1 0.5897 7.491772926833173 7.9596474870102005 16.93917370224532 0 0 0
680 1 1 0.5897 4.4519676198824945 10.553546389763948 16.86331518525655 0 0 0
445 1 2 -1.1794 0.9709444799023572 11.219708460102463 16.634177834950616 0 0 0
223 1 2 -1.1794 2.848397393132704 6.931989352438421 16.82281689106282 0 0 0
287 1 1 0.5897 8.886906157711914 10.48264258114673 20.981663126705314 0 0 0
711 1 1 0.5897 8.95079977607314 6.182641613205266 17.05525405744784 0 0 0
572 1 1 0.5897 1.5090590563925572 6.0859388932829175 17.57145945708144 0 0 0
162 1 1 0.5897 7.532820680621378 6.869732285159306 22.029745563595004 0 0 0
200 1 1 0.5897 5.250342527514821 13.283452088135128 4.914430343820192 0 0 0
173 1 1 0.5897 4.639083187866665 13.964761529628245 2.843658112744242 0 0 0
172 1 2 -1.1794 5.453884421316319 13.577476200188148 3.163141961486502 0 0 0
374 1 1 0.5897 0.7101925390022475 13.43796310357082 3.9589177857448026 0 0 0
558 1 1 0.5897 3.1066977091791905 14.96798103908886 1.3432999244953643 0 0 0
556 1 2 -1.1794 3.1013146962238443 14.9136425451645 2.298830418044352 0 0 0
557 1 1 0.5897 2.2495843698696847 14.533182623778872 2.512748929984453 0 0 0
478 1 2 -1.1794 7.614707542458468 14.814527359320259 2.2025084515513025 0 0 0
174 1 1 0.5897 5.496654623180369 12.722019258200353 2.735998465834069 0 0 0
293 1 1 0.5897 2.991905234112313 16.6524788941908 2.7361738950285877 0 0 0
479 1 1 0.5897 8.379275535579168 14.344309035962874 2.5346344496921644 0 0 0
449 1 1 0.5897 7.436004818598362 16.586608940873205 2.8066783167906366 0 0 0
480 1 1 0.5897 6.870144834830941 14.399418853243693 2.6375750034283802 0 0 0
373 1 2 -1.1794 0.8457296201656279 13.487872219675486 3.0127896101601794 0 0 0
308 1 1 0.5897 7.447918859060784 17.55849780975953 4.929820297153281 0 0 0
448 1 2 -1.1794 7.461952329968435 17.468841089496344 3.176935287467274 0 0 0
294 1 1 0.5897 3.028714891817889 17.469723513661556 4.009823126874082 0 0 0
292 1 2 -1.1794 2.8905724528339842 17.545336237999877 3.0657715210119356 0 0 0
317 1 1 0.5897 7.501959474145675 14.67343076081993 0.371768974770216 0 0 0
384 1 1 0.5897 2.9568391921407082 16.46618234471886 9.888113495173506 0 0 0
656 1 1 0.5897 1.3888743023719459 13.810107672318647 6.033594878111331 0 0 0
454 1 2 -1.1794 5.1941561644522745 13.545757012947975 10.20319157832677 0 0 0
307 1 2 -1.1794 7.476072265032288 17.50550358150246 5.885026100466543 0 0 0
811 1 2 -1.1794 2.9598442710947057 14.848934804199377 9.175651891783128 0 0 0
456 1 1 0.5897 5.267556409065963 12.617485129964496 9.9817753958767 0 0 0
813 1 1 0.5897 2.264813358528828 14.28465907605185 9.514058127018094 0 0 0
17 1 1 0.5897 2.8471385076267963 14.720212138497615 7.455967942337423 0 0 0
766 1 2 -1.1794 0.8559710302251708 13.452114090432424 10.055160731679356 0 0 0
239 1 1 0.5897 3.1323959728115933 16.55305424658539 5.961147913215161 0 0 0
377 1 1 0.5897 6.749331477163083 14.371178978447782 9.762514159719641 0 0 0
184 1 2 -1.1794 7.606197152329375 17.50146415740148 10.3534509718373 0 0 0
519 1 1 0.5897 8.051947085806038 14.468478560231752 6.427689413551242 0 0 0
812 1 1 0.5897 3.7701327845724397 14.389263476351195 9.394973359137182 0 0 0
18 1 1 0.5897 3.666812887020749 14.207034475429788 6.291453540494099 0 0 0
376 1 2 -1.1794 7.4701083552556895 14.899890137823654 9.420542258598356 0 0 0
16 1 2 -1.1794 2.9035337494633966 14.745115578360267 6.500867277567073 0 0 0
517 1 2 -1.1794 7.210811339260868 14.82045867349092 6.718477822498805 0 0 0
186 1 1 0.5897 7.566102200110501 16.611264739562294 10.0041211389068 0 0 0
378 1 1 0.5897 7.33895378090456 14.899894376005498 8.472480926111386 0 0 0
518 1 1 0.5897 7.191803952090989 15.712915347350428 6.373139104185567 0 0 0
201 1 1 0.5897 5.933285917739976 13.6654812436009 6.210178706754148 0 0 0
199 1 2 -1.1794 5.11851925750613 13.303524263331026 5.862184563904124 0 0 0
382 1 2 -1.1794 2.798301971473203 17.31088929436652 10.309325592708248 0 0 0
59 1 1 0.5897 8.879362565019619 13.886175039171606 10.013064081581156 0 0 0
655 1 2 -1.1794 0.6270344714849458 13.278051536488325 5.804466011071369 0 0 0
238 1 2 -1.1794 3.0922393102822934 17.49328405151821 5.786626624734337 0 0 0
767 1 1 0.5897 0.928803118313611 13.549180397688126 11.004524719644888 0 0 0
296 1 1 0.5897 7.349861844674467 15.156180354617922 14.935351032540378 0 0 0
232 1 2 -1.1794 2.9268272966379705 14.747743136267554 14.047915154891916 0 0 0
234 1 1 0.5897 3.0229920777123946 14.67000260249128 14.996987080721462 0 0 0
606 1 1 0.5897 2.8613381068844586 16.333150449262398 13.40730059696327 0 0 0
427 1 2 -1.1794 5.224605681019217 13.648419850746444 12.987034421313696 0 0 0
233 1 1 0.5897 3.741150336397668 14.39041917865942 13.694144109218794 0 0 0
639 1 1 0.5897 1.4227885259054005 14.123798163936996 13.217331952643104 0 0 0
429 1 1 0.5897 5.908103037226382 14.139140207531554 13.443121262879732 0 0 0
428 1 1 0.5897 5.247270984298935 12.778447629558745 13.38545135803986 0 0 0
637 1 2 -1.1794 0.6187000329582537 13.77801682918133 12.83022881783533 0 0 0
638 1 1 0.5897 0.5411388822993273 12.893646398073772 13.187970462417443 0 0 0
295 1 2 -1.1794 7.35849142810379 15.157253453333654 13.97830010431712 0 0 0
270 1 1 0.5897 7.193672988917426 16.913553564469545 13.396652605686958 0 0 0
297 1 1 0.5897 8.195230610555951 14.755261189301823 13.745431071934746 0 0 0
604 1 2 -1.1794 2.7699016252786457 17.215303762706924 13.047335631810155 0 0 0
455 1 1 0.5897 5.17776137949183 13.563653244100319 11.159973734744304 0 0 0
605 1 1 0.5897 2.776034221598495 17.089140193683072 12.098616298545963 0 0 0
715 1 2 -1.1794 3.000958207687797 17.414333864899262 20.61010987018201 0 0 0
664 1 2 -1.1794 3.220288192941506 14.812699220015924 21.519593460608675 0 0 0
824 1 1 0.5897 3.8521317985102344 14.296640528027199 17.203472108492786 0 0 0
51 1 1 0.5897 8.252434280627721 14.440945465568273 17.11777076143026 0 0 0
610 1 2 -1.1794 7.532844822454565 17.320188851611583 17.9357405557625 0 0 0
452 1 1 0.5897 0.7872923490388628 12.730396071360467 20.857448526946392 0 0 0
125 1 1 0.5897 5.402980894838918 13.479725217718332 18.652714051323375 0 0 0
124 1 2 -1.1794 5.299394909425414 13.431640419859832 17.70246009068236 0 0 0
684 1 1 0.5897 4.628959424844605 13.96132134070002 20.78414095704523 0 0 0
716 1 1 0.5897 2.991218306095687 17.44180772383649 19.65346396775249 0 0 0
666 1 1 0.5897 3.1824275727345204 15.729376724870939 21.24687917662399 0 0 0
316 1 2 -1.1794 7.60550911733613 14.648538306062944 21.47604470456684 0 0 0
52 1 2 -1.1794 0.8130692457466455 13.742233348819534 17.689824817504064 0 0 0
318 1 1 0.5897 7.455616885785928 15.551002910741614 21.194648611344594 0 0 0
665 1 1 0.5897 2.400388052837232 14.434026788039713 21.202826100898765 0 0 0
584 1 1 0.5897 3.0594065087530344 16.513887293395193 17.44695189992115 0 0 0
683 1 1 0.5897 6.142540147150447 13.966347022996136 20.771849317169774 0 0 0
126 1 1 0.5897 5.996001731916475 13.98943917934286 17.35661386444606 0 0 0
682 1 2 -1.1794 5.3838514278623135 13.541806448917995 20.371682644351242 0 0 0
50 1 1 0.5897 7.421675435576584 15.689068169972046 17.326283530466796 0 0 0
53 1 1 0.5897 0.7199178649065541 13.644473765131401 18.637345741008836 0 0 0
451 1 2 -1.1794 0.8561301404827517 13.559520387731354 20.384267639673553 0 0 0
825 1 1 0.5897 2.367795890939252 14.591601236529167 17.23294246997312 0 0 0
583 1 2 -1.1794 3.0210634537380683 17.353209982443246 17.905393536492177 0 0 0
157 1 2 -1.1794 7.354418141366858 17.291581469487582 20.708868033020575 0 0 0
159 1 1 0.5897 7.4397140354025835 17.25915778308689 19.756138450856167 0 0 0
49 1 2 -1.1794 7.436207948794178 14.860831647419971 16.84679159914257 0 0 0
446 1 1 0.5897 0.8615633152463049 12.134361954397134 16.894066698626876 0 0 0
681 1 1 0.5897 5.249788648420888 11.826184706359093 17.051287052422236 0 0 0
823 1 2 -1.1794 3.1876698839384634 14.874219858374765 16.82811494529929 0 0 0
267 1 1 0.5897 6.032435540629588 21.734950961670783 2.73535680488545 0 0 0
696 1 1 0.5897 1.467954848156101 21.98254194715711 2.807723408735857 0 0 0
266 1 1 0.5897 4.521716350508452 21.71520531908385 2.8273880765800663 0 0 0
265 1 2 -1.1794 5.303092300406399 21.236594409266594 3.103721454970729 0 0 0
344 1 1 0.5897 1.504606405971875 18.388496638240646 2.497496290970919 0 0 0
228 1 1 0.5897 5.215485124568918 19.620079562948966 2.4424836630101936 0 0 0
343 1 2 -1.1794 0.7699702741045454 18.922990787042416 2.196479380762923 0 0 0
817 1 2 -1.1794 7.434195686975869 22.53138251148087 2.0853026542276982 0 0 0
249 1 1 0.5897 5.327379325448131 21.238558067337195 4.970454651468091 0 0 0
226 1 2 -1.1794 5.217783657040064 18.731848812347366 2.085901263640477 0 0 0
187 1 2 -1.1794 3.058660405551324 22.601883426744024 2.342615314185106 0 0 0
695 1 1 0.5897 0.763870048765615 20.642626334127975 2.8269247349797544 0 0 0
694 1 2 -1.1794 0.7116136050907887 21.530289938789842 3.181075451335984 0 0 0
818 1 1 0.5897 8.291368490081448 22.173086469138248 2.3151588838119697 0 0 0
321 1 1 0.5897 8.97980593881228 18.251385357241546 2.393070999024487 0 0 0
189 1 1 0.5897 3.1253209652193017 22.57379974657352 1.3882648908316253 0 0 0
413 1 1 0.5897 0.8182284343748969 21.5398550511946 4.944682439746698 0 0 0
227 1 1 0.5897 4.417448944739266 18.33384679480077 2.4279855744792584 0 0 0
345 1 1 0.5897 0.8120411932469656 18.87274940984654 1.2416372652067271 0 0 0
450 1 1 0.5897 6.75145142803396 17.93492515232083 2.736547575828377 0 0 0
498 1 1 0.5897 7.498848110764016 22.58886266696304 0.2691476031035567 0 0 0
819 1 1 0.5897 7.431935768584298 23.41023302357632 2.4644109819178253 0 -1 0
602 1 1 0.5897 5.19504611517624 18.67284675767548 0.30414026489940227 0 0 0
555 1 1 0.5897 5.060053082052365 20.482098357145055 10.340593394459502 0 0 0
342 1 1 0.5897 0.7946099662643277 18.74648910711099 7.525759673554774 0 0 0
87 1 1 0.5897 8.132325263549545 21.985314968875862 9.902856164581165 0 0 0
37 1 2 -1.1794 3.015971738214227 22.794881966323096 9.358558374748187 0 0 0
86 1 1 0.5897 7.322292141279709 22.50740684225493 8.7355585465568 0 0 0
414 1 1 0.5897 0.842073820639017 20.551054440608276 6.090622329935705 0 0 0
32 1 1 0.5897 8.158099461702694 22.308158307953498 6.526717231733676 0 0 0
404 1 1 0.5897 1.3473970808941973 18.24944186835689 9.571818997606481 0 0 0
39 1 1 0.5897 3.7503279840215606 22.313498047203836 9.739322086551782 0 0 0
553 1 2 -1.1794 5.037346674132285 21.383375409010647 10.66198414579032 0 0 0
701 1 1 0.5897 3.037502497111235 22.73834255727725 7.660825329039923 0 0 0
383 1 1 0.5897 3.592667854331369 17.81682469480564 10.139073225163612 0 0 0
387 1 1 0.5897 5.29833681173687 19.51399898697793 6.671709714715651 0 0 0
102 1 1 0.5897 5.320081704627544 18.891320217676338 8.908107830295242 0 0 0
700 1 2 -1.1794 3.0956755135060914 22.664736288232348 6.708345239344107 0 0 0
385 1 2 -1.1794 5.244239095758834 18.660684976090707 7.10184456638281 0 0 0
702 1 1 0.5897 2.3163580347298733 22.168806858866517 6.457949090959135 0 0 0
38 1 1 0.5897 2.2443044757175707 22.27893177396733 9.59160051370553 0 0 0
101 1 1 0.5897 5.980777363512927 18.257474829069267 10.113545872587858 0 0 0
341 1 1 0.5897 1.6150258927751318 18.325679949784707 6.32527937844053 0 0 0
33 1 1 0.5897 6.657311753395584 22.11458991806476 6.490916598813712 0 0 0
240 1 1 0.5897 3.848409761324419 17.855534496022607 6.2480886119507755 0 0 0
85 1 2 -1.1794 7.36330549128021 22.514490864234148 9.691753000475096 0 0 0
554 1 1 0.5897 5.900214363146156 21.736852846829684 10.446415323491992 0 0 0
340 1 2 -1.1794 0.8088563342014007 18.780093870974518 6.569367046992065 0 0 0
386 1 1 0.5897 5.9799647312437525 18.164298316876895 6.743666830193971 0 0 0
31 1 2 -1.1794 7.341226871172419 22.65780760805582 6.882284586260292 0 0 0
100 1 2 -1.1794 5.216986339024818 18.77150595885989 9.852057343936169 0 0 0
248 1 1 0.5897 4.525261389162861 21.65892445350412 6.183387826922043 0 0 0
403 1 2 -1.1794 0.6184023948019541 18.804943643675117 9.296178501320853 0 0 0
94 1 2 -1.1794 0.9297157871870972 21.296492267126624 10.380027991803033 0 0 0
405 1 1 0.5897 0.8109390646396324 19.660941465026468 9.678648090374807 0 0 0
185 1 1 0.5897 8.437471277489136 17.848782730604334 10.0304812585057 0 0 0
412 1 2 -1.1794 0.7891793701651444 21.48750604710539 5.899897084848447 0 0 0
247 1 2 -1.1794 5.2789163151562235 21.130965393365827 5.920241318213017 0 0 0
309 1 1 0.5897 8.2680681210541 17.98440721944251 6.1286763132179045 0 0 0
380 1 1 0.5897 0.7283218579331574 20.49656414165252 13.323025878856551 0 0 0
88 1 2 -1.1794 5.160332166294947 21.351387757769274 13.445269223898277 0 0 0
381 1 1 0.5897 1.4447919170436063 21.804314230987686 13.58367627642571 0 0 0
90 1 1 0.5897 5.141998306793063 20.412968534119884 13.63272765375968 0 0 0
763 1 2 -1.1794 4.9143098212697165 18.748213144892617 14.06268853494206 0 0 0
738 1 1 0.5897 3.6037658866363835 22.132486801299137 14.028985781702364 0 0 0
89 1 1 0.5897 5.085173035431416 21.407325123641897 12.492774972879536 0 0 0
764 1 1 0.5897 4.185452564490362 18.25234992061167 13.690030372020972 0 0 0
474 1 1 0.5897 5.283749503634189 18.63426933391839 15.9197202437791 0 0 0
765 1 1 0.5897 5.687324858863563 18.41985674671806 13.603771972673071 0 0 0
350 1 1 0.5897 2.9506162160738967 22.700821479270743 16.055257655294803 0 0 0
736 1 2 -1.1794 2.8030572840005905 22.60138597939725 14.263458385230381 0 0 0
787 1 2 -1.1794 7.518302226611309 22.646669360683056 14.070657686338723 0 0 0