LAMMPS data file via write_data, version 30 Jul 2021, timestep = 3250000

864 atoms
2 atom types
576 bonds
1 bond types
288 angles
1 angle types

0.6627054705433828 17.544866929452173 xlo xhi
1.8721107780731447 21.757067021930215 ylo yhi
0.8084991261599619 21.404696673839133 zlo zhi

Masses

1 1.00794
2 15.9994

Pair Coeffs # lj/cut/tip4p/long/omp

1 0 0
2 0.21084 3.1668

Bond Coeffs # harmonic/omp

1 450 0.9572

Angle Coeffs # harmonic/omp

1 55 104.52

Atoms # full

54 1 1 0.5897 3.7210357149595783 3.104692392044443 2.2793446375095625 -4 -1 3
52 1 2 -1.1794 4.151994118320873 2.2561932522360872 2.176693369910484 -4 -1 3
622 1 2 -1.1794 1.5152822289915098 2.701703675907626 5.7263982788059575 6 -1 0
195 1 1 0.5897 1.7114311366034622 5.201436635156462 1.735489281997092 5 -4 -2
624 1 1 0.5897 1.9368735921804272 3.4624876125947095 5.326799876098229 6 -1 0
637 1 2 -1.1794 2.876090216548164 4.821382305644391 4.5222459359389 -7 0 3
638 1 1 0.5897 3.594923960226301 4.77296453752225 3.892055592166442 -7 0 3
193 1 2 -1.1794 2.046534147305349 4.409382088816281 1.315293170961882 5 -4 -2
639 1 1 0.5897 2.7144722987643726 5.758621422854546 4.6303939834484105 -7 0 3
194 1 1 0.5897 1.3577111665522708 3.757970396829972 1.4471762476703232 5 -4 -2
53 1 1 0.5897 4.602374480340449 2.3161400736177282 1.3342089614410093 -4 -1 3
860 1 1 0.5897 4.546419639670299 2.3889532646058877 5.475816394757166 0 -3 2
84 1 1 0.5897 4.773697575272974 5.486785650273946 1.99415141480028 -5 -1 -5
82 1 2 -1.1794 4.873474579687358 4.991847372836338 2.8073523354203695 -5 -1 -5
258 1 1 0.5897 4.752289283033562 6.603665252843124 3.870762877960674 -1 -2 -1
678 1 1 0.5897 1.0169609661070043 6.507774133986614 5.875233067559166 1 1 -4
376 1 2 -1.1794 4.316749938005305 6.24212078366374 7.054634247479206 2 2 3
595 1 2 -1.1794 4.065310673349634 3.484423206760174 7.176456989683782 1 -2 1
623 1 1 0.5897 1.2929477749750617 2.9882438875236255 6.612215611684059 6 -1 0
19 1 2 -1.1794 1.2026771184128244 4.045538817588661 8.233451156302777 -4 -1 1
853 1 2 -1.1794 3.7966181593472155 4.422400080662018 9.836211110064351 -5 2 0
514 1 2 -1.1794 1.227567709114176 2.5435790697633003 10.434505656468984 -3 -3 0
21 1 1 0.5897 1.6855862575991616 4.811708435117279 7.923593516236317 -4 -1 1
515 1 1 0.5897 1.2365849654371317 3.0275085625365037 9.608693125728387 -3 -3 0
855 1 1 0.5897 3.061977098669809 4.435577581660717 10.449683998974734 -5 2 0
854 1 1 0.5897 4.20523966122646 5.282625048965464 9.932639728844467 -5 2 0
596 1 1 0.5897 4.311314222425823 4.396733782005672 7.023413395949094 2 -2 1
597 1 1 0.5897 4.158737781702474 3.3659934417392465 8.121688043365879 1 -2 1
378 1 1 0.5897 3.671565227178205 6.804947026291943 6.626613059063939 2 2 3
60 1 1 0.5897 1.1524251576376066 6.318551427000293 10.882786609666535 1 -3 -2
377 1 1 0.5897 4.313026817355704 6.525096902862179 7.9690318950558465 2 2 3
516 1 1 0.5897 2.018492565280635 2.0052157640717474 10.405806869823277 -3 -3 0
59 1 1 0.5897 0.8181476896635367 4.844967755718949 10.788534735954523 1 -3 -2
58 1 2 -1.1794 1.28828268382546 5.481587189059832 11.327012839884947 1 -3 -2
330 1 1 0.5897 1.2817104989754473 2.856277876531225 12.451874166943231 5 4 0
380 1 1 0.5897 2.5172818520343423 5.932325159613256 14.542821875648313 10 2 1
328 1 2 -1.1794 1.2560563911917555 3.119447399309069 13.371860535419781 5 4 0
475 1 2 -1.1794 2.878718403685878 2.6360268451792632 15.48960290389717 4 -4 0
788 1 1 0.5897 4.405075234426723 4.0186724883434515 13.501462113735768 3 0 7
476 1 1 0.5897 2.563358658025545 2.9576027368672246 14.64499818120381 4 -4 0
787 1 2 -1.1794 4.003984183527905 4.885028415003406 13.570560657321042 3 0 7
789 1 1 0.5897 3.477743743886513 4.969954639517928 12.775534727416888 3 0 7
477 1 1 0.5897 2.948306945062045 3.4201478008653283 16.034151851299548 4 -4 0
379 1 2 -1.1794 2.09329748464837 6.757949786755414 14.77688943896451 10 2 1
704 1 1 0.5897 4.741943254372952 1.9742190645058009 17.62749448370389 4 0 -2
389 1 1 0.5897 2.782154488091808 4.616585204506259 17.826766262860733 3 5 2
484 1 2 -1.1794 3.2340010212082713 3.92512509300256 19.490707512836835 -1 1 -2
223 1 2 -1.1794 4.6102369308823405 5.99549643377909 20.900410373005453 4 -1 -8
486 1 1 0.5897 2.7378780309684436 4.130034690260061 20.283225513695132 -1 1 -2
388 1 2 -1.1794 2.5838999368303672 4.975629996897071 16.961873559957617 3 5 3
224 1 1 0.5897 4.0970193872509295 5.467490387766274 20.288778715783046 4 -1 -8
390 1 1 0.5897 3.215564991118569 5.685431118060685 16.846159991124463 3 5 3
485 1 1 0.5897 3.771756659297578 3.171042440729968 19.73245449036087 -1 1 -2
564 1 1 0.5897 0.9078904562135376 6.809024911399331 18.87893670156836 1 1 4
562 1 2 -1.1794 1.0399060674057925 6.2397580304257065 19.637042980954778 1 1 4
563 1 1 0.5897 0.9002952304845985 5.354831917090932 19.299893755096313 1 1 4
246 1 1 0.5897 0.7462243723673225 3.1156701799885482 18.39965860832592 -1 2 -2
810 1 1 0.5897 0.9064680739833438 4.488998862203907 16.461410232864406 3 1 0
736 1 2 -1.1794 0.9768416352379179 10.44395709926789 3.838174633439867 1 -2 -2
408 1 1 0.5897 4.034168837265446 11.11306387702245 2.19657424011558 -7 -4 2
180 1 1 0.5897 2.623783473783158 10.3073581060609 5.4878697283745055 -7 1 -2
406 1 2 -1.1794 4.180455240837124 10.712068306051293 3.053357221752446 -7 -4 2
179 1 1 0.5897 3.6434401056829695 9.235355419933992 5.167021762539108 -7 1 -2
178 1 2 -1.1794 3.2880879989980185 9.749271031540442 5.892160754314065 -7 1 -2
474 1 1 0.5897 2.571544018338866 9.18685800480276 2.9465173963743445 1 0 -2
256 1 2 -1.1794 4.416019928915688 7.459353653948581 4.137149366608342 -1 -2 -1
472 1 2 -1.1794 2.6752292891277585 8.36554984312792 2.465984275443552 1 0 -2
737 1 1 0.5897 0.8463630731285186 11.386672899016672 3.735667795814101 1 -2 -2
473 1 1 0.5897 1.8802504913206135 7.870188730568659 2.663079208012612 1 0 -2
257 1 1 0.5897 3.7296305530717895 7.656488595945281 3.4997583049340335 -1 -2 -1
407 1 1 0.5897 4.756086735417078 9.96836940111204 2.8751184379739163 -7 -4 2
151 1 2 -1.1794 0.9356413282042073 10.544264737871373 8.857645956134206 2 2 -1
450 1 1 0.5897 3.3392986234092388 9.46935965099222 7.661481954652447 6 -3 -3
536 1 1 0.5897 4.3114287467647525 7.546380599612184 10.501885643462872 5 6 3
449 1 1 0.5897 2.611795409346578 9.832790832106143 8.938404610491343 6 -3 -3
448 1 2 -1.1794 3.3816017976815873 9.36672757698071 8.61222064145058 6 -3 -3
535 1 2 -1.1794 4.7954788425042985 7.072375755598666 9.825685706797028 5 6 3
713 1 1 0.5897 2.3443488178613685 7.623154135376738 8.856756904019573 -4 -1 1
714 1 1 0.5897 0.9182094004155696 7.331209429202272 9.272374042400166 -4 -1 1
115 1 2 -1.1794 3.162733170458807 11.140519600680536 11.061519171478272 0 -2 5
608 1 1 0.5897 0.6882648653817547 8.666568125709134 6.046057225654016 5 5 3
712 1 2 -1.1794 1.6735646538857534 6.940736757573897 8.83281436615993 -4 -1 1
676 1 2 -1.1794 1.7244591785888768 7.084220858954804 6.163972104086144 1 1 -4
677 1 1 0.5897 1.721848188410678 7.007987232369498 7.118144174186396 1 1 -4
116 1 1 0.5897 3.265973138708822 10.189510029914096 11.02784986586489 0 -2 5
585 1 1 0.5897 4.7179057087681535 11.165501494935404 6.215642335286749 2 -4 0
617 1 1 0.5897 2.4257697466865533 10.074706006612898 15.466901674516338 -1 2 -1
616 1 2 -1.1794 2.1202325478702653 10.94047836943196 15.737664912736573 -1 2 -1
108 1 1 0.5897 4.137364508285882 8.582308289153431 12.425139888673101 -2 0 2
658 1 2 -1.1794 0.7468576939726468 8.389129195408463 12.952844422869791 2 1 1
107 1 1 0.5897 2.6405441386311157 8.438089514159067 12.250282084050285 -2 0 2
689 1 1 0.5897 0.7695390078213221 11.192081907750689 13.779657146960568 3 -1 4
117 1 1 0.5897 2.6789861916799635 11.300864669861902 11.871758445772745 0 -2 5
106 1 2 -1.1794 3.4630975574097933 8.440088174686107 11.76077829375406 -2 0 2
660 1 1 0.5897 0.8193476492813032 7.726237838194761 13.639562062702115 2 1 1
614 1 1 0.5897 4.365281976128905 8.356374575996398 16.001179999045647 -6 -1 3
688 1 2 -1.1794 1.1973357420648116 11.540368871501327 12.997420288527723 3 -1 4
613 1 2 -1.1794 4.100642096485428 8.727948403133357 15.159689344708097 -6 -1 4
381 1 1 0.5897 2.8096001290759065 7.391270008360552 14.821857597495999 10 2 1
488 1 1 0.5897 4.721270662129321 10.579597786747827 14.951037701917626 0 -4 2
615 1 1 0.5897 4.863593271545074 8.608672149830696 14.594100941062457 -6 -1 4
249 1 1 0.5897 3.0739117242581964 8.088745944872581 21.17615361306422 -1 3 -3
13 1 2 -1.1794 4.533277951944163 10.54644223860975 18.061272553539837 2 -4 -6
502 1 2 -1.1794 1.5862967500414311 10.170280701460655 18.374027370100254 -5 0 2
248 1 1 0.5897 2.4597475097767916 8.217018143615906 19.798408841955915 -1 3 -3
553 1 2 -1.1794 1.1072986058670087 7.648842248093782 17.4185808281322 -5 -6 2
543 1 1 0.5897 3.668297295459745 7.836599368903038 18.24972501814572 -2 4 3
695 1 1 0.5897 3.861303400573938 10.430247161200674 20.301607571423837 3 -4 -3
247 1 2 -1.1794 3.2808318582625393 8.337667271766705 20.27535734402128 -1 3 -3
42 1 1 0.5897 1.3357547535174519 11.319064725554869 20.78595536568813 -1 -1 4
541 1 2 -1.1794 4.162587556326747 7.3044235265833795 17.62626473390297 -2 4 3
504 1 1 0.5897 1.518962208947572 9.224756191559964 18.24096896665306 -5 0 2
694 1 2 -1.1794 3.894975456662557 11.204808147629983 20.862970231464885 3 -4 -3
14 1 1 0.5897 3.619822724059512 10.724915111154951 17.837761132148373 2 -4 -6
503 1 1 0.5897 0.7262681671398941 10.427707137466623 18.70616124826524 -5 0 2
696 1 1 0.5897 4.6849495197835545 11.668420510586753 20.585098824196805 3 -4 -3
225 1 1 0.5897 4.425225053713181 6.90061351708585 20.649824533081087 4 -1 -8
555 1 1 0.5897 1.4819855721141133 7.108641039207801 16.72287159885655 -5 -6 2
618 1 1 0.5897 1.6286400695772123 10.780367512338929 16.543219035987686 -1 2 -1
111 1 1 0.5897 4.872667021373666 15.710355082117161 4.992944440119112 -1 -1 -8
68 1 1 0.5897 3.558519310099121 16.43539998217276 3.704411270505917 5 -2 -4
73 1 2 -1.1794 2.4410697244357547 15.074317173073602 2.971630089999817 -1 -1 4
165 1 1 0.5897 1.3884543214697989 15.895583189689717 5.637203412382489 -1 1 -2
654 1 1 0.5897 4.098623631845542 13.338572911934031 4.631752370033608 0 -1 0
75 1 1 0.5897 1.9672499572627165 15.156994842855257 3.799205745443207 -1 -1 4
74 1 1 0.5897 3.0829940939149 14.38232826685215 3.130715705813955 -1 -1 4
652 1 2 -1.1794 3.3119146987595576 12.798726503235926 4.555115976672895 0 -1 0
817 1 2 -1.1794 4.553183326719176 16.629169598128797 0.9981373263290598 6 0 1
834 1 1 0.5897 1.0482594267435188 13.549512858606795 2.9623737463846354 4 -3 -1
653 1 1 0.5897 3.6066627385588883 12.007752380323081 4.103782492014568 0 -1 0
163 1 2 -1.1794 1.044088175075139 15.076555778912816 5.281077109871743 -1 1 -2
828 1 1 0.5897 2.1209199448278566 12.494778966203887 5.870655827882441 -3 0 3
819 1 1 0.5897 3.8989510648386534 16.000880828446768 1.303864274998353 6 -1 1
164 1 1 0.5897 1.2660290957006257 14.416998438104377 5.938294501307859 -1 1 -2
497 1 1 0.5897 3.1976175739892962 15.243992115165451 7.331753735797246 3 2 2
230 1 1 0.5897 4.561435393683879 12.549987745259218 8.567630290080313 5 3 1
496 1 2 -1.1794 2.4261352514444647 15.019416058136603 7.851945329590233 3 2 2
498 1 1 0.5897 2.7382947214418425 14.360374642651667 8.471971106888715 3 2 1
528 1 1 0.5897 0.7368924791532301 15.945047617999107 7.6862382911233444 -1 -5 1
231 1 1 0.5897 3.478494624984272 12.10958542157416 9.529460817630317 5 3 1
229 1 2 -1.1794 3.62307635013971 12.629591523605594 8.7389566854424 5 3 1
216 1 1 0.5897 1.021892709213787 13.44698909788491 10.18147376696249 2 -1 2
827 1 1 0.5897 2.1613752360351706 12.193969269208335 7.353802302774697 -3 0 3
822 1 1 0.5897 3.0140388857569236 14.550984239714031 10.827376230103711 -1 3 2
826 1 2 -1.1794 1.5703401725325277 12.212812048343825 6.601120984604141 -3 0 3
604 1 2 -1.1794 4.716513414769766 15.211871968938597 10.133929845224895 -4 0 -4
606 1 1 0.5897 4.879117180887096 15.24607051631831 9.19124965869912 -4 0 -4
821 1 1 0.5897 1.6528641360812677 15.206339194990354 10.925775442626886 -1 3 2
384 1 1 0.5897 2.6867694508779065 15.486531992234134 14.909726829815307 -7 -3 -2
820 1 2 -1.1794 2.1293954351953763 14.411437422625735 11.165237489439376 -1 3 2
61 1 2 -1.1794 3.616713850039259 14.121667945863956 15.816415408166396 -4 0 2
645 1 1 0.5897 3.300823232970872 13.330893736241261 12.600139636920208 5 -3 -2
643 1 2 -1.1794 4.0337757184204435 13.198206833427461 13.201303456551079 5 -3 -2
62 1 1 0.5897 3.661611920397969 13.503110638774428 15.087316630313047 -4 0 2
383 1 1 0.5897 1.574216120358132 15.071388873245269 13.970710398035736 -7 -3 -2
644 1 1 0.5897 4.390940867434095 14.075125718052679 13.34151623225087 5 -3 -2
382 1 2 -1.1794 2.149066885430987 15.806086369327108 14.185178619837385 -7 -3 -2
294 1 1 0.5897 0.8825384091434436 12.918749977889256 14.226307332003138 -1 -1 2
340 1 2 -1.1794 2.2438131617376196 16.01367633089811 17.457076871776405 3 4 1
212 1 1 0.5897 2.243340358088827 12.354980439961304 18.400072003707912 5 2 4
342 1 1 0.5897 1.4290007294536915 15.567687950545867 17.225939038276188 3 4 1
4 1 2 -1.1794 3.079400346442432 14.19088611802657 20.720309929906996 -1 -2 -1
341 1 1 0.5897 2.927961146753547 15.36546246913833 17.289832849714326 3 4 1
5 1 1 0.5897 2.2148968029635476 14.467554837509084 21.024117191424587 -1 -2 -1
211 1 2 -1.1794 2.6731505828241833 13.17659442613097 18.162452823121665 5 2 4
6 1 1 0.5897 3.121453266383385 13.258557675487845 20.93291801512953 -1 -2 -1
213 1 1 0.5897 2.844182890670724 13.608769935899883 18.999247944217437 5 2 4
40 1 2 -1.1794 0.8806480184665123 12.160094712788132 20.74407120906465 -1 -1 4
63 1 1 0.5897 3.1543096065421135 13.646034239142622 16.5064941253138 -4 0 2
438 1 1 0.5897 2.2061692070919072 18.1772263453213 2.732706405161119 -1 3 3
710 1 1 0.5897 1.900178300164272 20.340978121082088 3.8087761392150665 -3 -3 -1
436 1 2 -1.1794 1.8589220989274622 17.691477376165246 1.9845927831228432 -1 3 3
711 1 1 0.5897 2.1901565004997963 19.155436995265156 4.704503815858893 -3 -3 -1
396 1 1 0.5897 4.425921082779778 19.53342492737174 3.3710331423654782 4 1 4
437 1 1 0.5897 1.5702424977361942 16.856754209445754 2.353520530489642 -1 3 3
69 1 1 0.5897 4.508048450586347 17.611143728789266 3.6156740289030074 5 -2 -4
709 1 2 -1.1794 2.527983299891985 19.63153904542751 3.9459360238518264 -3 -3 -1
191 1 1 0.5897 3.0706013471315727 20.758526907324388 1.3345168839250576 4 3 -4
490 1 2 -1.1794 1.2367491139803846 17.92148034589313 5.723747272697112 2 3 5
67 1 2 -1.1794 4.145331277162228 16.976037439594048 4.233161137529091 5 -2 -4
192 1 1 0.5897 2.88661281705018 19.313134959772164 0.9235959996286419 4 3 -4
197 1 1 0.5897 2.7346196855459763 21.138166483167744 7.414361144700613 0 -5 0
656 1 1 0.5897 3.6000711490503337 17.437694343078753 6.052096940748686 -1 2 -3
483 1 1 0.5897 4.3996147318697325 20.688501324423946 10.031000199978584 -1 2 1
742 1 2 -1.1794 1.8799152981583065 18.010334133720242 9.237699599307975 -2 -1 -1
749 1 1 0.5897 0.9527465895407898 20.182654457576398 7.365144258631082 4 5 0
198 1 1 0.5897 2.734059708647502 20.224540039714135 8.62149384904635 0 -5 0
655 1 2 -1.1794 3.8019473340604057 17.422234757774987 6.987665950438375 -1 2 -3
743 1 1 0.5897 2.026899692137561 17.723171850047017 10.138914581060954 -2 -1 -1
657 1 1 0.5897 3.082978616730479 17.904268040148786 7.3962824932 0 2 -3
481 1 2 -1.1794 3.6255933061416816 20.840873507465282 10.573120272474124 -1 2 1
196 1 2 -1.1794 2.752669628597409 20.214411660761733 7.664540593175905 0 -5 0
314 1 1 0.5897 4.738715549371607 18.127720750617016 9.759865317260834 0 -2 0
744 1 1 0.5897 1.2573973832932364 17.375986728772357 8.882263745930269 -2 -1 -1
492 1 1 0.5897 1.1034385125912962 18.30654619141641 6.589882853105981 2 3 5
315 1 1 0.5897 4.143538768241705 17.711492725420868 11.088157969986899 0 -2 0
370 1 2 -1.1794 2.855164003387625 17.76661682856836 12.215681867230437 2 6 -1
576 1 1 0.5897 2.644830867374343 20.975440693907196 14.569454953179447 3 -2 0
574 1 2 -1.1794 2.673989359852286 20.30296126849722 13.888873661996463 3 -2 0
575 1 1 0.5897 1.7935940279610303 20.303356073851305 13.513222050211018 3 -2 0
571 1 2 -1.1794 4.2880087303087455 18.104649307293585 14.799070470098426 1 -2 -5
371 1 1 0.5897 2.6815697779938343 17.03855693907897 12.812361553116512 2 6 -1
372 1 1 0.5897 2.986592880832687 18.521285557816462 12.789696708752981 2 6 -1
572 1 1 0.5897 3.432748990408483 18.207394543019795 15.216434954761448 1 -2 -5
482 1 1 0.5897 3.8159762499454173 20.389611542209785 11.395509816117029 -1 2 1
573 1 1 0.5897 4.529703433063235 18.98968834606255 14.526115153101715 1 -2 -5
602 1 1 0.5897 0.6716348857900714 17.13995133099521 14.318462901790948 2 2 -1
691 1 2 -1.1794 2.5230043585861006 17.457220678645157 19.785827846772488 1 -2 1
129 1 1 0.5897 2.9945426556261037 20.049227749660368 18.93418817496124 -1 0 -4
190 1 2 -1.1794 2.770512394607853 20.209952754352607 21.205992871587934 4 3 -5
127 1 2 -1.1794 3.4478449335111563 20.13744510909182 18.095768344890168 -1 0 -4
693 1 1 0.5897 2.612228983635973 16.982415463864363 18.95949314133866 1 -2 1
128 1 1 0.5897 4.0048354048481425 19.360913123265718 18.04122010589326 -1 0 -4
692 1 1 0.5897 1.874164947198164 16.95724401444513 20.28104891173042 1 -2 1
780 1 1 0.5897 1.8091101554328193 17.846171674285962 16.91146874929115 -2 -2 -1
779 1 1 0.5897 2.548299693421348 19.167294421607174 16.90330506785105 -2 -2 -1
600 1 1 0.5897 1.3509374209037532 18.734215810098867 19.5016330279859 -3 -5 -3
778 1 2 -1.1794 2.0294667815010543 18.58677078841611 16.34650463330182 -2 -2 -1
818 1 1 0.5897 4.092237069758269 17.15774480048297 20.94289196532074 6 0 0
35 1 1 0.5897 1.331361229047742 21.463340292912008 21.168212663719814 -4 0 -2
785 1 1 0.5897 1.4219044220602706 21.513002378570604 16.461779136525276 6 6 3
55 1 2 -1.1794 6.295962349102302 5.63503082672052 5.2871381885607365 -3 -1 0
519 1 1 0.5897 7.908256894505071 2.611029108954132 1.4128279320609307 0 -2 -3
398 1 1 0.5897 7.7022236111021 5.1653097895643905 2.173800614330897 5 3 -3
57 1 1 0.5897 5.966538785202379 5.319214548595292 4.4456942860017 -3 -1 0
399 1 1 0.5897 8.33361333357117 4.051965011317364 2.9822981668100286 5 3 -3
728 1 1 0.5897 8.004941922381267 5.8311533470156185 5.383169272542126 -1 1 0
397 1 2 -1.1794 7.534861455777395 4.284419413496861 2.5088230813130057 5 3 -3
83 1 1 0.5897 5.567314315711482 4.359650404132898 2.6199246714446423 -5 -1 -5
56 1 1 0.5897 5.533314536126905 6.028800111676684 5.710917950843181 -3 -1 0
331 1 2 -1.1794 7.78304434866975 1.9889776698233084 5.777055103173323 0 -2 -4
333 1 1 0.5897 6.977587084811121 2.0587434887671185 5.2646167996564905 0 -2 -4
861 1 1 0.5897 4.889561230572017 2.0196643819888727 4.048302766716732 0 -3 2
727 1 2 -1.1794 8.881450099510774 6.072478401777604 5.682698815173088 -1 1 0
669 1 1 0.5897 7.297641557325249 2.4383052227347637 9.411918641127565 -8 0 0
135 1 1 0.5897 6.6133657744663665 5.42911539796186 7.246644097918449 1 -4 -2
332 1 1 0.5897 7.526299617293332 2.24331115901244 6.663444455574703 0 -2 -4
429 1 1 0.5897 5.815318556363242 4.188731853159562 10.094527589574815 -1 3 -2
133 1 2 -1.1794 6.894002523496737 5.452881709118376 8.161458516655552 1 -4 -2
427 1 2 -1.1794 6.385854816204136 3.5819220223800916 10.566249282049775 -1 3 -2
134 1 1 0.5897 7.625701740192001 4.8371987804930185 8.204090056473447 1 -4 -2
767 1 1 0.5897 8.240060105937935 4.184565826758478 10.51261729981712 -4 0 -1
667 1 2 -1.1794 7.634014889546716 2.149696207988724 8.563528079739168 -8 0 0
668 1 1 0.5897 8.556520929326286 1.952410726775085 8.725635243137894 -8 0 -1
549 1 1 0.5897 8.952467028863401 5.123002971991021 13.644735688899189 6 -2 6
439 1 2 -1.1794 6.199704034441785 6.103451298374702 14.787084240384 0 0 -3
625 1 2 -1.1794 5.5242257649089455 2.65211235938276 12.938306716508965 -2 -1 4
424 1 2 -1.1794 8.515785324371002 2.253980288078247 13.406213321993363 7 -2 1
547 1 2 -1.1794 8.146551300909344 4.953599692578823 13.156874424108244 6 -2 6
428 1 1 0.5897 6.016915896827514 3.5424036690802208 11.448592226362686 -1 3 -2
440 1 1 0.5897 5.312135407333089 5.876037628088029 14.510110352659847 0 0 -3
548 1 1 0.5897 8.12418618132544 4.002292765726806 13.053300215748882 6 -2 6
456 1 1 0.5897 7.417154430711181 6.192800856391185 11.914296501158251 3 -3 0
626 1 1 0.5897 6.366742664031692 2.4800547466020184 13.358746113093583 -2 -1 4
441 1 1 0.5897 6.762719977298128 5.488009571177443 14.317559232212961 0 0 -3
469 1 2 -1.1794 8.708503505155225 6.299074695326138 17.569877630767195 3 -3 2
551 1 1 0.5897 7.820616525627875 4.393029685555852 19.589670340116083 -3 9 -6
804 1 1 0.5897 7.407895503763257 6.458969762889001 20.476932595031048 5 0 -4
470 1 1 0.5897 7.973191081571521 6.184030064994499 18.171780634786465 3 -3 2
803 1 1 0.5897 6.120277792372471 5.725705819613292 20.166713992423006 5 0 -4
550 1 2 -1.1794 8.490664490782066 3.7203689172496066 19.46799520714342 -3 9 -6
45 1 1 0.5897 5.768221438948171 5.499921543457427 17.76499561587154 1 8 -2
705 1 1 0.5897 5.669329477872533 3.1615259045691584 17.478833108169667 4 0 -2
471 1 1 0.5897 9.10320373002633 5.429528768202901 17.50422059909804 3 -3 2
802 1 2 -1.1794 7.006023334535122 5.873337653430568 19.835245252709292 5 0 -4
552 1 1 0.5897 8.61607441967044 3.675209920159201 18.520111425727507 -3 9 -6
43 1 2 -1.1794 6.030886498952016 4.764854123857255 17.211019853553385 1 8 -2
44 1 1 0.5897 6.276504043813047 5.1677506468275185 16.3782213849681 1 8 -2
703 1 2 -1.1794 5.667379790680308 2.218314198646093 17.64179714389795 4 0 -2
584 1 1 0.5897 5.994065010560574 10.77314800680262 5.501983719031524 2 -4 0
773 1 1 0.5897 7.445163284068693 7.810364478281526 1.8913580417153968 0 -4 4
530 1 1 0.5897 6.110712632302929 8.522657932914978 4.653258063847463 -2 -2 -6
529 1 2 -1.1794 6.689454465918221 9.055324343800883 5.198736842983524 -2 -2 -6
510 1 1 0.5897 8.253673628362844 8.54461890697996 4.3996002083458325 5 -1 4
444 1 1 0.5897 6.558305680411362 9.748250517668934 2.3203807252626594 4 4 1
16 1 2 -1.1794 9.04988882938154 11.090572193806402 5.286977209737582 -2 2 4
17 1 1 0.5897 8.418879953054624 10.557850053689071 4.802986013854305 -2 2 4
325 1 2 -1.1794 7.13705325804472 11.484550712210348 2.630459760581505 1 -2 -4
442 1 2 -1.1794 6.1720447897446284 8.972320005986095 1.9142352953099884 4 4 1
774 1 1 0.5897 8.750659223190828 7.393316762680496 1.248249974617334 0 -4 4
443 1 1 0.5897 6.22490882176046 9.142255893388132 0.9737346788607226 4 4 1
509 1 1 0.5897 8.94097148601143 7.553595906094438 3.4844684581412695 5 -1 4
772 1 2 -1.1794 7.951849257322359 7.038639197911384 1.6385249609617074 0 -4 4
508 1 2 -1.1794 9.086716402429495 8.370641842101538 3.9613509205102373 5 -1 4
729 1 1 0.5897 8.945097150966888 7.011246654180596 5.506960273572462 -1 1 0
513 1 1 0.5897 5.027923849523775 9.86678983169826 9.293650567976435 0 2 -3
799 1 2 -1.1794 6.8157558499805795 8.207609781574629 7.776860048964854 0 -2 3
511 1 2 -1.1794 5.947333919089501 10.070524372430313 9.465085711923145 0 2 -3
800 1 1 0.5897 6.809759676736935 7.30764471583991 8.102803203325607 0 -2 3
512 1 1 0.5897 6.112827032108661 10.870736560357809 8.96656546889544 0 2 -3
446 1 1 0.5897 8.341929748242425 9.458907382218687 7.438232797379229 3 -2 -1
801 1 1 0.5897 6.461216506160061 8.72666093899435 8.498732205852466 0 -2 3
583 1 2 -1.1794 5.650990406498072 11.372745599740329 6.164550321779854 2 -4 0
455 1 1 0.5897 7.7553676755985785 7.001174575902832 10.6797952012018 3 -3 0
18 1 1 0.5897 9.034154838665374 10.73363901662604 6.1749899746681445 -2 2 4
537 1 1 0.5897 5.674129789299151 6.965272251002222 10.190022810328838 5 6 3
531 1 1 0.5897 6.580780061638703 8.700925575782545 6.081233248953344 -2 -2 -6
487 1 2 -1.1794 5.264510040579159 11.34831100922209 15.124788292543887 0 -4 2
701 1 1 0.5897 6.502642590337712 8.182819230218923 12.597739296366775 3 -1 2
534 1 1 0.5897 7.260133277268272 7.9003755230665975 14.446517435141214 -9 -3 -3
361 1 2 -1.1794 8.126756692025651 10.914711247934335 14.416249679792612 5 -3 -2
532 1 2 -1.1794 8.145678568434027 8.144311119513151 14.715978006014419 -9 -3 -3
702 1 1 0.5897 6.173029582823685 9.643194588090251 12.822458464019316 3 -1 2
362 1 1 0.5897 7.91751446585372 10.044664642751641 14.756053606914646 5 -3 -2
700 1 2 -1.1794 5.880376668359802 8.758680159956803 13.0420089510187 3 -1 2
752 1 1 0.5897 8.307912496338714 11.382190745128423 12.092008138823424 0 -1 0
363 1 1 0.5897 7.3150914360068215 11.412407216740483 14.51478009380169 5 -3 -2
454 1 2 -1.1794 7.081599735065815 6.889751925430366 11.35049190326143 3 -3 0
155 1 1 0.5897 5.715012731354491 10.80153117086012 11.216642897336717 4 4 -3
154 1 2 -1.1794 6.004455058771474 11.31393588070595 11.971578426565415 4 4 -3
533 1 1 0.5897 8.612704333281725 8.297824317038668 13.89467933297532 -9 -3 -3
156 1 1 0.5897 5.222379235996574 11.788167996798535 12.253859222670462 4 4 -3
587 1 1 0.5897 7.373427340102428 7.654513765834033 16.871787306495918 1 3 6
837 1 1 0.5897 8.858884202596888 10.652312105230624 21.17715636440007 -2 0 -4
232 1 2 -1.1794 6.541097714659235 9.254535029964437 19.951727611555583 -3 0 0
588 1 1 0.5897 6.860681190873081 8.869338223678337 17.615551807777805 1 3 6
234 1 1 0.5897 7.216528957853437 9.921359161819687 19.827789858536306 -3 0 0
542 1 1 0.5897 5.026935291622589 7.714329272694952 17.59320336666187 -2 4 3
815 1 1 0.5897 7.694158211608776 11.81075454512462 17.632447144270973 -3 9 -3
814 1 2 -1.1794 8.151490975512566 11.018375303777333 17.351013885899242 -3 9 -3
586 1 2 -1.1794 6.571829755288627 8.139652800912486 17.067514393180183 1 3 6
816 1 1 0.5897 7.963948375122551 10.952803019195068 16.41465858769415 -3 9 -3
233 1 1 0.5897 5.804414988816843 9.557621270760952 19.42102015825896 -3 0 0
835 1 2 -1.1794 8.470042863458403 11.21735925564382 20.50952302596674 -2 0 -4
15 1 1 0.5897 5.0383063502174315 11.109539860868637 17.474683628652514 2 -4 -6
109 1 2 -1.1794 4.927988961291616 14.901792464577658 5.502255537102189 -1 -1 -8
636 1 1 0.5897 5.804954626755797 14.353822935183048 2.8032575339629147 -10 2 4
327 1 1 0.5897 7.944192566527372 11.997303805166215 2.587835117482885 1 -2 -4
110 1 1 0.5897 5.815506923776142 14.579489592801856 5.345209409012672 -1 -1 -8
634 1 2 -1.1794 5.142737942750001 13.740242699919461 2.4851091990944107 -10 2 4
280 1 2 -1.1794 7.414849508544286 13.591609028142951 5.085361938441685 -2 0 0
326 1 1 0.5897 6.562006930895248 11.989555953911571 3.2053925980062057 1 -2 -4
282 1 1 0.5897 7.946905504832092 12.823593501346709 5.293414862866059 -2 0 0
635 1 1 0.5897 5.559608661923606 13.300005535326152 1.74440641305719 -10 2 4
295 1 2 -1.1794 6.818257702282775 16.095052123268538 2.6807269643270297 1 1 -1
297 1 1 0.5897 6.234297767369896 16.217321565325435 1.9322165423162403 1 1 -1
281 1 1 0.5897 8.050502154902095 14.294260745784277 4.949515127085364 -2 0 0
410 1 1 0.5897 5.3097188972027025 16.342498253676972 7.236621465747733 6 1 -3
99 1 1 0.5897 8.444313137119103 12.540898975155562 8.924645987254477 2 -6 8
409 1 2 -1.1794 6.0099457559713505 16.129835015980625 7.8536133138126605 6 1 -3
411 1 1 0.5897 6.7605851400360555 15.91487787078478 7.299901031332484 6 1 -3
824 1 1 0.5897 6.440033929315463 13.611233498511364 8.200058603018292 -3 5 1
823 1 2 -1.1794 6.3015195379966915 12.664763824896994 8.235256339876795 -3 5 1
825 1 1 0.5897 6.145159306872958 12.411112346579234 7.325621016274529 -3 5 1
630 1 1 0.5897 6.053839634810563 14.211229033374957 10.943737756169387 -3 -2 2
94 1 2 -1.1794 9.085279229940431 15.239762939211387 7.979648882942548 -3 -1 -1
605 1 1 0.5897 4.888065238947569 16.10260837120027 10.439504877649206 -4 0 -4
684 1 1 0.5897 6.607367714684321 14.647975394738335 14.206495141261401 4 -1 -6
524 1 1 0.5897 6.119922482840695 16.265822589757377 12.70609459118742 1 0 2
590 1 1 0.5897 8.335375852889632 14.702473813531622 11.670175421892436 1 6 3
682 1 2 -1.1794 7.1084237058247615 14.180682816849535 14.874924082160426 4 -1 -6
523 1 2 -1.1794 5.535602474495476 15.907599228888117 13.374268926960093 1 0 2
683 1 1 0.5897 7.483344664832388 14.871867414461708 15.420745049003122 4 -1 -6
387 1 1 0.5897 8.112008664117639 16.664005221286068 11.728227413952023 -3 1 2
629 1 1 0.5897 6.666926937312401 12.891640555022454 11.361648064256709 -3 -2 2
589 1 2 -1.1794 9.064552215687808 15.206873193368763 12.030854356587204 1 6 3
628 1 2 -1.1794 6.8882785503363975 13.804431792375759 11.177137989387754 -3 -2 2
460 1 2 -1.1794 7.640826172090057 16.471084248896734 16.24366232957717 4 2 0
525 1 1 0.5897 5.109376523419145 16.674673506628807 13.756570151313333 1 0 2
489 1 1 0.5897 4.949490402703317 12.009139942169233 14.508105656532068 0 -4 2
760 1 2 -1.1794 6.466583985224423 13.177475050079154 17.43180739133989 0 -5 -1
89 1 1 0.5897 8.315674116356288 13.94262381231503 20.340993283641314 6 -3 5
219 1 1 0.5897 6.351342205063956 15.697086489527017 19.474732167921417 4 -3 -2
264 1 1 0.5897 6.487273091957727 12.855283451585906 19.429141227384196 1 -1 5
217 1 2 -1.1794 5.589328038452071 15.323799392573735 19.031758516880114 4 -3 -2
88 1 2 -1.1794 8.889725480398722 14.662993803425005 20.60142396333194 6 -3 5
90 1 1 0.5897 8.450996852400838 15.449085687823837 20.276173020723277 6 -3 5
262 1 2 -1.1794 6.27286586304356 12.59545863956346 20.325094106068356 1 -1 5
263 1 1 0.5897 7.006074904804234 12.043405499218302 20.59684836319189 1 -1 5
761 1 1 0.5897 5.811543526242863 13.807045096220675 17.73308849099475 0 -5 -1
758 1 1 0.5897 8.582880284212793 13.99289510532401 17.689261356012757 2 2 2
762 1 1 0.5897 6.471376851046304 13.273348344706637 16.479446243207033 0 -5 -1
218 1 1 0.5897 4.966073362302968 15.145112380941974 19.735913541509245 4 -3 -2
462 1 1 0.5897 8.339590562830374 16.70870473289269 16.853151356149503 4 2 0
337 1 2 -1.1794 7.378156440584584 17.1362240172423 5.429389117152238 -3 -1 2
356 1 1 0.5897 8.455282540328438 20.112707564828284 4.098367370089655 1 -1 4
394 1 2 -1.1794 5.0945001399982335 19.10874595829369 2.833573561789642 4 1 5
310 1 2 -1.1794 8.932589621358124 17.814578867142416 1.723082952855545 1 3 4
312 1 1 0.5897 8.647183270886941 18.65591449293489 2.0793984006661552 1 3 4