LAMMPS data file via write_data, version 30 Jul 2021, timestep = 16000000

1008 atoms
2 atom types
672 bonds
1 bond types
336 angles
1 angle types

-3.2823145817033783 14.892313581258826 xlo xhi
-0.28719502026045873 22.867194020259678 ylo yhi
-0.0196346425909244 19.249632642590974 zlo zhi
-0.19423884240262101 -7.0766014993161255 0.23036559290742264 xy xz yz

Masses

1 1.008
2 15.999

Pair Coeffs # lj/cut/tip4p/long/omp

1 0 0
2 0.21084 3.1668

Bond Coeffs # harmonic/omp

1 450 0.9572

Angle Coeffs # harmonic/omp

1 55 104.52

Atoms # full

122 41 1 0.5897 -2.4727497536130087 1.8109179976061203 1.3338758634815602 1 0 0
123 41 1 0.5897 -3.304371102954275 2.7151462284888277 2.2183330579234726 1 0 0
56 19 1 0.5897 -1.4092594352394947 3.339222299770283 2.8582302052900967 0 0 0
101 34 1 0.5897 -2.3364572261375596 4.445528736551059 0.35317449080637847 1 0 0
86 29 1 0.5897 -2.3076522907703083 1.2416774235237427 3.763973081729437 1 0 0
158 53 1 0.5897 -4.403558763388434 4.466905065968821 4.302696541702351 1 0 0
121 41 2 -1.1794 -2.4763217214661104 2.235908459875534 2.1914363147983886 1 0 0
55 19 2 -1.1794 -0.8396130756139795 3.8053119895827123 3.4700276765382236 0 0 0
8 3 1 0.5897 -0.9162648973717054 5.516159870485753 4.179391348143909 0 0 0
57 19 1 0.5897 -0.07741098021587955 4.053077154900633 2.946947933821847 0 0 0
100 34 2 -1.1794 -3.2422832094504854 4.745514236453434 0.42716425259623436 1 0 0
602 201 1 0.5897 0.027282297979554837 5.133162674463997 0.5214925667393951 1 0 1
85 29 2 -1.1794 -2.378390832633083 0.8268441715419808 4.623659334157702 1 0 0
482 161 1 0.5897 -1.0753892872659332 -0.04430049966201949 0.8403875316966055 1 1 0
87 29 1 0.5897 -3.308103216701518 0.6184241365959727 4.713754001323892 1 0 0
134 45 1 0.5897 -2.313786305179251 2.337229923793523 5.697255218817676 1 0 0
159 53 1 0.5897 -3.2638963923223945 4.661493693849879 5.279721257374794 1 0 0
69 23 1 0.5897 -2.78419511856771 1.1705378429111462 8.300066607710916 0 0 0
669 223 1 0.5897 -5.328938515533689 1.6724297691903973 9.081870098120474 1 0 0
124 42 2 -1.1794 -5.316959955486897 2.2856555372176093 7.250905367283369 1 0 0
98 33 1 0.5897 -4.547294055386136 5.165551542228482 8.47025875284651 1 0 0
133 45 2 -1.1794 -2.559249924692884 3.1021200094364234 6.217725813530373 1 0 0
126 42 1 0.5897 -4.419257874409553 2.5841212707871875 7.106035004157791 1 0 0
135 45 1 0.5897 -1.732180979864399 3.424392862946161 6.5755862629226645 1 0 0
67 23 2 -1.1794 -2.603827791928567 0.4106336709187326 7.746675231347197 0 0 0
157 53 2 -1.1794 -3.959462575010813 5.135548577968795 4.824071740976528 1 0 0
90 30 1 0.5897 -5.3912668821365575 1.1856513498253036 5.714221211800678 1 0 0
68 23 1 0.5897 -3.465462023140691 0.03509603123592736 7.566317193751392 0 0 0
524 175 1 0.5897 -3.4154582328742475 3.319972799039934 9.46466022364053 0 0 0
97 33 2 -1.1794 -4.576657054170265 4.74373980652331 9.32896663777349 1 0 0
125 42 1 0.5897 -5.853720896818226 3.0672949225595154 7.119666854795173 1 0 0
561 187 1 0.5897 -5.577802595554801 3.7456277018827393 12.84599861290685 0 0 0
559 187 2 -1.1794 -4.81407691709753 4.226053423805807 13.165245141345329 0 0 0
625 209 2 -1.1794 -6.4623334887443145 2.5149107061717846 12.088286618666668 1 0 0
523 175 2 -1.1794 -2.793823354943627 2.6216130963931112 9.669945129152845 0 0 0
668 223 1 0.5897 -5.849905686760456 1.552822371912477 10.498080447748178 1 0 0
667 223 2 -1.1794 -5.4461216125370555 1.0444952126373892 9.79476468736304 1 0 0
626 209 1 0.5897 -6.377740354013559 1.8082639058297785 12.728460463306504 1 0 0
627 209 1 0.5897 -7.3574326405114565 2.8346201439004375 12.200483852398317 1 0 0
606 202 1 0.5897 -6.5607603918690955 4.648971532498674 9.624625253412024 1 0 0
661 221 2 -1.1794 -7.963705667497921 5.1120297680459945 14.366689338023358 1 0 0
560 187 1 0.5897 -4.2609356323989465 3.5567367896482014 13.568141390313828 0 0 0
591 197 1 0.5897 -5.3201839158830655 0.3270777697683862 14.417363722524131 1 0 0
589 197 2 -1.1794 -5.956161988458273 1.0260663665011016 14.265020519558426 1 0 0
99 33 1 0.5897 -4.487136558303808 5.4639234157022365 9.9530706521088 1 0 0
986 329 1 0.5897 -4.527555076136894 -0.1361659031229795 10.928387145387925 1 1 0
590 197 1 0.5897 -5.735013725273583 1.6969074471043206 14.910928369991561 1 0 0
20 7 1 0.5897 -5.8522818284641325 2.1791919581458554 18.402091453450396 0 0 -1
637 213 2 -1.1794 -5.963780635869391 3.334566242965744 15.806773192961867 1 0 0
630 210 1 0.5897 -8.91567112296977 2.3156289593495805 15.973226927799052 1 0 0
639 213 1 0.5897 -6.041620738613435 4.00811468134463 15.131066717725917 1 0 0
628 210 2 -1.1794 -8.673493460657678 2.8003562409711478 16.762184407927215 1 0 0
638 213 1 0.5897 -6.826673197707391 3.3082960346101618 16.2198642332109 1 0 0
164 55 1 0.5897 -8.916820915301653 1.6759804501899715 18.27181495929412 1 0 -1
601 201 2 -1.1794 -7.461294834101228 4.821419384044841 19.11809698709981 1 0 0
629 210 1 0.5897 -9.282711573364388 3.5382531077382495 16.787105413549504 1 0 0
571 191 2 -1.1794 -5.815830307545237 0.3667636742783875 17.503682299780806 0 0 0
603 201 1 0.5897 -6.835204724129518 4.1141992565759065 18.962927085087387 1 0 0
165 55 1 0.5897 -9.68703671496667 0.45818101307927084 18.736211079496222 1 0 -1
593 198 1 0.5897 -8.08515394574124 0.432594352388028 14.445815018948803 1 0 0
163 55 2 -1.1794 -9.128519246779682 1.167324459599988 19.05452470893345 1 0 -1
19 7 2 -1.1794 -5.826815981865694 2.734093737169224 19.181546423338382 0 0 -1
573 191 1 0.5897 -5.49244218572203 -0.0038787861994584727 18.324711574275753 0 0 0
291 97 1 0.5897 -3.684451968267636 10.288447551074972 2.6635804095443265 1 0 0
146 49 1 0.5897 -1.323047680553509 6.7746157085900816 2.2054992174278634 1 0 0
290 97 1 0.5897 -2.2855186518585593 10.789078740079757 2.3746162453412745 1 0 0
289 97 2 -1.1794 -2.87474152075633 10.052708614397956 2.211089360920047 1 0 0
145 49 2 -1.1794 -0.5112651132548183 6.792806237170525 1.6989316316984118 1 0 0
332 111 1 0.5897 -2.0702855147422774 9.288090183766823 0.8495362534683973 1 0 0
147 49 1 0.5897 -0.7172964694888062 7.3310739563191945 0.9347085035389499 1 0 0
255 85 1 0.5897 -2.3921670061524045 9.03022923919448 3.7072506129020453 1 0 0
112 38 2 -1.1794 -3.073639414377005 6.548082458546981 2.5746479993483637 1 0 0
224 75 1 0.5897 -0.877582968983468 11.134348066735749 3.9534776123249937 0 0 0
114 38 1 0.5897 -3.336127623292418 5.834061771814267 1.9937517889160232 1 0 0
113 38 1 0.5897 -3.2337574162637353 6.211283575629104 3.456147679442718 1 0 0
331 111 2 -1.1794 -1.5857919581386652 8.833019549150007 0.16090055507732196 1 0 0
253 85 2 -1.1794 -2.5244664171828615 8.625307986173626 4.564378612935005 1 0 0
254 85 1 0.5897 -1.9728245101354576 7.843168086237972 4.5482184001810575 1 0 0
7 3 2 -1.1794 -0.8575922186305522 6.2740346037734245 4.761100430135808 0 0 0
293 98 1 0.5897 -4.263645191717154 10.597411757777078 7.297037715696705 1 0 0
111 37 1 0.5897 -5.822338306201079 6.342424699362283 7.228863738241378 1 0 0
292 98 2 -1.1794 -5.194022948779841 10.373099627100006 7.2987301687017645 1 0 0
294 98 1 0.5897 -5.37879520800232 10.12243034983829 8.203755153632997 1 0 0
235 79 2 -1.1794 -2.67124510000498 7.801015625536516 8.151979689259946 0 0 0
236 79 1 0.5897 -3.5311348310726944 7.478148163978432 7.883155270688553 0 0 0
9 3 1 0.5897 -0.9964687573190454 5.915013437737379 5.6374251484995295 0 0 0
302 101 1 0.5897 -2.365391800891699 10.196222021087785 5.684549883573575 1 0 0
301 101 2 -1.1794 -2.607990092898725 10.871288517980178 6.318282172957513 1 0 0
257 86 1 0.5897 -4.311295561202091 8.357428409267115 4.89594409077004 1 0 0
109 37 2 -1.1794 -4.875551144359866 6.236784575934441 7.137458632306019 1 0 0
237 79 1 0.5897 -2.854920357214138 8.62291319943219 8.606991161279637 0 0 0
258 86 1 0.5897 -5.352813180299549 8.883923561373276 5.859995287756932 1 0 0
110 37 1 0.5897 -4.762443092468304 5.812246685806554 6.287148362607284 1 0 0
835 279 2 -1.1794 -6.127485655032196 8.977745812128065 9.5630810239914 1 0 0
303 101 1 0.5897 -1.7727042379209217 11.202758164960972 6.647477197713319 1 0 0
759 253 1 0.5897 -6.426152621329135 8.961447473175973 13.576579953027382 1 0 0
836 279 1 0.5897 -5.644876334115275 8.240228093962438 9.936552373111653 1 0 0
650 217 1 0.5897 -4.017880456475712 7.37582767121608 11.410804338784171 1 0 0
693 231 1 0.5897 -2.887185081647969 9.87787289900033 10.608973206856033 0 0 0
649 217 2 -1.1794 -4.715197967492896 6.892989677810712 10.967392372191465 1 0 0
616 206 2 -1.1794 -7.3224938170768255 6.525767726491452 12.187279773737876 1 0 0
651 217 1 0.5897 -5.39804785932257 6.794482156584189 11.630696867880514 1 0 0
795 265 1 0.5897 -6.369841284435857 9.882400090633329 11.186418716965939 1 0 0
793 265 2 -1.1794 -6.505914584759891 10.110280563525782 12.105970853422553 1 0 0
794 265 1 0.5897 -5.8277606364554595 10.75858384053471 12.29547531399397 1 0 0
513 171 1 0.5897 -4.674636480295628 5.8741710526367665 14.21344123879692 0 0 0
618 206 1 0.5897 -7.434608665300393 5.910279185867369 11.46289181786845 1 0 0
663 221 1 0.5897 -7.792341409656489 5.6993504908836385 13.630540759602331 1 0 0
691 231 2 -1.1794 -2.856134483088566 10.283538264577999 9.742589135122069 0 0 0
798 266 1 0.5897 -8.691530078896538 10.085132635019532 16.587124332767658 1 0 0
762 254 1 0.5897 -8.277443044731887 8.95290048382466 14.738766002247095 1 0 0
333 111 1 0.5897 -8.664046328866817 9.673439934517294 18.69254026462327 1 0 -1
741 247 1 0.5897 -6.432577365757194 8.90763349921396 18.290997730535658 0 0 0
796 266 2 -1.1794 -8.384437300862011 10.706793700923436 17.2469429075286 1 0 0
797 266 1 0.5897 -7.591520301920444 11.086322683879018 16.8684746408548 1 0 0
613 205 2 -1.1794 -7.793932665332047 6.398804824220452 16.77714995124736 1 0 0
740 247 1 0.5897 -6.784514102261989 7.720488779449225 17.41997913432462 0 0 0
739 247 2 -1.1794 -6.053666392282667 8.128442793437301 17.884130235165223 0 0 0
805 269 2 -1.1794 -5.968004045677329 11.119686385057538 15.632572224709492 1 0 0
615 205 1 0.5897 -7.675555112318282 5.836889546658616 16.011426859484388 1 0 0
758 253 1 0.5897 -6.084633186715337 9.309295954268904 15.00966265314648 1 0 0
511 171 2 -1.1794 -4.428647818357713 6.616898453514566 14.764771909657533 0 0 0
614 205 1 0.5897 -7.782532527570666 5.796251189196949 17.520828101519463 1 0 0
512 171 1 0.5897 -5.084432105965594 7.2869185144304955 14.571707609243221 0 0 0
654 218 1 0.5897 -9.885942280999608 7.84748481306193 18.652756137284733 1 0 0
653 218 1 0.5897 -9.461869500602514 6.9421357588861685 17.51605785445853 1 0 0
757 253 2 -1.1794 -6.380087367893921 8.586532156428927 14.45603559589433 1 0 0
280 94 2 -1.1794 -3.5892659843269064 14.351162477826048 2.610028850142958 1 0 0
223 75 2 -1.1794 -1.1154594390993893 11.835996010498643 3.3473741604435294 0 0 0
314 105 1 0.5897 -1.8125255652706422 14.707338295519662 2.415975872300173 1 0 0
500 167 1 0.5897 -1.524408816107754 15.857205609782675 0.8279636841170819 1 0 0
423 141 1 0.5897 -2.808652200841117 16.696438718603872 4.2157050312898425 1 0 0
282 94 1 0.5897 -3.7779928851442066 13.84778890688573 3.4019712224051757 1 0 0
313 105 2 -1.1794 -0.894447816816248 14.707157585922955 2.145689356175295 1 0 0
315 105 1 0.5897 -0.7514423838388158 13.833277128789366 1.782228120791489 1 0 0
225 75 1 0.5897 -1.2340158330051048 12.605027384492727 3.9048501971802567 0 0 0
281 94 1 0.5897 -3.615685460360871 13.705762006265868 1.9036848788757104 1 0 0
270 90 1 0.5897 -2.798957810516089 12.36291661549012 0.45253604450739043 1 0 0
499 167 2 -1.1794 -2.22970205939269 16.319444626402237 0.3751466548826937 1 0 0
771 257 1 0.5897 -0.2824427517231145 11.870945722989449 0.3442807969282413 1 0 1
769 257 2 -1.1794 -0.7767657424258299 12.6881728054538 0.40840143141356416 1 0 1
458 153 1 0.5897 -2.914491231295342 17.08492472951174 1.9647158069351387 1 0 0
306 102 1 0.5897 -4.807874864445532 11.475271322101417 4.075553562376649 1 0 0
325 109 2 -1.1794 -4.037540100590727 12.806389997927463 4.77129802748947 1 0 0
327 109 1 0.5897 -4.349240396786433 13.190086954343869 5.590849112014142 1 0 0
403 135 2 -1.1794 -2.875353504296452 15.693586486816837 8.245588209211071 0 0 0
279 93 1 0.5897 -5.85413620562287 14.153033226209976 7.323171226235186 1 0 0
267 89 1 0.5897 -4.425457487800063 12.774912787612202 8.774712024634153 1 0 0
277 93 2 -1.1794 -4.982205131382543 13.784451019869355 7.182116698424259 1 0 0
278 93 1 0.5897 -4.383877604866912 14.440341085373257 7.53979019155192 1 0 0
326 109 1 0.5897 -3.4052733700339424 12.14103306898574 5.042932739231153 1 0 0
425 142 1 0.5897 -4.572605908027388 16.053701612515564 4.969403601263776 1 0 0
405 135 1 0.5897 -3.0497742189131944 16.47366352240148 8.77215265675412 0 0 0
404 135 1 0.5897 -2.033577521339963 15.87067097706225 7.826075371535922 0 0 0
175 59 2 -1.1794 -1.0292050701806588 14.011040727667114 5.228685446788717 0 0 0
176 59 1 0.5897 -1.6259802535172798 14.752301689997836 5.1253546376881545 0 0 0
421 141 2 -1.1794 -2.8046117829349786 16.251920292846354 5.063387802733983 1 0 0
266 89 1 0.5897 -3.847543426389002 11.644920764103246 9.60011655189688 1 0 0
1004 335 1 0.5897 -5.721480955300162 16.90472845391516 9.010942808156477 1 0 0
422 141 1 0.5897 -2.8518055615438302 16.960027208403755 5.705687181124786 1 0 0
462 154 1 0.5897 -5.526083810067224 17.145136056541254 6.744813119984908 1 0 0
729 243 1 0.5897 -4.45676041075196 12.357788263622705 13.851341062435772 0 0 0
819 273 1 0.5897 -4.319438038947672 13.676542112930424 10.890098241955345 1 0 0
727 243 2 -1.1794 -4.54443026381022 11.76052869931842 13.108590076541427 0 0 0
831 277 1 0.5897 -8.440811067702544 12.315293045291874 14.086876328123378 1 0 0
818 273 1 0.5897 -5.392492801938314 14.440652124018492 11.63586953988142 1 0 0
1005 335 1 0.5897 -5.184899016217057 15.921904895028344 10.02984486598787 1 0 0
817 273 2 -1.1794 -4.500417883979377 14.522831441317713 11.299180406008054 1 0 0
786 262 1 0.5897 -7.262282360253586 13.773401280125407 12.765277020463246 1 0 0
784 262 2 -1.1794 -7.109181233481946 14.257135294546826 11.953653617479743 1 0 0
728 243 1 0.5897 -3.778259181403949 11.940701662905552 12.564098826375062 0 0 0
925 309 2 -1.1794 -6.088554432384026 16.163352755273888 14.371985898893257 1 0 0
774 258 1 0.5897 -6.399793409845256 12.18388771796863 9.75735290572122 1 0 0
1003 335 2 -1.1794 -5.981096214226173 16.38684993348777 9.77289908359844 1 0 0
962 321 1 0.5897 -6.459777407438057 17.13791266281038 12.815962032476772 1 0 0
785 262 1 0.5897 -7.790265622301906 14.92957982380902 11.942745447760622 1 0 0
829 277 2 -1.1794 -7.742855641246818 12.883572117008564 14.412328712143658 1 0 0
926 309 1 0.5897 -5.348973178508043 15.556808671956698 14.336276872909913 1 0 0
265 89 2 -1.1794 -4.469567977577009 12.371300640461268 9.641485171254066 1 0 0
907 303 2 -1.1794 -6.418198198217825 15.738786396543869 18.089677026859015 0 0 0
807 269 1 0.5897 -5.189018457192195 11.526254331176457 16.01188216729981 1 0 0
770 257 1 0.5897 -7.969567048661343 13.200672952944668 18.770470062248073 1 0 0
830 277 1 0.5897 -8.09593128124626 13.259861882240054 15.218423496910487 1 0 0
783 261 1 0.5897 -7.80403037088972 14.710042926949336 17.177389004045033 1 0 0
781 261 2 -1.1794 -8.366628346884454 13.963331901649346 16.972325146364113 1 0 0
501 167 1 0.5897 -8.889569859381137 16.921250840460072 18.866972765079694 1 0 -1
930 310 1 0.5897 -8.095917786889364 16.071638032317804 14.585134683769581 1 0 0
782 261 1 0.5897 -9.253820147196043 14.27596931792499 17.148798149517276 1 0 0
927 309 1 0.5897 -5.825534382562543 16.825335731208714 15.011303866526788 1 0 0
806 269 1 0.5897 -6.38659270192182 11.821829387574832 15.134480062731603 1 0 0
965 322 1 0.5897 -9.05302826721853 16.973277318183577 16.376369703252365 1 0 0
909 303 1 0.5897 -6.123354543553206 15.055253894991804 18.691449258077952 0 0 0
908 303 1 0.5897 -5.687441976578055 15.855869783241364 17.482854196773445 0 0 0
481 161 2 -1.1794 -1.0267135828221767 22.440219858786087 1.4795855374012679 1 0 0
391 131 2 -1.1794 -1.1335331144218577 19.337678414889943 3.4178172331985395 0 0 0
938 313 1 0.5897 -1.1919178208562453 20.523744639402373 0.4822288015497387 1 0 1
449 150 1 0.5897 -3.7702381269922314 21.249914244564874 1.6517439219551522 1 0 0
448 150 2 -1.1794 -3.662370521555216 21.880857472974743 2.3633799483524327 1 0 0
393 131 1 0.5897 -1.0274899356909741 20.20898675042291 3.7997342208179443 0 0 0
355 119 2 -1.1794 0.7913106290305016 17.935686908227957 0.18479950635743392 0 0 0
495 165 1 0.5897 -3.6267671848945606 21.166337754077944 4.5036920066538135 1 0 0
459 153 1 0.5897 -2.4438850032690502 18.303725770051106 2.729503124755378 1 0 0
457 153 2 -1.1794 -3.19395144558695 17.718345834622177 2.625643888618483 1 0 0
483 161 1 0.5897 -1.8111173718442428 22.32416090008074 2.015449672982907 1 0 0
939 313 1 0.5897 -0.7510702133995517 19.131698748214202 0.08214025774662158 1 0 1
392 131 1 0.5897 -0.5365148296035454 18.781679452553977 3.9184682920632157 0 0 0
460 154 2 -1.1794 -5.406007031770622 17.770708551979993 7.459218922108255 1 0 0
461 154 1 0.5897 -5.974571809959864 18.506557602112462 7.232160730231765 1 0 0
471 157 1 0.5897 -3.650805238117239 18.32847321965523 7.073215254849228 1 0 0
470 157 1 0.5897 -3.028815001386171 19.149779480687304 5.964066119651407 1 0 0
445 149 2 -1.1794 -5.063940170131641 22.152618056630505 7.197048769667228 1 0 0
446 149 1 0.5897 -4.77866048839912 21.455387382177886 7.787656070096735 1 0 0
494 165 1 0.5897 -4.497664547768686 21.06765465060027 5.7378213728206084 1 0 0
469 157 2 -1.1794 -2.82576990266105 18.473538204631026 6.610409066953819 1 0 0
433 145 2 -1.1794 -4.436169720282633 20.43716663902812 9.593661001780227 1 0 0
447 149 1 0.5897 -5.972229935106217 22.32190157480544 7.446648255703289 1 0 0
380 127 1 0.5897 -1.5780380436861998 19.828186962972204 7.08150905841576 0 0 0
493 165 2 -1.1794 -3.9631597044721403 20.53997657519159 5.144574493726656 1 0 0
343 115 2 -1.1794 -0.8511470779631543 21.68943649702019 4.847731116916135 0 0 0
345 115 1 0.5897 -1.381291385386253 22.486356187399494 4.83388552008894 0 0 0
961 321 2 -1.1794 -6.815901389893745 17.730357778714563 12.153819346252694 1 0 0
848 283 1 0.5897 -4.5751094445276905 21.06320735847618 13.943474162552482 0 0 0
434 145 1 0.5897 -4.4000260457600575 21.23037356633605 10.128232427651998 1 0 0
954 318 1 0.5897 -5.886891960632608 21.90867397817171 12.353224091749512 1 0 0
952 318 2 -1.1794 -6.763503148968827 21.58724434283342 12.563442280324438 1 0 0
896 299 1 0.5897 -5.248601347416796 19.251474016989622 12.438444895812895 0 0 0
895 299 2 -1.1794 -4.473164910731702 19.536637084174284 12.92151253576709 0 0 0
963 321 1 0.5897 -6.5013861183611406 17.377040296039276 11.321780623224715 1 0 0
998 333 1 0.5897 -7.210482267809407 20.645972220530346 14.058431266715491 1 0 0
985 329 2 -1.1794 -4.145468996357289 22.389572824670182 11.363003170018812 1 0 0
941 314 1 0.5897 -7.29464202330203 20.35076406441007 11.150878859695052 1 0 0
897 299 1 0.5897 -4.2094415341743545 18.767871271205642 13.427301714129106 0 0 0
859 287 2 -1.1794 -2.9118427537237173 18.106759438290123 9.831578033116841 0 0 0
953 318 1 0.5897 -7.349996432094137 22.290758463883314 12.285253059077181 1 0 0
987 329 1 0.5897 -3.307375255084798 22.84542326989395 11.439030603896532 1 0 0
860 287 1 0.5897 -3.282362019929082 18.98929222869522 9.816560338675375 0 0 0
435 145 1 0.5897 -5.343144631372864 20.14028072454557 9.665748301856722 1 0 0
975 325 1 0.5897 -5.680479825082449 19.04134997277602 16.569149247154897 1 0 0
937 313 2 -1.1794 -8.448982311796033 20.053920887385683 19.1243279567879 1 0 0
966 322 1 0.5897 -9.410478472839547 18.33446050050996 16.93452186455532 1 0 0
974 325 1 0.5897 -7.022534866233922 18.367662646386467 16.759709421433705 1 0 0
973 325 2 -1.1794 -6.259329573790031 18.384438288783322 16.182490757224414 1 0 0
949 317 2 -1.1794 -8.184850315820176 21.851090664335707 17.050290944049557 1 0 0
950 317 1 0.5897 -8.15216897009537 21.499336341278877 16.160773197734407 1 0 0
951 317 1 0.5897 -8.122489012157255 21.080848582162197 17.61527312278311 1 0 0
356 119 1 0.5897 -6.204464436314297 17.644710154431912 18.655469278919874 0 0 -1
964 322 2 -1.1794 -8.807768451203419 17.600821129602913 17.05619068751446 1 0 0
999 333 1 0.5897 -7.123158209980986 19.62554150939349 15.173381941315153 1 0 0
997 333 2 -1.1794 -7.654108221647788 20.355779197677546 14.855318882354402 1 0 0
847 283 2 -1.1794 -4.437873489929975 21.792064835282467 14.548563664308961 0 0 0
572 191 1 0.5897 -6.781881054908906 22.99655539273107 17.291278733198027 0 -1 0
437 146 1 0.5897 -10.24394659204702 19.958043184680474 19.218430004480993 1 0 -1
47 16 1 0.5897 2.017288939659368 4.766602897598543 1.5769474686900975 0 0 0
31 11 2 -1.1794 1.6753422797688708 0.6575013419082333 1.8898872166527962 0 0 0
54 18 1 0.5897 3.1349897679743526 3.434093862204685 3.0582017142513 0 0 0
32 11 1 0.5897 1.5853395101326022 1.0894318096638456 2.739224335324723 0 0 0
48 16 1 0.5897 1.8314864814238083 5.115219867285031 3.038214547550092 0 0 0
76 26 2 -1.1794 0.8220202325210488 1.8693270902380896 4.517968376001423 0 0 0
52 18 2 -1.1794 3.8810262001974998 3.020133914531557 3.4919823019618965 0 0 0
46 16 2 -1.1794 1.7450776814644104 4.393610253980932 2.4153312106358107 0 0 0
71 24 1 0.5897 3.847049072484178 0.36185097364863816 1.996780755325692 0 0 0
6 2 1 0.5897 3.5902899170508675 1.659697128026664 4.626325346516853 0 0 0
70 24 2 -1.1794 4.388061461945129 -0.07799818082477566 1.3411586840530476 0 0 0
21 7 1 0.5897 1.4818451766649279 1.9070880528308671 0.6239250702748526 0 0 0
528 176 1 0.5897 4.208727077007293 1.5952698561299268 0.053786426075821764 0 0 1
78 26 1 0.5897 0.1443638269700207 2.3991205791222194 4.098119207013256 0 0 0
33 11 1 0.5897 0.8178696922364512 0.2642626755784 1.7284924536841308 0 0 0
53 18 1 0.5897 4.2932647687855106 3.7278121503399353 3.9873818503065177 0 0 0
16 6 2 -1.1794 5.457128379113946 4.741969220734927 0.01907804643171447 0 0 0
44 15 1 0.5897 -0.6175290433133203 5.211173166877305 8.120667364930501 0 0 0
60 20 1 0.5897 2.5356856361278854 3.606954858047207 6.686140751426147 0 0 0
59 20 1 0.5897 1.5343468674206058 3.253636759254652 5.60734953515526 0 0 0
34 12 2 -1.1794 -0.006066190067737676 0.9129532482089247 7.034521276263927 0 0 0
35 12 1 0.5897 0.09237945436276584 1.6661626071042954 7.616937659992602 0 0 0
45 15 1 0.5897 0.35685139431806157 4.6999831871930775 7.081163138904932 0 0 0
58 20 2 -1.1794 1.8220436422917334 3.9758224801731172 6.165792188041581 0 0 0
77 26 1 0.5897 0.35648022603519136 1.3738946080247354 5.191716389097099 0 0 0
11 4 1 0.5897 2.009330587374132 5.508625441548282 5.18942126385574 0 0 0
43 15 2 -1.1794 -0.5775366588379813 4.825976763292585 7.245415281781111 0 0 0
522 174 1 0.5897 2.100850747281286 5.276966467701987 9.218898248289042 0 0 0
36 12 1 0.5897 -0.9024932396432832 0.6116026386679745 7.181334077040981 0 0 0
5 2 1 0.5897 3.089025179106864 0.3465034836411133 5.1888008960655 0 0 0
402 134 1 0.5897 2.254742738971479 -0.03941736526872586 8.836415436548185 0 1 0
525 175 1 0.5897 -1.9335603259154492 3.022420713613062 9.546346238436625 0 0 0
24 8 1 0.5897 0.9841051228969064 3.4087996081010647 9.489475394156727 0 0 0
22 8 2 -1.1794 0.327346082354357 2.7452288614606832 9.278649424369346 0 0 0
401 134 1 0.5897 1.398160502307885 -0.16376955917353375 7.594610773516173 0 1 0
4 2 2 -1.1794 3.7032544887891357 1.0595101170509698 5.363394342613514 0 0 0
557 186 1 0.5897 -0.5355492441420591 2.5329962163526676 13.586026980892303 0 0 0
550 184 2 -1.1794 -2.0632026042097085 4.9979146002757275 11.87382531543755 0 0 0
574 192 2 -1.1794 0.3386761817038644 0.3670213344140709 10.670589604664576 0 0 0
558 186 1 0.5897 -0.8088976341721681 3.6784976135424063 12.634560007781388 0 0 0
576 192 1 0.5897 -0.4484713542806764 0.5645460964145096 11.177880225101084 0 0 0
556 186 2 -1.1794 -0.14490120985292698 3.3310336846754627 13.229936713759514 0 0 0
536 179 1 0.5897 -2.462293501103927 1.3907140297122795 12.79252961732049 0 0 0
535 179 2 -1.1794 -2.109912114443179 1.1455538445229183 11.937118532669283 0 0 0
23 8 1 0.5897 0.4888811906892516 2.0398515755011837 9.905287687014908 0 0 0
537 179 1 0.5897 -2.5319923794222383 1.7460282909068554 11.322722421598819 0 0 0
552 184 1 0.5897 -2.923596621184979 4.609824964914007 12.032120027942206 0 0 0
551 184 1 0.5897 -1.9030862054995783 5.5476980810216725 12.64077281263407 0 0 0
580 194 2 -1.1794 -2.950028601960076 2.5362866563004367 14.314953674840275 0 0 0
587 196 1 0.5897 -1.3811681092381538 5.613007567728693 10.431008469229754 0 0 0
539 180 1 0.5897 -3.301346321330093 1.6906814431321047 17.251756637623856 0 0 0
548 183 1 0.5897 -4.2686366803820786 5.648489292390031 16.4823299138926 0 0 0
563 188 1 0.5897 -1.566806099505535 5.068238053945834 15.517307891390322 0 0 0
564 188 1 0.5897 -2.3569338711574686 4.425527690959417 16.637184949561863 0 0 0
562 188 2 -1.1794 -1.7160624632188215 4.229518143821216 15.95392507582505 0 0 0
538 180 2 -1.1794 -3.3701151827726346 0.9793628635252751 16.614979987675042 0 0 0
547 183 2 -1.1794 -4.040887168171111 4.989123463582731 17.137805056430558 0 0 0
526 176 2 -1.1794 -3.1564649447869844 2.593009611202876 18.8288780633506 0 0 0
581 194 1 0.5897 -3.2607988802265258 1.8999083071089693 14.958903896498562 0 0 0
582 194 1 0.5897 -2.457408731133082 3.176426263847298 14.828433534868926 0 0 0
84 28 1 0.5897 -4.352887315250836 5.679708730012834 18.851832226840116 0 0 -1
540 180 1 0.5897 -4.214594925009295 0.5699852547026456 16.802689281418537 0 0 0
527 176 1 0.5897 -4.0589083344921315 2.7362694848692803 19.113490019934567 0 0 0
549 183 1 0.5897 -4.584170198020634 4.232788051369088 16.91649777227122 0 0 0
18 6 1 0.5897 -2.178805772159035 4.295915304248984 18.906749233389768 0 0 -1
508 170 2 -1.1794 0.14551304171980473 0.7558465168466344 14.619358472923723 0 0 0
509 170 1 0.5897 0.056467164924060675 0.9954058457294666 15.541699483970921 0 0 0
10 4 2 -1.1794 1.854127449932271 6.299486271675267 4.672866995809553 0 0 0
240 80 1 0.5897 3.4427058905339987 7.172345361317306 1.2606853011231993 0 0 0
696 232 1 0.5897 4.378415786229371 10.967146205069662 0.37165449580838 0 0 1
220 74 2 -1.1794 3.342670562530871 10.739460473071002 3.5449607860995895 0 0 0
238 80 2 -1.1794 3.7629978750753406 7.863436923104979 1.8402778407830525 0 0 0
245 82 1 0.5897 0.7130369145416879 9.479684754955791 4.125144045440625 0 0 0
239 80 1 0.5897 3.835712016674055 8.634359677002161 1.27747848962463 0 0 0
201 67 1 0.5897 1.9929845665535133 8.276615575520122 2.3174121844309683 0 0 0
199 67 2 -1.1794 1.1483485058979772 8.633604350202432 2.591559389947413 0 0 0
189 63 1 0.5897 1.172016414830888 9.795553142013476 0.949930696363772 0 0 0
174 58 1 0.5897 3.203318415803861 9.270092790340563 4.635715523114042 0 0 0
221 74 1 0.5897 4.099260214411649 10.518474519794394 3.0020873758473106 0 0 0
187 63 2 -1.1794 1.0962849222584516 10.42754726455595 0.23499848700650922 0 0 0
12 4 1 0.5897 0.9059861771217506 6.425496610759707 4.705907331838949 0 0 0
200 67 1 0.5897 0.5226484548606187 7.930882207210212 2.4159950623304067 0 0 0
694 232 2 -1.1794 3.893419730897346 10.14436728207553 0.30784481440617717 0 0 1
82 28 2 -1.1794 2.3997258258521637 6.1036967623444065 0.2014408139412937 0 0 0
588 196 1 0.5897 -1.4901650482273578 6.463631773829398 9.183451927398748 0 0 0
191 64 1 0.5897 0.09959951471659245 9.726776294793405 8.748923216914044 0 0 0
692 231 1 0.5897 -1.9225758576281402 10.390253004369768 9.560955416307278 0 0 0
202 68 2 -1.1794 -0.14307929339238568 8.47919777471058 6.963632063819168 0 0 0
246 82 1 0.5897 0.2740661854505064 9.364593696916767 5.569251656451104 0 0 0
203 68 1 0.5897 -0.9859668369286751 8.033505159209554 7.046540171202421 0 0 0
204 68 1 0.5897 0.5064870510112396 7.797709064542298 7.136454722542602 0 0 0
64 22 2 -1.1794 1.9511811657577276 6.74246916244122 8.15750010382227 0 0 0
173 58 1 0.5897 2.712058608255541 7.865162699427888 4.913227025692866 0 0 0
65 22 1 0.5897 2.1836905675771714 7.418999235704677 8.793429486154299 0 0 0
172 58 2 -1.1794 3.27002402432392 8.556209953060948 5.269948369361824 0 0 0
66 22 1 0.5897 2.7564628589064064 6.590954743385828 7.663015838802003 0 0 0
228 76 1 0.5897 1.6883221020322843 11.133420541094617 5.817857737551859 0 0 0
190 64 2 -1.1794 -0.2216702315151391 10.229061111960284 9.497644000322014 0 0 0
192 64 1 0.5897 0.33318993395335994 11.008675914855084 9.51968650134366 0 0 0
244 82 2 -1.1794 0.4957680925766206 10.006176385317858 4.89436501157449 0 0 0
678 226 1 0.5897 -0.0002670137571634257 9.401976432307073 13.814177252828065 0 0 0
744 248 1 0.5897 -0.38514147837343904 7.456138781147033 10.70054385787584 0 0 0
703 235 2 -1.1794 -2.7439971784909405 8.504626044403443 12.207796441716928 0 0 0
742 248 2 -1.1794 -0.1531247999388734 8.145644984333504 11.322576409449061 0 0 0
705 235 1 0.5897 -2.7207687415012733 8.930638690776359 13.064560808312685 0 0 0
743 248 1 0.5897 0.010415263162353305 8.915530513422098 10.777729239317114 0 0 0
704 235 1 0.5897 -1.8237109209567022 8.397823313552816 11.967874033416322 0 0 0
750 250 1 0.5897 -3.576860165557095 10.588653710893462 14.151207840510727 0 0 0
724 242 2 -1.1794 0.1836453670754814 11.265088079822618 12.854416076724242 0 0 0
586 196 2 -1.1794 -0.8580751773153894 5.988897113515264 9.723104651348564 0 0 0
534 178 1 0.5897 1.2950621545127161 6.85873745989866 11.944628190816301 0 0 0
514 172 2 -1.1794 -1.4993646094325905 6.358422816682264 14.320963373278742 0 0 0
676 226 2 -1.1794 0.172579746327453 8.636578000926072 14.362490728815656 0 0 0
516 172 1 0.5897 -0.8662494503016003 7.051558008706514 14.134175465285336 0 0 0
515 172 1 0.5897 -2.3328582740204062 6.817037063827778 14.42602869197305 0 0 0
732 244 1 0.5897 -0.5129774987327531 11.382626198448518 16.27901661049112 0 0 0
731 244 1 0.5897 -1.7681749343253053 11.328321822876108 15.434750280649164 0 0 0
706 236 2 -1.1794 -3.461506378522695 9.206263446304716 17.13064372494845 0 0 0
568 190 2 -1.1794 -1.3735623228558431 7.38085267124436 17.663021145314367 0 0 0
695 232 1 0.5897 -3.1301001904801 10.13601927691487 18.651783619756685 0 0 0