LAMMPS data file via write_data, version 30 Jul 2021, timestep = 2000000

1296 atoms
2 atom types
864 bonds
1 bond types
432 angles
1 angle types

-10.495140917634204 12.475140917634205 xlo xhi
-9.150056426165653 12.140054426165653 ylo yhi
0.1958316864041585 21.664167313594568 zlo zhi
-8.998955494325964 1.7569855573495674 2.6432499104351814 xy xz yz

Masses

1 1.008
2 15.999

Pair Coeffs # lj/cut/tip4p/long/omp

1 0 0
2 0.21084 3.1668

Bond Coeffs # harmonic/omp

1 450 0.9572

Angle Coeffs # harmonic/omp

1 55 104.52

Atoms # full

282 94 1 0.5897 -10.219140635995256 -4.097805223819756 1.6065900397074162 1 1 0
280 94 2 -1.1794 -9.360012374067633 -4.498134593727049 1.4722475165341626 1 1 0
270 90 1 0.5897 -8.301527947970609 -7.3382597743673035 2.169039133931976 1 1 0
163 55 2 -1.1794 -7.0644532069927735 -7.936560101710979 0.6036494149865198 1 1 0
164 55 1 0.5897 -6.2324707996699376 -8.313633798176554 0.8900172778883308 1 1 0
269 90 1 0.5897 -9.196591704421111 -6.128138650850532 2.3329302701007877 1 1 0
268 90 2 -1.1794 -9.057674353792075 -7.016835378397801 2.660281837267236 1 1 0
299 100 1 0.5897 -6.504208878576693 -7.9051805352584505 3.7873554401194283 1 1 0
324 108 1 0.5897 -6.957241389921366 -4.394714441746093 3.399028907247013 1 1 0
73 25 2 -1.1794 -8.261561169989845 -3.8761026305757893 4.696150658754633 1 0 0
314 105 1 0.5897 -8.66602252753304 -6.63589277172733 4.375079667449169 1 1 0
298 100 2 -1.1794 -5.874171144738038 -7.187173818910902 3.848142504469957 1 1 0
275 92 1 0.5897 -10.320414416924473 -8.030020660941299 3.503348760778789 1 1 0
52 18 2 -1.1794 -11.947025457144637 0.10509230586817964 2.8825060588255758 1 0 0
300 100 1 0.5897 -5.019750777547441 -7.609387991710263 3.7580689990505713 1 1 0
59 20 1 0.5897 -13.332003864201834 -0.8989692515155685 3.517364048728674 1 0 0
75 25 1 0.5897 -9.087954347151294 -3.5088656914521845 4.382163155392419 1 0 0
256 86 2 -1.1794 -11.9247892387325 -3.4691488141357274 1.8194887210932973 1 1 0
315 105 1 0.5897 -8.48283528109313 -5.550701602606884 5.414832483067871 1 1 0
281 94 1 0.5897 -8.750920079532548 -3.7599192359609663 1.4579822369660813 1 1 0
322 108 2 -1.1794 -6.369948463758555 -4.799045648236388 2.7602723113296386 1 1 0
633 211 1 0.5897 -5.8661289806007 -6.2130905053890935 5.423790885443454 1 1 0
323 108 1 0.5897 -6.197672056873325 -5.672567052450605 3.1117381209326505 1 1 0
98 33 1 0.5897 -11.68965214112897 0.4133666917674752 4.747900260746634 1 0 0
301 101 2 -1.1794 -7.864117570137072 -2.1189682538547085 1.7393635118775201 1 1 0
44 15 1 0.5897 -9.652102864346329 0.9440717232347939 0.2524755171255247 1 0 0
53 18 1 0.5897 -12.081335412344945 0.9806028735844521 2.519623643722726 1 0 0
54 18 1 0.5897 -11.359136677963441 -0.3247823143874342 2.2612117231090716 1 0 0
68 23 1 0.5897 -11.295762147392606 -2.7293811804819343 4.771798547395271 1 0 0
67 23 2 -1.1794 -10.63196103461712 -2.546912683463674 4.1067556804146275 1 0 0
69 23 1 0.5897 -11.047306378532165 -2.791322585301172 3.279651128514155 1 0 0
272 91 1 0.5897 -9.310202639853356 -1.0585526377049135 1.3627924963665532 1 1 0
271 91 2 -1.1794 -10.099102313690107 -0.7164211175266519 0.9421319668520686 1 1 0
258 86 1 0.5897 -12.34095595755338 -2.8623574485879475 1.207199058945735 1 1 0
82 28 2 -1.1794 -9.017426922448415 -0.1798858272032522 4.34083114045362 1 0 0
83 28 1 0.5897 -9.589114558915885 -0.9105206102485646 4.10509556321462 1 0 0
107 36 1 0.5897 -9.278822147821923 1.3641961131420839 3.485006263258092 1 0 0
313 105 2 -1.1794 -8.595514975643734 -6.496473249816773 5.319499806151345 1 1 0
273 91 1 0.5897 -10.27672064925852 -1.3305963393418763 0.22965867431929698 1 1 0
99 33 1 0.5897 -11.505210470372203 1.758953542858345 5.41691185456909 1 0 0
261 87 1 0.5897 -6.573046108261724 -5.090374544655804 1.0340968071684045 1 1 0
84 28 1 0.5897 -8.13201941990602 -0.5387137905795836 4.280030409193672 1 0 0
1010 337 1 0.5897 -12.63209633132247 1.4199728644416165 0.23714103726529553 0 -1 1
74 25 1 0.5897 -7.965483993390508 -3.2613084987503225 5.367508718293215 1 0 0
429 143 1 0.5897 -6.255621313297907 -7.1781792989705 8.614369994371454 1 0 0
428 143 1 0.5897 -6.652578603670732 -7.101337587827387 10.073331723718598 1 0 0
427 143 2 -1.1794 -5.963892113240468 -6.841274410519661 9.461573238651605 1 0 0
618 206 1 0.5897 -7.632946834888269 -7.35116571561877 6.599458619401954 1 1 0
420 140 1 0.5897 -9.169117392027475 -6.534342853623722 9.670532326064574 1 0 0
414 138 1 0.5897 -6.657748896229078 -4.903464747745957 7.6309705575810085 1 0 0
413 138 1 0.5897 -7.485553048293247 -3.63816584203229 7.709231753751185 1 0 0
412 138 2 -1.1794 -7.385724015765468 -4.503222441883479 8.10664526295288 1 0 0
350 117 1 0.5897 -7.088687709227392 -4.366653517862527 9.929418591910325 0 0 0
419 140 1 0.5897 -8.796492371435367 -5.519190700635033 8.611170283979344 1 0 0
418 140 2 -1.1794 -9.542071747819783 -6.001836298663761 8.967959872905196 1 0 0
522 174 1 0.5897 -9.761210192869644 2.3618210936983086 7.609705712333739 1 0 0
627 209 1 0.5897 -10.13179364079742 -6.95206097095285 6.104519574092173 1 1 0
425 142 1 0.5897 -7.225264312935992 -1.346917174985844 6.856913334447284 1 0 0
402 134 1 0.5897 -10.708744574147106 -0.24448083264666032 6.786723783261539 1 0 0
616 206 2 -1.1794 -7.244958427499556 -7.911173816071239 7.271856700744444 1 1 0
433 145 2 -1.1794 -6.781674279047532 -1.3969332279618918 10.01983871414902 0 0 0
401 134 1 0.5897 -10.975680971053627 -1.3579103672765847 7.777013168050953 1 0 0
411 137 1 0.5897 -13.255855255469145 0.305235203356057 6.536678348458409 1 0 0
400 134 2 -1.1794 -10.267878989595156 -0.9135844406279237 7.310405149594279 1 0 0
537 179 1 0.5897 -9.370068321818835 -0.23020100451172176 8.622412409225813 1 0 0
536 179 1 0.5897 -9.415410247716359 0.033859545102499666 10.11250775361289 1 0 0
535 179 2 -1.1794 -8.907570956904074 0.2274162878829209 9.324571581523138 1 0 0
528 176 1 0.5897 -11.830534264657716 0.44593237164067645 9.80591406846023 1 0 0
424 142 2 -1.1794 -7.817414979573906 -2.090829553519905 6.74669125937523 1 0 0
527 176 1 0.5897 -11.634691676398223 1.6103816903839245 8.858613427392902 1 0 0
526 176 2 -1.1794 -12.312156569943422 1.0608671397991856 9.252555420306818 1 0 0
426 142 1 0.5897 -8.693475714911575 -1.7155606450855965 6.836677984826756 1 0 0
435 145 1 0.5897 -7.537811361667012 -0.8980143709380712 9.710439177737577 0 0 0
351 117 1 0.5897 -6.8825007478443325 -3.1094892229407822 10.74750203386228 0 0 0
349 117 2 -1.1794 -6.9695222222918165 -4.059306712021657 10.828143559561461 0 0 0
327 109 1 0.5897 -4.559115365354582 -7.944292560339965 9.79041513437736 0 0 0
415 139 2 -1.1794 -8.58457024819595 1.6292529542011263 6.562494817790846 1 0 0
626 209 1 0.5897 -10.351151643091768 -6.711970885817335 7.583163677766024 1 1 0
430 144 2 -1.1794 -12.258203751619899 -2.2566867016185217 8.573626881049364 1 0 0
417 139 1 0.5897 -8.925415415888995 1.0636803643246875 5.869454887160837 1 0 0
631 211 2 -1.1794 -5.641814776814198 -5.57656467351961 6.102682095551715 1 1 0
97 33 2 -1.1794 -11.668550804656473 0.8351662202636927 5.606987347759561 1 0 0
652 218 2 -1.1794 -5.674420102517564 -5.653206324169801 12.7606309363771 0 0 0
780 260 1 0.5897 -7.528679810954859 -3.855725226832914 15.208022388418213 0 0 0
779 260 1 0.5897 -7.3349246872366525 -2.882652019701313 14.06466467951737 0 0 0
778 260 2 -1.1794 -8.011767777211322 -3.2928333436351354 14.602972782483171 0 0 0
768 256 1 0.5897 -9.56699388479331 -2.644963496008085 14.909753374183675 0 0 0
654 218 1 0.5897 -6.153762006773556 -5.0315583708647535 12.212815407775757 0 0 0
653 218 1 0.5897 -6.356106535027044 -6.141670927751871 13.221963254927307 0 0 0
661 221 2 -1.1794 -9.157571642408053 -4.558904225768909 12.421465381113773 0 0 0
682 228 2 -1.1794 -7.7680093489339965 -7.202478735023366 13.753522722164554 0 0 0
684 228 1 0.5897 -8.519655975813894 -6.779765369801995 14.169167860827681 0 0 0
729 243 1 0.5897 -7.916886574033406 -7.341621235169095 11.970669289980469 1 0 0
662 221 1 0.5897 -8.857079079541213 -4.134781822568348 13.225327390253359 0 0 0
766 256 2 -1.1794 -10.454214534234232 -2.2908642777692174 14.971672925987447 0 0 0
663 221 1 0.5897 -8.3992333026797 -4.532049928009915 11.837965037261863 0 0 0
740 247 1 0.5897 -10.671546538239127 -3.6029013263795076 12.029762665471559 1 0 0
896 299 1 0.5897 -7.951154964557451 2.543720796518821 15.437186481912015 0 0 0
769 257 2 -1.1794 -12.246573074230891 2.692315244419227 12.394455465961565 0 0 0
770 257 1 0.5897 -11.779163989975483 2.800820659308229 13.222765692016708 0 0 0
791 264 1 0.5897 -10.726794475208925 -0.760915050437811 14.16707429522387 0 0 0
727 243 2 -1.1794 -8.14814056322763 -7.480948423292597 11.052273653399189 1 0 0
788 263 1 0.5897 -5.017786323204587 -4.59315054512178 15.461304261137462 0 0 0
790 264 2 -1.1794 -10.835536731750834 0.09527696682952502 13.753160014615405 0 0 0
837 279 1 0.5897 -10.872673818669723 -0.23934730473796328 11.881101104507097 1 0 0
767 256 1 0.5897 -11.022662706927877 -3.0600471196350147 14.934334644820666 0 0 0
771 257 1 0.5897 -11.577391482433635 2.8221773977482325 11.722476157008746 0 0 0
792 264 1 0.5897 -11.418961807807044 0.5742496907720049 14.341910052209512 0 0 0
762 254 1 0.5897 -9.108967342380929 2.0426069176764603 11.982842393628092 0 0 0
761 254 1 0.5897 -9.350690249143234 0.9526093373719977 13.005162254188399 0 0 0
760 254 2 -1.1794 -8.652083365868808 1.4483296538095054 12.578155365719178 0 0 0
888 296 1 0.5897 -10.355973384175872 2.844505848808856 15.382930655279223 0 0 0
749 250 1 0.5897 -10.156306669268144 -6.053955586496856 12.335706938644185 1 0 0
865 289 2 -1.1794 -12.617333366745498 1.153354801485385 15.793436999081173 0 0 0
835 279 2 -1.1794 -10.801591931939804 -0.6344887283511831 11.012078897520444 1 0 0
758 253 1 0.5897 -9.616214954717773 -5.366278581452126 16.10576130150384 0 0 0
757 253 2 -1.1794 -9.755279556726865 -5.993820669905897 15.396364736131423 0 0 0
836 279 1 0.5897 -11.030626326513014 -1.5540130544709214 11.146990356748978 1 0 0
1151 384 1 0.5897 -6.020619621197987 -5.4476740475851 19.333663011944807 0 0 0
1152 384 1 0.5897 -6.813874582894967 -4.1789871065067885 19.56511822160918 0 0 0
1225 409 2 -1.1794 -8.021033431014535 -3.718932601870061 20.8724164308341 0 0 0
1227 409 1 0.5897 -8.812920447363538 -3.332265414162136 20.49854854221659 0 0 0
1109 370 1 0.5897 -8.784787616940491 -3.6729974875308837 17.5557465603466 0 0 0
1108 370 2 -1.1794 -9.437452083983036 -4.358726511741663 17.696964405457262 0 0 0
1089 363 1 0.5897 -6.523355000837544 -4.81502939446758 17.30244506794325 0 0 0
1143 381 1 0.5897 -8.58816809219907 -5.393693570447522 21.50646050754941 0 0 0
1150 384 2 -1.1794 -6.121406068942228 -4.549695193985505 19.017885083050867 0 0 0
1248 416 1 0.5897 -5.669158711361392 -1.7590015634399379 20.28657130142518 0 0 0
1216 406 2 -1.1794 -12.112354152984889 2.8164412130211733 17.942921651426012 0 0 0
1219 407 2 -1.1794 -10.15839378846475 -2.1558448002625514 20.13402587921731 0 0 0
1195 399 2 -1.1794 -9.379691043165705 1.9808700614322454 16.633600032919283 0 0 0
1131 377 1 0.5897 -6.987962014303737 -1.9267647381644837 16.80563169008584 0 0 0
1141 381 2 -1.1794 -8.74110150396609 -6.33759498683294 21.54979760897857 0 0 0
1217 406 1 0.5897 -11.479913700791643 3.533158207407725 17.893038007656198 0 0 0
1218 406 1 0.5897 -12.963465123971947 3.2388575408998133 17.82638870522815 0 0 0
1129 377 2 -1.1794 -7.570266443917072 -2.098413657803789 17.54567967490915 0 0 0
1204 402 2 -1.1794 -11.913831228511473 0.2277889478060331 18.91749828094553 0 0 0
1097 366 1 0.5897 -9.25845846304049 -6.003602365987161 18.417869195027762 0 0 0
1130 377 1 0.5897 -7.036217946397684 -1.9155095870068877 18.318778859449974 0 0 0
1088 363 1 0.5897 -6.964332512760994 -5.9107480735555225 16.355274542244544 0 0 0
1206 402 1 0.5897 -11.14345051701175 -0.08856155011861944 18.445458726782416 0 0 0
1246 416 2 -1.1794 -6.1691147684431495 -1.2305580971213281 19.66440248407735 0 0 0
1100 367 1 0.5897 -8.988006338795117 -1.0152430343422285 17.35267246220887 0 0 0
1011 337 1 0.5897 -11.714285556045386 3.77345959080413 20.479105915839288 0 -1 0
1250 417 1 0.5897 -11.53848961171593 0.5125865443420832 20.635584965316905 0 0 0
1251 417 1 0.5897 -11.297739625690392 1.6762257713590412 21.573800015616914 0 0 0
1009 337 2 -1.1794 -11.02201368281881 3.403815204960443 21.02725745939424 0 -1 0
1205 402 1 0.5897 -12.070821393712189 1.1025677225664818 18.562018554289438 0 0 0
1260 420 1 0.5897 -9.766812089889108 2.96531672641669 19.760026261198608 0 0 0
1259 420 1 0.5897 -8.920263373955724 1.7233295254412475 19.577775692708634 0 0 0
1258 420 2 -1.1794 -9.065050284796584 2.599773721331772 19.221224837781794 0 0 0
1099 367 2 -1.1794 -9.846134710076456 -0.6277407070942065 17.1798980433239 0 0 0
1197 399 1 0.5897 -9.325022625184175 2.2920458131484 17.537231105271466 0 0 0
1236 412 1 0.5897 -7.672172051862991 -0.2002925238638653 20.277062484729225 0 0 0
1235 412 1 0.5897 -9.1272506445737 -0.5898381883420765 20.42834668817118 0 0 0
1234 412 2 -1.1794 -8.555538436384795 0.16761177527715 20.303638977780533 0 0 0
1121 374 1 0.5897 -4.751099390507555 -3.610956624844439 18.20898836595487 0 0 0
1087 363 2 -1.1794 -6.58891808713455 -5.030423543315929 16.372036559080154 0 0 0
1249 417 2 -1.1794 -11.453791486063977 0.7318808049630263 21.563534770625946 0 0 0
1226 409 1 0.5897 -7.796514710521217 -3.1449540070237045 21.604884392597384 0 0 0
1110 370 1 0.5897 -10.268897326388677 -3.888830569435477 17.762618906384187 0 0 0
1221 407 1 0.5897 -10.550800077701988 -2.283912442919937 19.270336544619102 0 0 0
1229 410 1 0.5897 -7.737999208659518 3.4176197900955483 18.48852935057751 0 0 0
259 87 2 -1.1794 -4.788137155686927 -2.6636183221773786 21.570389773690522 1 1 -1
165 55 1 0.5897 -5.657402586595497 -5.929786875972606 21.448454192908706 1 1 -1
260 87 1 0.5897 -5.047064229102819 -3.584234463121857 21.529870513877913 1 1 -1
1101 367 1 0.5897 -10.219865271018895 -1.1717519454957799 16.486560606624675 0 0 0
866 289 1 0.5897 -12.277594960324148 1.6789784518647668 16.517767265401858 0 0 0
1196 399 1 0.5897 -9.492084060462142 1.0335586273166069 16.712288091054432 0 0 0
40 14 2 -1.1794 -14.817763697158888 3.9137348696213206 1.8481871411510458 1 0 0
177 59 1 0.5897 -13.82724609365607 4.601594216321917 3.2589099412047093 1 0 0
42 14 1 0.5897 -15.385429125990768 4.505513162952401 1.3543310467586283 1 0 0
55 19 2 -1.1794 -12.972841039267218 6.258696341673414 0.9673293483148151 1 0 0
56 19 1 0.5897 -12.195868966477903 5.808621324458363 1.299188699458723 1 0 0
66 22 1 0.5897 -13.25152146536406 3.0383249255707767 1.51364987089242 1 0 0
65 22 1 0.5897 -11.75232409984758 3.1450682432305737 1.6955748398667119 1 0 0
64 22 2 -1.1794 -12.467549939777125 2.50977369895989 1.663412399462008 1 0 0
191 64 1 0.5897 -12.387950475725935 6.340699667329879 3.9801663779156917 1 0 0
183 61 1 0.5897 -12.049371670591265 3.843196277593183 4.406418731880931 1 0 0
181 61 2 -1.1794 -11.24303950608877 3.4393100930639555 4.727488450996468 1 0 0
176 59 1 0.5897 -14.02966249682881 4.670711309625666 4.757686880641061 1 0 0
175 59 2 -1.1794 -13.41255776751585 4.907871698661637 4.065496035003225 1 0 0
108 36 1 0.5897 -10.142443582589737 2.5985255743968523 3.6365217539755723 1 0 0
207 69 1 0.5897 -14.407466588577012 8.672455439690653 5.343018944135523 1 0 0
152 51 1 0.5897 -12.658311922320316 7.968187130042638 0.26960077991662224 1 0 0
41 14 1 0.5897 -15.418094091600778 3.4028977261537463 2.391107274942613 1 0 0
85 29 2 -1.1794 -10.788559247218869 4.616054568347266 1.60410402818631 1 0 0
190 64 2 -1.1794 -11.747285365003762 7.051518384545448 4.000993003604093 1 0 0
167 56 1 0.5897 -16.27723345350447 6.167984510056256 3.471554930680921 1 0 0
162 54 1 0.5897 -14.304412511150193 6.838676774900414 2.0793699580779554 1 0 0
153 51 1 0.5897 -12.616509624144793 9.146735882164743 1.2191238767542305 1 0 0
151 51 2 -1.1794 -12.552962997243405 8.91933698339003 0.2914358553184785 1 0 0
215 72 1 0.5897 -12.204158289798714 8.684003435251123 3.291287481720939 1 0 0
206 69 1 0.5897 -14.690511949201893 7.48823087700565 4.443175380739288 1 0 0
150 50 1 0.5897 -18.49820084620752 11.373757815139813 1.2842451104025536 1 0 0
160 54 2 -1.1794 -15.018489464172575 7.14336115820525 2.6394052627981828 1 0 0
174 58 1 0.5897 -16.337920276350758 10.08783232868353 1.6223572557351795 1 0 0
173 58 1 0.5897 -14.841005079258409 10.269370850642149 1.487299422218795 1 0 0
172 58 2 -1.1794 -15.513144917833745 9.601880851929613 1.6244618321797613 1 0 0
161 54 1 0.5897 -15.163774501358077 8.050631421925116 2.371049553988414 1 0 0
289 97 2 -1.1794 -14.362307724401544 10.366692734198976 4.6951571532911425 1 0 0
216 72 1 0.5897 -13.054223399373615 9.886412596178475 3.6434302780284717 1 0 0
291 97 1 0.5897 -15.191457998507369 10.71037138797855 4.362336010358723 1 0 0
283 95 2 -1.1794 -16.579794376405825 11.896146336456633 3.909661355133249 1 0 0
284 95 1 0.5897 -17.17996870764126 11.803342529592358 4.64953658860873 1 0 0
285 95 1 0.5897 -17.05398532151704 11.521268830111003 3.1673969268394844 1 0 0
148 50 2 -1.1794 -17.941828890507747 10.793654025385072 1.8041139139959257 1 0 0
193 65 2 -1.1794 -13.894694564703808 11.843540568516284 1.4365476624556008 1 0 0
205 69 2 -1.1794 -14.54522135218091 7.725357925739319 5.359154303905258 1 0 0
106 36 2 -1.1794 -9.453010248481815 2.2191609500374394 3.0913912383046043 1 0 0
45 15 1 0.5897 -9.601076208842125 2.1402094900413857 1.1792625718464098 1 0 0
43 15 2 -1.1794 -9.574577975385813 1.898134832682615 0.25349162498274375 1 0 0
214 72 2 -1.1794 -12.363231994191523 9.59601425026772 3.047975486600111 1 0 0
194 65 1 0.5897 -13.421006143285545 11.910405897661919 2.2656953796640114 1 0 0
290 97 1 0.5897 -14.038187068683001 11.049338805678564 5.282764399659454 1 0 0
182 61 1 0.5897 -10.90667990460667 4.057738969936803 5.376149196281699 1 0 0
525 175 1 0.5897 -11.935410013309431 8.149172573077122 5.517706319254358 1 0 0
57 19 1 0.5897 -13.332787940860033 5.663064714835789 0.31005182245765905 1 0 0
508 170 2 -1.1794 -13.24537551056228 6.128638375940515 7.162489488612377 1 0 0
645 215 1 0.5897 -12.204264824278283 7.056139838667319 8.519311980646163 1 0 0
644 215 1 0.5897 -12.57138514612952 6.966700846570573 9.985329288753363 1 0 0
643 215 2 -1.1794 -11.876144266210115 7.258247243754932 9.395578066099887 1 0 0
509 170 1 0.5897 -13.871745173208488 5.7449145675794515 7.7761265321916735 1 0 0
543 181 1 0.5897 -10.446183597664419 6.122732287900988 9.77858835488616 0 0 0
532 178 2 -1.1794 -10.744719996511648 5.159430333685949 6.869684058930472 1 0 0
521 174 1 0.5897 -10.488246850519664 3.6869869815820167 7.697390995860644 1 0 0
510 170 1 0.5897 -13.784392738179765 6.634893686707018 6.554632719342492 1 0 0
534 178 1 0.5897 -11.630898103297508 5.506692578176516 6.972071704424651 1 0 0
641 214 1 0.5897 -13.284670060016822 12.752028081922392 6.860020595519004 1 0 0
617 206 1 0.5897 -16.98929001412968 12.92643869347033 7.6665712332417 1 0 0
459 153 1 0.5897 -9.961631772225523 4.206799369358768 10.73637848604872 0 0 0
458 153 1 0.5897 -10.182824681483186 2.934379508901136 9.946292163952387 0 0 0
634 212 2 -1.1794 -15.504881089845853 8.176664624343156 9.226296233469046 1 0 0
636 212 1 0.5897 -15.031940858351835 7.572888068018061 9.799087091620686 1 0 0
519 173 1 0.5897 -16.080120439894397 7.340962287838453 6.268888141124366 1 0 0
642 214 1 0.5897 -14.771073121301663 12.505062439823115 7.00691021303498 1 0 0
635 212 1 0.5897 -14.818630136963975 8.688724905143905 8.798548601671358 1 0 0
566 189 1 0.5897 -13.190279660493456 10.030359995078294 10.028211878814044 0 0 0
640 214 2 -1.1794 -13.93594598396944 12.051349549095162 6.892347842836753 1 0 0
630 210 1 0.5897 -12.811009058651404 9.299591096158354 7.6848812536410955 1 0 0
629 210 1 0.5897 -13.604471085339013 10.583863604938758 7.800760407998014 1 0 0
628 210 2 -1.1794 -13.486968880484097 9.727042355341831 8.210979025224903 1 0 0
520 174 2 -1.1794 -10.363923468462048 2.8595870378382617 8.162335216467666 1 0 0
457 153 2 -1.1794 -10.018946974811913 3.2561963119471944 10.832829266024833 0 0 0
538 180 2 -1.1794 -15.182328989321292 4.748612714307001 8.607053611075216 1 0 0
567 189 1 0.5897 -13.005965181172346 11.253433146263733 10.901349359736274 0 0 0
518 173 1 0.5897 -16.340580918316313 7.587650141299468 7.739758542341403 1 0 0
523 175 2 -1.1794 -11.668337807958306 8.71407232033046 6.242920245916201 1 0 0
945 315 1 0.5897 -14.042835720466705 6.94423464486348 11.840894741276506 1 0 0
900 300 1 0.5897 -14.424503582496923 7.652532900556389 14.37742725578531 0 0 0
899 300 1 0.5897 -13.53742459086277 6.436887215255917 14.211090910338953 0 0 0
898 300 2 -1.1794 -13.784244099617194 7.25785816393808 13.78524290598435 0 0 0
874 292 2 -1.1794 -13.108378247453398 4.834506519714262 14.936856582756398 0 0 0
848 283 1 0.5897 -13.677374100608347 3.6323595881346815 12.283267221921655 1 0 0
887 296 1 0.5897 -10.028809086289105 3.794332506152113 14.250479934719591 0 0 0
876 292 1 0.5897 -12.302660790926591 4.317770211592228 14.922318455887764 0 0 0
943 315 2 -1.1794 -14.189100209780882 6.5686379799623325 10.972617134636698 1 0 0
886 296 2 -1.1794 -10.751488264895727 3.3039872636780068 14.642165967558098 0 0 0
869 290 1 0.5897 -12.469045059092677 8.365381374836462 13.182594327972687 0 0 0
956 319 1 0.5897 -16.699496922272846 10.816197718629345 12.205649169294167 1 0 0
875 292 1 0.5897 -13.810159308231412 4.184101283528653 14.962095812873448 0 0 0
868 290 2 -1.1794 -11.745003351431345 8.842007318602699 12.776739058938006 0 0 0
879 293 1 0.5897 -14.719630011510958 9.739722553641764 11.575071158007121 0 0 0
878 293 1 0.5897 -14.871492688604171 9.760044087909987 13.081255317938814 0 0 0
680 227 1 0.5897 -10.919485070284601 9.59117191068214 15.64094325208114 0 -1 0
683 228 1 0.5897 -16.764371099707184 13.198923014913232 14.10902343689635 0 -1 0
870 290 1 0.5897 -12.161904885056387 9.39282765752563 12.114106813304955 0 0 0
660 220 1 0.5897 -15.457672207413626 11.337618100530142 14.808902796769612 0 -1 0
877 293 2 -1.1794 -15.34509730043056 9.553719350881016 12.275356937487409 0 0 0
658 220 2 -1.1794 -16.355068310363123 11.65698215038183 14.904171204853286 0 -1 0
672 224 1 0.5897 -13.495537777948458 10.081743732768336 14.956385770037528 0 -1 0
671 224 1 0.5897 -13.268420526372864 11.271629662434828 14.048508546606742 0 -1 0
670 224 2 -1.1794 -13.945441910326304 10.662253297796399 14.342467220493832 0 -1 0
659 220 1 0.5897 -16.89199887679345 10.864659836392269 14.91308801756894 0 -1 0
728 243 1 0.5897 -17.244028167606306 12.860391526724412 10.970383915154077 1 -1 0
944 315 1 0.5897 -14.254549120000394 5.626189809774852 11.126660480060513 1 0 0
650 217 1 0.5897 -15.324204883835277 8.86945054725796 16.16569606641803 0 -1 0
649 217 2 -1.1794 -15.551376333148186 8.2848955441815 15.442462075454422 0 -1 0
955 319 2 -1.1794 -17.480049969353857 11.21566197499507 11.821530760212037 1 0 0
565 189 2 -1.1794 -13.101781940586998 10.301900361632358 10.941883921823566 0 0 0
1018 340 2 -1.1794 -11.818727100876036 7.212697020330642 20.189617207598314 0 -1 0
1019 340 1 0.5897 -12.407488889730056 6.461692950489541 20.11520229608335 0 -1 0
1020 340 1 0.5897 -10.945873779512798 6.826820649156225 20.26461386210904 0 -1 0
1043 348 1 0.5897 -12.049349636616828 8.70508708118678 19.28179566024357 0 -1 0
1030 344 2 -1.1794 -9.299805066447735 6.160173680947407 20.06717815989294 0 -1 0
1032 344 1 0.5897 -8.838626303908885 5.5348142194725725 20.626239283389438 0 -1 0
1208 403 1 0.5897 -12.002885898010732 6.191617914450417 17.439745679581847 0 0 0
1238 413 1 0.5897 -10.074959151919852 5.452057122259305 18.59918498907202 0 0 0
1237 413 2 -1.1794 -10.517580843602094 5.129854747729674 17.813928986912178 0 0 0
1207 403 2 -1.1794 -12.819670378687182 6.512773262930425 17.057529772211797 0 0 0
990 330 1 0.5897 -14.189968500582406 7.256475866648048 18.127581858013027 0 -1 0
1239 413 1 0.5897 -9.913937118586382 5.330560157363369 17.098713498254682 0 0 0
1003 335 2 -1.1794 -13.233357888332652 4.912940879705468 20.12126030562167 0 -1 0
1111 371 2 -1.1794 -16.57359604111943 11.973498324204991 20.29299903679033 0 -1 0
980 327 1 0.5897 -12.67104059550766 8.18766637706205 16.408946074629593 0 -1 0
1033 345 2 -1.1794 -14.563030274654619 7.992426547525573 21.498004857182842 0 -1 0
1002 334 1 0.5897 -16.208125381662455 10.360819261425283 17.91903145499009 0 -1 0
1001 334 1 0.5897 -14.735040578450683 10.689354048436845 17.800753742345307 0 -1 0
1098 366 1 0.5897 -17.295456752679073 14.134000192699434 18.220991393725072 0 -1 0
1126 376 2 -1.1794 -14.797961420146272 14.189703266024745 20.062121832596038 0 -1 0
989 330 1 0.5897 -15.093136198639684 8.361937938519128 18.63221438815829 0 -1 0
1021 341 2 -1.1794 -13.876544589830521 12.255164066626525 17.878853647169617 0 -1 0
993 331 1 0.5897 -16.297618982543582 12.915676896690629 16.398406627399588 0 -1 0
1140 380 1 0.5897 -11.867772142893497 12.500725095415662 20.614078615737558 0 -1 0
1138 380 2 -1.1794 -12.285255910684045 13.030771200859318 19.93507325226546 0 -1 0
1128 376 1 0.5897 -13.957055498509089 13.735176133240616 20.113973562602144 0 -1 0
1127 376 1 0.5897 -15.449875329664026 13.507159848648081 20.2211012180556 0 -1 0
1022 341 1 0.5897 -13.452328321666723 12.503230895374996 18.7003498453728 0 -1 0
1119 373 1 0.5897 -15.030251751100355 10.960771184316075 20.586596903761798 0 -1 0
1117 373 2 -1.1794 -14.162905102691383 10.649536133615614 20.845848695607227 0 -1 0
1044 348 1 0.5897 -12.78002136136362 10.008324777537235 19.526877928743954 0 -1 0
1042 348 2 -1.1794 -12.135214418626603 9.598786079358705 18.949892239669584 0 -1 0
981 327 1 0.5897 -12.50959837730208 9.428178984782763 17.261770364237243 0 -1 0
1023 341 1 0.5897 -13.180171558922458 12.30636510903629 17.224104865252478 0 -1 0
1000 334 2 -1.1794 -15.347735617227341 9.954134368231946 17.815408034766463 0 -1 0
991 331 2 -1.1794 -16.130239206370014 13.588442593615254 17.058515493873195 0 -1 0
992 331 1 0.5897 -15.316149776466707 13.313396813883434 17.480385042895634 0 -1 0
979 327 2 -1.1794 -12.65005847961502 9.143329179946805 16.35872216590294 0 -1 0
1005 335 1 0.5897 -13.619764149315973 4.632510089598483 19.291563052805557 0 -1 0
1034 345 1 0.5897 -14.68719331792741 7.652416580179457 20.611805595828255 0 -1 0
988 330 2 -1.1794 -14.89039740623859 7.43455937518762 18.755296657201878 0 -1 0
1035 345 1 0.5897 -14.468638002629357 8.937792088856876 21.38138927367944 0 -1 0
1013 338 1 0.5897 -10.73900113561961 10.67298405189518 18.5387173433436 0 -1 0
1118 373 1 0.5897 -13.915989852031872 11.21150195059471 21.580424481319607 0 -1 0
1209 403 1 0.5897 -13.024217511736042 5.883976163249212 16.365331353582892 0 0 0
25 9 2 -1.1794 -4.117642229563921 0.7685235726163775 5.411663505598985 0 0 0
243 81 1 0.5897 -0.9459587307143682 -5.458553210892004 5.234497216927373 0 1 0
90 30 1 0.5897 -3.601515462285212 -0.16175132186086394 2.121223174423923 1 0 0
316 106 2 -1.1794 -1.8905716403643513 -4.517356297375328 1.6172126327893754 1 1 0
305 102 1 0.5897 -1.50926274974805 -6.139201429667903 2.1557476088551084 1 1 0
241 81 2 -1.1794 -0.9947209941661068 -6.413778682483956 5.272248986473915 0 1 0
242 81 1 0.5897 -0.9448564286366139 -6.693075153896837 4.357987543403451 0 1 0
306 102 1 0.5897 -0.5809080495602199 -7.318040226314896 1.9534912326062812 1 1 0
304 102 2 -1.1794 -1.2811918091307923 -6.994401925148619 2.5202797478330177 1 1 0
318 106 1 0.5897 -2.7219144661453685 -4.0470013333228385 1.6808565483571891 1 1 0
311 104 1 0.5897 -2.6992453917122115 -7.932608590889384 3.247078700561986 1 1 0
293 98 1 0.5897 -5.015268894868377 -3.9089721455363353 2.1059992443740736 1 1 0
89 30 1 0.5897 -4.3276863290100485 1.1588422882621678 2.2661817666718944 1 0 0
26 9 1 0.5897 -4.114318703578631 0.6231013043948614 4.465524462069151 0 0 0
310 104 2 -1.1794 -3.363230792492713 -8.501455493545096 3.636494142389459 1 1 0
95 32 1 0.5897 -5.655831265809907 -0.7863119536118557 3.3084712153216014 1 0 0
96 32 1 0.5897 -5.870958364465338 -1.7039857446863707 4.4930776497187255 1 0 0
292 98 2 -1.1794 -4.321794819251441 -3.388237052605768 1.7009655989534351 1 1 0
294 98 1 0.5897 -4.771091453151763 -2.8656962545084275 1.0365984643054866 1 1 0
3 1 1 0.5897 -1.5205244750223628 -3.4031062989941887 4.446990090748424 0 0 0
105 35 1 0.5897 -3.403924271165474 -2.725322445198514 3.0338685284156517 1 0 0
94 32 2 -1.1794 -6.341311564848217 -1.1554493048258418 3.8652443190988355 1 0 0
104 35 1 0.5897 -3.5924483525265654 -2.644688673898231 4.5338837160631345 1 0 0
88 30 2 -1.1794 -4.206914870258889 0.3105836251825753 2.6928942556235276 1 0 0
103 35 2 -1.1794 -2.9325811180727754 -2.546038477785393 3.8475277569478594 1 0 0
303 101 1 0.5897 -7.2223297336598655 -1.9631414482981286 1.0465105648524422 1 1 0
309 103 1 0.5897 -2.849178930343718 -1.437039479456538 0.520644966712462 1 1 0
27 9 1 0.5897 -3.742492561275612 1.6422453116431797 5.521619499561197 0 0 0
317 106 1 0.5897 -1.227838266939667 -3.8282281274056196 1.5720137969622323 1 1 0
302 101 1 0.5897 -7.438607431035643 -1.8024997565136207 2.5363220654632417 1 1 0
404 135 1 0.5897 -5.196967709102451 -3.8607989017685185 5.495716505717233 1 0 0
553 185 2 -1.1794 -3.2969129792570584 -6.969452651449956 6.8689635348814715 0 1 0
335 112 1 0.5897 -4.866186859035716 -5.538401854995169 9.539303992070296 0 0 0
444 148 1 0.5897 -6.3895775099693015 1.9764661133151087 9.672761629155739 0 0 0
359 120 1 0.5897 -4.657059906010507 -3.2501467539129187 8.75906784028859 0 0 0
546 182 1 0.5897 -0.11599858096456472 -7.476326129838468 6.512029285041165 0 1 0
334 112 2 -1.1794 -4.24085484782818 -4.814400583494425 9.508624101292062 0 0 0
348 116 1 0.5897 -1.3211059077530205 -6.432808354939425 9.736542193561261 0 0 0
347 116 1 0.5897 -1.2385548033736224 -5.322561063143068 8.710765810243698 0 0 0
346 116 2 -1.1794 -1.8264767070991308 -5.997350442337598 9.05005640011629 0 0 0
336 112 1 0.5897 -3.387935511860893 -5.237974519596483 9.411034693823938 0 0 0
632 211 1 0.5897 -4.8627743755167305 -5.939697246282032 6.524105404902026 1 1 0