LAMMPS (30 Jul 2021)
Processor partition = 0
  using 2 OpenMP thread(s) per MPI task
using multi-threaded neighbor list subroutines
variable        pid world 0 1
variable        phase world IceVI IceV

shell cd ${phase}
shell cd IceVI
include Restart.lmp
echo both
log log.lammps
#include		in.partitions
include		in.temp
variable        temperature equal 253.27
variable	tempDamp equal 100.0
include		in.pressure
variable        pressure equal 8363.2
variable        pressureDamp equal 1000.0 # This is 1 ps
include		in.seed
variable        seed equal 745823

units		real
atom_style	full
read_restart	restart.lmp.${pid}
read_restart	restart.lmp.0
Reading restart file ...
  restart file = 30 Jul 2021, LAMMPS = 30 Jul 2021
  restoring atom style full from restart
  orthogonal box = (-0.047544112 -0.094815943 -0.13720501) to (24.777545 24.824817 22.947205)
  4 by 4 by 2 MPI processor grid
  restoring pair style lj/cut/tip4p/long/omp from restart
  restoring bond style harmonic/omp from restart
  restoring angle style harmonic/omp from restart
  1920 atoms
  1280 bonds
  640 angles
Finding 1-2 1-3 1-4 neighbors ...
  special bond factors lj:    0        0        0       
  special bond factors coul:  0        0        0       
     2 = max # of 1-2 neighbors
     1 = max # of 1-3 neighbors
     1 = max # of 1-4 neighbors
     2 = max # of special neighbors
  special bonds CPU = 0.002 seconds
  read_restart CPU = 0.007 seconds
include 	in.setup
variable	out_freq equal 1000
variable	out_freq2 equal 10000
variable	out_freq3 equal 1000

timestep	2.0

neigh_modify    delay 7 every 1

include		in.tip4p
# This is TIP4P/Ice

# create groups ###
group ox type 2
640 atoms in group ox
group hy type 1
1280 atoms in group hy

# set charges - beside manually ###
set group ox charge -1.1794
Setting atom values ...
  640 settings made for charge
set group hy charge 0.5897
Setting atom values ...
  1280 settings made for charge

# ### TIP3P Potential Parameters ###
pair_style lj/cut/tip4p/long/omp 2 1 1 1 0.1577 8.5
pair_coeff 1 1*2 0.000 0.000
pair_coeff 2 2 0.21084 3.1668
bond_style  harmonic
bond_coeff  1 450 0.9572
angle_style harmonic
angle_coeff 1 55 104.52
kspace_style pppm/tip4p/omp 1.0e-5
pair_modify tail yes

thermo          ${out_freq}
thermo          1000
thermo_style    custom step temp pe etotal epair emol press lx ly lz vol pxx pyy pzz pxy pxz pyz enthalpy

restart 	${out_freq3} restart.lmp.${pid} restart2.lmp.${pid}
restart 	1000 restart.lmp.${pid} restart2.lmp.${pid}
restart 	1000 restart.lmp.0 restart2.lmp.${pid}
restart 	1000 restart.lmp.0 restart2.lmp.0


include         in.dump
dump            myDump all atom ${out_freq2} dump.water.${pid}
dump            myDump all atom 10000 dump.water.${pid}
dump            myDump all atom 10000 dump.water.0
dump            myDump2 all dcd ${out_freq2} dump.dcd
dump            myDump2 all dcd 10000 dump.dcd
dump_modify     myDump append yes
dump_modify     myDump2 append yes


variable natoms 	equal  "count(all)"                        # NUMBER ATOMS
variable H      	equal  "enthalpy/v_natoms"                 # ENTHALPY-per-atom
variable Vol      	equal  "vol/v_natoms"                 # volume-per-atom
fix AVG all 		ave/time ${out_freq} 1 ${out_freq} v_Vol v_H file vol_enthalpy.dat
fix AVG all 		ave/time 1000 1 ${out_freq} v_Vol v_H file vol_enthalpy.dat
fix AVG all 		ave/time 1000 1 1000 v_Vol v_H file vol_enthalpy.dat




fix 		1 all shake 1e-6 200 0 b 1 a 1
Finding SHAKE clusters ...
       0 = # of size 2 clusters
       0 = # of size 3 clusters
       0 = # of size 4 clusters
     640 = # of frozen angles
  find clusters CPU = 0.001 seconds
fix             2 all nph aniso ${pressure} ${pressure} ${pressureDamp}
fix             2 all nph aniso 8363.2 ${pressure} ${pressureDamp}
fix             2 all nph aniso 8363.2 8363.2 ${pressureDamp}
fix             2 all nph aniso 8363.2 8363.2 1000
fix             3 all temp/csvr ${temperature} ${temperature} ${tempDamp} ${seed}
fix             3 all temp/csvr 253.27 ${temperature} ${tempDamp} ${seed}
fix             3 all temp/csvr 253.27 253.27 ${tempDamp} ${seed}
fix             3 all temp/csvr 253.27 253.27 100 ${seed}
fix             3 all temp/csvr 253.27 253.27 100 745823


run             250000
PPPM initialization ...
  extracting TIP4P info from pair style
  using 12-bit tables for long-range coulomb (../kspace.cpp:340)
  G vector (1/distance) = 0.37452508
  grid = 30 30 30
  stencil order = 5
  estimated absolute RMS force accuracy = 0.0032595972
  estimated relative force accuracy = 9.8161802e-06
  using double precision FFTW3
  3d grid and FFT values/proc = 5400 960
Last active /omp style is kspace_style pppm/tip4p/omp
Neighbor list info ...
  update every 1 steps, delay 7 steps, check yes
  max neighbors/atom: 2000, page size: 100000
  master list distance cutoff = 10.8154
  ghost atom cutoff = 10.8154
  binsize = 5.4077, bins = 5 5 5
  1 neighbor lists, perpetual/occasional/extra = 1 0 0
  (1) pair lj/cut/tip4p/long/omp, perpetual
      attributes: half, newton on, omp
      pair build: half/bin/newton/omp
      stencil: half/bin/3d
      bin: standard
Setting up Verlet run ...
  Unit style    : real
  Current step  : 2250000
  Time step     : 2
Per MPI rank memory allocation (min/avg/max) = 10.54 | 10.55 | 10.56 Mbytes
Step Temp PotEng TotEng E_pair E_mol Press Lx Ly Lz Volume Pxx Pyy Pzz Pxy Pxz Pyz Enthalpy 
 2250000    264.72842   -9146.2305    -8136.965   -9146.2305            0    9243.5365    24.825089    24.919633     23.08441    14280.757     9879.748    9747.3015      8103.56   -23.188411   -1321.6488     822.3352   -6211.8118 
 2251000    257.89131   -9149.9592     -8166.76   -9149.9592            0    9626.2067    24.970191    24.973523     22.86594    14259.055    10139.791    9018.2193    9720.6094    310.88525   -266.40264    1420.3909   -6164.9547 
 2252000      260.945   -9152.3823    -8157.541   -9152.3823            0    8003.8318    24.999815    24.972563    22.957031    14332.291    7473.3062    7999.5961    8538.5932   -63.906472   -980.70179   -1348.3046   -6484.5659 
 2253000    255.98801   -9122.8272   -8146.8841   -9122.8272            0    11220.572    24.791811    24.955438    22.963684    14207.413    11916.206    10510.681    11234.828   -255.00281   -488.18632   -1023.3302   -5821.9755 
 2254000    247.76893   -9145.1003   -8200.4922   -9145.1003            0    9038.9759    24.952708    25.007791    22.918007    14301.114    9130.2043    8699.0036    9287.7199   -945.96113    608.08899   -22.501923   -6315.2594 
 2255000    253.38743    -9113.106   -8147.0776    -9113.106            0    9087.8326    24.741037    24.944512    23.175177    14302.632    10205.955    8867.6176    8189.9256   -497.84612     -1071.86   -837.06293   -6251.4536 
 2256000    251.50947   -9094.5612   -8135.6924   -9094.5612            0    8535.0168    24.920202    25.147634    22.921237    14364.375    8833.5096    8367.9095    8403.6313   -52.013425   -722.51375    1114.8727   -6347.6946 
 2257000    252.28579   -9152.2685     -8190.44   -9152.2685            0     7479.886    24.895934    25.094104    23.005048      14372.2    8935.6312    7176.1037     6327.923    88.671328   -652.60064    463.33848   -6622.6275 
 2258000    251.87026   -9155.0148   -8194.7705   -9155.0148            0    7236.0421    24.877507    25.053287    23.048897    14365.532    7867.5503    6378.9529    7461.6231    681.06971    752.27843   -192.74749   -6678.7723 
 2259000    260.28233   -9113.3763   -8121.0613   -9113.3763            0    8587.7955    24.842856    25.071354     23.03795     14349.05    9584.9484    7941.2719    8237.1663   -452.79067   -770.35904   -608.14475   -6323.9262 
 2260000    253.04952   -9108.5352    -8143.795   -9108.5352            0    8353.8564    24.838033    25.074128    23.027146    14341.123    8969.3122    7418.4693    8673.7879   -451.79723   -493.06139    1758.4721   -6396.5812 
 2261000    249.71697   -9135.5808   -8183.5458   -9135.5808            0    8164.0122    24.898159    25.054019     23.02061    14360.232    8037.2472    8237.1064    8217.6831   -488.91183    233.19998    741.46425   -6473.7628 
 2262000    263.07856   -9133.0637   -8130.0883   -9133.0637            0    6822.9614    25.048538     25.20441    22.807538    14399.166    6584.1589    6291.4221    7593.3031    227.25367   -221.11211    519.87552   -6697.2864 
 2263000    257.45739   -9130.6858   -8149.1408   -9130.6858            0    6775.9711    24.921815    25.006195    23.102657     14397.57    6392.1071    7354.6083     6581.198    -133.4631   -897.51132   -462.92394   -6726.3644 
 2264000    247.33768   -9158.2973   -8215.3332   -9158.2973            0    7732.4593    24.920533    24.999139    22.990847     14323.11    8674.3263    6652.9152    7870.1363     21.89566   -759.16901   -228.66996   -6600.1163 
 2265000    250.47294   -9116.0037   -8161.0866   -9116.0037            0    8715.3554    25.028415    25.048441    22.829497    14312.331    7983.3044    7992.6542    10170.108   -30.320653    1107.5774    798.51428   -6341.9246 
 2266000     261.0374   -9151.7966    -8156.603   -9151.7966            0    8303.5202    24.967773    24.912101    23.004418     14308.74    7211.2053    9128.0838    8571.2713   -81.262409   -369.95271    848.49211   -6423.8385 
 2267000    256.65469   -9136.3776   -8157.8929   -9136.3776            0    9289.6027    24.898505    24.833117    23.123846    14297.647    8636.6957    10543.649    8688.4637   -6.5480607    1310.7416    704.38441   -6220.8573 
 2268000    240.51373   -9121.1857   -8204.2377   -9121.1857            0    8603.5699     24.93786     25.03058    22.952076    14326.895    9050.4153    8293.1377    8467.1569    50.708817     1.874932    750.09347   -6406.5814 
 2269000    248.87249   -9125.2787   -8176.4633   -9125.2787            0    8231.5049    24.958565    25.027942    22.881443    14293.157    7359.7801     8700.768    8633.9666   -435.40897   -1070.9666   -470.25881   -6460.5976 
 2270000    241.84614   -9125.8009   -8203.7731   -9125.8009            0    7584.5383    24.851408    25.021795    23.144214    14391.693    8304.5399    6938.9857    7510.0891    85.903332    108.64485    -1104.888   -6611.8689 
 2271000    255.85865   -9160.1214   -8184.6715   -9160.1214            0     7908.431    24.919264    25.006926    22.986776    14324.306    8058.4671    7937.7991    7729.0267    1103.5457   -56.280544   -768.20692   -6532.5584 
 2272000    257.94068   -9125.0926   -8141.7051   -9125.0926            0    7544.5688     25.07331    25.102761    22.851103    14382.697    6559.3204    5636.6361     10437.75    19.483712   -135.20541   -1736.8332   -6559.1798 
 2273000    239.85188   -9126.6848   -8212.2601   -9126.6848            0    9350.1449    25.024801    24.880349    22.920229    14270.725    8157.6869      9561.43    10331.318     50.80201    628.42109    192.11737   -6266.2715 
 2274000    262.56552   -9110.8409   -8109.8214   -9110.8409            0     8320.115    25.086171    24.938392    22.932873    14347.006    7751.6119    8714.1855    8494.5475     433.0376    70.454243    190.77234   -6368.9508 
 2275000    258.54384   -9151.6094   -8165.9224   -9151.6094            0    7732.0542    24.955808    24.900152    23.091303    14349.014    7246.9181     8664.182    7285.0626   -398.17757   -88.650235   -212.59996    -6547.869 
 2276000    260.78754   -9129.3167   -8135.0757   -9129.3167            0    7568.6516    25.077939    24.996289    22.927633    14372.311    6439.0707    7857.8389    8409.0454   -917.42078   -866.14985    576.20234   -6548.6454 
 2277000    247.24243   -9106.0261   -8163.4252   -9106.0261            0    7922.9336    25.061189    25.036552    22.899291    14368.063    7899.8742    7408.4723    8460.4542    269.68774    -1001.476    925.60186   -6503.2263 
 2278000    252.27459   -9153.9904   -8192.2047   -9153.9904            0    8518.6552    24.918805    24.945107    23.074744    14343.313    8903.4973    8806.6815    7845.7869   -389.56528   -90.590346    948.26868    -6410.251 
 2279000    250.00929   -9149.9522   -8196.8028   -9149.9522            0    7505.6578    25.032142    25.034435    22.923436    14365.328    6768.1693    7971.4652    7777.3388   -953.80631    432.98337    138.22177   -6624.3407 
 2280000    261.37941   -9143.2868   -8146.7893   -9143.2868            0    6965.3971    25.044353    24.975771    23.025741    14402.648    7250.3629    7863.5144     5782.314    43.775504   -146.80998   -240.84652   -6683.7226 
 2281000    252.50433   -9079.8788   -8117.2171   -9079.8788            0     8323.263    24.994168    24.953025    23.053525    14378.025     7462.853    8639.3703    8867.5657    295.12012   -459.52218    501.42516   -6371.9225 
 2282000    253.87599   -9105.6966   -8137.8056   -9105.6966            0    7531.0837    25.069827    25.092275    22.865233    14383.581    6501.0935    7675.8308    8416.3267    405.47371    122.18932    719.20125   -6558.0119 
 2283000    260.55169   -9146.8566   -8153.5148   -9146.8566            0    8020.6179    24.918577    24.950655    23.066111    14341.004    8080.3427    8799.1482    7182.3627   -515.22581   -341.20212   -458.94076   -6476.0119 
 2284000    240.19724   -9127.0169   -8211.2755   -9127.0169            0      6812.65    24.894894    25.050553    23.103505    14408.059    8200.3527    5109.5178    7128.0795   -691.12934   -1031.6587    -444.6563   -6779.7554 
 2285000    248.20795   -9175.9813   -8229.6994   -9175.9813            0    7451.1468    24.982609    25.029916    22.908011    14324.668    7576.6606    6568.3746    8208.4052   -916.85898    115.81628    1152.8853   -6673.0759 
 2286000    243.10319   -9112.4493   -8185.6291   -9112.4493            0    8052.6991    24.906521    25.022263    23.012516    14341.803    8711.0885    7049.0591    8397.9498   -228.75901    295.78407    617.58122   -6501.3227 
 2287000    255.67388   -9141.4849   -8166.7394   -9141.4849            0    8097.3651     24.81696     25.00303    23.099543    14333.248    8930.8349    7533.3718    7827.8886   -110.54882    69.794396   -227.80267   -6474.1009 
 2288000    254.85825   -9109.8032   -8138.1673   -9109.8032            0    9760.7472    24.911652    24.984071    22.924196    14267.893    10685.796    8005.0638    10591.382    52.190008   -1831.1005    1064.3281   -6107.1258 
 2289000    247.82491   -9138.8879   -8194.0663   -9138.8879            0    8585.6694     24.92033    24.986592    22.995651    14318.797    9529.5484    8035.1409    8192.3188    426.86519   -69.025066    677.68845   -6401.1642 
 2290000    254.64718   -9158.3163   -8187.4851   -9158.3163            0    9246.2708     24.83002    24.836333    23.160764    14282.934    11318.057    8670.3972    7750.3581    191.77922    242.87258    46.563295    -6261.469 
 2291000    247.41728   -9167.9064   -8224.6389   -9167.9064            0    8577.4442    24.914079    25.026514    22.879751    14265.812    8801.4561    8053.2202    8877.6562   -497.98526    630.78191    173.93619   -6440.0824 
 2292000    257.22883   -9156.2117   -8175.5381   -9156.2117            0    8585.7715    25.011046     24.95052    22.894353    14286.961    7124.8756    8775.4652    9856.9736    742.98518   -1550.9691     1080.568   -6386.6011 
 2293000    250.88035   -9111.4512   -8154.9809   -9111.4512            0    8533.9353    24.985539    24.831084     23.14007    14356.516    8136.4406    9080.4549    8384.9105   -472.38562   -494.63049   -359.38325   -6368.1876 
 2294000     254.1997   -9134.2703   -8165.1451   -9134.2703            0    9690.1671    25.015191     24.92212    22.878598    14263.241    8935.9779    9956.5619    10177.961   -589.41674    305.43948   -96.894281   -6149.4476 
 2295000    249.08448   -9186.9635   -8237.3399   -9186.9635            0    7652.3621    24.962852     24.78534    23.161287    14330.184    7174.7456    8684.6761    7097.6646    427.14096   -1661.2428    185.85833   -6638.0648 
 2296000    259.08099   -9117.3933   -8129.6584   -9117.3933            0     7203.393    24.961677    24.962793    23.122033    14407.643    6756.2242    8175.5298    6678.4251    386.69729   -435.08063    139.15345   -6616.0764 
 2297000    252.36571   -9144.7243   -8182.5911   -9144.7243            0    8875.8279     25.01672     25.09458     22.75371    14284.417    7749.4115    8196.7483    10681.324   -444.03997    162.89018    918.71013   -6333.5469 
 2298000    251.80523   -9156.9377   -8196.9413   -9156.9377            0    7433.7959    24.958395    25.005964    23.013318    14362.813    6116.5324    8468.1927    7716.6625     84.63711   -783.98218   -85.916272   -6639.8072 
 2299000    257.68006   -9132.3253   -8149.9314   -9132.3253            0     6817.667    24.951098    24.914294    23.162067    14398.444    6468.5376    8301.9369    5682.5266    406.41285   -262.82813    1304.2637    -6718.313 
 2300000    261.98603   -9131.3085   -8132.4982   -9131.3085            0    8560.9665    24.987828    25.017653    22.922996    14330.009    8531.0546    7886.8877     9264.957   -249.44586    1646.4629   -669.81679   -6343.3549 
 2301000    256.49502    -9136.869    -8158.993    -9136.869            0     8955.908    24.985032    24.941244    22.986385    14324.145     7725.878    9297.9289     9843.917   -76.208723    594.41078    892.95545   -6288.0774 
 2302000    257.96175   -9155.5416   -8172.0738   -9155.5416            0    8522.2038    24.890841    24.979455    23.001715    14301.538    8018.7816    8939.5762    8608.2535   -1008.7467   -654.45166   -637.34638   -6394.5699 
 2303000     258.6921   -9156.8225   -8170.5702   -9156.8225            0    9012.4179    24.899357    24.976624    22.931768     14261.31    8936.2706    9904.9829    8196.0002   -344.22365   -34.917144    470.03951   -6296.1083 
 2304000    248.67334   -9100.8557   -8152.7995   -9100.8557            0    7989.3817    25.016423     25.00546    23.003982    14390.076    7997.3544    7559.9945    8410.7964    130.67939   -36.400122    375.35004   -6476.1119 
 2305000    254.04193   -9109.8343   -8141.3106   -9109.8343            0    7400.1658     25.01323    24.836155    23.137861     14373.99    8228.8236    8211.4042    5760.2694   -156.04133    211.75561   -829.84686   -6590.0145 
 2306000    254.72803   -9100.3236   -8129.1842   -9100.3236            0    8999.9319    25.030644    24.931565    22.960607    14328.639    8503.9444    8937.6426    9558.2088   -202.67929   -612.93787    142.74495   -6248.4819 
 2307000    253.51738   -9140.4235   -8173.8996   -9140.4235            0    8849.2633    24.996811    24.968518     22.94641     14321.62    8371.7896    9001.0884     9174.912    568.22834    108.53475    1532.3539   -6325.5882 
 2308000    256.60042   -9170.7708   -8192.4929   -9170.7708            0    7907.3931    24.920841    24.872426    23.154244    14351.968    8672.8574    8263.3674    6785.9546    639.02332   -928.34331   -527.37182   -6537.4065 
 2309000    249.34389   -9116.0114   -8165.3988   -9116.0114            0    8730.7796    24.967587    24.924348    23.030723    14332.038     9377.728    9304.5497     7510.061    101.74887     -225.949    102.92186   -6340.5081 
 2310000    246.87708   -9163.1795   -8221.9715   -9163.1795            0    6985.5529    25.094376    25.116103    22.831041    14389.787    6216.2428    6084.8678     8655.548    -717.8443    17.318487   -219.61064   -6755.9814 
 2311000    245.25494   -9129.4616   -8194.4379   -9129.4616            0    8238.1866    24.928837    24.986332    23.028577    14344.044    8354.4579    8581.0667    7779.0352    180.23211   -975.31232    589.42877   -6471.0655 
 2312000    258.99683   -9147.8681    -8160.454   -9147.8681            0    8268.0812    24.746231    24.968378    23.156668    14307.886    9330.9693    8697.5503    6775.7241   -37.925196   -254.09058    627.74715    -6435.188 
 2313000    262.81791    -9115.283   -8113.3013    -9115.283            0    9004.0431    24.925523    25.000638     22.94848    14300.437    9834.4053    8504.7857    8672.9383    32.329654   -1551.8241   -592.05087   -6235.4432 
 2314000     260.2309   -9143.1489     -8151.03   -9143.1489            0    9470.9034    24.940683    24.922783    22.929988    14253.079    9576.0784    9179.5242    9657.1076   -860.59391   -1782.8631   -1165.8743   -6182.3461 
 2315000    252.45751   -9186.9364   -8224.4533   -9186.9364            0     7793.538    24.980836    24.966216    22.975284    14329.156    7973.2641    8120.7063    7286.6436   -485.07189   -80.002394    1364.7724   -6595.7906 
 2316000    265.41945   -9116.3595   -8104.4595   -9116.3595            0    7638.6492    24.972234    24.933802    23.084484    14373.617    8101.6704    7908.2544    6906.0228    1857.1398    25.562173    819.52783   -6503.2117 
 2317000    247.52327   -9154.5678   -8210.8962   -9154.5678            0     8375.383    24.989596    24.876579    23.020069    14310.556    7910.9219    9310.0287    7905.1985   -625.79245    533.48191    13.702028   -6462.9137 
 2318000    252.18914   -9164.0344   -8202.5743   -9164.0344            0    8515.5332    24.963318    24.879892    22.990445    14279.013    8187.6204     8934.918    8424.0612   -327.18446    760.27217   -358.30447   -6429.2592 
 2319000    250.30033   -9168.5867   -8214.3276   -9168.5867            0    8581.9398    25.038875    24.932363    22.906322    14299.921    7946.9799    9032.3426     8766.497   -1088.9534   -352.68303    504.25827   -6424.5669 
 2320000    245.77273   -9136.2886   -8199.2909   -9136.2886            0    8088.9357    25.000012    24.927321    23.002323    14334.664    7102.6744    8891.6617    8272.4711     558.6173   -564.95632    777.36965   -6508.2473 
 2321000    253.42573   -9137.1068   -8170.9323   -9137.1068            0    7595.1915    25.006308    24.927832    23.079669    14386.782    6602.4254    7887.1383    8296.0107   -255.53873   -247.07916    579.89519   -6577.3362 
 2322000    254.90259   -9100.0455   -8128.2405   -9100.0455            0     9604.327    24.965722     24.81291    23.071482    14292.142    6944.4728    12123.653    9744.8547    -216.2796   -465.15266   -1026.0723   -6126.3508 
 2323000     247.9498   -9177.2292   -8231.9315   -9177.2292            0    8592.6203     25.00866    24.877703    22.950747    14278.991    7123.7312     10441.86    8212.2692   -539.50348   -1048.9854    177.25744   -6442.5661 
 2324000    255.21868   -9112.0376   -8139.0276   -9112.0376            0    9451.3028    24.979088    24.858462     22.98597    14272.947    8417.9165    10496.017    9439.9749   -950.78033      24.5735     1790.344   -6171.6794 
 2325000    265.40492   -9132.5146   -8120.6701   -9132.5146            0    9975.6432    24.919802    24.875058    22.963591    14234.705    9273.7118    10963.437    9689.7813   -120.85005   -1220.1717    67.122833   -6049.7407 
 2326000    261.30054   -9162.5529   -8166.3561   -9162.5529            0    9664.6773    24.886569    24.936685    22.965664    14252.228     10166.77    10166.203    8661.0582   -602.65878    223.25859   -669.20748    -6157.513 
 2327000     252.4113   -9160.9863   -8198.6794   -9160.9863            0    10787.391    24.970826    24.775315    22.900944      14167.9    9847.8974    12113.954     10400.32   -96.640725   -781.66563    349.57296   -5969.7425 
 2328000    260.13647   -9124.8128   -8133.0539   -9124.8128            0    8091.9156    25.012258    24.935217    22.946706    14311.541    7550.0602    8134.6158    8591.0709     94.63681    1269.6866    992.15109   -6444.1162 
 2329000    256.67279   -9171.5669   -8193.0131   -9171.5669            0    8181.0975    25.080825    24.823719     22.96327    14296.917    6354.6755    9458.6854    8729.9316     500.3416    67.548478     999.8508   -6487.2063 
 2330000    250.00106   -9135.7946   -8182.6766   -9135.7946            0    7007.2261    25.040262     24.88653    23.098242    14394.021     6848.167    8103.0126    6070.4986   -371.42469   -440.36678   -240.22899   -6711.7054 
 2331000    253.32163   -9105.1431   -8139.3655   -9105.1431            0    8030.1584    25.044233    24.959548    22.968237    14357.278    6689.3303    8323.2204    9077.9246   -126.92668   -230.32368    946.22036   -6457.9613 
 2332000    255.01848   -9154.1749   -8181.9281   -9154.1749            0    7766.5881    25.044664    24.979704    22.963992    14366.464    6871.7704    8528.9872    7899.0067   -910.75282    67.651109    610.78313   -6554.6715 
 2333000    246.47639   -9168.7302   -8229.0498   -9168.7302            0     7317.464    25.035547    24.881982    23.098806    14389.032    6591.7371    8184.1008    7176.5542   -1269.6499   -967.06512   -594.73609   -6693.4853 
 2334000    255.72024   -9098.9803   -8124.0581   -9098.9803            0    8064.8753    25.076545    24.892657    23.027912    14374.526    6982.4606    9006.2357    8205.9294    482.10182    551.94377    920.46756   -6433.3561 
 2335000    255.93959   -9157.5323   -8181.7739   -9157.5323            0    8038.9271    25.019234    24.873335    23.045216    14341.309    8231.9722     8832.459    7052.3501    925.79166   -307.17216   -899.71593   -6500.4059 
 2336000     255.5008   -9133.3777   -8159.2921   -9133.3777            0    9000.1234    25.010423    24.907065    22.990449    14321.584    8405.2965    8965.0733    9630.0005   -187.81376   -1540.0638    561.34416   -6279.4759 
 2337000     262.7573   -9169.8932   -8168.1425   -9169.8932            0    9890.4545    24.926946    24.886574    22.928729    14223.752    10177.771     10296.37    9197.2228   -451.56333    543.60689    911.09021   -6116.4782 
 2338000    251.37442   -9077.6666   -8119.3126   -9077.6666            0    9777.5443    25.000992    24.922816    22.884747    14259.374    8691.8303    10542.271    10098.531    -369.8299    297.97306   -539.22397   -6085.9907 
 2339000    240.36443   -9144.0464   -8227.6675   -9144.0464            0    9787.0265    24.951869    24.814455    23.004035     14243.34    10605.801    9065.1285    9690.1503    343.64296    933.24362    1619.8049   -6194.6623 
 2340000    255.26573   -9135.1421   -8161.9527   -9135.1421            0    8714.3325    25.063271      24.8259    23.050508    14342.447    7406.4413    9784.4591     8952.097    563.74987    1389.0262   -543.46421   -6339.1768 
 2341000     247.0199   -9146.5551   -8204.8026   -9146.5551            0    8398.6023    25.022389    24.986373    22.866512    14296.572    7689.5801    7033.0084    10473.218    208.70577   -112.05877   -230.42882    -6453.687 
 2342000     254.2377   -9129.1416   -8159.8715   -9129.1416            0    8599.5403    24.937281    24.915235    23.018153    14301.598    8951.4814    8630.9382    8216.2012   -76.486127   -1068.7388    628.74764   -6366.2298 
 2343000    251.27192   -9115.2547   -8157.2916   -9115.2547            0    8208.9205    24.880806    24.981878    23.089176    14351.522     8655.638    9090.8056    6880.3178    4.8305554   -973.34144    572.25946   -6439.1462 
 2344000    249.61435   -9132.3218    -8180.678   -9132.3218            0    8569.9679    24.909417    25.182222    22.897673    14363.126    9518.2765    6677.1387    9514.4886    259.02728    658.01151    1184.1612   -6385.5144 
 2345000    240.69933   -9153.9412   -8236.2856   -9153.9412            0    9180.7784    24.917876    25.100326    22.829129    14278.406    9022.9837    7956.2322    10563.119    514.54032    196.81364    312.71241   -6324.5179 
 2346000    255.71143   -9148.4894   -8173.6008   -9148.4894            0    8143.7304    24.878385    25.042427    23.016348    14339.534     9333.163    5932.2529    9165.7753    237.00603    328.50958   -621.22634   -6470.5237 
 2347000    264.28151   -9162.7871   -8155.2255   -9162.7871            0    8292.1505    24.916115    24.933016      23.0785    14337.147    7781.7587    8995.3723    8099.3204    -900.6889    405.64702   -712.66629   -6421.3984 
 2348000     246.9257   -9182.5118   -8241.1184   -9182.5118            0    7938.5664    24.991607    25.025854    22.917887    14333.679    7418.9215    8151.3362    8245.4417    270.72173   -233.54966    157.93555   -6581.6246 
 2349000    256.30035   -9133.2298    -8156.096   -9133.2298            0    7673.8324    24.981848    25.030706    22.959684    14356.996    7843.4258    6498.8604    8679.2109   -299.94316   -723.18666     199.4644   -6549.3332 
 2350000    252.75835   -9170.4488   -8206.8187   -9170.4488            0    7441.2745    25.022554    24.852161    23.034742    14324.489    7019.0441    8634.3229    6670.4565    155.94781    600.57039    121.78123    -6652.277 
 2351000    251.71861    -9140.504   -8180.8378    -9140.504            0    8541.4807    24.937476    24.874607    23.074159    14313.129    8447.1152    8772.7481    8404.5787    -672.0597   -395.50426    485.86887   -6397.8694 
 2352000    255.63264   -9094.5683   -8119.9801   -9094.5683            0    10996.417    24.956008    24.878546    22.904476    14220.684    10701.833    11272.476    11014.941    -503.4603    79.537818    261.16714   -5839.3883 
 2353000    253.56634   -9129.1888   -8162.4783   -9129.1888            0    9829.9016    25.019944    24.840358    22.990346    14288.601    10023.882    9792.2497    9673.5732   -700.98697    -112.6723   -330.66211   -6114.0783 
 2354000    253.37452   -9148.1371   -8182.1579   -9148.1371            0    7895.7472    25.110586    25.005369    22.874032    14362.593      6559.34    8617.1773    8510.7244   -730.17331    523.73269    1113.9818   -6528.2856 
 2355000    255.97431    -9138.159   -8162.2682    -9138.159            0    7062.6415    24.991334    24.960608    23.087827    14402.161    6857.9075    7298.1693    7031.8476   -197.57071   -193.90775     -1174.85   -6678.8257 
 2356000    244.66414   -9143.3507   -8210.5794   -9143.3507            0    8432.3156    24.979138    24.974818    22.952174    14318.701    7877.7095    8919.3546    8499.8829   -68.899572   -120.46519    748.72879   -6449.7132 
 2357000    258.78218    -9164.111   -8177.5153    -9164.111            0    7816.8476    25.032555    25.026085    22.930479    14365.185    7304.4521     7834.804    8311.2867   -23.505995   -622.40948   -1077.6423    -6539.874 
 2358000    257.94688   -9148.6719   -8165.2607   -9148.6719            0    8262.1742    25.130176    24.938466    22.825217    14304.747    6214.2151    9644.7296     8927.578    568.97754   -1815.2911    905.96235   -6441.6054 
 2359000    252.16125   -9143.7639   -8182.4102   -9143.7639            0    7993.9646    24.983929    24.930472     23.02653     14342.33    7851.7195     7779.299    8350.8753   -311.46215   -5.7763247   -611.87843   -6510.3272 
 2360000    254.89188   -9163.6121    -8191.848   -9163.6121            0    7976.6437    24.997972    24.972068     22.93739    14318.691    8807.0954    6984.6128    8138.2228    636.88061   -151.83233    396.79059    -6526.138 
 2361000    254.02823   -9140.8362   -8172.3647   -9140.8362            0    7936.9418     25.03339    24.992589    22.928299    14345.073    7835.6058    7728.4972    8246.7225   -780.09814    168.98851    224.71951   -6511.8916 
 2362000    260.41803   -9153.3221   -8160.4898   -9153.3221            0    8480.1275    25.013424    24.864678     23.05048    14336.263    8605.3557    8725.0914    8109.9353   -654.46152   -94.916672    621.46352   -6387.4674 
 2363000    256.19476   -9150.7418   -8174.0106   -9150.7418            0    7596.0653    25.085076    24.857348    22.975901    14326.587    6809.4556    8051.9273    7926.8131     1281.959   -245.00666   -183.32948   -6586.8994 
 2364000    263.12917   -9111.4877   -8108.3193   -9111.4877            0    9292.0911    25.033109    24.805967    23.023254    14296.761    8224.0577    10740.983    8911.2325    113.74648    315.95694    990.34679   -6170.8849 
 2365000    264.80365   -9131.7253    -8122.173   -9131.7253            0    8858.9608    24.948108    24.865474    23.064454    14307.954    8187.5712    9248.3546    9140.9566   -465.81148   -1156.9334   -393.68577   -6273.6017 
 2366000     258.2457   -9171.7884    -8187.238   -9171.7884            0    10002.872    24.975071    24.906728    22.851637    14214.799    9166.9935    9972.3183    10869.305   -1227.2815    205.12003   -490.81394     -6113.56 
 2367000    246.47308   -9169.5252   -8229.8574   -9169.5252            0    9191.6408     24.89547    24.958915    22.961383    14267.375    10477.583    8542.3287    8555.0108   -984.40673   -1422.7878   -984.60876   -6317.3064 
 2368000    246.35599   -9175.8878   -8236.6664   -9175.8878            0    7707.5191    24.835375    25.004325    23.090018    14338.711    8350.5029    6725.9497    8046.1047    384.30341   -329.24733   -19.488366   -6624.9055 
 2369000    250.46328   -9129.9403     -8175.06   -9129.9403            0    8388.5311    24.863075    25.048946    23.010649     14330.89    9475.4148    7310.6063    8379.5721    808.07354    101.19617   -652.57484   -6421.8458 
 2370000    248.56396   -9128.2188   -8180.5797   -9128.2188            0    8282.4642    25.013166    25.061717    22.840047    14317.806    8938.0242    6985.2669    8924.1015    849.63181   -1004.5459    313.48337    -6451.114 
 2371000    253.65646   -9154.2251    -8187.171   -9154.2251            0    8923.0314     24.94301    24.958661    22.976739    14304.034    8773.5854    8346.3116    9649.1973   -598.67201   -598.09124   -76.845193   -6325.7405 
 2372000    252.66357   -9099.5738    -8136.305   -9099.5738            0    8714.1152    24.871846    24.887244    23.160481    14336.145    7897.5665    10192.899    8051.8801     115.3204   -324.73975   -391.55476   -6314.3755 
 2373000    254.36443   -9176.1525   -8206.3993   -9176.1525            0    7058.0265    24.981084    25.097654    22.898516    14356.605    7666.5845    6329.3885    7178.1065    170.89911   -427.83072    31.017889   -6728.6155 
 2374000    258.21984   -9114.3945   -8129.9427   -9114.3945            0    9067.3157    24.792922    24.977564      23.0963    14302.772    11483.465    6856.4509    8862.0315   -510.62962    869.01252    1890.8406     -6238.58 
 2375000    258.97679   -9106.9141   -8119.5765   -9106.9141            0    8895.8466    24.877788    24.956383    23.070439    14323.504    9591.6661    9102.9801    7992.8936    750.61005   -561.56409    872.46534    -6261.291 
 2376000    252.24281    -9137.563   -8175.8984    -9137.563            0    8487.9768    25.009459    25.019648    22.867211    14308.651    7915.1103    8247.6328    9301.1873    140.48638    249.90297    686.93658   -6404.6529 
 2377000    251.62315    -9120.402   -8161.0998    -9120.402            0    8230.8165    24.922065    24.873848    23.106134     14323.67    8820.9024    7923.5564    7947.9908   -261.41845    -837.2876   -843.50448   -6441.7149 
 2378000    246.80839   -9132.4068   -8191.4607   -9132.4068            0    8384.6008    24.999643    24.971371    22.948138    14325.958    8094.1546    8020.0278    9039.6201   -123.46658   -574.93516    293.43946   -6439.6711 
 2379000    257.79605   -9127.2512   -8144.4151   -9127.2512            0    8651.5245    24.948005    24.965653    22.981913    14314.129    9458.8437    7740.5807    8755.1491    675.16777    844.61088    1547.1101   -6338.3497 
 2380000     247.4102   -9152.5316   -8209.2911   -9152.5316            0    8939.3369    24.833679    25.082686    22.941421    14290.105    10206.338    7641.7752    8969.8977    161.65661   -214.05641     1021.152   -6346.2749 
 2381000    248.86056   -9154.9403   -8206.1703   -9154.9403            0    9365.2117    24.831873    25.044769    22.948853    14272.087    11176.116     7403.784    9515.7349    921.32689    149.09884    394.81917   -6256.8601 
 2382000    256.56069   -9163.0902   -8184.9639   -9163.0902            0    6712.1434    24.878511    25.205843    23.012584     14430.82    7139.2126    6732.6418    6264.5759   -240.47003    92.034867    68.701558   -6772.3349 
 2383000    249.39225   -9138.6081   -8187.8111   -9138.6081            0       6899.9    24.932526    25.075902     23.03405    14401.017    7214.7128    5683.8889    7801.0983    930.89797   -887.61995   -1530.0491   -6738.6661 
 2384000    248.67762   -9165.1581   -8217.0856   -9165.1581            0    7055.4495    24.917327    25.049834    23.057067    14391.642    7653.4937    6230.5175    7282.3372    115.56228   -930.83589   -1384.2845    -6736.236 
 2385000    250.83825   -9189.1702   -8232.8604   -9189.1702            0    7994.3626    24.919605    25.084414    22.913581    14323.135    8234.4617    7620.6868    8127.9393    -1036.094   -669.95935    52.877197   -6562.9321 
 2386000     253.9978   -9135.8797   -8167.5243   -9135.8797            0    7692.5841    24.838978    25.153267    23.018642     14381.62     9041.819    6448.8432    7587.0901   -295.29124   -1330.2512    325.03172   -6554.0726 
 2387000    246.17575   -9140.3321   -8201.7979   -9140.3321            0     7835.291    24.880215    24.984845    23.068084    14339.774    7863.2719    8633.5032     7009.098   -487.44247   -781.83787     817.1802   -6563.1965 
 2388000    253.22752   -9137.7687   -8172.3499   -9137.7687            0    7560.1418    24.889776    25.063535    23.016112    14358.044    8387.7129    6871.0102    7421.7022    -80.16909   -5.3028236   -253.62531   -6589.2763 
 2389000    246.43202   -9150.2014   -8210.6902   -9150.2014            0    8676.4574    24.922362    25.116617    22.856371    14307.298    8546.5495    7766.6436    9716.1792    46.102672    446.76051    219.62438   -6400.2843 
 2390000    250.57799   -9128.6561   -8173.3385   -9128.6561            0    8151.1829    24.944294    24.983704    23.023106     14348.02     8377.279    8999.4074    7076.8624    118.04859    677.72012   -1408.3549   -6467.6942 
 2391000    250.18836   -9164.8235   -8210.9913   -9164.8235            0    7359.8957    24.883245    24.965275    23.165765    14390.968    8815.5924    7333.1345    5930.9603    -837.6592   -403.09128   -150.00748   -6666.3147 
 2392000    249.05275   -9160.1485   -8210.6459   -9160.1485            0    7296.4444    24.938511    25.174118    22.885032    14367.338    6715.9659     6785.265    8388.1024   -1088.7107   -963.13249     517.6464   -6681.8008 
 2393000     247.9405   -9123.5626   -8178.3003   -9123.5626            0    7457.4834    24.964032    25.047658    22.978167    14368.031    6556.2794    7317.3365    8498.8345   -90.195131     730.4368   -344.77092   -6615.6369 
 2394000    258.02581    -9165.643    -8181.931    -9165.643            0    8142.7153    24.967876     24.98391    22.999351    14346.884    7763.8649    7193.9309    9470.3502     299.9187   -378.28849    1199.6631   -6478.1933 
 2395000     269.8735   -9137.1359    -8108.255   -9137.1359            0    8289.4532    24.949454    24.862667    23.090346    14323.172    7296.3811    10431.989    7139.9893    486.68346   -252.11796   -457.06338   -6376.6814 
 2396000    258.35317    -9176.783   -8191.8229    -9176.783            0    7643.1023    25.080858    24.961325    22.876069    14321.597    7047.0338    7993.4911    7888.7819    361.46316    218.01833    1103.1776   -6595.4403 
 2397000     255.9924    -9160.096   -8184.1362    -9160.096            0    9104.2488    24.962786    24.983942    22.887991    14274.526    8307.8612    8572.3248     10432.56    573.97684    -1012.269    2105.9444   -6288.8199 
 2398000     246.8223   -9154.0044   -8213.0053   -9154.0044            0    9058.1644    24.847349    24.879086    23.090802    14274.257     10405.31    8773.6246    7995.5589   -178.73375    287.20664    2196.8012   -6327.3183 
 2399000    253.46095   -9136.6805   -8170.3717   -9136.6805            0    8993.4728    24.912194    24.956421    23.052597    14332.242    8532.6945    9181.5944    9266.1296    283.54922   -1432.5297    351.49018   -6290.5466 
 2400000    251.50185   -9155.5125   -8196.6727   -9155.5125            0    8577.9641    25.115214    24.858206    22.895722    14294.238    6319.5938    10182.168     9232.131    367.37066    150.30918   -306.76872    -6408.452 
 2401000    257.37768   -9139.9164   -8158.6753   -9139.9164            0    9331.1591    24.999011    24.864509    22.976123    14281.686    9632.1217    9338.1663    9023.1893   -18.796072    729.15412    1003.2285   -6215.1466 
 2402000     252.6261   -9160.0692   -8196.9433   -9160.0692            0    8133.7254    25.042371    24.849369    23.014938    14321.899    7114.2021    9121.0302    8165.9438   -435.91732   -736.29471    153.75741   -6498.0504 
 2403000    249.71313   -9121.8592   -8169.8388   -9121.8592            0    6842.1824    25.080893    24.996714    22.990227     14413.49    6006.3946    6509.4091    8010.7435    219.58524    640.12039   -489.23053   -6731.5712 
 2404000    244.00173   -9144.8246   -8214.5787   -9144.8246            0    7573.4084    24.972637    24.981704    22.963107    14325.741    7053.0661    7428.9242    8238.2348    864.25931   -427.61465    -943.5041    -6632.295 
 2405000    256.50259   -9158.7452   -8180.8403   -9158.7452            0    8631.2319    25.029788    24.841366    22.987441    14292.996    8445.6146     9670.419     7777.662   -540.67583   -155.50461   -605.69401   -6381.6714 
 2406000    250.74758   -9211.0024   -8255.0383   -9211.0024            0    9222.1895    24.963319     24.79471    22.977616    14222.185    7900.4785    10306.294    9459.7964   -930.61038     438.3634   -271.83801   -6342.2088 
 2407000    249.68622   -9138.1674   -8186.2496   -9138.1674            0    7996.7011    25.044993    24.879051    23.019762    14343.514     7919.445    8099.7211    7970.9373   -355.78521   -515.24919    630.70926   -6513.4562 
 2408000    259.61035   -9164.7121    -8174.959   -9164.7121            0    8163.6748    25.040276    24.950561     22.93697    14330.307    7332.7524    7628.6454    9529.6267   -211.20794   -660.09718   -190.59188   -6468.8096 
 2409000    253.28877    -9119.416   -8153.7637    -9119.416            0    7161.4191    24.987191    24.912478    23.094059    14375.886    7193.9831    7471.5526    6818.7214    990.88303   -1587.6646     640.3656    -6652.318 
 2410000     253.6635   -9147.8024   -8180.7214   -9147.8024            0    8705.8793     24.89162    24.917272    23.026673    14281.863    9030.4451    8984.4958     8102.697   -104.18139    181.25171     567.4169   -6367.4059 
 2411000     247.1568   -9152.6329   -8210.3584   -9152.6329            0    10865.542    24.832127    24.877274    22.956312    14181.391    10423.482    10901.875    11271.268    516.11523   -705.45045    897.68005   -5963.1358 
 2412000    252.91858   -9150.1065   -8185.8655   -9150.1065            0    8824.1434    24.989394    24.931645    22.956451    14302.482    8999.5908    8504.2953    8968.5441    178.13062   -200.36227   -1.8147539   -6345.2637 
 2413000    252.16258   -9117.2405   -8155.8818   -9117.2405            0    9676.9641    24.974997    25.048596    22.819481    14275.608    9673.8138    8987.6568    10369.422   -434.69345    370.30783    978.16244   -6141.1853 
 2414000    240.44081   -9120.0154   -8203.3454   -9120.0154            0     9204.959     24.83815    24.958265    23.052061    14290.368    10211.669    8748.9405    8654.2671    315.96868   -719.79365   -610.05106   -6284.9366 
 2415000     256.1724   -9153.0246   -8176.3786   -9153.0246            0    9130.8739    24.870537    24.945604    23.053045    14302.352    9081.9628    9349.8048    8960.8539   -332.48374   -502.53791    1330.4772    -6271.814 
 2416000    254.86017   -9120.3002    -8148.657   -9120.3002            0    7954.5816      25.0296    24.992323    22.960177    14362.689    7934.0026    7304.6665    8625.0756   -1055.9124   -638.22938   -495.48364     -6482.45 
 2417000     233.2092   -9137.9164   -8248.8166   -9137.9164            0    7063.1131    25.015402    24.962062    23.017144    14372.734    6694.3141    7485.2804    7009.7446    -331.2722    238.28398    115.17037   -6768.3063 
 2418000    255.64646   -9110.6672   -8136.0263   -9110.6672            0    6756.7158    25.096419    24.957292    23.071813    14450.769    6344.9009    7424.8934    6500.3531    55.431112   -888.06162    150.30136   -6712.0509 
 2419000     250.8129   -9135.4928   -8179.2797   -9135.4928            0    7489.7977    25.035388    24.982201    22.970529    14366.667    6566.8041    8206.3033    7696.2858   -323.72269     203.1229    197.48673    -6609.994 
 2420000    250.94666   -9137.7985   -8181.0754   -9137.7985            0    8921.8953    25.026916    24.934149    22.908241    14295.312    8662.5453    8769.7945    9333.3461    569.82002   -867.42801    31.285986   -6321.0167 
 2421000    243.15114   -9116.3884   -8189.3853   -9116.3884            0    9750.8049    24.934655    24.868136    22.996138    14259.408     9961.754    10328.718    8961.9431     -135.477    345.00572   -161.62885   -6161.6193 
 2422000    248.71478   -9143.9023   -8195.6881   -9143.9023            0    9447.8434    24.855662    24.877287    23.059842    14258.856    9134.0929    9905.4601    9303.9772   -346.32574     97.18254    14.455918   -6231.0016 
 2423000    252.99079   -9149.6869   -8185.1706   -9149.6869            0    9576.8987    24.898809    24.970534    22.944215    14265.257    9803.5922    10195.239    8731.8649    -638.9851   -1622.7809     138.5394   -6192.7529 
 2424000    255.20092    -9179.624   -8206.6817    -9179.624            0    9430.7147    24.948774    24.841615    23.009964    14260.836    8701.1744    9861.8489    9729.1209    -738.0099   -45.072202    356.49881   -6245.2848 
 2425000    244.12626   -9122.3096   -8191.5889   -9122.3096            0    8735.8107    24.965468    24.938133    23.016359    14329.805    8211.0602    9555.9298    8440.4421    434.47915    250.44213    527.13005   -6365.9311 
 2426000     248.6586   -9150.6522   -8202.6522   -9150.6522            0    9349.6365    24.911971     24.83866    23.061418    14269.943    9115.6769    9432.4045    9500.8282    23.966524    566.25665     1314.618   -6256.8761 
 2427000    253.70678   -9142.1587   -8174.9128   -9142.1587            0    7436.1615    24.966004    24.948347    23.059639    14362.939    7751.4976    8084.8198    6472.1671    342.79854    421.54172    41.427675   -6617.2694 
 2428000    250.09936   -9143.8096   -8190.3168   -9143.8096            0    7239.5046    24.984572    24.984419    22.996341    14354.892    6677.9507    8363.1378    6677.4252   -395.20512    326.63032   -123.06033   -6674.7166 
 2429000    249.98318   -9149.8203   -8196.7704   -9149.8203            0    7192.7258    24.900165    25.020203    23.091864    14386.397    7221.0791    7065.1413    7291.9569   -536.58366   -50.009846   -532.90952   -6687.6585 
 2430000    250.95236   -9166.4836   -8209.7388   -9166.4836            0    6332.7428    24.941417    25.069618    23.023547    14395.975    5985.8326     6312.615    6699.7808   -217.35783   -362.05864    501.60055   -6880.1761 
 2431000    245.99603   -9114.9663   -8177.1173   -9114.9663            0     9209.088    24.926699    25.024468     22.90034    14284.715    10257.073    7424.4264     9945.765   -248.00854    331.15258   -1074.0628   -6258.6072 
 2432000    259.54428   -9134.3893   -8144.8881   -9134.3893            0    8901.4135    24.950398    24.938919    22.983907    14301.414    8179.2045    9525.1306    8999.9053    1022.1601   -264.17536    -65.62579   -6288.3074 
 2433000    256.21381   -9158.9277   -8182.1238   -9158.9277            0    7523.7415    24.862219    24.985203    23.090733    14343.676    7548.4633    7797.0918    7225.6695     623.6234    332.58313   -655.07518   -6608.2488 
 2434000    256.26592   -9142.8124   -8165.8099   -9142.8124            0    8731.5651    24.783165    25.046282    23.050968    14308.338    11261.774    6499.9307    8432.9904   -675.30188    430.39192    406.76178   -6343.7729 
 2435000    268.71296   -9135.7367   -8111.2804   -9135.7367            0    9618.1229     24.94489    24.921995    22.905846    14240.025    9789.3962    9551.1296    9513.8429   -455.35238   -232.57981   -60.164803   -6113.8256 
 2436000    257.59067   -9124.0481    -8141.995   -9124.0481            0    8027.2273     24.84149    25.057916    23.027011    14333.761    9222.6977     7658.771    7200.2133   -417.00121    851.13916     1046.961   -6463.9577 
 2437000    248.51355    -9186.299    -8238.852    -9186.299            0    6934.7283    24.855868    25.032927    23.089919    14366.897    7468.0025    6154.3092    7181.8731   -336.91629    857.13507   -370.40398   -6785.8429 
 2438000    251.87202   -9107.2293   -8146.9783   -9107.2293            0    7636.6745    25.046342    25.108856    22.895797    14398.823    7347.8164    6847.5756    8714.6314    89.744005   -1039.4298   -231.99755   -6543.3373 
 2439000     241.8179   -9149.2224   -8227.3023   -9149.2224            0    8490.8159    24.923884    24.972544    22.990888    14309.822    8432.2402    8152.6959    8887.5116   -58.184967    133.44435    1132.8544   -6455.3193 
 2440000    261.10848   -9132.1125   -8136.6479   -9132.1125            0    7379.6019    24.987829    24.889056    23.097192    14364.686    8069.8598    8413.3137    5655.6323    136.86033   -984.49717   -731.82811   -6590.6639 
 2441000    246.68228   -9109.7292   -8169.2638   -9109.7292            0    7071.1166    25.098528    24.979759    22.971071    14401.832    7067.1706    6127.6927    8018.4867    169.10076    2.6585682   -227.19799   -6684.0751 
 2442000    259.15561   -9131.9013    -8143.882   -9131.9013            0    8433.9148    25.007931    24.935565    22.983236    14332.045    7756.4445    8866.1568    8679.1431    -1162.714   -1409.7039    987.86205   -6381.0405 
 2443000    253.51302    -9149.652   -8183.1447    -9149.652            0    7061.6407    25.028927    24.923058    23.066425    14388.776    6560.2789    7206.8171    7417.8259   -11.038058    384.10881    94.141068    -6701.291 
 2444000    254.09215   -9162.4557   -8193.7405   -9162.4557            0    7916.1563    25.024706    24.907479    23.040658    14361.296    7360.8163    9071.5225    7316.1302    653.03876     21.49924    1002.9051    -6535.743 
 2445000    248.34779   -9130.5032   -8183.6882   -9130.5032            0    7104.1216    25.008065     24.90002    23.078244    14370.853     6262.177    8363.6939     6686.494    393.21749    21.039061    570.25564   -6694.7769 
 2446000    255.01627   -9129.9332   -8157.6948   -9129.9332            0    9074.6805    25.138534    24.927879    22.804529    14290.466    8171.7744    8824.9139    10227.353   -300.68036   -1371.8977     1080.828   -6266.4245 
 2447000    258.41709   -9160.9662   -8175.7624   -9160.9662            0    8374.8608    25.012301    24.912809    22.963657    14309.267    7166.5655    9449.5822    8508.4347    640.66022    103.79217   -158.87362   -6428.0463 
 2448000    262.69926    -9161.829   -8160.2996    -9161.829            0    8434.5245    24.807547     24.86573    23.206445    14315.076    9419.5935     8817.806    7066.1739    364.20408   -507.00474    192.64653    -6399.418 
 2449000     254.5529    -9116.729   -8146.2573    -9116.729            0    8466.7803    25.036522     24.94862    22.954194    14337.802    7713.5409    9214.4546    8472.3454   -620.49155   -511.83524    115.59671   -6375.8354 
 2450000    260.85454   -9179.2847   -8184.7882   -9179.2847            0    8067.2537    25.022113    25.038012    22.882078    14335.712     7712.612      7697.48    8791.6692    575.26981    995.18885    763.38296   -6498.1541 
 2451000    260.19183   -9127.1747   -8135.2048   -9127.1747            0    10220.394    24.931014    24.872322    22.981282    14250.514    9063.1791    12027.238    9570.7649   -115.27113   -96.188344   -68.932267   -6011.1091 
 2452000    259.24888   -9175.1169    -8186.742   -9175.1169            0    8877.4113    24.874166    24.895583    23.079922      14292.4    8305.1694     9943.432    8383.6326   -1090.2011   -117.16829   -274.41714   -6336.3344 
 2453000    248.87383   -9178.3482   -8229.5277   -9178.3482            0    9278.9002    24.883767    24.961163    22.977166    14271.755    9440.4762    8838.5159    9557.7086   -413.86434   -141.95706   -369.86421   -6298.2275 
 2454000    256.66592   -9132.8911   -8154.3636   -9132.8911            0    8726.6452    25.036028    24.896212    22.941035    14299.199    7945.3956    10268.918    7965.6222   -45.532321    499.40095    642.36492   -6334.5164 
 2455000    248.39878   -9163.2674    -8216.258   -9163.2674            0    7717.0908     25.01687    24.975515    22.938358    14332.098    7431.8937    8020.8617    7698.5169    302.34065    12.158556    1685.7276   -6603.2398 
 2456000    243.22044   -9183.1418   -8255.8746   -9183.1418            0    8477.3072    24.894848    24.913465     23.04191    14290.982    8589.9547    8897.4774    7944.4894   -64.440333   -1085.1268    727.68244     -6489.04 
 2457000     252.4765   -9136.0786   -8173.5231   -9136.0786            0    8078.2402    24.968584    25.091956     22.88201    14335.822    8342.7895    7584.8936    8307.0376    582.09474     719.7768    512.83667    -6484.579 
 2458000    250.18283   -9136.7627   -8182.9516   -9136.7627            0    8087.2043    24.984321    25.056768    22.929308     14354.35    7359.2898    8394.1808    8508.1424   -388.07135    1350.9375    949.55667   -6489.9481 
 2459000    255.86763   -9118.9563   -8143.4722   -9118.9563            0     8084.848    24.909148    24.945307    23.098759    14352.792    8117.2407    9435.2713    6702.0319   -242.27468    441.10006   -27.886369   -6451.1458 
 2460000    250.85556   -9115.8921   -8159.5163   -9115.8921            0    8031.2444    24.923823    24.937146    23.082907    14346.697    8453.8491    8769.4691     6870.415    634.52487   -514.52876   -320.01845   -6479.1242 
 2461000    265.90718   -9166.6542   -8152.8948   -9166.6542            0    7609.5804    25.094388    24.982787    22.864874    14334.623    6739.6455    7609.7531    8479.3425    560.07963    316.97173    131.95217    -6562.068 
 2462000    257.05855   -9175.9721   -8195.9477   -9175.9721            0    7241.4644    25.054834    24.945824    23.006101    14379.123    6836.3647    7299.0601    7588.9684   -49.731868   -350.30369    958.69616   -6677.3781 
 2463000    250.07172   -9149.1528   -8195.7653   -9149.1528            0    7298.0132    24.977879    24.892113    23.105058     14365.62    7206.3177    7979.8265    6707.8954   -880.22873   -306.10641    212.20079   -6666.7744 
 2464000    256.21965   -9137.5852    -8160.759   -9137.5852            0    7843.2762    25.018001    25.015901    22.929104     14350.13    7138.5127    8400.8391    7990.4767    426.89051    134.90429    1092.1917    -6519.303 
 2465000    258.01942   -9181.1214   -8197.4337   -9181.1214            0    8424.4178    24.971852    24.966438    22.904006     14279.69      9059.12    7861.4123     8352.721      802.588   -173.27365   -883.92884   -6443.0097 
 2466000    247.77284   -9159.1339   -8214.5109   -9159.1339            0    8279.6583     24.94285    24.946909    23.025043    14327.264    8440.2156    8077.0337    8321.7257    508.98329   -811.68819    518.33638   -6484.4891 
 2467000    256.05238   -9140.7587   -8164.5702   -9140.7587            0    7428.0442    24.977046    24.988974    23.021346     14368.79    8466.3207    6964.7504    6853.0615   -128.11775   -402.93826    1697.4255   -6607.9934 
 2468000    242.35024   -9106.1929   -8182.2433   -9106.1929            0    7291.9891    25.050333    25.018554    22.961808    14390.696    7333.9107    7728.3137    6813.7429    40.802376   -322.38694    481.40163   -6651.8477 
 2469000     252.2471   -9173.8493   -8212.1683   -9173.8493            0    8501.2016    24.969766    24.956725    22.965258    14311.113    7802.3203    8971.2513    8730.0333   -233.76728     66.40494    209.89308   -6437.8578 
 2470000     258.7724   -9171.1239   -8184.5655   -9171.1239            0    7757.8261    24.947507    24.938086    23.003943    14311.744    7934.8308    8043.3336    7295.3138    271.11005    397.18263     856.7434   -6565.3358 
 2471000    245.42437   -9117.8796     -8182.21   -9117.8796            0    9563.5338    24.917795    24.851149    23.051898    14274.562    9201.6882    11186.979    8301.9339    158.85852   -769.24016   -399.78562    -6191.275 
 2472000    245.93495   -9136.3183   -8198.7021   -9136.3183            0    9708.7563    24.914398    24.903499    22.938408    14232.266    9887.3438    9590.2235    9648.7015     116.8665    106.55147    622.77469   -6183.5236 
 2473000    256.80482   -9152.7618   -8173.7047   -9152.7618            0    8967.0487    25.030528    24.929448    22.840179    14252.209    7610.6471    9826.1254    9464.3736    360.75402     117.5445    -250.0527   -6309.8691 
 2474000    258.24017    -9091.142   -8106.6127    -9091.142            0    10226.227    24.965563    24.860632    23.012237    14282.768    9636.0862    11229.308    9813.2851    108.31771    891.29896    357.57333   -5976.4947 
 2475000     249.9394   -9145.1619    -8192.279   -9145.1619            0    9146.8108    24.924208    24.867333    23.001368    14256.215    8742.2048    8434.7397    10263.488   -631.57221    87.889254   -255.78747   -6290.5447 
 2476000     261.2176   -9176.6729   -8180.7923   -9176.6729            0    8819.7762    24.985475    24.926455    22.951735    14294.325    7567.0668    9670.0357    9222.2262    520.82392    1112.5845    456.04979   -6342.1506 
 2477000    252.95672   -9118.3628   -8153.9764   -9118.3628            0    6445.0434    25.016877    24.991537    23.069754    14423.446    5460.2311     7373.915    6500.9842   -82.323352   -1468.8848    377.29288   -6798.2541 
 2478000    256.45909    -9124.755    -8147.016    -9124.755            0    7367.8775    25.001348    25.064175    22.932028    14370.084    6799.6415    7366.4771    7937.5137   -385.44724   -78.074906   -24.533485   -6602.9083 
 2479000    255.03415    -9156.812   -8184.5055    -9156.812            0    8597.7667    24.900087    24.906863    23.085512    14317.243    8098.2814    9376.0617    8318.9571   -206.92538   -167.32596   -149.73249    -6389.272 
 2480000    249.73824   -9117.1979   -8165.0819   -9117.1979            0    8425.0281    24.977095    24.954836    22.962784    14312.687    9058.5313    8786.1802     7430.373    192.42741    440.20028   -485.72211   -6406.4764 
 2481000    261.34319   -9131.5768   -8135.2174   -9131.5768            0    8595.4161    24.955443    24.966414    22.946923    14297.033    8207.1407    8484.7002    9094.4075   -601.67367   -274.10871    486.28872   -6343.0082 
 2482000    245.33753   -9096.0971   -8160.7585   -9096.0971            0    8785.0989    24.874619    24.885168    23.117132    14309.714    8512.7129    9508.4027    8334.1811   -282.06286   -865.82455   -1315.6227   -6327.3743 
 2483000    250.33141   -9094.8571   -8140.4796   -9094.8571            0    9588.6806    24.906732    24.963065    22.959807    14275.223    10165.991    10003.552    8596.4986   -23.097334   -208.66766   -44.658497   -6144.2171 
 2484000    260.68637   -9149.6269   -8155.7715   -9149.6269            0    8465.6303      24.8841    24.963809    23.042242    14313.885    8229.0478     8568.983    8598.8601   -269.36306   -250.13002   -730.06136    -6388.543 
 2485000    250.10615    -9168.433   -8214.9143    -9168.433            0    7999.2464    25.035426    24.978994    22.918211    14332.127    7215.4693     7853.132    8929.1381   -528.48153    760.33082     300.2019   -6542.9168 
 2486000    261.90272   -9145.8037    -8147.311   -9145.8037            0    10153.335    24.959969    24.833335    22.947897    14224.008    8930.5173    12051.464    9478.0221    262.52345    300.40362    -206.9151   -6041.0773 
 2487000     249.8998    -9137.584    -8184.852    -9137.584            0    9154.8823    24.961406    24.891726    22.988895    14283.748    9439.1524    9036.6249    8988.8697   -345.24216    251.58212    142.62733   -6277.7636 
 2488000    262.02576   -9119.4941   -8120.5325   -9119.4941            0    7360.8801    25.164958    24.848599    22.998188    14381.088    6218.1764         9021    6843.4638   -509.38489   -331.84576    472.06613   -6576.7099 
 2489000    249.93167   -9128.0556   -8175.2021   -9128.0556            0    7041.1386    25.067856    24.947503    23.023528    14398.464    6566.9948    7443.0767    7113.3443   -342.24799   -608.81028   -209.06509   -6696.6557 
 2490000    258.49037   -9120.7826   -8135.2994   -9120.7826            0    7503.1379    24.930915    24.770179    23.316003     14398.64    7623.9916    9722.1623    5163.2599   -222.44563    509.94563    396.69249     -6559.72 
 2491000    258.74377   -9144.0381   -8157.5888   -9144.0381            0    8635.6707    25.055894    24.941882    22.927776    14328.511    7723.3596    9060.8434    9122.8092   -67.796357   -290.80807    397.41529   -6353.0217 
 2492000    258.34841   -9120.5876   -8135.6456   -9120.5876            0    8987.7752     24.96631    24.962754    22.939071    14296.268    9142.5483    9021.2426    8799.5346    624.91877    226.34663    595.36846   -6261.7268 
 2493000    249.02864   -9126.6655   -8177.2547   -9126.6655            0    9219.2546    24.934923    24.856438    23.060131    14292.516    10781.166    8641.2425    8235.3551    386.78857   -2168.8739    357.47665   -6255.5778 
 2494000    249.40006   -9155.6251   -8204.7983   -9155.6251            0    8560.1356    25.040319    24.845058    23.002584    14310.556    9016.0348    8158.2541     8506.118   -420.75727    672.40013   -153.19346   -6418.2571 
 2495000     256.1586   -9146.5865   -8169.9931   -9146.5865            0    8741.3268    25.053799    24.925915    22.935219    14322.788    7464.1905    9362.1759    9397.6139    99.662162    542.67895    1076.1578    -6344.077 
 2496000    247.73234   -9134.7394   -8190.2708   -9134.7394            0    8965.0221    24.887409     24.87773    23.116086    14312.145    8417.0835    11036.425    7441.5575   -544.42765    169.23239    927.70544     -6319.02 
 2497000    258.43996   -9110.6242   -8125.3332   -9110.6242            0    8394.6987    25.037994     24.97785    22.928638    14339.461    7225.6744     8465.289    9493.1326   -764.52747   -163.77937    768.70558   -6369.7806 
 2498000    245.82075   -9147.9964   -8210.8156   -9147.9964            0    7902.2322    24.998487    24.999793     22.89764     14310.04     6764.522    8402.0934    8540.0813    139.45657   -391.14206    -59.64235   -6561.6414 
 2499000    245.20676   -9163.9283   -8229.0882   -9163.9283            0    10001.383    24.801865    24.833948    23.086466    14219.606    10841.443    10460.753    8701.9539    21.494909    469.25371   -213.96745   -6155.0176 
 2500000    255.10384   -9107.5257   -8134.9535   -9107.5257            0    8507.4173    24.928829     24.96456    23.034413    14335.173    7631.3139     8190.661    9700.2769   -2.6689833   -1268.0733    446.59109   -6356.3605 
Loop time of 621.439 on 64 procs for 250000 steps with 1920 atoms

Performance: 69.516 ns/day, 0.345 hours/ns, 402.292 timesteps/s
194.7% CPU use with 32 MPI tasks x 2 OpenMP threads

MPI task timing breakdown:
Section |  min time  |  avg time  |  max time  |%varavg| %total
---------------------------------------------------------------
Pair    | 73.281     | 75.526     | 81.93      |  22.0 | 12.15
Bond    | 0.84012    | 0.99872    | 1.3498     |  11.1 |  0.16
Kspace  | 293.06     | 304.22     | 315.67     |  28.0 | 48.95
Neigh   | 4.9253     | 5.7672     | 6.5303     |  15.7 |  0.93
Comm    | 93.045     | 104.38     | 115.4      |  50.5 | 16.80
Output  | 0.62111    | 0.62151    | 0.6234     |   0.0 |  0.10
Modify  | 102.64     | 109.3      | 113.93     |  28.4 | 17.59
Other   |            | 20.63      |            |       |  3.32

Nlocal:        60.0000 ave          64 max          56 min
Histogram: 1 2 4 5 0 8 4 6 1 1
Nghost:        3358.72 ave        3404 max        3316 min
Histogram: 4 2 2 5 5 2 4 4 2 2
Neighs:        21189.9 ave       22578 max       19432 min
Histogram: 1 1 2 3 7 5 3 4 4 2

Total # of neighbors = 678078
Ave neighs/atom = 353.16562
Ave special neighs/atom = 2.0000000
Neighbor list builds = 10006
Dangerous builds = 0

unfix		3
unfix		2
unfix		1

write_data	data.final.${pid}
write_data	data.final.0
System init for write_data ...
PPPM initialization ...
  extracting TIP4P info from pair style
  using 12-bit tables for long-range coulomb (../kspace.cpp:340)
  G vector (1/distance) = 0.37437951
  grid = 30 30 30
  stencil order = 5
  estimated absolute RMS force accuracy = 0.0032792158
  estimated relative force accuracy = 9.8752609e-06
  using double precision FFTW3
  3d grid and FFT values/proc = 5400 960
Last active /omp style is kspace_style pppm/tip4p/omp
WARNING: Not all mixed pair coeffs generated from mixing. Use write_data with 'pair ij' option to store all pair coeffs. (../write_data.cpp:312)

write_restart   restart.lmp.${pid}
write_restart   restart.lmp.0
System init for write_restart ...
PPPM initialization ...
  extracting TIP4P info from pair style
  using 12-bit tables for long-range coulomb (../kspace.cpp:340)
  G vector (1/distance) = 0.37437951
  grid = 30 30 30
  stencil order = 5
  estimated absolute RMS force accuracy = 0.0032792158
  estimated relative force accuracy = 9.8752609e-06
  using double precision FFTW3
  3d grid and FFT values/proc = 5400 960
Last active /omp style is kspace_style pppm/tip4p/omp
Total wall time: 0:10:21
