LAMMPS data file via write_data, version 30 Jul 2021, timestep = 12000000

864 atoms
2 atom types
576 bonds
1 bond types
288 angles
1 angle types

0.11570646791152583 18.09186593208723 xlo xhi
0.05360965007146312 23.575568149929822 ylo yhi
0.1220154233316908 22.09118037666469 zlo zhi

Masses

1 1.00794
2 15.9994

Atoms # full

707 1 1 0.5897 2.9932782461527876 1.671239473781418 3.920372130367999 0 0 0
706 1 2 -1.1794 2.971430807616174 1.5318801190699491 2.973617330547177 0 0 0
30 1 1 0.5897 4.936481119346009 3.7922845163195085 2.521038322679019 0 0 0
708 1 1 0.5897 2.184361621740705 1.9916467101136248 2.6814680276723477 0 0 0
29 1 1 0.5897 4.448096346435728 2.3608927281410517 2.587695027171048 0 0 0
28 1 2 -1.1794 5.182278352000018 2.8970073063399715 2.288069445141122 0 0 0
1 1 2 -1.1794 0.7002188719876555 2.925449597118085 2.1833526768854834 0 0 0
3 1 1 0.5897 0.7594956071955087 3.788168342584077 2.5937479379336144 0 0 0
668 1 1 0.5897 5.3159005376759865 2.7684778959209835 0.26300558934995955 0 0 0
494 1 1 0.5897 6.757571377885502 2.2471616077378536 2.8292941706448342 0 0 0
493 1 2 -1.1794 7.534612552767302 1.8095839060959074 3.17709147158345 0 0 0
495 1 1 0.5897 8.270502805751418 2.2960362219087918 2.805452523573467 0 0 0
846 1 1 0.5897 7.515686450099478 1.995628684259399 4.96153741733578 0 0 0
595 1 2 -1.1794 0.778174925187832 5.537203456724123 3.0739369238684877 0 0 0
819 1 1 0.5897 7.295954038864464 0.13774737132522574 2.5807023557797066 0 0 0
20 1 1 0.5897 0.6906576233036648 2.9885074914687806 0.3741011110473006 0 0 0
597 1 1 0.5897 0.8676901564411942 5.704013377688183 4.0122458651620425 0 0 0
136 1 2 -1.1794 5.165483729233312 5.7233745904725355 2.8940227346733307 0 0 0
83 1 1 0.5897 4.369589508280024 3.0766531497969885 6.30369254931844 0 0 0
176 1 1 0.5897 8.985219763306864 2.7725165292200105 9.751576063801679 0 0 0
356 1 1 0.5897 7.447847814400417 0.9684949721867192 9.793739446452557 0 0 0
34 1 2 -1.1794 0.5322671229567555 3.1681583096751043 9.459581708172593 0 0 0
673 1 2 -1.1794 2.7213396992974275 1.9486624953155636 10.59938376254324 0 0 0
488 1 1 0.5897 2.1113883067893946 2.602302839013294 6.201137891209159 0 0 0
82 1 2 -1.1794 5.123539545622738 3.558237425311699 6.644080332128538 0 0 0
785 1 1 0.5897 0.5421097978798628 3.370257133381948 7.663815946768501 0 0 0
419 1 1 0.5897 8.582703899093595 3.3140484995758146 6.511572635036222 0 0 0
489 1 1 0.5897 3.144603326836087 1.4998065636505713 6.295240305551955 0 0 0
355 1 2 -1.1794 7.390308357994634 1.882080029068106 10.073590344472983 0 0 0
274 1 2 -1.1794 4.961535950838014 2.9739713553413387 9.446804798241114 0 0 0
678 1 1 0.5897 5.271915602932306 4.661493838043409 10.204235518532286 0 0 0
183 1 1 0.5897 0.9597960377105103 5.170164523248615 6.125695058647278 0 0 0
36 1 1 0.5897 1.2409959236057917 2.657704200807122 9.851185797151329 0 0 0
784 1 2 -1.1794 0.5874813517576517 3.5451172130081594 6.723812937696457 0 0 0
674 1 1 0.5897 3.5555386475390662 2.255908569898535 10.244470537036715 0 0 0
84 1 1 0.5897 5.883327669287234 3.0950497916966873 6.291369734539842 0 0 0
276 1 1 0.5897 5.798458124277635 2.5342339072513966 9.59647521670206 0 0 0
675 1 1 0.5897 2.6105139418752206 1.073275291105159 10.228367925041884 0 0 0
275 1 1 0.5897 4.869812722766151 2.9975821477850055 8.494283612604155 0 0 0
845 1 1 0.5897 7.480442156646048 1.3463864861628216 6.32871073211857 0 0 0
35 1 1 0.5897 0.5745335503755187 4.016049941858311 9.901746107631478 0 0 0
112 1 2 -1.1794 0.4695467709345751 5.872047898334045 10.094845561217461 0 0 0
676 1 2 -1.1794 5.302586739405426 5.592169986565355 10.425861569084683 0 0 0
686 1 1 0.5897 5.128975194565568 5.2059406375636925 5.714429782479727 0 0 0
113 1 1 0.5897 0.6015801722175632 5.685200068496604 11.024307747555756 0 0 0
357 1 1 0.5897 7.227987331517203 1.8347064631620222 11.015740757340275 0 0 0
844 1 2 -1.1794 7.380981647542226 2.1907264171796514 5.888916791133783 0 0 0
677 1 1 0.5897 6.06176486324478 5.9275223875646175 9.948990447233138 0 0 0
487 1 2 -1.1794 2.9277197954956753 2.2943234021487715 5.807454375740723 0 0 0
166 1 2 -1.1794 3.143259402692604 1.5056961835674125 13.351876988722081 0 0 0
167 1 1 0.5897 2.979080389541688 1.5290157775515925 12.40914121692795 0 0 0
457 1 2 -1.1794 5.4172725112149545 2.9839461061070245 13.964309514138883 0 0 0
458 1 1 0.5897 6.1507952413358025 2.3908553485254798 13.80181091177119 0 0 0
459 1 1 0.5897 4.643930657678769 2.4888831472088047 13.693971679418764 0 0 0
762 1 1 0.5897 5.76095379420648 4.664805880357949 13.197898318772124 0 0 0
594 1 1 0.5897 8.239858111157108 2.163181298563519 13.143087344145579 0 0 0
168 1 1 0.5897 2.365497413831562 1.9056557911930272 13.740895559043617 0 0 0
466 1 2 -1.1794 0.6737014470319327 2.8371720557266933 13.956355911342406 0 0 0
592 1 2 -1.1794 7.59368219192714 1.5763697168839026 12.750239363645282 0 0 0
364 1 2 -1.1794 0.7122001782727838 5.2777161091650235 12.734052354616272 0 0 0
468 1 1 0.5897 0.5975755838256183 3.049662852818796 14.88657800861124 0 0 0
593 1 1 0.5897 7.681380973440215 0.7595089478413782 13.241441205665096 0 0 0
365 1 1 0.5897 0.8152300607323234 4.348525147532412 12.939471840022916 0 0 0
71 1 1 0.5897 5.381626041081079 2.9342210536778133 15.778937110694331 0 0 0
761 1 1 0.5897 5.505266999933523 5.656562423195262 12.083029997849962 0 0 0
366 1 1 0.5897 1.527750265093407 5.681080520710854 13.031351909005 0 0 0
760 1 2 -1.1794 5.630993015775746 5.598175505455523 13.030146275928098 0 0 0
333 1 1 0.5897 3.816805778354804 5.899667040264677 13.277652186681497 0 0 0
72 1 1 0.5897 4.561068146496656 2.4673591439147358 16.962412222938646 0 0 0
40 1 2 -1.1794 7.416603993164049 1.9087036082179314 20.396335428579278 0 0 0
646 1 2 -1.1794 0.9553464782374667 5.569758988702936 20.557392601588823 0 0 0
755 1 1 0.5897 7.882904749910398 1.8786368594139329 18.52179210647253 0 0 0
754 1 2 -1.1794 8.005436680071906 1.934365472716433 17.574092789856905 0 0 0
667 1 2 -1.1794 5.179241363499053 3.057690958266384 21.329991625900725 0 0 0
289 1 2 -1.1794 2.896056473969952 1.7090698961150206 17.49830952527151 0 0 0
277 1 2 -1.1794 5.459844696268434 5.560124127142431 17.47471391077739 0 0 0
143 1 1 0.5897 5.494535419864656 4.850228166369296 20.65725219579528 0 0 0
569 1 1 0.5897 2.1671399307979398 2.1767722583164835 20.595467756076246 0 0 0
142 1 2 -1.1794 5.525496881659762 5.775630644860645 20.414593453689356 0 0 0
570 1 1 0.5897 2.9723618171432773 1.811902989030336 19.366490174431682 0 0 0
571 1 2 -1.1794 0.934675851620315 5.572920513478859 17.915064480764542 0 0 0
669 1 1 0.5897 4.445989748671959 2.528163004625998 21.016671923636665 0 0 0
134 1 1 0.5897 0.5664250774307015 3.961076388699515 16.932125863481808 0 0 0
291 1 1 0.5897 2.16038732595312 2.046483622357669 16.98721543325754 0 0 0
568 1 2 -1.1794 2.943520395800901 1.6918237014078252 20.31569511910334 0 0 0
41 1 1 0.5897 6.559393901114999 2.2992754706736758 20.5662132083497 0 0 0
42 1 1 0.5897 7.357073092256352 1.0284546521529125 20.76759738329754 0 0 0
278 1 1 0.5897 5.424145550701946 4.653385916133546 17.170110773520598 0 0 0
756 1 1 0.5897 7.210048371260989 2.3598433504896725 17.25386653461213 0 0 0
290 1 1 0.5897 3.0305060247697244 0.8208678537522097 17.167779758710815 0 0 0
21 1 1 0.5897 0.6280707324633773 3.851148949711608 21.10075261987874 0 0 0
70 1 2 -1.1794 5.41336119183405 2.836244095522146 16.730594351679557 0 0 0
19 1 2 -1.1794 0.6611121637889312 2.938597425435031 21.387802500562515 0 0 0
648 1 1 0.5897 1.0341606408051596 5.554418441728812 19.603561305440188 0 0 0
144 1 1 0.5897 5.5194320031239075 5.773076074312272 19.457409225178992 0 0 0
133 1 2 -1.1794 0.49297969557113586 3.0580427900076446 16.623256788337727 0 0 0
360 1 1 0.5897 8.902421857759045 2.5831630617753856 21.139764171152393 0 0 0
323 1 1 0.5897 7.378124315120926 0.12101622555085727 17.19500782040798 0 1 0
217 1 2 -1.1794 5.255910293282373 11.312511466773634 1.8729714662951018 0 0 0
123 1 1 0.5897 2.9253700823710758 8.947266936861483 2.472108296472811 0 0 0
121 1 2 -1.1794 3.040321005794617 9.867474828520821 2.709200901535942 0 0 0
122 1 1 0.5897 3.1544104586056334 9.85800519154235 3.6595356820346123 0 0 0
44 1 1 0.5897 1.5596144547703181 11.049311563300012 2.3716099232566985 0 0 0
218 1 1 0.5897 5.974394895617561 10.831993590183387 2.28418694178805 0 0 0
773 1 1 0.5897 8.868477896797293 10.942015229597034 2.8041191162892836 0 0 0
219 1 1 0.5897 4.467161877722738 10.842113688312413 2.1428093572236477 0 0 0
138 1 1 0.5897 4.370853716346145 6.082568171135385 2.4993623032627137 0 0 0
255 1 1 0.5897 2.1087307467863647 6.57838628763006 2.305918676431627 0 0 0
254 1 1 0.5897 2.977005012401551 6.968419350614377 1.128682667861117 0 0 0
415 1 2 -1.1794 7.355534097466063 7.178647504523702 2.195260987405259 0 0 0
43 1 2 -1.1794 0.7437008377316902 11.379486905814096 1.995462884363702 0 0 0
66 1 1 0.5897 7.427334276857317 9.837209455126137 3.966608806847914 0 0 0
65 1 1 0.5897 7.294869511381506 9.15806852005319 2.6200822698214306 0 0 0
64 1 2 -1.1794 7.401945168167749 10.017849759437718 3.0269396168916565 0 0 0
253 1 2 -1.1794 2.8447088634968694 7.139328642280907 2.061172485031046 0 0 0
416 1 1 0.5897 6.598196187884176 6.637905955921515 2.419432751110851 0 0 0
417 1 1 0.5897 8.11198019356922 6.630270014498063 2.4033138962884792 0 0 0
363 1 1 0.5897 5.393081990137726 11.158274940650964 0.2149637356716882 0 0 1
793 1 2 -1.1794 3.0444507716912925 9.827875160864437 5.5847474276209175 0 0 0
162 1 1 0.5897 7.607859688967153 6.92906680353024 0.42602925295262967 0 0 1
137 1 1 0.5897 5.143528099287623 6.030915082884337 3.80020953331744 0 0 0
685 1 2 -1.1794 5.193752665786751 6.141139737644958 5.521002725671479 0 0 0
396 1 1 0.5897 0.7337435857245453 11.447310048755238 0.2730772429633248 0 0 0
181 1 2 -1.1794 1.054305434900528 6.064552128780174 5.798038234520536 0 0 0
578 1 1 0.5897 6.055821239152648 10.646160532227462 6.364303479674012 0 0 0
10 1 2 -1.1794 3.2193291388866503 7.416518301323097 6.941679093135226 0 0 0
526 1 2 -1.1794 7.54601077825772 6.4700784082335865 9.304042827900352 0 0 0
145 1 2 -1.1794 7.5027068130249 7.317580033627976 6.548469285068129 0 0 0
580 1 2 -1.1794 5.616742627215499 10.756210021418166 9.596010313470163 0 0 0
822 1 1 0.5897 8.488268994317862 9.883614814337903 9.940319538674924 0 0 0
651 1 1 0.5897 3.7186048282447137 6.622402847148223 9.996773322175402 0 0 0
528 1 1 0.5897 8.334303209478962 5.967555292138935 9.50968698683869 0 0 0
258 1 1 0.5897 4.124624642964172 9.935603941506095 10.076640695422668 0 0 0
650 1 1 0.5897 3.124071893235326 7.1725760876478954 8.717797928137083 0 0 0
146 1 1 0.5897 6.680261602269747 6.9464663462833744 6.228981352460871 0 0 0
527 1 1 0.5897 7.741964822171714 7.357522574584902 9.604488353637267 0 0 0
15 1 1 0.5897 1.5547278235551154 10.61401149517494 9.774568794173769 0 0 0
11 1 1 0.5897 2.4400538578275106 6.96948624884854 6.611362837008168 0 0 0
581 1 1 0.5897 6.314464673185046 10.148050398254348 9.84001058380384 0 0 0
147 1 1 0.5897 7.536820765458997 7.066355910008637 7.471488882274197 0 0 0
714 1 1 0.5897 7.689920252072967 9.015971008029204 6.104913849063285 0 0 0
649 1 2 -1.1794 2.95960320469566 7.096959503072622 9.657741435431912 0 0 0
577 1 2 -1.1794 5.216539202427882 10.994811518989684 6.664737144878667 0 0 0
551 1 1 0.5897 1.065872319692358 11.456784080384079 7.7056377741201025 0 0 0
550 1 2 -1.1794 1.1297794871100104 11.301017282180997 6.763345785558538 0 0 0
794 1 1 0.5897 2.2812644242550397 10.323099479805157 5.882261101926641 0 0 0
257 1 1 0.5897 3.1275205643013386 8.79665134695796 10.056570854398183 0 0 0
13 1 2 -1.1794 0.6881383774465849 10.926743736269344 9.514878123765158 0 0 0
820 1 2 -1.1794 7.801950358489296 9.245687913081674 10.135853528231921 0 0 0
12 1 1 0.5897 3.2349156793526825 8.250342884161665 6.4718748409931965 0 0 0
713 1 1 0.5897 8.405142775228486 10.347692114707144 6.022411026960927 0 0 0
256 1 2 -1.1794 3.272881152460985 9.669058040779761 10.422629478795496 0 0 0
582 1 1 0.5897 5.583280811732725 10.71213945092885 8.640398715413573 0 0 0
114 1 1 0.5897 1.2823910283436402 6.294384897906938 9.817125563631917 0 0 0
687 1 1 0.5897 4.461145328835409 6.535410852629249 5.994350578733306 0 0 0
795 1 1 0.5897 3.789561199259961 10.264044501876537 5.998003646196058 0 0 0
712 1 2 -1.1794 7.603921042585477 9.900627258279156 5.749670695785838 0 0 0
165 1 1 0.5897 8.794647652743521 6.501250503666949 5.824375015472145 0 0 0
182 1 1 0.5897 0.3048710365555389 6.534521317959412 6.163675082441403 1 0 0
821 1 1 0.5897 7.706976968752417 9.279576319647683 11.087760828521976 0 0 0
828 1 1 0.5897 7.553723985644844 7.143416216423272 14.712946202089478 0 0 0
827 1 1 0.5897 6.879457723848995 6.633034646361053 13.457248544447843 0 0 0
332 1 1 0.5897 3.175220705245864 7.2697641090887215 13.332873787510737 0 0 0
797 1 1 0.5897 3.445440594767629 9.315397953520058 12.145812629015952 0 0 0
796 1 2 -1.1794 3.3828864984756533 9.150843661399175 13.08670312177414 0 0 0
798 1 1 0.5897 2.519274724071825 9.483209289840204 13.331536940949912 0 0 0
722 1 1 0.5897 4.551792174100777 10.154032525768452 13.79963679702153 0 0 0
260 1 1 0.5897 0.16358213156636497 10.041252456008245 13.744131828082887 0 0 0
261 1 1 0.5897 1.0270706266329033 10.411180023746782 14.93132778920465 0 0 0
721 1 2 -1.1794 5.270228624216531 10.740433144919034 14.036692333548986 0 0 0
723 1 1 0.5897 5.298888644379975 10.710476218593918 14.993002980237762 0 0 0
331 1 2 -1.1794 2.9996185656111134 6.344306861261446 13.502880221651537 0 0 0
225 1 1 0.5897 3.066333543228249 6.719384476594145 15.544000432890165 0 0 0
826 1 2 -1.1794 7.631149822720216 7.143125699083054 13.758875814505323 0 0 0
475 1 2 -1.1794 7.608760088675299 9.720385270976644 12.981457695552356 0 0 0
476 1 1 0.5897 6.778904043680482 10.042959872278894 13.332911722517398 0 0 0
477 1 1 0.5897 7.667649717382138 8.817981991652895 13.295165085773997 0 0 0
259 1 2 -1.1794 1.0302734542919056 10.37572019954653 13.97477357523961 0 0 0
223 1 2 -1.1794 3.1532107118143937 6.705406374584986 16.497153334253497 0 0 0
520 1 2 -1.1794 7.665384715114527 6.819167161414157 16.555784933574486 0 0 0
627 1 1 0.5897 2.344727412250001 9.65400714789779 17.260550474334956 0 0 0
4 1 2 -1.1794 3.184745191575328 6.91124166173739 21.289847495077503 0 0 0
7 1 2 -1.1794 7.383729617323317 9.23686479865277 17.899575551374646 0 0 0
139 1 2 -1.1794 7.772180748870485 9.730808475863949 20.55850578859733 0 0 0
279 1 1 0.5897 4.63790140518963 5.9470856630566535 17.173220381688658 0 0 0
9 1 1 0.5897 6.621058231218555 9.743115294666909 17.619804959206604 0 0 0
141 1 1 0.5897 7.703766117012163 8.855939306954708 20.940798835973922 0 0 0
224 1 1 0.5897 3.1023537363006777 7.6254567961610595 16.756289860543788 0 0 0
573 1 1 0.5897 0.17314324479296936 5.977566769035621 17.499666530131833 0 0 0
160 1 2 -1.1794 7.668048611909199 7.12232048135516 21.45962730068181 0 0 0
690 1 1 0.5897 2.318929947472183 9.909528283165132 21.00577384508285 0 0 0
625 1 2 -1.1794 3.1250727334095116 9.271622474337178 17.661875844258496 0 0 0
688 1 2 -1.1794 3.0427832595947177 9.575640951564699 20.47588744970843 0 0 0
140 1 1 0.5897 6.986037384058826 10.18640794151651 20.859562028070485 0 0 0
445 1 2 -1.1794 0.9272212801348857 10.700991507602254 16.64104552145392 0 0 0
689 1 1 0.5897 3.796736237437026 10.102847253412731 20.740122938167495 0 0 0
5 1 1 0.5897 3.98982007472498 6.59716030374401 20.878221081356273 0 0 0
626 1 1 0.5897 3.0311365254714198 9.459318145283472 18.595786206376673 0 0 0
161 1 1 0.5897 6.986001531315228 6.583395100291083 21.05885855985074 0 0 0
6 1 1 0.5897 3.0699109232727535 7.797523286101718 20.94701672433441 0 0 0
361 1 2 -1.1794 5.413581395457782 11.059422399280969 21.232256904008636 0 0 0
8 1 1 0.5897 7.434675555381237 9.381965218364094 18.844346611299088 0 0 0
394 1 2 -1.1794 0.8349536485819052 11.263883140672299 21.308234194779175 0 0 0
447 1 1 0.5897 0.3744016914430747 10.081552095243245 17.11739566513007 1 0 0
681 1 1 0.5897 5.188115220677337 11.635617193366196 17.21385709040021 0 0 0
522 1 1 0.5897 7.670693197777276 7.687131951743788 16.959307087773837 0 0 0
446 1 1 0.5897 0.8690325235661137 11.51206153430928 17.146040065223822 0 0 0
521 1 1 0.5897 6.816568393864792 6.44787810128474 16.79633968551326 0 0 0
680 1 1 0.5897 4.54135035824508 10.267195246454486 17.182568243083956 0 0 0
572 1 1 0.5897 1.6820497582842449 6.069196230403345 17.581347453923897 0 0 0
647 1 1 0.5897 1.7187519914935918 6.065581580461218 20.853336708319013 0 0 0
679 1 2 -1.1794 5.265633658380677 10.770767613268982 16.81100269723907 0 0 0
307 1 2 -1.1794 7.069951256731201 17.51590079756359 5.5273943954278115 0 0 0
173 1 1 0.5897 4.30413217690823 14.143629401619974 2.917891384971341 0 0 0
172 1 2 -1.1794 5.0589111597443415 13.664777408536526 3.2602824472299137 0 0 0
293 1 1 0.5897 2.947637015080163 16.846175367076363 2.5902889378313816 0 0 0
558 1 1 0.5897 2.939437193290706 15.087500553829747 1.2639498570696945 0 0 0
556 1 2 -1.1794 2.9744404215925555 15.092839383420628 2.220510168250993 0 0 0
557 1 1 0.5897 2.13641817377301 14.719366288649624 2.4934209124956053 0 0 0
478 1 2 -1.1794 7.214148412282079 15.008324944812554 2.1213218275441434 0 0 0
374 1 1 0.5897 0.48226609039832297 13.748065793190259 3.884179184779671 0 0 0
174 1 1 0.5897 4.976534859020715 12.787636259144337 2.886040377284487 0 0 0
479 1 1 0.5897 8.01530472266738 14.610346330546472 2.461875990830845 0 0 0
449 1 1 0.5897 6.930847316918286 16.814311765892825 2.5041401610131464 0 0 0
480 1 1 0.5897 6.506505674370264 14.49899014621466 2.516337892774132 0 0 0
373 1 2 -1.1794 0.5406029029124438 13.880434997969433 2.9379639683078427 0 0 0
200 1 1 0.5897 5.4749703959906215 13.739404043785212 4.9247527269974025 0 0 0
45 1 1 0.5897 0.649098703198474 12.25873174490273 2.361786397787317 0 0 0
308 1 1 0.5897 7.008413083496131 17.55168803447682 4.572835573904973 0 0 0
317 1 1 0.5897 7.833860970804502 14.801537410911795 0.5271061597416573 0 0 0
294 1 1 0.5897 2.7101758057469687 17.662594653027348 3.8428825301888434 0 0 0
655 1 2 -1.1794 0.8894285335049283 13.89310225005514 5.514041486893684 0 0 0
518 1 1 0.5897 7.561974556762177 15.974363598874794 6.381524745105544 0 0 0
186 1 1 0.5897 7.581003961528467 16.71349074249789 9.971124323655053 0 0 0
579 1 1 0.5897 5.27125129955873 11.934607567362 6.491540085383507 0 0 0
656 1 1 0.5897 1.6336928511668327 14.372375138610506 5.8781587082166755 0 0 0
811 1 2 -1.1794 3.480986847201572 14.9186652313163 9.44316076636859 0 0 0
454 1 2 -1.1794 5.719380333555568 13.38866828253309 10.489413820745753 0 0 0
813 1 1 0.5897 2.7585267261971578 14.54448506076203 9.947417034912194 0 0 0
17 1 1 0.5897 3.2702359995912773 15.026184749943088 7.578998052840251 0 0 0
384 1 1 0.5897 3.1358230076736335 16.586732172723288 9.917080197635114 0 0 0
377 1 1 0.5897 7.062677633430789 14.400303732860142 9.950328194826229 0 0 0
376 1 2 -1.1794 7.657591505656038 15.049237143653189 9.574574936698118 0 0 0
519 1 1 0.5897 8.588076324901873 14.867357653043603 6.497712402653945 0 0 0
456 1 1 0.5897 5.579696663073818 12.50369693019674 10.152481023416248 0 0 0
812 1 1 0.5897 4.260678625699673 14.472393955976786 9.7735324746714 0 0 0
201 1 1 0.5897 6.2503958403433435 14.1557282668198 6.156550168173459 0 0 0
552 1 1 0.5897 1.1859151902941618 12.175759830326303 6.378766903412168 0 0 0
16 1 2 -1.1794 3.2482154906385974 15.121674613456292 6.626822135027116 0 0 0
517 1 2 -1.1794 7.70535361663853 15.1133436743309 6.774335323835304 0 0 0
18 1 1 0.5897 4.119662271220151 14.850529754971973 6.338221838553232 0 0 0
378 1 1 0.5897 7.4724363419860556 15.029309615853078 8.63565916059673 0 0 0
766 1 2 -1.1794 0.7650611773337247 13.560836112294337 10.346198210167463 0 0 0
239 1 1 0.5897 2.936228487306791 16.699068501784758 6.079187121476832 0 0 0
382 1 2 -1.1794 2.857972809702193 17.423212983085065 10.290347065930801 0 0 0
199 1 2 -1.1794 5.492933297454391 13.641685812311934 5.876787305808807 0 0 0
14 1 1 0.5897 0.672495837985373 11.84419478640891 9.787365546296309 0 0 0
657 1 1 0.5897 0.1304995436899587 14.231309217527937 5.989290448005597 1 0 0
184 1 2 -1.1794 7.566322599376439 17.63992659556144 10.21137965792288 0 0 0
238 1 2 -1.1794 2.8563519872546266 17.580729278327155 5.715159641415389 0 0 0
429 1 1 0.5897 6.133841261700667 13.815073171151283 13.61337622079776 0 0 0
232 1 2 -1.1794 2.930558959641342 14.537913174335083 13.808733173991254 0 0 0
234 1 1 0.5897 2.89451666751173 14.679523562861696 14.754737205912388 0 0 0
606 1 1 0.5897 2.7109382055423863 16.328571310101346 13.294180936954712 0 0 0
427 1 2 -1.1794 5.288274881690201 13.437222142965787 13.371543967516939 0 0 0
233 1 1 0.5897 3.795178175529652 14.156682674515881 13.655948999803991 0 0 0
639 1 1 0.5897 1.5090621913775681 13.511318188177196 13.331838904613456 0 0 0
428 1 1 0.5897 5.354575814101783 12.517226372840318 13.627316676281003 0 0 0
637 1 2 -1.1794 0.6887049890034336 13.109629242766585 13.045684500777822 0 0 0
297 1 1 0.5897 8.518935421259538 14.555663039458011 13.833082844949795 0 0 0
296 1 1 0.5897 7.547422362798407 14.830167305334582 14.961229966777001 0 0 0
295 1 2 -1.1794 7.702661329094318 15.013170698668963 14.034587341078476 0 0 0
270 1 1 0.5897 7.653576940712263 16.71743257427682 13.392327961516305 0 0 0
268 1 2 -1.1794 7.381485038669199 17.601363684292714 13.145589693501718 0 0 0
638 1 1 0.5897 0.7201100876305964 12.22108343940846 13.400261177944715 0 0 0
605 1 1 0.5897 2.7431566466161597 17.19466534914919 12.052901354926071 0 0 0
269 1 1 0.5897 7.389296244943958 17.59646876847424 12.188426223255847 0 0 0
604 1 2 -1.1794 2.7159803186571403 17.242145953011793 13.008549429242597 0 0 0
455 1 1 0.5897 5.514867300686147 13.325327188272068 11.422368800188659 0 0 0
767 1 1 0.5897 0.7353694916923259 13.390934153635744 11.287735606838963 0 0 0
823 1 2 -1.1794 2.9809150632079113 14.723311010507281 16.575373110991272 0 0 0
51 1 1 0.5897 8.094855257589405 14.087914911743912 16.9397285285106 0 0 0
664 1 2 -1.1794 3.499763202537085 15.262442958634653 21.099163462942677 0 0 0
715 1 2 -1.1794 2.911073359932282 17.65297549533736 19.981066348874947 0 0 0
452 1 1 0.5897 0.9507430686149722 12.979292782400881 20.733041682336136 0 0 0
665 1 1 0.5897 2.6752887353639583 14.89688883548372 20.778481163173325 0 0 0
362 1 1 0.5897 5.294303110831492 11.947677745427413 20.896105504910878 0 0 0
125 1 1 0.5897 5.21479720706331 13.547068731527142 18.624807688617125 0 0 0
50 1 1 0.5897 7.335347898563214 15.396461606385344 16.88791282248451 0 0 0
684 1 1 0.5897 4.917278478150837 14.362456917036752 20.617957116721236 0 0 0
316 1 2 -1.1794 8.083645983769703 14.801625433013246 21.572231176935574 0 0 0
666 1 1 0.5897 3.491771278495994 16.171548156247674 20.79969420141129 0 0 0
318 1 1 0.5897 7.789769816601909 15.651556671767715 21.244286928761888 0 0 0
126 1 1 0.5897 5.713518971420772 13.761510226424239 17.2115792592242 0 0 0
824 1 1 0.5897 3.7093946861447953 14.160496909039185 16.83764894459061 0 0 0
52 1 2 -1.1794 1.0057923208805666 13.264411323041093 17.712227406883528 0 0 0
158 1 1 0.5897 8.219228074738806 17.5954915497407 20.70067041422469 0 0 0
683 1 1 0.5897 6.387959151347826 14.160036862733719 20.914549022127005 0 0 0
451 1 2 -1.1794 1.1083904235246878 13.85141643997795 20.37142072139367 0 0 0
682 1 2 -1.1794 5.673390260584203 13.830729373920528 20.369417428429685 0 0 0
124 1 2 -1.1794 4.969278101832003 13.421365520090427 17.708204474098487 0 0 0
157 1 2 -1.1794 7.382238882424617 17.178080178122286 20.497125860398732 0 0 0
53 1 1 0.5897 1.073653518388852 13.460218996795104 18.646756483563436 0 0 0
584 1 1 0.5897 2.90455593601209 16.535943434689756 17.15576078560963 0 0 0
583 1 2 -1.1794 2.6723367967988603 17.458011187116696 17.265631171281605 0 0 0
825 1 1 0.5897 2.19916500658525 14.25899367986681 16.874581132309537 0 0 0
610 1 2 -1.1794 7.3681437322084635 17.123891702759884 17.70243060357638 0 0 0
159 1 1 0.5897 7.384005308632124 17.088934880779256 19.544079864728168 0 0 0
716 1 1 0.5897 2.8670586040335393 17.55400864320189 19.03000951944454 0 0 0
453 1 1 0.5897 0.3868044050979146 14.38396250631884 20.705974518348448 0 0 0
54 1 1 0.5897 0.2805841327181753 13.808447596265282 17.405079566381445 0 0 0
612 1 1 0.5897 8.246189249105589 17.437332005145947 17.485619897974047 0 0 0
49 1 2 -1.1794 7.273927684219702 14.475114521876993 16.635808779700056 0 0 0
267 1 1 0.5897 6.003326887907413 21.813738875106203 2.689751312276044 0 0 0
696 1 1 0.5897 1.3988510311237061 21.891448582840034 2.7700112595981077 0 0 0
266 1 1 0.5897 4.492987009547045 21.72786818134437 2.631909117141481 0 0 0
265 1 2 -1.1794 5.260459448252749 21.3104779688043 3.0230562846399938 0 0 0
227 1 1 0.5897 4.1998154996667125 18.698408925353128 2.0211422396905743 0 0 0
228 1 1 0.5897 5.161805861033499 19.86303703991608 2.12145326076552 0 0 0
694 1 2 -1.1794 0.5903854829430984 21.479570911552436 3.074891265243317 0 0 0
249 1 1 0.5897 5.042915424777212 21.38892023709736 4.792363770703336 0 0 0
498 1 1 0.5897 7.196734723216714 22.82743098369756 0.24608131039001718 0 0 0
226 1 2 -1.1794 4.91772987878447 19.129294763117095 1.5572952808943854 0 0 0
187 1 2 -1.1794 2.96413237095776 22.459224298781834 2.1243864664910053 0 0 0
343 1 2 -1.1794 0.42992625572125187 19.006287969811453 2.122878151140321 0 0 0
818 1 1 0.5897 8.159457623514525 22.418519909934183 2.505477210689114 0 0 0
189 1 1 0.5897 2.815612419365067 22.48188136568742 1.1790319372621616 0 0 0
344 1 1 0.5897 1.2842976988266552 18.70043909509252 2.427426107817168 0 0 0
413 1 1 0.5897 0.7884264001770007 21.616305489061688 4.791552507382247 0 0 0
345 1 1 0.5897 0.4648727033345275 18.907633988003752 1.1714066061292567 0 0 0
817 1 2 -1.1794 7.333536174768786 22.786219112040868 2.1910525272198935 0 0 0
695 1 1 0.5897 0.5777940601496042 20.626034971796244 2.6418429578074476 0 0 0
450 1 1 0.5897 6.303806792757087 18.176053964950945 2.2935729406676835 0 0 0
292 1 2 -1.1794 2.8167732715856317 17.74405230436613 2.895118522425905 0 0 0
448 1 2 -1.1794 6.997067767216693 17.728818419811212 2.778947447046 0 0 0
321 1 1 0.5897 8.636743079436012 18.435936353916873 2.27747893213102 0 0 0
188 1 1 0.5897 2.9445504144814634 23.377909480221987 2.3924740222142398 0 0 0
702 1 1 0.5897 2.389514986101093 22.727574895812403 6.200737313538333 0 0 0
387 1 1 0.5897 5.189934615425118 19.843216641078094 6.4038433247644555 0 0 0
701 1 1 0.5897 3.1285322881622766 22.953907646899424 7.502476463465517 0 0 0
185 1 1 0.5897 8.443861066191975 17.957113467382854 9.997986006823506 0 0 0
414 1 1 0.5897 1.0319658539304062 20.765339882788673 6.019753383001493 0 0 0
385 1 2 -1.1794 5.132055825170701 18.914522962101522 6.628315068264419 0 0 0
341 1 1 0.5897 1.5602649227939296 18.617680535685032 6.38957251330072 0 0 0
85 1 2 -1.1794 7.193841408694091 22.687956758061993 9.279743828747094 0 0 0
39 1 1 0.5897 3.5886363141069424 22.318832538995295 9.678821214831023 0 0 0
37 1 2 -1.1794 2.828324192289341 22.862837451363205 9.47338014951747 0 0 0
86 1 1 0.5897 7.209556867946913 22.806875606881498 8.33008288314656 0 0 0
340 1 2 -1.1794 0.8191526567975651 19.130534421395637 6.711994465982997 0 0 0
100 1 2 -1.1794 5.132829065528362 18.84893531383834 9.389625711641258 0 0 0
102 1 1 0.5897 5.089647651207088 18.952986597604543 8.43906383566718 0 0 0
700 1 2 -1.1794 3.130064610708036 23.202351784797635 6.5780780027535775 0 0 0
555 1 1 0.5897 5.003941996705319 20.595751723656704 10.145674184038482 0 0 0
33 1 1 0.5897 6.811616117805279 22.556821869731166 6.164188201172622 0 0 0
38 1 1 0.5897 2.0750260158209217 22.301256346830208 9.656107982223432 0 0 0
101 1 1 0.5897 6.039554473645832 18.59547667799989 9.562345673501305 0 0 0
247 1 2 -1.1794 5.155854134144752 21.59916195233997 5.719367270389531 0 0 0
31 1 2 -1.1794 7.566827264338304 22.97628053575994 6.57641856025414 0 0 0
342 1 1 0.5897 0.7852470543641794 18.94009967112656 7.649452097810541 0 0 0
405 1 1 0.5897 0.593512935819237 19.575809280401437 9.63840532717274 0 0 0
554 1 1 0.5897 5.743906496299534 21.915454509929297 10.093927810943388 0 0 0
94 1 2 -1.1794 0.6174338102054993 21.411370717269413 10.108685310488365 0 0 0
386 1 1 0.5897 5.848212409690634 18.505174867129995 6.142737780294289 0 0 0
553 1 2 -1.1794 4.972566349147674 21.494508152818128 10.473490473716588 0 0 0
87 1 1 0.5897 8.000132278032154 22.210550491719793 9.475206961558092 0 0 0
404 1 1 0.5897 1.380736154346375 18.282873250416607 9.659522452281218 0 0 0
32 1 1 0.5897 8.301605021271836 22.395697874635573 6.378276767136383 0 0 0
240 1 1 0.5897 3.64007734117998 18.0380830631458 6.019839711338778 0 0 0
403 1 2 -1.1794 0.5131688801122556 18.63778519623073 9.465585825961814 0 0 0
248 1 1 0.5897 4.394734858800976 22.136875171933944 5.937938533273884 0 0 0
412 1 2 -1.1794 1.0184464469722372 21.6739363372703 5.718925116090245 0 0 0
383 1 1 0.5897 3.592695144008592 18.01465692191718 10.127269226312547 0 0 0
96 1 1 0.5897 0.6357741246251707 21.434937930916185 11.065425076621635 0 0 0
309 1 1 0.5897 7.889295644428564 17.96643487690858 5.7321161490507215 0 0 0
379 1 2 -1.1794 0.6376029816636463 21.261915982095744 12.90546120267837 0 0 0
88 1 2 -1.1794 5.531976889062341 21.44015606987454 13.116235035411593 0 0 0
381 1 1 0.5897 1.5149107230560641 21.617293887915856 13.047827166755013 0 0 0
90 1 1 0.5897 5.435007488512113 20.581176757472697 13.527336557565183 0 0 0
763 1 2 -1.1794 4.985411569187024 18.803538906964583 13.925542327249655 0 0 0
738 1 1 0.5897 3.9382039472064134 22.114181206321653 13.495492196227158 0 0 0
89 1 1 0.5897 5.302799340585596 21.294201983411625 12.198404287680713 0 0 0
736 1 2 -1.1794 3.0766218139522787 22.41916593851125 13.779911334127188 0 0 0
789 1 1 0.5897 6.84617406149676 22.34200803596096 13.801115362411135 0 0 0
765 1 1 0.5897 5.686553618943666 18.26790092648598 13.554447664347256 0 0 0
787 1 2 -1.1794 7.692596135038203 22.710239750062975 14.054490453295037 0 0 0
380 1 1 0.5897 0.6614709355141323 20.394653532839612 13.309820204424504 0 0 0
350 1 1 0.5897 2.8322373441728677 22.414544314149595 15.63063369695003 0 0 0
474 1 1 0.5897 5.241842825913552 18.554763062092803 15.751197182199824 0 0 0