LAMMPS (30 Jul 2021)
  using 1 OpenMP thread(s) per MPI task
package omp 0
using multi-threaded neighbor list subroutines
echo both

include		in.partitions
variable        pid world 0
include		in.temp
variable        temperature equal 250.62
variable	tempDamp equal 100.0
include		in.pressure
variable        pressure equal 5375.0
variable        pressureDamp equal 1000.0 # This is 1 ps
include		in.seed
variable        seed world 745823

units		real
atom_style	full
read_restart	restart.lmp.${pid}
read_restart	restart.lmp.0
Reading restart file ...
  restart file = 30 Jul 2021, LAMMPS = 30 Jul 2021
  restoring atom style full from restart
  orthogonal box = (0.45784248 1.6308092 0.55856676) to (17.749730 21.998369 21.654629)
  4 by 4 by 4 MPI processor grid
  restoring pair style lj/cut/tip4p/long/omp from restart
  restoring bond style harmonic/omp from restart
  restoring angle style harmonic/omp from restart
  864 atoms
  576 bonds
  288 angles
Finding 1-2 1-3 1-4 neighbors ...
  special bond factors lj:    0        0        0       
  special bond factors coul:  0        0        0       
     2 = max # of 1-2 neighbors
     1 = max # of 1-3 neighbors
     1 = max # of 1-4 neighbors
     2 = max # of special neighbors
  special bonds CPU = 0.973 seconds
  read_restart CPU = 1.155 seconds
include 	in.setup
variable	out_freq equal 1000
variable	out_freq2 equal 10000
variable	out_freq3 equal 1000

timestep	2.0

neigh_modify    delay 7 every 1

include		in.tip4p
# This is TIP4P/Ice

# create groups ###
group ox type 2
288 atoms in group ox
group hy type 1
576 atoms in group hy

# set charges - beside manually ###
set group ox charge -1.1794
Setting atom values ...
  288 settings made for charge
set group hy charge 0.5897
Setting atom values ...
  576 settings made for charge

# ### TIP3P Potential Parameters ###
pair_style lj/cut/tip4p/long/omp 2 1 1 1 0.1577 8.5
pair_coeff 1 1*2 0.000 0.000
pair_coeff 2 2 0.21084 3.1668
bond_style  harmonic
bond_coeff  1 450 0.9572
angle_style harmonic
angle_coeff 1 55 104.52
kspace_style pppm/tip4p/omp 1.0e-5
pair_modify tail yes

thermo          ${out_freq}
thermo          1000
thermo_style    custom step temp pe etotal epair emol press lx ly lz vol pxx pyy pzz pxy pxz pyz enthalpy

restart 	${out_freq3} restart.lmp.${pid} restart2.lmp.${pid}
restart 	1000 restart.lmp.${pid} restart2.lmp.${pid}
restart 	1000 restart.lmp.0 restart2.lmp.${pid}
restart 	1000 restart.lmp.0 restart2.lmp.0


include         in.dump
dump            myDump all atom ${out_freq2} dump.water.${pid}
dump            myDump all atom 10000 dump.water.${pid}
dump            myDump all atom 10000 dump.water.0
dump            myDump2 all dcd ${out_freq2} dump.dcd
dump            myDump2 all dcd 10000 dump.dcd
dump_modify     myDump append yes
dump_modify     myDump2 append yes


variable natoms 	equal  "count(all)"                        # NUMBER ATOMS
variable H      	equal  "enthalpy/v_natoms"                 # ENTHALPY-per-atom
variable Vol      	equal  "vol/v_natoms"                 # volume-per-atom
fix AVG all 		ave/time ${out_freq} 1 ${out_freq} v_Vol v_H file vol_enthalpy.dat
fix AVG all 		ave/time 1000 1 ${out_freq} v_Vol v_H file vol_enthalpy.dat
fix AVG all 		ave/time 1000 1 1000 v_Vol v_H file vol_enthalpy.dat


timer           timeout 23:50:00 every 1000
New timer settings: style=normal  mode=nosync  timeout=23:50:00

fix 		1 all shake 1e-6 200 0 b 1 a 1
       0 = # of size 2 clusters
       0 = # of size 3 clusters
       0 = # of size 4 clusters
     288 = # of frozen angles
  find clusters CPU = 0.011 seconds
fix             2 all nph iso ${pressure} ${pressure} ${pressureDamp}
fix             2 all nph iso 5375 ${pressure} ${pressureDamp}
fix             2 all nph iso 5375 5375 ${pressureDamp}
fix             2 all nph iso 5375 5375 1000
fix             3 all temp/csvr ${temperature} ${temperature} ${tempDamp} ${seed}
fix             3 all temp/csvr 250.62 ${temperature} ${tempDamp} ${seed}
fix             3 all temp/csvr 250.62 250.62 ${tempDamp} ${seed}
fix             3 all temp/csvr 250.62 250.62 100 ${seed}
fix             3 all temp/csvr 250.62 250.62 100 745823

run             250000
PPPM initialization ...
  extracting TIP4P info from pair style
  using 12-bit tables for long-range coulomb (../kspace.cpp:340)
  G vector (1/distance) = 0.37429818
  grid = 24 24 25
  stencil order = 5
  estimated absolute RMS force accuracy = 0.00306783
  estimated relative force accuracy = 9.2386789e-06
  using double precision FFTW3
  3d grid and FFT values/proc = 2730 288
Last active /omp style is kspace_style pppm/tip4p/omp
Neighbor list info ...
  update every 1 steps, delay 7 steps, check yes
  max neighbors/atom: 2000, page size: 100000
  master list distance cutoff = 10.8154
  ghost atom cutoff = 10.8154
  binsize = 5.4077, bins = 4 4 4
  1 neighbor lists, perpetual/occasional/extra = 1 0 0
  (1) pair lj/cut/tip4p/long/omp, perpetual
      attributes: half, newton on, omp
      pair build: half/bin/newton/omp
      stencil: half/bin/3d
      bin: standard
Per MPI rank memory allocation (min/avg/max) = 9.238 | 9.243 | 9.250 Mbytes
Step Temp PotEng TotEng E_pair E_mol Press Lx Ly Lz Volume Pxx Pyy Pzz Pxy Pxz Pyz Enthalpy 
 5750000    268.98179   -3924.5801   -3463.5545   -3924.5801            0    4123.8626    17.291887    20.367559    21.096062    7429.8969    4538.7717    4388.7947    3444.0214    913.34264    853.35766   -248.35296   -3016.7033 
 5751000    247.00267   -3917.1451    -3493.791   -3917.1451            0    4987.5765    17.267535    20.338875    21.066352    7398.5502    4652.6681    3807.0387    6503.0226   -748.57995    199.57606    803.95979   -2955.6302 
 5752000     249.0828   -3930.1143   -3503.1949   -3930.1143            0    6329.3974    17.186198    20.243071    20.967121     7294.491    6702.0345    6197.7527    6088.4051   -320.68978   -512.88626    -732.7832   -2829.8568 
 5753000    244.78893   -3908.7944   -3489.2346   -3908.7944            0    5808.2226    17.183846    20.240301    20.964252    7291.4976    6865.8938    5834.3621    4724.4121   -80.226535   -232.54197   -804.78885   -2871.5939 
 5754000    234.65654   -3944.9756   -3542.7823   -3944.9756            0    4877.6552    17.244841    20.312145    21.038666    7369.4177    5728.9348    4659.3734    4244.6574    300.99838    531.38399   -827.66464   -3018.5544 
 5755000    246.01893   -3924.4239   -3502.7559   -3924.4239            0    4737.2735    17.226424    20.290451    21.016196    7345.8313     3755.663    4841.1363    5615.0213   -430.74149   -9.1345622    -406.0669   -2995.2451 
 5756000    258.11837   -3927.4663   -3485.0603   -3927.4663            0    5966.8918    17.235815    20.301513    21.027653    7357.8516    7512.7242     4567.905     5820.046    647.75885    751.01547   -459.05887   -2844.7727 
 5757000    259.26691   -3934.8742   -3490.4995   -3934.8742            0    4379.7042    17.222095    20.285353    21.010916    7340.2955    5017.0704    3138.3064    4983.7359    599.18875    692.97961   -322.85434   -3021.6492 
 5758000     254.3394   -3912.8391   -3476.9101   -3912.8391            0    5931.3472    17.244567    20.311822    21.038331    7369.0665    6406.0151    5790.4451    5597.5815    736.30916    1510.0471    455.00004   -2839.4666 
 5759000     257.5843   -3890.2197    -3448.729   -3890.2197            0    4304.1957    17.232938    20.298124    21.024144     7354.168    4343.4699    3690.7611    4878.3562      607.126     1796.337   -364.30127   -2987.0911 
 5760000    263.84733   -3909.7825   -3457.5572   -3909.7825            0    6355.7138      17.1901    20.247667    20.971881    7299.4606    5012.3945    7570.2926    6484.4542    247.30968   -320.27222   -122.35016   -2780.9587 
 5761000     260.7455   -3935.8401   -3488.9313   -3935.8401            0    5380.2647    17.198639    20.257725      20.9823    7310.3445    4962.5153    5791.1999    5387.0789   -138.61268   -829.66977   -1119.2577   -2915.3204 
 5762000     253.9667   -3865.9059   -3430.6156   -3865.9059            0     4171.432    17.264008    20.334722     21.06205    7394.0182    3558.9829    4154.9519    4800.3613   -493.60591   -258.35125     1253.238   -2980.7927 
 5763000    258.68097   -3879.1091   -3435.7388   -3879.1091            0    4477.1087     17.28026    20.353864    21.081877    7414.9187    5806.1399    4086.9349    3538.2512   -246.17192   -1937.1686    73.707086   -2951.5888 
 5764000    244.84012   -3909.5134   -3489.8659   -3909.5134            0      5818.31    17.166737    20.220148    20.943379    7269.7391    5131.7507    5954.3195    6368.8598    326.86465   -1318.6188    1779.6626   -2872.9988 
 5765000    250.03518   -3908.2909   -3479.7392   -3908.2909            0    6100.2586    17.217525    20.279971    21.005341    7334.4541    5842.9965    6505.0083    5952.7708   -660.63495   -1435.8865    1095.7201    -2827.222 
 5766000    252.41346   -3896.1294   -3463.5014   -3896.1294            0    5436.9274    17.227527    20.291752    21.017543    7347.2436    5992.2678    4623.0203     5695.494    953.75277   -589.93952   -777.49391   -2880.9237 
 5767000    240.03793   -3883.0851   -3471.6683   -3883.0851            0    5954.7336    17.194838    20.253248    20.977662    7305.4981     5451.989    5049.8767     7362.335   -436.51055   -646.07636    528.58479    -2837.232 
 5768000    249.47154   -3934.5264   -3506.9407   -3934.5264            0     5030.703    17.199535    20.258781    20.983393    7311.4873    4130.9415    5002.1053    5959.0621   -1073.1544    994.35319    449.52523   -2970.5141 
 5769000    242.14715   -3903.8436   -3488.8117   -3903.8436            0    4468.7881    17.260364    20.330429    21.057603     7389.336    3408.5735    4932.8873    5064.9036    299.57449    427.90962   -747.94332   -3007.2288 
 5770000    243.70913   -3936.6052   -3518.8961   -3936.6052            0    5736.6155    17.220878    20.283919     21.00943    7338.7388    6615.1111    5448.2225    5146.5131    -1027.546    119.94306    539.63985   -2904.9178 
 5771000    241.24867   -3922.4794   -3508.9875   -3922.4794            0    3779.2242    17.217013    20.279368    21.004716    7333.7996    2639.8869    4716.1765    3981.6093    271.70426   -507.84581   -2068.3824    -3104.777 
 5772000    263.04524   -3900.5605     -3449.71   -3900.5605            0    5299.2932    17.166471    20.219835    20.943054    7269.4015    4646.6086    7094.1221     4157.149    50.927569   -653.45002   -1224.5118    -2887.896 
 5773000    243.65154   -3926.7459   -3509.1355   -3926.7459            0     4914.621    17.089417    20.129076    20.849049    7171.9513    4212.3312    4857.7686    5673.7631   -66.360918   -640.88851   -230.33293    -2995.088 
 5774000    268.16559   -3896.4703   -3436.8437   -3896.4703            0    5191.7089    17.143454    20.192724    20.914974    7240.2002     4866.696    5493.8356     5214.595   -949.50016    1219.4833    1713.9641   -2888.6465 
 5775000    255.05891   -3907.7527   -3470.5905   -3907.7527            0    5566.6993    17.204935    20.265141     20.98998    7318.3756    4731.8918    6358.3697    5609.8363    2668.9129    238.22918   -548.91774   -2876.4511 
 5776000    265.05261   -3904.2976   -3450.0065   -3904.2976            0    6413.5318    17.208346    20.269158    20.994142    7322.7289    6161.4123    6466.8597    6612.3235    1816.2715   -562.29494   -347.35289   -2765.0766 
 5777000    257.74558   -3900.7273   -3458.9602   -3900.7273            0    5114.0137    17.195432    20.253947    20.978387    7306.2554    4660.0255     5174.643    5507.3728   -1100.8118    270.68065     326.0756   -2914.0403 
 5778000    246.28828   -3924.3451   -3502.2154   -3924.3451            0    5485.1895    17.183425    20.239805    20.963739    7290.9614    4708.5467    5660.6129    6086.4089   -434.08161    200.22455   -3.6008238   -2918.9687 
 5779000    243.61412   -3915.7509   -3498.2046   -3915.7509            0    4864.5137    17.165174    20.218307    20.941472    7267.7536    5332.5223    6490.6071    2770.4117    712.71694   -665.99388    156.07637   -2982.6015 
 5780000    264.07213   -3905.9692   -3453.3586   -3905.9692            0    4643.0724    17.229774    20.294397    21.020284    7350.1178    4021.1824    5156.5518     4751.483      349.638   -1303.2516   -126.75708   -2955.6494 
 5781000    250.17185   -3852.0707   -3423.2847   -3852.0707            0    5121.3382    17.228354    20.292725    21.018551    7348.3009    4810.3606    4895.1263    5658.5276   -1295.5704   -1590.0288    415.29371    -2874.444 
 5782000     256.4895    -3899.854   -3460.2398    -3899.854            0    5061.6906    17.181263    20.237259    20.961101    7288.2098    6693.8207    3359.8749    5131.3762   -597.64588   -1693.5739    900.88179   -2922.2273 
 5783000    254.59192   -3909.0624   -3472.7005   -3909.0624            0    5054.5689    17.228886    20.293352      21.0192    7348.9817    3346.7888    6104.5622    5712.3558     180.0332    404.13367   -134.55022   -2930.9652 
 5784000    237.39772   -3921.5025   -3514.6109   -3921.5025            0    4317.5016    17.272308    20.344498    21.072176    7404.6877     4441.093    1971.3057    6540.1061   -387.51124    -342.2076    1332.9394   -3048.3649 
 5785000     234.1981   -3917.8015    -3516.394   -3917.8015            0     7133.923    17.146203    20.195963    20.918328    7243.6841    7780.5864    8421.8994    5199.2832     161.3836   -491.92885    -556.9546   -2762.7542 
 5786000    259.43673   -3953.5767    -3508.911   -3953.5767            0    3913.5071    17.290012     20.36535    21.093774    7427.4798    4661.8647    4570.6473    2508.0092    441.90008    5.3503832   -378.68681   -3084.9915 
 5787000    240.64512   -3894.6365    -3482.179   -3894.6365            0    5801.2954    17.225077    20.288866    21.014554    7344.1094    5233.3684    6918.2125    5252.3054   -1434.9019     443.4038     847.2378   -2860.8237 
 5788000    259.68156   -3936.6606   -3491.5753   -3936.6606            0    3953.9953    17.232052    20.297081    21.023063    7353.0337    4508.0574    3054.4208    4299.5076   -278.12547   -187.71509   -853.20156   -3067.5629 
 5789000    252.66388   -3915.9178   -3482.8605   -3915.9178            0    6026.7238    17.104017    20.146273    20.866861    7190.3492    7505.1662    5729.4823    4845.5229   -1451.3482    863.45928   -1284.6496    -2850.875 
 5790000    255.16728   -3933.3442   -3495.9962   -3933.3442            0    4716.8408    17.211289    20.272625    20.997733    7326.4874    5222.3575    5589.9613    3338.2035    677.53108   -322.05785    963.24065   -2992.0051 
 5791000    243.13746   -3927.8104   -3511.0811   -3927.8104            0     4058.491    17.212485    20.274033    20.999191    7328.0138    5371.6049    2984.4076    3819.4606    1130.7539   -576.40105   -482.51163   -3077.3438 
 5792000    242.66805   -3897.9019   -3481.9772   -3897.9019            0    7020.9149    17.113309    20.157218    20.878198    7202.0744    8464.8739    6960.3979     5637.473    1020.7471    1410.9828   -334.81548   -2744.5363 
 5793000    258.03119    -3926.574   -3484.3174    -3926.574            0    4840.5921    17.197162    20.255985    20.980497    7308.4609    4695.1562    5119.1901    4707.4299   -1168.8107   -90.376397     431.2576   -2968.3761 
 5794000    249.95787   -3905.6603   -3477.2411   -3905.6603            0    7551.8377    17.092231     20.13239    20.852482    7175.4946    7909.8973    6793.8676    7951.7482   -176.22999     561.5728    1445.8449   -2686.9622 
 5795000    243.27831   -3938.2477    -3521.277   -3938.2477            0    4532.7578    17.206687    20.267204    20.992117     7320.611    4520.6681    4125.2362    4952.3691    702.93549   -316.61511    -657.5648   -3037.3435 
 5796000    264.13227   -3900.7053   -3447.9916   -3900.7053            0    6326.4345     17.18721    20.244263    20.968356    7295.7799    5628.3295    7755.4804    5595.4936    619.27911    831.97442   -722.18656   -2774.8497 
 5797000    234.22344   -3890.0738   -3488.6228   -3890.0738            0      5651.99    17.195807    20.254389    20.978844    7306.7331    7017.3983    5045.3338     4893.238    1319.1682     73.05629   -311.13952   -2886.3399 
 5798000    254.75956   -3880.8558   -3444.2066   -3880.8558            0    6569.9612    17.148893    20.199131     20.92161    7247.0937    6274.1067    5820.7801    7614.9969   -406.63015     1324.443   -1680.4429    -2749.818 
 5799000    253.00141   -3881.1118    -3447.476   -3881.1118            0    4839.6113    17.215101    20.277115    21.002383    7331.3563    5090.0274    4519.3467    4909.4598    155.11445   -1230.0311   -302.93949   -2930.0233 
 5800000    251.73681   -3916.0309   -3484.5626   -3916.0309            0     4160.671    17.254488    20.323508    21.050435    7381.7925    5856.1121      3260.14     3365.761   -1331.5443   -426.40777   -780.39373    -3036.642 
 5801000    251.31256   -3884.7687   -3454.0275   -3884.7687            0    5601.5927     17.18827    20.245511    20.969649    7297.1298    5768.1079    7076.2201    3960.4501   -599.22935   -1547.0312     2166.337   -2857.8996 
 5802000    262.98538   -3953.8293   -3503.0814   -3953.8293            0    5754.8501     17.19163    20.249469    20.973748    7301.4098    5642.7056      8179.19    3442.6548     210.3094   -861.55797   -561.29147   -2890.2844 
 5803000    245.13135   -3921.0499   -3500.9031   -3921.0499            0    6901.5358    17.169949    20.223932    20.947297    7273.8206    5771.4082    6119.1785    8814.0206    68.097103    386.56569   -370.57713   -2768.7798 
 5804000    256.80982   -3925.2707   -3485.1075   -3925.2707            0     6280.322    17.226628    20.290692    21.016446    7346.0926    4353.6333    6192.8029    8294.5298   -469.86246   -328.72973   -1095.1926   -2812.2637 
 5805000    258.91211   -3930.0544    -3486.288   -3930.0544            0    4970.8419    17.211972     20.27343    20.998566    7327.3595    4826.7133    5378.8464    4706.9659    1539.3785   -975.73895   -2573.9695   -2955.0937 
 5806000    259.38024    -3892.277   -3447.7081    -3892.277            0    5147.0281    17.284586    20.358959    21.087155    7420.4893    4537.1436      5667.21    5236.7307     994.7798   -1074.9293   -322.51173   -2890.6956 
 5807000    257.15268   -3920.2317   -3479.4808   -3920.2317            0    7508.8586    17.186995     20.24401    20.968094    7295.5065    7532.5188    6282.2015    8711.8554     931.0953   -2369.6737    813.23782   -2680.5572 
 5808000    249.50259     -3919.87   -3492.2311     -3919.87            0    5888.5076    17.233441    20.298717    21.024757    7354.8118    5790.2252     6167.259    5708.0387    364.50966   -1266.4319   -227.69827   -2860.6158 
 5809000    247.82254   -3885.6803   -3460.9209   -3885.6803            0    3879.7419    17.271746    20.343836     21.07149    7403.9645    4990.5656    2435.5087    4213.1514    1102.2238   -470.75639    1079.1104   -3041.9894 
 5810000    249.83512   -3926.0409    -3497.832   -3926.0409            0    3949.9657    17.214243    20.276104    21.001336    7330.2598    4642.7748    4022.9228    3184.1996   -370.22266    861.29219   -839.66893   -3075.5636 
 5811000     240.0755    -3904.524   -3493.0428    -3904.524            0    4139.9418    17.297115    20.373717     21.10244    7436.6376    2163.2402    4328.6941    5927.8912   -12.147002   -237.91847   -574.45476   -3044.0424 
 5812000    243.96372    -3882.668   -3464.5225    -3882.668            0    3836.1674    17.294885     20.37109    21.099719    7433.7611    5947.8397    3121.7296    2438.9327    1145.2316    246.69239    769.92878   -3048.6291 
 5813000    245.10933   -3835.9406   -3415.8316   -3835.9406            0     2559.885    17.302986    20.380632    21.109603    7444.2128     1813.308     2008.609    3857.7381   -604.49152   -947.51814    686.70073   -3137.9146 
 5814000    251.08699   -3889.8888   -3459.5343   -3889.8888            0    5189.8203    17.283036    20.357134    21.085264    7418.4935    5718.1693    5459.9825    4391.3093   -350.36294   -592.17931    755.25879   -2898.0419 
 5815000    252.61613   -3943.6356   -3510.6602   -3943.6356            0    6180.4898    17.192483    20.250474    20.974789    7302.4972    4918.9168    7133.9865    6488.5662   -297.65625   -757.71721    1813.4694   -2852.4416 
 5816000    254.65044   -3900.0844   -3463.6222   -3900.0844            0    7293.0758    17.201292     20.26085    20.985537    7313.7284    5501.9074    7472.3137    8905.0063   -192.07088   -247.01705   -431.49941   -2685.7192 
 5817000    238.60169   -3930.7006   -3521.7454   -3930.7006            0    4706.4411    17.261608    20.331895    21.059122    7390.9348    5382.6098    4488.6872    4248.0264   -263.21486    1268.9098   -900.07777   -3014.4419 
 5818000    242.46223   -3909.1011   -3493.5291   -3909.1011            0    4762.4329      17.2619    20.332238    21.059478    7391.3098     6809.518    2058.1743    5419.6066    469.92932    1738.9716    89.659703   -2980.1642 
 5819000    236.06513   -3931.4035    -3526.796   -3931.4035            0    4031.2758    17.295964    20.372361    21.101036     7435.153    5748.9084    3637.6635    2707.2555    816.74058   -97.755273    694.55197   -3089.6683 
 5820000    248.37445   -3934.6803    -3508.975   -3934.6803            0    4942.3241    17.300506    20.377711    21.106577    7441.0118    5135.3811    5861.2234    3830.3677    -320.8975   -1820.5694   -1278.4242   -2972.6364 
 5821000    258.23842   -3956.6964   -3514.0845   -3956.6964            0    4203.0554    17.280926    20.354648     21.08269    7415.7765    4406.0888    4153.1666    4049.9108    1343.0796   -71.346165   -601.56835   -3059.5178 
 5822000    280.60135   -3923.8472   -3442.9061   -3923.8472            0    4852.7489    17.253204    20.321996    21.048869    7380.1448    5342.4355    4788.6683    4427.1429    700.71895   -1161.1816    1699.5945   -2920.5958 
 5823000    249.47491   -3953.8249   -3526.2335   -3953.8249            0    5622.0783    17.175378    20.230327    20.953921    7280.7232    6026.6344    5982.1333    4857.4673    680.22524   -408.70453    1180.5399   -2929.2706 
 5824000    252.42502   -3934.2111   -3501.5633   -3934.2111            0    5071.4931    17.183384    20.239757    20.963689    7290.9095     4765.186    4052.4802     6396.813    48.633609   -1348.9979   -166.92245   -2962.3092 
 5825000    243.71179    -3922.111   -3504.3974    -3922.111            0     5475.653    17.202088    20.261787    20.986507    7314.7427    6555.8969    5619.3648    4251.6973    1150.2107   -17.437931   -41.274651   -2920.2656 
 5826000    242.69994   -3908.2073   -3492.2279   -3908.2073            0    6831.8342    17.186992    20.244006     20.96809    7295.5023    5424.4998    7008.8014    8062.2014   -1629.0488     798.2181   -106.37583   -2765.3384 
 5827000    234.35155    -3938.065   -3536.3944    -3938.065            0    4830.4198    17.213945    20.275753    21.000973    7329.8792    5909.4498    5076.1346     3505.675    -1087.501    -652.4884    538.31703   -3020.0285 
 5828000     266.0791   -3899.7977   -3443.7472   -3899.7977            0    5356.8355    17.188784    20.246117    20.970276    7297.7845    6668.3279    4070.4742    5331.7043    365.47436    550.99727    368.86818   -2873.6154 
 5829000    255.75001   -3921.5154   -3483.1686   -3921.5154            0    8967.6635    17.142076    20.191101    20.913292    7238.4538    9491.0856    9945.7645    7466.1404   -132.17456   -847.82755   -858.45314   -2536.4934 
 5830000    281.78836   -3927.2253   -3444.2497   -3927.2253            0    4773.1182    17.226759    20.290847    21.016606    7346.2604    4075.2693    5453.5543    4790.5311   -557.44693   -1001.4965    1125.3549   -2932.8689 
 5831000    254.68365   -3912.8167   -3476.2976   -3912.8167            0    6186.2093     17.18733    20.244404    20.968502    7295.9328    5019.9535    6407.1609    7131.5136    406.82863   -1052.4577   -1134.3876   -2818.0621 
 5832000    254.92875   -3955.5889   -3518.6498   -3955.5889            0    5059.7513    17.222824    20.286211    21.011805    7341.2269    4441.6833    6231.3505      4506.22    89.364783   -681.56494    -1610.277   -2976.9312 
 5833000    235.53981   -3921.9582    -3518.251   -3921.9582            0    4626.6817    17.344713    20.429781     21.16051    7498.1991    4362.1058    4611.1832    4906.7561   -1433.7773   -286.69066    -1063.322    -3012.307 
 5834000    268.93119   -3904.7395   -3443.8006   -3904.7395            0    6278.8592    17.262289    20.332696    21.059952    7391.8092    6277.6303    6855.0628    5703.8843    1345.0355    463.38558   -407.08318   -2766.9273 
 5835000    257.90176     -3918.87   -3476.8352     -3918.87            0     7059.246    17.184657    20.241256    20.965242    7292.5299    5360.8827     8840.366    6976.4891    472.24711     149.8804    689.56026   -2726.0557 
 5836000    251.77851   -3920.1506   -3488.6108   -3920.1506            0    4753.2684    17.336923    20.420605    21.151005    7488.0999    4376.6507    4670.6195    5212.5352   -290.25543    33.296431    513.69892   -2969.5242 
 5837000    257.08586   -3928.5417   -3487.9053   -3928.5417            0    3768.9494    17.345446    20.430644    21.161404    7499.1496    4016.6564    2793.3503    4496.8414    68.140872    1325.3682   -444.44784   -3075.7051 
 5838000    263.38359   -3908.7975    -3457.367   -3908.7975            0     6748.876    17.320322    20.401052    21.130753    7466.6104    7373.4684    7265.4633    5607.6964   -886.11411    1066.6978   -348.30287   -2722.4626 
 5839000    239.39756   -3928.4438   -3518.1245   -3928.4438            0    4595.3739    17.257613    20.327189    21.054248    7385.8042    3997.3044    4834.0606    4954.7566    183.23881   -95.607519    1425.1988   -3023.1367 
 5840000    249.66562   -3906.1804    -3478.262   -3906.1804            0    5881.5915    17.332581    20.415491    21.145708    7482.4752    6655.6881    5730.3095    5258.7768    284.95432    204.61873   -692.51639   -2836.4379 
 5841000    224.30932   -3880.8493   -3496.3908   -3880.8493            0    7386.2338    17.197755    20.256684    20.981222    7309.2177    7113.0568    7934.8486    7110.7959   -516.02487    1520.0854   -640.18919   -2709.0372 
 5842000    247.01238    -3890.763   -3467.3922    -3890.763            0    4753.6626    17.276061    20.348918    21.076755    7409.5154    2896.8667    5481.3708    5882.7503    -631.2526    528.49734   -54.394915   -2953.7106 
 5843000    263.15132   -3975.7034    -3524.671   -3975.7034            0     5741.207    17.314843    20.394598    21.124068    7459.5268     5813.509    4918.9852    6491.1268   -779.92818   -455.80603    -715.9572   -2900.0877 
 5844000    246.17613   -3927.2967   -3505.3592   -3927.2967            0     5339.068    17.236854    20.302738    21.028922    7359.1835    5527.7811    4426.9592    6062.4637    1377.5319    419.36829    26.000681   -2932.3376 
 5845000    251.53315   -3938.6279   -3507.5087   -3938.6279            0    4463.0938    17.233628    20.298937    21.024986    7355.0516    5548.2607    3883.6088    3957.4118   -1823.2692    -400.1065   -219.42169    -3028.771 
 5846000    257.24975   -3909.6573   -3468.7401   -3909.6573            0    4946.2639    17.249649    20.317808    21.044531    7375.5829     5766.648    4329.8669    4742.2768    1241.5462    1153.1653   -373.87979   -2936.6936 
 5847000    261.45487   -3933.9434   -3485.8187   -3933.9434            0    4589.8033    17.241523    20.308237    21.034618     7365.165    4788.6861    2723.6265    6257.0971    601.82472   -341.27401   -116.54689   -2992.8124 
 5848000    245.88404   -3921.3144   -3499.8776   -3921.3144            0    4629.3496    17.237026     20.30294    21.029132    7359.4036    4081.2183    5098.4733    4708.3571   -354.90826   -195.05066   -365.09127   -3003.0125 
 5849000    244.42134   -3896.7318    -3477.802   -3896.7318            0    2781.8469    17.341801     20.42635    21.156956    7494.4221    1261.7088    3052.5227    4031.3092      654.875    171.25358   -582.88638   -3173.7505 
 5850000    239.79762   -3918.0289    -3507.024   -3918.0289            0    7511.5552    17.239165    20.305459    21.031741    7362.1433     7305.149    7801.3623    7428.1544    104.31923   -1367.8311     439.7972   -2700.5135 
 5851000    248.27666   -3959.1239   -3533.5862   -3959.1239            0    7317.0539    17.161881    20.214429    20.937455    7263.5726    6696.5419    8436.6008    6818.0189    371.96412     91.36767     327.5297   -2758.4778 
 5852000    254.00739   -3922.5658   -3487.2059   -3922.5658            0    3290.3133    17.375851    20.466457    21.198498    7538.6545    3018.3245    1402.7103    5449.9052   -264.01879    613.32534   -288.38536   -3125.4572 
 5853000    252.90557   -3898.0598   -3464.5884   -3898.0598            0    5850.7341    17.224443    20.288118     21.01378    7343.2974    6463.5057    3670.3421    7418.3545    36.175709   -398.55502   -403.46837   -2838.0071 
 5854000    249.34767   -3893.2584    -3465.885   -3893.2584            0    7796.2216    17.158155    20.210041     20.93291    7258.8427     8714.673    6692.0252    7981.9666    184.22055    426.59724    1183.1432   -2640.5554 
 5855000    253.94422    -3918.146   -3482.8943    -3918.146            0    5186.4732    17.330768    20.413356    21.143497    7480.1281     4676.199    4863.1802    6020.0404   -328.02494    497.53446   -1855.2343   -2917.1019 
 5856000     241.7026   -3918.4377   -3504.1677   -3918.4377            0    3604.8833    17.268732    20.340285    21.067812    7400.0886    2499.9137    3119.4862      5195.25    1181.4022    779.72954    147.24579    -3115.119 
 5857000    251.15031   -3920.2538   -3489.7908   -3920.2538            0    5809.2324    17.137183    20.185338    20.907323    7232.2574    5534.7125    5384.9539    6508.0308    186.57169    43.670604    524.78845   -2877.0616 
 5858000    243.17605   -3891.3622   -3474.5668   -3891.3622            0    3750.8353    17.289908    20.365228    21.093647    7427.3457    4033.5494    4437.1957    2781.7607    656.24896    669.32329    574.38548   -3068.2755 
 5859000    244.54616   -3908.6009   -3489.4571   -3908.6009            0    4444.6114     17.30799    20.386526    21.115708    7450.6731    3492.0749    4671.9194    5169.8399    727.72106    988.04069     428.3618   -3006.5038 
 5860000    246.51991   -3917.7077   -3495.1811   -3917.7077            0    6263.4602    17.245981    20.313488    21.040057    7370.8794    3987.4211    7442.0001    7360.9593    240.84397     69.45292   -220.14977   -2821.8797 
 5861000    263.35604   -3931.1791   -3479.7959   -3931.1791            0    3402.7341    17.299981    20.377093    21.105936    7440.3347    1819.6806    4316.5649    4071.9568    1308.9727    -151.6868   -140.49214   -3110.5664 
 5862000    268.41319    -3916.591     -3456.54    -3916.591            0     4431.883    17.194362    20.252687    20.977081    7304.8914    4107.6993    5525.6106     3662.339   -40.243511   -439.11826    497.27404   -2984.3922 
 5863000    241.03247   -3900.4174    -3487.296   -3900.4174            0    5053.2549    17.244798    20.312094    21.038613    7369.3622    3797.9992    6601.3607    4760.4048   -397.37042    871.57608   -589.97567   -2944.1995 
 5864000    271.73864   -3911.9768    -3446.226   -3911.9768            0    5183.7977    17.207446    20.268098    20.993044    7321.5804    4391.8841      5534.65    5624.8589    229.41189   -248.19926   -580.19092   -2892.7118 
 5865000    252.94378   -3906.3922   -3472.8552   -3906.3922            0    5943.0026    17.284015    20.358286    21.086458    7419.7533    7942.3766    4882.7386    5003.8927   -201.74565    512.53936   -437.37137   -2829.7659 
 5866000    249.72247   -3929.5603   -3501.5445   -3929.5603            0    5708.2928    17.219388    20.282164    21.007613    7336.8345    6587.7404    4916.9031    5620.2349   -171.92777   -873.47815    1108.2136    -2890.756 
 5867000    238.25877   -3960.1358   -3551.7684   -3960.1358            0    5342.5187    17.254886    20.323976     21.05092    7382.3028    6865.7785    5154.8019    4006.9757   -300.97754    382.86199    131.66377   -2976.5751 
 5868000    247.81747   -3943.4204   -3518.6697   -3943.4204            0    6056.3458    17.204311    20.264405    20.989219     7317.579    5277.0497    6419.8059    6472.1817   -1466.4762   -260.59743    -675.1653   -2872.3403 
 5869000    253.11049   -3920.6398   -3486.8171   -3920.6398            0    4920.6057    17.241353    20.308037    21.034411    7364.9471    4993.7583    4491.2406    5276.8183   -1078.5752   -2018.9486    89.927401   -2958.2938 
 5870000    239.19997   -3925.4611   -3515.4805   -3925.4611            0    5071.7749    17.197949    20.256912    20.981458    7309.4647    4875.6903    5338.5961    5001.0384    5.5537515    743.80198     1335.684    -2974.824 
 5871000    234.71236   -3905.4194   -3503.1305   -3905.4194            0    6373.3802    17.116822    20.161356    20.882483    7206.5104    6506.7209    6139.5745    6473.8453    239.61258   -342.73261    1355.3723    -2833.291 
 5872000    264.74146   -3905.9421   -3452.1843   -3905.9421            0    4939.5021    17.207423    20.268071    20.993016    7321.5508    4344.4216    5293.5477    5180.5371    292.26794    923.07408    180.99519   -2924.7575 
 5873000    245.25334   -3952.6118   -3532.2559   -3952.6118            0    2757.0853    17.188638    20.245945    20.970098    7297.5991    1220.0806    3296.7099    3754.4652   -980.69899    1282.8752    1384.8079   -3238.8249 
 5874000    255.03782   -3894.7089   -3457.5828   -3894.7089            0    3880.8885    17.206877    20.267429     20.99235    7320.8544    4267.2079    3948.6716    3426.7859    1071.9108    885.22489   -177.46856   -3043.2314 
 5875000    257.47213   -3885.7327   -3444.4343   -3885.7327            0     4339.121    17.200675    20.260123    20.984783    7312.9407    4639.4916    4047.0541    4330.8172     -645.527    354.70701   -294.04437   -2981.6595 
 5876000    250.05716   -3902.4764    -3473.887   -3902.4764            0    7221.0363    17.137323    20.185503    20.907494    7232.4348    7210.9263     7471.319    6980.8638   -998.22513    581.37192   -307.28584   -2712.2291 
 5877000    259.43203   -3918.2402   -3473.5826   -3918.2402            0    7326.8102    17.111475    20.155057    20.875959    7199.7585    5634.5252    9235.3325     7110.573    859.34597   -533.29743    977.34011   -2704.2595 
 5878000    255.08093   -3906.5628   -3469.3628   -3906.5628            0    6169.6368    17.181653    20.237718    20.961577    7288.7059    6749.5989    5515.4348    6243.8768    1364.0297    143.34912   -116.30238   -2813.5409 
 5879000    262.81946   -3900.8361   -3450.3726   -3900.8361            0    5875.3856    17.241788    20.308549    21.034941    7365.5042    4340.9236    6776.0389    6509.1944   -693.00081     903.9558   -279.68403   -2819.2485 
 5880000    249.64707   -3922.1702   -3494.2837   -3922.1702            0    4305.7716    17.167519     20.22107    20.944333    7270.7329    4292.6157    4232.7001    4391.9991    1603.6283    -121.3194   -2772.6617   -3037.7161 
 5881000    238.96263    -3897.045   -3487.4712    -3897.045            0    5874.7517    17.126658    20.172941    20.894483    7218.9404    7156.0636    4440.8593    6027.3322    2300.8819   -47.378092    -54.30167   -2868.9724 
 5882000    256.88634   -3880.2084    -3439.914   -3880.2084            0    5863.9168    17.182841    20.239116    20.963025    7290.2172    6713.0547    5625.9432    5252.7526    776.53049   -1514.4725    -674.0702   -2816.4604 
 5883000    244.30793   -3924.2079   -3505.4724   -3924.2079            0    3435.7683    17.211118    20.272424    20.997524    7326.2687    2839.6489    4028.1577    3439.4982    165.61494   -359.91965   -2530.2718    -3138.374 
 5884000    237.32467   -3919.1314   -3512.3651   -3919.1314            0    3537.5985    17.240177    20.306652    21.032976    7363.4405    3903.9948     4694.626    2014.1747    1440.5332   -442.34776   -266.80233   -3132.4686 
 5885000    243.16533   -3934.9609   -3518.1838   -3934.9609            0     5800.684     17.11869    20.163556    20.884762    7208.8699    5598.1499    6784.8614    5019.0408     1574.587   -921.70246    633.31864   -2908.3349 
 5886000    253.24473   -3926.7866   -3492.7337   -3926.7866            0    2965.0764    17.233646    20.298959    21.025008    7355.0751    598.43197     5369.245     2927.552   -994.71479    -1396.576   -1091.2067   -3174.6812 
 5887000    234.34545   -3925.9197   -3524.2596   -3925.9197            0    5086.0259    17.208711    20.269588    20.994587    7323.1947    4238.7877     5316.125    5703.1649    118.38929   -448.35379   -656.03907   -2981.0655 
 5888000    254.69211   -3913.6808   -3477.1472   -3913.6808            0    3860.4806    17.279171    20.352581    21.080548    7413.5169    3780.6139    4829.1731    2971.6548   -89.487657    510.35026   -336.73391   -3059.7577 
 5889000    234.31243    -3929.783   -3528.1795    -3929.783            0    3056.0206    17.249123    20.317189     21.04389    7374.9093     3014.885    1409.1367    4744.0402   -181.77162    208.15755    47.692774   -3199.4877 
 5890000    251.69389   -3911.9157    -3480.521   -3911.9157            0    4934.4361    17.204611    20.264759    20.989585    7317.9621    5604.4069    4710.4912    4488.4101    201.01451   -638.76169   -145.50928   -2953.8934 
 5891000    237.70068   -3932.2179   -3524.8071   -3932.2179            0    3974.8483    17.245744    20.313209    21.039768    7370.5758    4553.1773    2283.8428    5087.5247   -412.31609    837.76281    853.40432   -3097.5415 
 5892000    247.07397   -3941.9285   -3518.4522   -3941.9285            0    5374.8873    17.212529    20.274085    20.999245    7328.0704    6372.6155     4523.031    5229.0154   -729.49261    -2150.583    -657.3364   -2944.0252 
 5893000    229.90856   -3914.2122   -3520.1568   -3914.2122            0    3536.5617    17.253095    20.321867    21.048736    7380.0047    4515.4563    4363.7832    1730.4458    172.14874    -240.4361    979.21902   -3139.5173 
 5894000    248.74575   -3930.3872   -3504.0455   -3930.3872            0    5268.9289    17.204242    20.264325    20.989135    7317.4915    4078.1138    5159.5727    6569.1002    133.13483   -855.81862    220.02583   -2941.7553 
 5895000    263.85259   -3921.1531   -3468.9188   -3921.1531            0    5772.8799    17.187467    20.244566     20.96867    7296.1076    5646.4405    5477.4834    6194.7159   -558.30036   -734.07039    978.35974   -2854.6483 
 5896000    253.01888   -3941.4796   -3507.8139   -3941.4796            0    4947.6457    17.159527    20.211657    20.934583    7260.5841    3088.2854    5493.5018    6261.1501    588.03305    678.68985     1394.838   -2983.9168 
 5897000    245.04243   -3952.1791   -3532.1847   -3952.1791            0    4850.6176    17.276019    20.348869    21.076703    7409.4611    5201.6535    4514.7985    4835.4008   -825.11981    236.80114   -984.87845     -3008.03 
 5898000    235.18968   -3945.7708   -3542.6637   -3945.7708            0    4356.3155    17.300995    20.378286    21.107173    7441.6426    2440.1606     5709.529    4919.2569    949.45603   -278.21158      585.461   -3069.8784 
 5899000    260.11659   -3911.9224   -3466.0915   -3911.9224            0    6824.5383    17.190954    20.248673    20.972924    7300.5489    7585.3773     8165.964    4722.2735    583.28575   -316.18207   -1098.2657    -2739.476 
 5900000    248.47249   -3939.7211   -3513.8478   -3939.7211            0    5083.0598    17.254382    20.323383    21.050306    7381.6568    5885.4931    5170.9971    4192.6892    387.27852    431.96657   -761.05126   -2966.6366 
 5901000    263.83955   -3937.3631   -3485.1512   -3937.3631            0    6911.0519    17.270644    20.342538    21.070146    7402.5475    5732.8691    6375.1665    8625.1202   -1443.9584   -795.47818   -248.78272   -2739.0439 
 5902000    241.73986   -3948.8652   -3534.5313   -3948.8652            0    5899.1929     17.36452     20.45311    21.184673    7523.9154    4431.0287    6237.3698      7029.18   -888.94671   -364.35881    1772.3225   -2887.2212 
 5903000    245.12846   -3916.7307   -3496.5889   -3916.7307            0    5183.8656     17.32388    20.405243    21.135093    7471.2127    5635.3639     5186.781     4729.452   -1289.4882    1209.1607   -1632.8005    -2931.755 
 5904000    241.61919   -3917.1502   -3503.0232   -3917.1502            0    6146.6715    17.264696    20.335531    21.062889    7394.9014    7209.5179    5668.8464    5561.6503    -195.9274    -204.7416   -1327.2167   -2840.1228 
 5905000    247.03096   -3898.4224   -3475.0198   -3898.4224            0    3583.4198    17.295569    20.371896    21.100554    7434.6441       4354.6      3333.13    3062.5294   -956.14014    620.75594    360.47684   -3086.4815 
 5906000    235.62224   -3931.4178   -3527.5694   -3931.4178            0    5737.1834    17.277885    20.351066    21.078979    7411.8618    4747.9608    4982.5012    7481.0882   -465.19354   -1293.6982    367.85367   -2907.4119 
 5907000    240.66445   -3896.6118   -3484.1212   -3896.6118            0    3801.7398    17.269855    20.341608    21.069183    7401.5326    4736.2266    2480.5341    4188.4586   -1200.0141   -1118.5498    -1190.802   -3073.7471 
 5908000    252.42227   -3950.7565   -3518.1133   -3950.7565            0    5413.8601    17.282001    20.355914    21.084001    7417.1602    5970.9583     6015.476     4255.146   -305.94879   -952.62935     2025.517    -2932.487 
 5909000    238.05977   -3915.8046   -3507.7784   -3915.8046            0    5488.7527    17.351704    20.438016    21.169039    7507.2696    4428.6969    6714.1876    5323.3736    544.02248     642.5824   -1178.2318   -2906.8377 
 5910000    256.45709   -3903.5185   -3463.9598   -3903.5185            0    6621.9612    17.275456    20.348206    21.076016    7408.7368    7284.4252    6423.2693    6158.1891    998.10771   -93.643915    1615.2584   -2748.4647 
 5911000    234.26668   -3940.9596   -3539.4345   -3940.9596            0    4534.8883    17.304581    20.382511    21.111549    7446.2717    4103.1805    4746.2323    4755.2522   -364.29564   -445.35784    283.90673   -3046.9627 
 5912000    247.49219   -3945.7598   -3521.5667   -3945.7598            0    4954.4844    17.319208     20.39974    21.129394    7465.1699    5551.8165    4154.5918    5157.0449    -1012.463   -298.53582    1137.4585   -2982.1628 
 5913000    244.46848   -3912.5553   -3493.5447   -3912.5553            0    5716.7408    17.256365    20.325718    21.052725    7384.2014    5575.0947    5689.6027    5885.5252   -19.832018   -1352.0911    1634.3429   -2877.9031 
 5914000    247.17338   -3920.8078   -3497.1611   -3920.8078            0    6381.7925    17.231371    20.296279    21.022232    7352.1619      5852.58    6642.5599    6650.2377    976.99467    -1446.473   -483.79574   -2812.8814 
 5915000    252.05301   -3922.7273    -3490.717   -3922.7273            0    7577.5535    17.144189     20.19359     20.91587    7241.1312    7975.6433    6154.6745    8602.3427   -139.65738    -754.7934     457.0178   -2690.4935 
 5916000    249.47936    -3923.272   -3495.6729    -3923.272            0    4248.5245    17.235719    20.301401    21.027537    7357.7295    3871.1819    3055.5978     5818.794    651.47755    476.92019   -537.46996   -3039.7853 
 5917000    232.13893   -3923.7751   -3525.8969   -3923.7751            0    7419.7896     17.20451     20.26464    20.989461    7317.8327      8248.62    7365.6938     6645.055    -14.54383   -170.45354     1995.725   -2734.0341 
 5918000    261.98898   -3911.9602   -3462.9201   -3911.9602            0    4359.5629    17.302082    20.379567    21.108499    7443.0455    4841.4965    5644.2248    2592.9672    159.81819    887.05894   -789.61202   -2989.6931 
 5919000    269.29275   -3924.2083   -3462.6497   -3924.2083            0    4952.9764    17.246081    20.313605    21.040178    7371.0071    6860.4747    3418.3959    4580.0588   -1207.7103    1749.1049   -950.38153   -2930.2118 
 5920000     244.1512   -3885.8634   -3467.3966   -3885.8634            0    5406.2648    17.276358    20.349267    21.077116    7409.8967    5917.3474    6012.9208    4288.5262    756.82084    349.09672    292.14351   -2883.1645 
 5921000    250.80952   -3925.2639   -3495.3849   -3925.2639            0    6371.0517    17.168176    20.221843    20.945134    7271.5676     5928.476    6473.0762     6711.603   -130.79983    594.07102   -716.20856   -2819.7454 
 5922000      244.626   -3903.7401   -3484.4595   -3903.7401            0    5177.5059    17.228141    20.292475    21.018292    7348.0291    3818.1507    6401.0859    5313.2811   -1234.4764    1028.5414    800.66302   -2929.6201 
 5923000    251.82907   -3916.5015   -3484.8751   -3916.5015            0    3209.4553    17.189831     20.24735    20.971554    7299.1185     2600.421     4159.886     2868.059   -380.53406    712.41809    174.83564    -3143.228 
 5924000    233.28153   -3887.0987   -3487.2622   -3887.0987            0    4683.7259     17.21638    20.278622    21.003944    7332.9905    5024.3123    4488.0503    4538.8151    561.01178    431.03542    830.97538   -2986.3651 
 5925000     253.7717   -3883.9157   -3448.9596   -3883.9157            0    4681.0851    17.275155     20.34785    21.075648    7408.3489    4504.6592    7139.0404    2399.5558   -985.19043    -133.6383    1440.0513   -2943.2004 
 5926000    244.29119   -3907.4744   -3488.7677   -3907.4744            0    5352.5672    17.192353    20.250321     20.97463    7302.3315    5846.6936    5718.0177    4492.9904    124.22344     306.5559    320.15483   -2918.7353 
 5927000    259.96252   -3886.8931   -3441.3262   -3886.8931            0    8121.1045    17.138683    20.187105    20.909154    7234.1575    7624.4388    7649.4233    9089.4514     239.7997   -1899.7348   -34.463534   -2584.5272 
 5928000    253.56867   -3887.5095   -3452.9015   -3887.5095            0    5658.9582     17.17551    20.230482    20.954082    7280.8905     5570.995    6167.0558    5238.8239    794.84456    202.29896    862.17101   -2852.0089 
 5929000    251.44711   -3914.6792   -3483.7075   -3914.6792            0    3286.9316    17.247101    20.314807    21.041423    7372.3152    3678.4039    2557.2813    3625.1097   -572.09486    931.69901    447.95384   -3130.3043 
 5930000    241.77119   -3897.6487   -3483.2612   -3897.6487            0    4521.3125    17.199226    20.258416    20.983015    7311.0924    4068.0891      5856.97    3638.8785   -587.62157   -1726.9763   -1730.3457   -3001.1772 
 5931000    256.28412   -3914.0652    -3474.803   -3914.0652            0    4862.3603    17.252524    20.321194    21.048039    7379.2718     4466.542     5064.878    5055.6611     945.1344    562.13404    288.04333   -2951.5201 
 5932000    247.94857   -3880.4586   -3455.4833   -3880.4586            0    5630.5843    17.183121    20.239447    20.963368    7290.5744    3650.8571    6959.5072    6281.3887   -195.69373    1129.4955    1272.2284   -2856.8083 
 5933000    240.35556   -3895.2826   -3483.3214   -3895.2826            0    5757.3761    17.117075    20.161653    20.882792    7206.8296    5715.2195    4186.4359     7370.473   -67.879863   -696.09726    5.4422944   -2878.1969 
 5934000    248.45912    -3921.291   -3495.4406    -3921.291            0    6968.4568    17.068512    20.104452    20.823544    7145.6633      6225.66    6789.7793    7889.9311   -30.961931    545.76329    1175.1232   -2769.2426 
 5935000    260.38614   -3912.1506   -3465.8577   -3912.1506            0    4923.7565    17.126961    20.173297    20.894852    7219.3234    4873.3025    4514.7015    5383.2656    233.44538    1036.1478    379.29568    -2947.453 
 5936000    259.09693   -3900.1076   -3456.0243   -3900.1076            0    5099.7349      17.1905    20.248138     20.97237    7299.9704    5898.3342    4353.7195    5047.1511    227.53378   -647.34711    476.77523   -2913.0934 
 5937000    237.36558   -3913.9017   -3507.0652   -3913.9017            0    4023.4645     17.21973    20.282567     21.00803    7337.2715    3485.6423    6324.5869    2260.1642    75.632886   -1063.9589   -1048.8786    -3076.528 
 5938000    274.06853   -3923.5608   -3453.8167   -3923.5608            0    4789.5927    17.197873    20.256823    20.981365    7309.3676    4718.2498    5853.3971    3797.1313    282.70341    700.02769   -205.69335   -2943.2479 
 5939000    239.09316   -3935.7382   -3525.9407   -3935.7382            0    6501.8253    17.167702    20.221285    20.944556    7270.9652    5565.2006    5824.2545    8116.0209    115.94167   -921.73108    2158.7399     -2836.49 
 5940000    257.50235   -3874.4951   -3433.1449   -3874.4951            0    4297.8873    17.230628    20.295403    21.021326     7351.211    5630.2656    3988.6361    3274.7601    693.40604    810.90153   -1552.1588   -2972.3689 
 5941000    256.99836   -3920.2726   -3479.7862   -3920.2726            0     4805.339    17.227622    20.291863    21.017658    7347.3642       4922.2     5513.005    3980.8121   -956.48332   -73.933229   -307.38256    -2964.876 
 5942000    254.63868   -3925.9851   -3489.5431   -3925.9851            0    4557.3878    17.302753    20.380357    21.109318    7443.9111    4983.2466     3434.663    5254.2539   -910.17058    7.7291401    2251.1882   -2994.7848 
 5943000    261.75153   -3924.8402   -3476.2071   -3924.8402            0    6879.2579    17.210158    20.271293    20.996353    7325.0433    9076.8414      3488.55    8072.3824    372.41622   -486.31928    158.98886    -2741.308 
 5944000    257.75667   -3896.5229   -3454.7367   -3896.5229            0    5829.2742    17.257367    20.326898    21.053947    7385.4876    5824.5786    6429.4054    5233.8386    534.15201    1838.2712   -456.31892    -2826.867 
 5945000    252.04016   -3919.6406   -3487.6524   -3919.6406            0    4813.6202     17.31065    20.389659    21.118952    7454.1081    4656.9697    5270.0362    4513.8549   -630.92155    410.24063    655.70237   -2964.3612 
 5946000    250.92675   -3910.2709    -3480.191   -3910.2709            0    4475.6198    17.188517    20.245803    20.969951    7297.4453     5299.182    3082.1648    5045.5125   -7.0032208   -630.54482    436.92937   -3003.8698 
 5947000    241.77948   -3865.6992   -3451.2974   -3865.6992            0    5014.2069    17.214032    20.275856    21.001079    7329.9907    6871.6072    5753.6202    2417.3932    181.62416   -897.77343   -1497.5135   -2915.2767 
 5948000    251.71958   -3874.9731   -3443.5344   -3874.9731            0    3821.2755    17.200145    20.259498    20.984136    7312.2643    4907.3819    2036.3754    4520.0692    347.99545    383.04926   -880.45705   -3036.0264 
 5949000    249.05784   -3849.3655   -3422.4889   -3849.3655            0    5635.8615    17.217734    20.280217    21.005595    7334.7207    5500.7103    3897.9308    7508.9433     876.2043   -872.91554    370.78404   -2819.6243 
 5950000    251.73642   -3909.1762   -3477.7086   -3909.1762            0    4483.5953    17.244795    20.312091     21.03861    7369.3592    4447.8729    4323.3023    4679.6106    646.95138    836.79596     1034.108   -2995.8362 
 5951000    255.18799   -3925.6166   -3488.2331   -3925.6166            0    3552.3678    17.295957    20.372353    21.101027    7435.1437    4263.3321    2295.3966    4098.3748    705.79813    202.12502    648.05455   -3103.0359 
 5952000    252.63118   -3915.2572    -3482.256   -3915.2572            0    6034.9472    17.279996    20.353552    21.081554    7414.5786    4965.4779    6394.1615    6745.2023   -169.78868   -11.125419    -476.5197   -2829.6729 
 5953000    258.74632   -3952.2908   -3508.8085   -3952.2908            0    6438.3127    17.175183    20.230097    20.953683    7280.4752    6685.6362    7715.0012    4914.3006    -613.6514   -698.70502   -930.95315   -2825.1996 
 5954000    247.55657   -3939.6228   -3515.3193   -3939.6228            0    4663.4426    17.203264    20.263172    20.987941    7316.2429    5100.4081    4279.7265    4610.1932    1382.8975    550.62103    1098.4433   -3017.7305 
 5955000    233.32147   -3901.9941    -3502.089   -3901.9941            0    5577.4973    17.230059    20.294733    21.020631    7350.4825    6648.2163    3509.9434    6574.3322    644.90385   -734.31736   -18.362646   -2904.1855 
 5956000     249.1772   -3917.3349   -3490.2537   -3917.3349            0    4789.8333    17.231563    20.296505    21.022466    7352.4075    3960.2473     4988.446    5420.8065   -595.99601    1036.9341   -1585.3415   -2976.6528 
 5957000    238.69879   -3886.7101   -3477.5885   -3886.7101            0    4543.6098    17.258391    20.328105    21.055197    7386.8033    2655.4178      6601.16    4374.2517    569.59451   -188.60284   -939.01624   -2988.1102 
 5958000    245.95737   -3882.3463   -3460.7838   -3882.3463            0    6958.4278    17.191115    20.248863     20.97312    7300.7544    4711.6218    8488.7644    7674.8972    1802.1681    828.38855    28.056353   -2719.8921 
 5959000    260.55663   -3925.3985   -3478.8134   -3925.3985            0    6193.4257    17.117323    20.161945    20.883094    7207.1422    6345.6915    6029.1305     6205.455   -1296.1048    129.15038   -197.15948     -2827.83 
 5960000    255.27418   -3893.9114   -3456.3802   -3893.9114            0    7009.7848    17.127215    20.173597    20.895163    7219.6452    5982.0305    6630.4266    8416.8974   -4.7133993    1174.4442    1430.7217   -2718.3121 
 5961000    245.23564    -3927.767   -3507.4415    -3927.767            0    6751.2481    17.155584    20.207011    20.929772    7255.5791    5201.7285    7128.9869     7923.029    720.69644     832.2164   -815.33695   -2793.0569 
 5962000    245.22735   -3917.9178   -3497.6065   -3917.9178            0    5764.8024    17.181965    20.238085    20.961957    7289.1026    5591.1077    5329.1253    6374.1742   -957.15868   -1625.2724     1292.023   -2884.7845 
 5963000     262.1446   -3909.4434   -3460.1365   -3909.4434            0    4874.5394    17.188477    20.245755    20.969902    7297.3936    4869.3894    4133.5671    5620.6618   -1031.7761   -73.236457   -1952.5755   -2941.3637 
 5964000    246.36631   -3923.8695   -3501.6061   -3923.8695            0    5598.0272    17.221446    20.284589    21.010124    7339.4655    6197.4623    5497.1352    5099.4842   -864.93098   -2008.6879   -881.68847   -2902.4012 
 5965000    241.20838   -3977.2067   -3563.7838   -3977.2067            0    5587.6096    17.167251    20.220754    20.944006    7270.3924    3218.1919    6415.6115    7129.0254    910.20749    73.593565    2907.4496   -2971.3228 
 5966000    250.00055   -3941.1676   -3512.6752   -3941.1676            0    5574.8605    17.206128    20.266546    20.991436    7319.8984    5873.7509    4009.0942    6841.7364    282.80288    144.05805   -364.01486   -2917.5409 
 5967000    234.66965   -3922.3314   -3520.1156   -3922.3314            0    6042.3309    17.164744    20.217801    20.940948    7267.2079    7847.4741    3671.7658    6607.7529   -1149.3052     1364.333    1090.1215   -2879.7205 
 5968000     260.4538   -3917.4034   -3470.9945   -3917.4034            0    4776.4158    17.225936    20.289877    21.015601     7345.207    5218.9683    4862.7907    4247.4885   -146.99798    6.2999056    809.71132   -2959.3338 
 5969000    250.91851   -3879.9774   -3449.9117   -3879.9774            0    6854.2645    17.153354    20.204386    20.927052    7252.7508    6602.3063    6968.2574    6992.2297   -181.53964   -1221.6259    1808.9741   -2724.9092 
 5970000    241.61143   -3939.6885   -3525.5748   -3939.6885            0    5698.4099    17.240938    20.307548    21.033904    7364.4153    4970.4074    6586.1536    5538.6686   -956.38729   -765.48839    1554.0732   -2913.5517 
 5971000    256.48175   -3923.6134   -3484.0125   -3923.6134            0     5643.341    17.189363    20.246799    20.970982    7298.5219     6240.342    5424.3091     5265.372   -953.28319   -684.60019    905.51912    -2883.327 
 5972000    241.59187    -3929.671   -3515.5909    -3929.671            0    4956.9534     17.22081     20.28384    21.009348    7338.6527    4885.5051    5573.3392    4412.0158   -110.77914    265.63733    322.35619   -2985.0644 
 5973000    224.06635   -3882.2195   -3498.1775   -3882.2195            0    6360.5305    17.181694    20.237766    20.961626    7288.7579    6718.6326    6406.6203    5956.3386   -974.76466    573.31047   -490.00432   -2822.0591 
 5974000    250.77815   -3931.7706   -3501.9454   -3931.7706            0    5562.7794    17.139037    20.187522    20.909585     7234.605    5158.1082    4960.3084    6569.9217   -69.005515     896.4788    182.95202   -2915.0205 
 5975000    248.07268   -3949.4487   -3524.2606   -3949.4487            0    6468.1243     17.15465    20.205912    20.928633    7254.3944    5335.2309    7709.8762    6359.2659   -547.94174   -732.03119   -879.51108   -2839.9467 
 5976000    248.40168   -3924.9127   -3499.1608   -3924.9127            0    5567.7727    17.224093    20.287706    21.013353    7342.8498    5132.1462    6119.0699    5452.1021    292.80866   -913.46967   -1568.4956   -2902.9195 
 5977000    268.54266   -3891.3508   -3431.0779   -3891.3508            0    5203.0243    17.319309    20.399859    21.129517    7465.3006    5846.2884    4769.1506     4993.634    1872.9405    817.70764    -851.7127   -2864.6051 
 5978000    248.88882   -3914.4716   -3487.8847   -3914.4716            0    5915.1803    17.295436    20.371739    21.100392    7434.4721    6384.8142    6016.8112    5343.9154   -1207.2234    878.18586   -374.05071   -2846.5363 
 5979000    252.85477   -3934.5377   -3501.1533   -3934.5377            0    5518.4656    17.249255    20.317344    21.044051    7375.0779    5435.7327    6082.1326    5037.5317    715.84675   -575.69978     173.9327   -2907.5985 
 5980000    238.47067     -3890.52   -3481.7894     -3890.52            0    4178.0148    17.338371    20.422311    21.152772    7489.9769    3949.7957    5168.5208    3415.7281    442.91065   -340.04536    -536.0303   -3025.4097 
 5981000    262.68784   -3930.8501   -3480.6122   -3930.8501            0    6461.4476    17.252647     20.32134    21.048189    7379.4302     6244.817    5661.6635    7477.8623     147.6542    432.14216   -441.84434    -2785.222 
 5982000    260.31519   -3949.6978   -3503.5265   -3949.6978            0    3875.2493    17.276585    20.349535    21.077393    7410.1891    6342.6366    2924.9826    2358.1288   -798.44855    363.36958   -23.666327   -3084.7282 
 5983000     243.5513   -3941.9199   -3524.4813   -3941.9199            0    6668.2557    17.205582    20.265903     20.99077     7319.201    7867.3034    6521.7048    5615.7589   -12.543138    1854.0583   -830.62763   -2812.6914 
 5984000    246.87959   -3914.5085   -3491.3653   -3914.5085            0    5947.8992    17.229031    20.293523    21.019378    7349.1676    6015.6787    5533.5471    6294.4717    999.00614   -114.29481    988.50438   -2853.8691 
 5985000    236.17668   -3926.4405   -3521.6418   -3926.4405            0    4047.3152    17.270833     20.34276    21.070376      7402.79    3913.7775    3303.1043    4925.0637    88.382935    752.24841   -211.15793   -3084.6852 
 5986000    259.11968    -3951.372   -3507.2497    -3951.372            0    4964.3986    17.320839     20.40166    21.131383    7467.2782     6326.787    4266.5419    4299.8668   -603.09947   -730.43547    1417.0285   -2966.6139 
 5987000    249.97216   -3920.9083   -3492.4646   -3920.9083            0    7363.0982    17.210232     20.27138    20.996443    7325.1374     6616.067    7975.3854    7497.8421   -665.16263    232.86555    808.59907   -2705.8677 
 5988000    243.47855    -3895.689   -3478.3751    -3895.689            0    4102.2534    17.306652     20.38495    21.114075    7448.9452     3651.897    6438.8516    2216.0115    660.71611    432.65563    841.04539   -3032.7259 
 5989000    246.89735   -3938.6551   -3515.4815   -3938.6551            0    5959.0516    17.197436    20.256308    20.980832    7308.8104    5446.3283    6733.7874    5697.0389   -923.49724   -310.10236      1593.76   -2880.2972 
 5990000    248.70727   -3944.5457   -3518.2699   -3944.5457            0    4941.0849    17.222206    20.285484    21.011051    7340.4369     6257.778    6165.9685     2399.508     540.9251   -426.85414    353.74141   -2989.3133 
 5991000    243.77093   -3942.6115   -3524.7964   -3942.6115            0    5430.0452    17.211183      20.2725    20.997603    7326.3513    6274.4234    5460.8913     4554.821    1921.5545    34.658089   -27.819597   -2944.6106 
 5992000    259.02317   -3941.7183   -3497.7615   -3941.7183            0    5068.8939    17.266358    20.337489    21.064917    7397.0376     4741.176    4548.3753    5917.1305   -240.87295   -535.24818    -436.7308   -2950.9383 
 5993000    250.23452   -3900.6936   -3471.8002   -3900.6936            0    5741.4585     17.24246     20.30934    21.035761    7366.3652     7645.257    4918.6303    4660.4883   -1338.9113   -306.52389    1297.9402   -2854.9903 
 5994000    248.04867    -3904.963   -3479.8161    -3904.963            0    6544.3224    17.187442    20.244536    20.968639    7296.0752    5812.3069    7393.0454     6427.615   -421.69049   -950.07538    2166.1665   -2783.4624 
 5995000    255.61685    -3902.441   -3464.3225    -3902.441            0    4950.6501    17.242084    20.308898    21.035303    7365.8843    4680.6084    6257.4361    3913.9056    83.471487    827.50549   -1188.7486   -2932.5045 
 5996000    251.49153   -3946.3745   -3515.3267   -3946.3745            0    3002.0722    17.227022    20.291157    21.016927    7346.5973    2410.6461    3619.8549    2975.7154   -1102.0098   -614.87907   -1412.7127   -3193.6769 
 5997000    240.94903   -3920.0226   -3507.0442   -3920.0226            0    5222.5301       17.252    20.320577      21.0474    7378.5996    4444.5683    4945.9161     6277.106   -218.85825   -1139.6063    411.39655   -2945.0513 
 5998000    263.32727   -3934.0266   -3482.6926   -3934.0266            0    4880.0336     17.24749    20.315265    21.041897    7372.8138    3233.0688    5841.0604    5565.9716    1002.6647    -517.8673   -770.30736   -2957.9674 
 5999000    248.99221   -3944.4721    -3517.708   -3944.4721            0     3957.834    17.194721     20.25311    20.977519    7305.3492    3290.0648     4317.408    4266.0291   -1099.4987   -12.712803    1272.2574   -3096.0363 
 6000000     263.8696   -3926.2682   -3474.0047   -3926.2682            0    3998.1878    17.255588    20.324803    21.051777     7383.204    6094.3006    2737.1855    3163.0772   -34.492772    345.37633   -216.61604    -3043.494 
Loop time of 403.253 on 64 procs for 250000 steps with 864 atoms

Performance: 107.129 ns/day, 0.224 hours/ns, 619.958 timesteps/s
99.1% CPU use with 64 MPI tasks x 1 OpenMP threads

MPI task timing breakdown:
Section |  min time  |  avg time  |  max time  |%varavg| %total
---------------------------------------------------------------
Pair    | 20.628     | 25.856     | 30.413     |  47.6 |  6.41
Bond    | 0.26754    | 0.28236    | 0.29386    |   0.8 |  0.07
Kspace  | 175.37     | 181.13     | 192.47     |  26.3 | 44.92
Neigh   | 4.4608     | 4.8655     | 6.1211     |  20.7 |  1.21
Comm    | 80.753     | 92.819     | 96.822     |  41.3 | 23.02
Output  | 0.89671    | 0.90188    | 0.91385    |   0.7 |  0.22
Modify  | 89.26      | 91.173     | 95.086     |  13.9 | 22.61
Other   |            | 6.222      |            |       |  1.54

Nlocal:        13.5000 ave          18 max           9 min
Histogram: 4 4 4 4 12 16 12 3 2 3
Nghost:        2163.72 ave        2204 max        2124 min
Histogram: 2 6 11 6 11 5 3 10 6 4
Neighs:        4185.16 ave        5695 max        2517 min
Histogram: 4 6 1 6 8 11 12 8 6 2

Total # of neighbors = 267850
Ave neighs/atom = 310.01157
Ave special neighs/atom = 2.0000000
Neighbor list builds = 12720
Dangerous builds = 0

unfix		3
unfix		2
unfix		1

write_data	data.final.${pid}
write_data	data.final.0
System init for write_data ...
PPPM initialization ...
  extracting TIP4P info from pair style
  using 12-bit tables for long-range coulomb (../kspace.cpp:340)
  G vector (1/distance) = 0.37447095
  grid = 24 24 25
  stencil order = 5
  estimated absolute RMS force accuracy = 0.003048747
  estimated relative force accuracy = 9.181211e-06
  using double precision FFTW3
  3d grid and FFT values/proc = 2730 288
Last active /omp style is kspace_style pppm/tip4p/omp
WARNING: Not all mixed pair coeffs generated from mixing. Use write_data with 'pair ij' option to store all pair coeffs. (../write_data.cpp:312)

write_restart   restart.lmp.${pid}
write_restart   restart.lmp.0
System init for write_restart ...
PPPM initialization ...
  extracting TIP4P info from pair style
  using 12-bit tables for long-range coulomb (../kspace.cpp:340)
  G vector (1/distance) = 0.37447095
  grid = 24 24 25
  stencil order = 5
  estimated absolute RMS force accuracy = 0.003048747
  estimated relative force accuracy = 9.181211e-06
  using double precision FFTW3
  3d grid and FFT values/proc = 2730 288
Last active /omp style is kspace_style pppm/tip4p/omp
Total wall time: 0:06:45
