LAMMPS data file via write_data, version 30 Jul 2021, timestep = 13750000

972 atoms
2 atom types
648 bonds
1 bond types
324 angles
1 angle types

-0.025996669945905992 20.02599766994829 xlo xhi
-0.07265342602661384 20.07265442603302 ylo yhi
0.09971918965768367 20.60027881033256 zlo zhi

Masses

1 1.008
2 15.999

Pair Coeffs # lj/cut/tip4p/long/omp

1 0 0
2 0.21084 3.1668

Bond Coeffs # harmonic/omp

1 450 0.9572

Angle Coeffs # harmonic/omp

1 55 104.52

Atoms # full

33 11 1 0.5897 1.3570542613782712 2.439999157815367 1.4263009126436044 0 0 0
11 4 1 0.5897 0.6926259159972307 3.327789656574178 3.370946026719839 0 0 0
15 5 1 0.5897 4.331749693255922 6.403177003178041 2.06806664052722 0 0 0
10 4 2 -1.1794 0.8995492626790157 4.02349610812417 3.9950267646474797 0 0 0
139 47 2 -1.1794 0.9401308249961158 8.850158240697157 2.0572513467621913 0 0 0
12 4 1 0.5897 1.7571619157082112 3.7836831572697545 4.346106907731392 0 0 0
112 38 2 -1.1794 4.155353157010852 7.808596362554334 3.3117687822279005 0 0 0
110 37 1 0.5897 3.6817253493597604 9.229618467415108 0.6235916052917747 0 0 0
17 6 1 0.5897 4.302037531855219 4.134347015330996 2.952568665816847 0 0 0
109 37 2 -1.1794 2.911686279055062 9.695731684823816 0.2978825169568975 0 0 0
114 38 1 0.5897 4.922096493224362 7.49090447522937 3.788701817763302 0 0 0
141 47 1 0.5897 0.884534667001884 7.9074045372560775 2.2138330032347553 0 0 0
674 225 1 0.5897 1.8964059932254795 5.685381589415756 0.49669227287073586 0 0 1
140 47 1 0.5897 1.1247144425087063 9.225969395476215 2.9180367098833613 0 0 0
19 7 2 -1.1794 0.5942312034906979 6.016167499585354 2.182090904603761 0 0 0
5 2 1 0.5897 4.411586978477117 0.6858838400937494 2.4775710311408794 0 0 0
3 1 1 0.5897 3.5506463507419643 2.660795184613481 0.3071405893832554 0 0 0
16 6 2 -1.1794 3.9698477547421347 3.695199147750953 3.735557818678312 0 0 0
24 8 1 0.5897 2.6225870960706064 0.9843021133535621 3.9991784846008893 0 0 0
113 38 1 0.5897 3.4104966925706313 7.545368071550801 3.8522428534193986 0 0 0
4 2 2 -1.1794 4.200142277570462 1.185742757905632 3.266049181468615 0 0 0
14 5 1 0.5897 3.810462025004518 5.602449917371595 0.893710190146131 0 0 0
13 5 2 -1.1794 4.49507665988137 5.606771611926755 1.5626922087233759 0 0 0
18 6 1 0.5897 4.094421097580688 2.7626503607259694 3.558848467834354 0 0 0
31 11 2 -1.1794 0.538649134159776 2.3986888232796755 1.9210533234392864 0 0 0
1 1 2 -1.1794 2.6101846034894827 2.793536824756653 0.18801595273103525 0 0 0
20 7 1 0.5897 0.7002807639499671 5.42783787289512 2.929703671340935 0 0 0
111 37 1 0.5897 2.202945423207618 9.425837908081531 0.8819425823130679 0 0 0
6 2 1 0.5897 4.829452964687875 0.8806028178780663 3.9195848721246125 0 0 0
126 42 1 0.5897 3.8832252509940477 9.428946023424949 3.852895338363014 0 0 0
22 8 2 -1.1794 1.8476491328768792 0.7415768944372421 4.5059603599834315 0 0 0
236 79 1 0.5897 0.6733143073013202 0.35455418671399885 2.1568794224323637 0 1 0
132 44 1 0.5897 1.2953462587719657 7.418735927198548 5.147824523692332 0 0 0
325 109 2 -1.1794 2.642502405200464 2.2588819342403528 6.960767262734228 0 0 0
326 109 1 0.5897 2.5888892897311266 1.579871105590197 6.288170683099316 0 0 0
327 109 1 0.5897 3.575296672515323 2.319317282159857 7.166953903784672 0 0 0
356 119 1 0.5897 1.4804134330906409 2.213210056927146 8.350020473473187 0 0 0
443 148 1 0.5897 0.9233591420272381 9.88199085873011 10.314754949066035 0 0 0
27 9 1 0.5897 2.564508853637049 4.096233414259353 6.558019430389683 0 0 0
344 115 1 0.5897 1.291090677820127 5.261074061211851 9.603368801465779 0 0 0
343 115 2 -1.1794 0.9699079956445394 5.778773839093393 8.865065263963182 0 0 0
435 145 1 0.5897 2.513976842752153 8.629704913314875 6.44948263134718 0 0 0
437 146 1 0.5897 4.162988626102474 7.569750332377739 9.481458027360071 0 0 0
433 145 2 -1.1794 2.7200089021577263 9.18802249314957 7.199237029665522 0 0 0
560 187 1 0.5897 0.5659942920020129 0.5526308092298033 8.584072630221467 0 1 0
438 146 1 0.5897 4.0939301352922675 8.91917755850803 10.164475674729381 0 0 0
25 9 2 -1.1794 2.3618098707976047 5.031607524590285 6.539409931517747 0 0 0
26 9 1 0.5897 1.7154671858959696 5.151028051379559 7.2352819704064135 0 0 0
345 115 1 0.5897 1.1921769254175365 6.682159471427319 9.090597420769338 0 0 0
357 119 1 0.5897 -0.004073421679995571 2.3716464694920516 8.60150293426727 0 0 0
337 113 2 -1.1794 4.383437672573781 5.84160620987595 8.499562395244421 0 0 0
464 155 1 0.5897 1.476113140600421 8.728425597297411 8.448191893982633 0 0 0
463 155 2 -1.1794 0.8376322162729181 8.572768768735628 9.144136114511312 0 0 0
468 156 1 0.5897 4.490702243379471 8.944883702181924 7.247643085947019 0 0 0
339 113 1 0.5897 3.9563844041844276 5.6493316016429675 7.664752448626168 0 0 0
355 119 2 -1.1794 0.818941942644519 2.1545085103399546 9.039395934517007 0 0 0
342 114 1 0.5897 4.3839593357447235 4.133576087940565 9.717318295249077 0 0 0
328 110 2 -1.1794 4.306023701098494 0.9203143688561706 10.117474977418015 0 0 0
131 44 1 0.5897 2.332551526965557 6.496519440604543 5.75263627788645 0 0 0
341 114 1 0.5897 4.369931161253127 2.7371721054207536 10.302210212189223 0 0 0
465 155 1 0.5897 0.01493163533076114 8.917134020104417 8.796516132555572 0 0 0
436 146 2 -1.1794 4.310671444440454 8.000416527733387 10.323473953227182 0 0 0
335 112 1 0.5897 1.3777999534463985 3.3980905786471225 10.298972526341174 0 0 0
130 44 2 -1.1794 2.2402515991545515 7.30836854514359 5.253920061134055 0 0 0
649 217 2 -1.1794 2.7012541367147054 2.59021458730421 13.91672941642373 0 0 0
650 217 1 0.5897 2.472824264079781 1.8550957173176537 13.347738256556687 0 0 0
651 217 1 0.5897 2.2100901233674195 2.4313902922397115 14.722816795425263 0 0 0
348 116 1 0.5897 2.0751404807916445 0.06114426549298105 12.441461873215927 0 0 0
329 110 1 0.5897 3.5668528630738026 0.7661213818259478 10.70570248938165 0 0 0
757 253 2 -1.1794 2.8902189995277885 9.147032625829743 14.163675571612528 0 0 0
885 295 1 0.5897 0.49165372269478635 -0.06609284517039526 15.38126044053364 0 1 0
347 116 1 0.5897 1.210632591361139 0.9664873731411143 11.589969515601016 0 0 0
351 117 1 0.5897 2.426364956291945 4.265447829159436 13.564688063193005 0 0 0
455 152 1 0.5897 2.9591470973887466 7.572938714085057 11.55863604306535 0 0 0
683 228 1 0.5897 4.5006926190666965 2.5121120324238237 14.315468304174015 0 0 0
759 253 1 0.5897 2.9175914311877147 8.660445120942398 13.339816967793237 0 0 0
346 116 2 -1.1794 2.097922022059295 0.8744342204117578 11.937085947495016 0 0 0
456 152 1 0.5897 2.1951846042570127 6.67780126512581 12.511099578581947 0 0 0
350 117 1 0.5897 3.2067161071327015 5.474059823346957 14.036407472268358 0 0 0
454 152 2 -1.1794 2.1789676821406414 7.548080215763865 12.112692028956126 0 0 0
349 117 2 -1.1794 2.4182634197662622 5.222644485693848 13.555373497217628 0 0 0
334 112 2 -1.1794 1.7645597467021774 4.075075752589905 10.854340996105202 0 0 0
668 223 1 0.5897 1.2168828909741436 5.48533652113608 14.910864939505911 0 0 0
533 178 1 0.5897 0.3306154245220939 7.966443082389448 12.25237966577705 1 0 0
336 112 1 0.5897 2.651023057161209 3.761227588171286 11.03317157763003 0 0 0
340 114 2 -1.1794 4.628916017950977 3.6375946693724033 10.49852666011123 0 0 0
792 264 1 0.5897 4.6624609098728245 9.287581909938021 14.540169412077814 0 0 0
680 227 1 0.5897 0.1634757964005298 1.8584362363035465 15.31109387281366 0 0 0
405 135 1 0.5897 0.4001891758797494 4.9742624482946365 12.173608387659 1 0 0
661 221 2 -1.1794 4.406801011498848 6.049042421528191 15.30022867788883 0 0 0
664 222 2 -1.1794 4.026475987692789 3.961225112975031 17.17394524671485 0 0 0
671 224 1 0.5897 2.437207859444356 1.5294571220105995 19.456648463641276 0 0 0
679 227 2 -1.1794 0.8638302578000713 1.5703099030866943 15.896544072114473 0 0 0
653 218 1 0.5897 3.860856570590027 1.2960593586767442 17.565399713169846 0 0 0
670 224 2 -1.1794 2.517530630757578 0.9755189141201088 18.68015328809149 0 0 0
665 222 1 0.5897 3.0828545645359107 3.8038511770878163 17.140767818892407 0 0 0
658 220 2 -1.1794 1.4014763484274688 3.848139772476529 17.47282516519389 0 0 0
669 223 1 0.5897 0.9055063050855177 6.617428255227021 15.866662047497856 0 0 0
666 222 1 0.5897 4.408887012206265 3.2303043959766646 16.68834055929005 0 0 0
760 254 2 -1.1794 4.2167055194880065 8.292037619993037 17.098909559893396 0 0 0
662 221 1 0.5897 4.19790880092422 5.465291828540403 16.029544515023478 0 0 0
660 220 1 0.5897 0.9845929605898276 4.351258445761391 16.773273928101478 0 0 0
761 254 1 0.5897 4.178359145822702 9.220970372702212 17.3266201820356 0 0 0
654 218 1 0.5897 4.55743066759679 0.6342768891787498 16.395446827224426 0 0 0
787 263 2 -1.1794 1.1797802145581477 8.3529867324102 16.127963827638318 0 0 0
652 218 2 -1.1794 4.648944622895563 1.349756213793496 17.02475625316121 0 0 0
672 224 1 0.5897 1.614566908041493 0.8092729164851633 18.409475025710332 0 0 0
681 227 1 0.5897 0.8688744576377385 2.217834002865409 16.60151350979334 0 0 0
779 260 1 0.5897 2.4278449300576352 8.38414476724525 19.495629987511776 0 0 0
675 225 1 0.5897 2.4819663610264686 6.207971151181443 19.702645169660286 0 0 0
780 260 1 0.5897 2.7678744222560483 7.878184354421835 18.10987867039558 0 0 0
778 260 2 -1.1794 2.231238078153936 7.680252734610359 18.877403761677822 0 0 0
659 220 1 0.5897 0.9011874556194226 4.069298798187105 18.258356600614867 0 0 0
788 263 1 0.5897 1.2116518230250433 9.001205148214005 16.831594522776065 0 0 0
663 221 1 0.5897 4.282570496000464 6.929668645740843 15.654407120441679 0 0 0
858 286 1 0.5897 0.3685839706432889 7.437479434770006 18.760645385761006 1 0 0
762 254 1 0.5897 4.589989440204741 7.870246005985104 17.872811317421 0 0 0
673 225 2 -1.1794 2.4771237082782336 5.441735186991924 20.27637994499854 0 0 0
789 263 1 0.5897 1.844852870098484 8.64347951648426 15.503812949173302 0 0 0
667 223 2 -1.1794 0.6194361618713156 5.739479165276231 15.614240406676755 0 0 0
2 1 1 0.5897 2.539171014566275 3.6582661468303748 20.284139765831604 0 0 -1
120 40 1 0.5897 1.3036179074454928 11.845879948048607 3.400388714021346 0 0 0
123 41 1 0.5897 4.499962744786433 11.316861079131229 2.4623421549912257 0 0 0
240 80 1 0.5897 2.9417096343845555 14.263632585960826 4.28887901649977 0 0 0
228 76 1 0.5897 0.5969309141196248 17.9287498748088 4.6238900226644395 0 0 0
122 41 1 0.5897 3.9805853617288216 12.198461445363373 1.3465193931229096 0 0 0
247 83 2 -1.1794 0.5896703536759804 15.663556751070303 2.2731699130152423 0 0 0
230 77 1 0.5897 4.162575455008757 18.998811919032732 0.6537280586758808 0 0 0
232 78 2 -1.1794 4.024037846543035 17.469734830350397 3.578745704782101 0 0 0
118 40 2 -1.1794 1.2802982935189875 11.11273844442782 4.015447123839721 0 0 0
222 74 1 0.5897 4.623640203289497 13.517225593452387 3.0298837121346076 0 0 0
125 42 1 0.5897 4.426194039238429 10.464224879290626 4.814924217637843 0 0 0
129 43 1 0.5897 0.8668840513958839 13.849982140407425 1.8354446445208148 0 0 0
124 42 2 -1.1794 3.8073675794332846 10.35245189444673 4.093246395595035 0 0 0
890 297 1 0.5897 1.7934407715015457 19.110598165843072 0.16285997654762818 0 0 1
235 79 2 -1.1794 0.6841206820976178 19.61699300092946 1.7870399307107827 0 0 0
229 77 2 -1.1794 4.5432623262718135 19.28739797031902 1.4832183851143448 0 0 0
317 106 1 0.5897 0.3629247895570833 14.312533371899907 5.136785673028656 1 0 0
221 74 1 0.5897 4.872448017818895 15.010028975609776 2.9862572661342655 0 0 0
233 78 1 0.5897 3.116360282835219 17.706871340148382 3.768916403216317 0 0 0
227 76 1 0.5897 1.1421494479183638 18.431907858786943 3.3042111007548094 0 0 0
226 76 2 -1.1794 1.2058205222846035 17.702486421064165 3.920819148875204 0 0 0
249 83 1 0.5897 1.3175310274260394 16.00547754746964 1.7539392470028607 0 0 0
119 40 1 0.5897 2.2008301310279057 10.909872191146565 4.182066214868057 0 0 0
248 83 1 0.5897 0.6297061223153161 16.153688591790264 3.0944124333441945 0 0 0
127 43 2 -1.1794 0.8442082753672037 12.893778554440548 1.796240339696754 0 0 0
234 78 1 0.5897 4.295167319740653 18.085159369210274 2.8975296490545155 0 0 0
220 74 2 -1.1794 4.639643129905367 14.298488520252617 3.582776405029044 0 0 0
238 80 2 -1.1794 2.161656305846713 14.086173293339254 4.814515389097725 0 0 0
783 261 1 0.5897 2.013083587944984 12.609371197108073 0.5170641923215731 0 0 1
219 73 1 0.5897 3.5338205432014664 15.689694347789779 0.6386484634301482 0 0 0
218 73 1 0.5897 2.764569670109535 16.88601222827188 0.1197477023569959 0 0 0
121 41 2 -1.1794 4.658955401756171 12.150824262750666 2.020166556900146 0 0 0
217 73 2 -1.1794 2.6507754702699176 15.981627025534154 0.41217883216100587 0 0 0
23 8 1 0.5897 2.0571957767874096 20.025512322092375 4.867124821804125 0 -1 0
188 63 1 0.5897 0.0642065792336011 11.50322436333566 5.0420951173423525 1 0 0
133 45 2 -1.1794 2.529075169279881 11.955202327036664 6.79095130709685 0 0 0
134 45 1 0.5897 1.8405909652707952 12.209451738252824 7.405459042496491 0 0 0
135 45 1 0.5897 3.336442870181956 11.999612622326776 7.303253110477074 0 0 0
451 151 2 -1.1794 0.7580708103895883 12.60846605927937 8.742004118617244 0 0 0
552 184 1 0.5897 0.6526470414789054 17.249578129872802 10.023008361261628 0 0 0
553 185 2 -1.1794 4.547300209047251 19.100052904754534 8.169237389199491 0 0 0
541 181 2 -1.1794 2.3535428969859535 16.045637179186528 6.763465676168969 0 0 0
445 149 2 -1.1794 4.930958877973012 12.176127275933444 8.42765250919783 0 0 0
576 192 1 0.5897 4.115675428814353 15.608147433282726 7.308588404331407 0 0 0
450 150 1 0.5897 4.269951285861335 11.136428118688544 9.664114230717342 0 0 0
572 191 1 0.5897 1.5105962887743338 15.578994459075606 8.783818282914034 0 0 0
559 187 2 -1.1794 0.3651866595759074 19.808755466967646 8.291814572121583 0 0 0
571 191 2 -1.1794 0.6938624528261942 15.39380435655236 9.247406137485966 0 0 0
573 191 1 0.5897 0.7186596130703748 14.450747253291153 9.409954558394134 0 0 0
543 181 1 0.5897 2.1566157755725177 15.551101830859523 5.9678889922491205 0 0 0
542 181 1 0.5897 2.1145300076154405 16.94784099703753 6.550652635283593 0 0 0
446 149 1 0.5897 4.557710293509131 12.916539058080343 8.906006054558802 0 0 0
243 81 1 0.5897 3.2031571737741196 19.03049530729094 7.036599677202985 0 0 0
242 81 1 0.5897 1.6981287889502263 19.10281102240232 7.183828874229327 0 0 0
241 81 2 -1.1794 2.388255147464572 18.91141197261478 6.548724038309059 0 0 0
561 187 1 0.5897 0.6323798287969242 19.25006437325292 9.02171985664649 0 0 0
453 151 1 0.5897 0.9116241647026717 12.101929552426586 9.539553561508551 0 0 0
554 185 1 0.5897 4.49263854822052 19.74412495377903 8.875281586330768 0 0 0
558 186 1 0.5897 4.428712617407948 17.407300702043365 9.211021442965844 0 0 0
239 80 1 0.5897 2.3728537891224986 13.285413202429856 5.294646536015957 0 0 0
557 186 1 0.5897 4.2180192330582935 16.024833748881328 9.791112895181827 0 0 0
556 186 2 -1.1794 4.04770965588896 16.95129168334416 9.961447134571491 0 0 0
448 150 2 -1.1794 3.7237269652541167 10.641380514472488 10.274742472184537 0 0 0
434 145 1 0.5897 2.4356367025825585 10.062379326583391 6.932780405004804 0 0 0
550 184 2 -1.1794 1.09042028134833 18.038622772182237 10.342567398687546 0 0 0
544 182 2 -1.1794 4.118410266271754 14.126229341644013 10.089994453458065 0 0 0
551 184 1 0.5897 2.0233689334263656 17.82798218809257 10.303431572727575 0 0 0
457 153 2 -1.1794 2.397447531651296 11.937770572469699 13.559000142582562 0 0 0
458 153 1 0.5897 1.8262018051953128 12.291129655724161 14.240971214839472 0 0 0
459 153 1 0.5897 3.277636227693999 12.210618732889563 13.81802272019062 0 0 0
563 188 1 0.5897 2.0609300081766264 13.148828377393563 12.393062780405348 0 0 0
562 188 2 -1.1794 2.0076473173387694 13.834012725476033 11.726726171062847 0 0 0
866 289 1 0.5897 3.338758022939024 15.980348089963142 13.947204686927101 0 0 0
566 189 1 0.5897 2.5075679961454993 17.861829994799812 13.395521506280526 0 0 0
621 207 1 0.5897 -0.024007748574270238 17.946035470929758 11.804332111247527 1 0 0
545 182 1 0.5897 3.298981461954165 14.053167275903132 10.579349928977528 0 0 0
758 253 1 0.5897 2.527844281559128 10.000688287823849 13.926376052528976 0 0 0
564 188 1 0.5897 2.0939143197232415 14.652138895057274 12.21619146289838 0 0 0
449 150 1 0.5897 4.134963877370037 10.776687127835816 11.128457055489429 0 0 0
879 293 1 0.5897 3.7277338636522863 18.844028901658803 14.625904584315638 0 0 0
865 289 2 -1.1794 2.4361630764694726 16.0327633081244 13.632792794293291 0 0 0
567 189 1 0.5897 1.6132487017451385 18.89313832061446 14.050249048342966 0 0 0
565 189 2 -1.1794 2.3760276892287924 18.806381376093427 13.478490993902254 0 0 0
867 289 1 0.5897 1.901325806706164 15.890990860120905 14.41387286755881 0 0 0
546 182 1 0.5897 4.796465409795999 13.87981779274639 10.719076329979664 0 0 0
883 295 2 -1.1794 0.2516048359026184 19.177438782205435 15.16793529583961 0 0 0
641 214 1 0.5897 0.09094479942685195 14.215059085568491 11.831441332552961 1 0 0
442 148 2 -1.1794 1.0192969389446562 10.750826907901214 10.704991487967643 0 0 0
877 293 2 -1.1794 4.424898021057776 19.05054225134169 15.248463889773413 0 0 0
444 148 1 0.5897 1.9234717879151408 11.000886575817503 10.514695274036814 0 0 0
896 299 1 0.5897 0.11574470617315488 15.58042252207781 15.09414010114642 0 0 0
769 257 2 -1.1794 4.47386857236309 13.015443272807875 14.636598472503602 0 0 0
771 257 1 0.5897 4.461533212958253 13.803001685676353 15.180610584202515 0 0 0
888 296 1 0.5897 2.3295992532043055 13.664778900696813 19.081662345364826 0 0 0
886 296 2 -1.1794 2.0274408351777193 14.466601577793313 18.654896688560793 0 0 0
897 299 1 0.5897 0.8618998105556552 16.191937239235656 16.26087291553983 0 0 0
889 297 2 -1.1794 2.5167602384416345 18.860719834517155 20.08842176363596 0 0 0
869 290 1 0.5897 3.098455132011715 14.331418758099936 17.324617649574023 0 0 0
880 294 2 -1.1794 4.103922327399141 17.26780741211548 17.18692801659337 0 0 0
895 299 2 -1.1794 0.8558388724369963 15.429482660175994 15.682141062070357 0 0 0
891 297 1 0.5897 2.665543435327141 19.631786854247572 19.541012747421522 0 0 0
768 256 1 0.5897 0.989182611613781 11.164014659998278 16.950781581321674 0 0 0
774 258 1 0.5897 3.7850520919862376 11.846469918377263 16.677801989405676 0 0 0
766 256 2 -1.1794 1.0470313669470726 10.580226319945838 17.707160809931075 0 0 0
874 292 2 -1.1794 1.453282080368343 17.710195821545213 17.365540872417096 0 0 0
878 293 1 0.5897 4.280050631399943 18.449256421300696 15.979033466954434 0 0 0
868 290 2 -1.1794 3.902809316266194 14.55639986001915 16.857010902270503 0 0 0
881 294 1 0.5897 3.2038089845868507 17.50522828405815 17.409822222104566 0 0 0
773 258 1 0.5897 2.7823607916876316 10.900816240132768 17.30399648639588 0 0 0
965 322 1 0.5897 0.02552982439686323 14.569115552843634 18.512972666955434 1 0 0
887 296 1 0.5897 2.0290114366653254 15.12410084862358 19.35059573070752 0 0 0
882 294 1 0.5897 4.0455635192238475 16.36066877647884 16.886819618705996 0 0 0
876 292 1 0.5897 1.054563589075442 18.231640287258188 16.66882380099522 0 0 0
875 292 1 0.5897 0.7661210940394939 17.627782958625204 18.026817150591896 0 0 0
775 259 2 -1.1794 0.6692184316054867 12.503451901179071 15.640505981932801 0 0 0
772 258 2 -1.1794 3.7130605254944817 11.124390065670374 17.302041145363802 0 0 0
873 291 1 0.5897 4.959745569169478 17.84098344841187 18.804704641674263 0 0 0
767 256 1 0.5897 0.4874610223260949 10.98786067379225 18.368224011623767 0 0 0
781 261 2 -1.1794 2.800310552178386 12.414066704716554 20.509312559160726 0 0 0
782 261 1 0.5897 2.7746158110843946 11.46565300081914 20.38196263474778 0 0 0
870 290 1 0.5897 4.604408296194684 14.358876278760913 17.477509607677476 0 0 0
777 259 1 0.5897 0.8494686248984675 13.427258966434904 15.815057843127741 0 0 0
711 237 1 0.5897 8.761353063222305 5.254933664082599 0.46835912130855123 0 0 1
68 23 1 0.5897 8.080386048643245 1.9586801028376906 1.2433885988707378 0 0 0
47 16 1 0.5897 7.436061544980673 3.189616374048537 3.2008059392313353 0 0 0
143 48 1 0.5897 6.358767656953074 9.043992276678656 1.134277479458305 0 0 0
48 16 1 0.5897 6.914947966365883 4.151312937623812 4.247488225151306 0 0 0
46 16 2 -1.1794 7.597804478799834 4.051708793715995 3.5841568705756797 0 0 0
67 23 2 -1.1794 7.373590610626592 1.9171801610382633 1.8875557327620043 0 0 0
69 23 1 0.5897 6.572288513358227 1.9978091098139408 1.370175583543918 0 0 0
176 59 1 0.5897 7.724823174414921 7.856035357583484 2.3122351865047355 0 0 0
175 59 2 -1.1794 7.709061137822155 8.797751864594401 2.141036394385731 0 0 0
56 19 1 0.5897 6.821915056656162 5.619182115078263 1.307094565496783 0 0 0
55 19 2 -1.1794 7.592048108699214 5.958211667022186 1.7634093583153396 0 0 0
177 59 1 0.5897 8.305884257445953 8.917399663732695 1.40228696534694 0 0 0
138 46 1 0.5897 7.131746606694147 7.102699652025649 5.102485528823661 0 0 0
142 48 2 -1.1794 5.625917661073469 9.16598761139484 0.53069475412419 0 0 0
57 19 1 0.5897 7.653632965861998 5.427158447295426 2.557400493102354 0 0 0
272 91 1 0.5897 7.3697830871983445 0.24888858122492052 1.7386031692048092 0 1 0
136 46 2 -1.1794 6.175085742515325 7.096689362390035 5.070164877941041 0 0 0
58 20 2 -1.1794 8.351208408603835 0.8810712897942183 5.1743476329499725 0 0 0
34 12 2 -1.1794 5.0997156490883935 2.3553912903596377 0.4284582283300758 0 0 0
53 18 1 0.5897 9.516261507176518 3.9146818194309 3.6505372752659797 0 0 0
41 14 1 0.5897 9.783132096727446 0.883051792589269 3.7735427803251365 0 0 0
9 3 1 0.5897 5.141226552319541 4.124876506776996 5.0038137037772605 0 0 0
149 50 1 0.5897 9.933376199934797 7.840035514309285 3.6013646053941137 0 0 0
166 56 2 -1.1794 8.930098770215139 7.373279959302635 5.208848064770106 0 0 0
137 46 1 0.5897 5.939331623779694 6.169853368564575 5.112366964111463 0 0 0
145 49 2 -1.1794 9.360746451205602 9.245622052486352 0.11932054100206457 0 0 0
8 3 1 0.5897 5.443155647267405 4.053590721095836 6.485583764475941 0 0 0
392 131 1 0.5897 8.246839955483773 1.8604841596877777 8.584688303927047 0 0 0
393 131 1 0.5897 7.628882281965081 0.6028515822567725 9.158018836501858 0 0 0
338 113 1 0.5897 5.3092421335552835 5.9420513729653 8.278020957915407 0 0 0
501 167 1 0.5897 6.607162939865398 8.652951540129374 8.63721962774671 0 0 0
381 127 1 0.5897 7.36498238699415 4.981383560818533 9.331424259507626 0 0 0
499 167 2 -1.1794 7.3410566008307825 8.32618199002951 9.157712053455619 0 0 0
358 120 2 -1.1794 5.395642416045271 2.4045141226168716 7.589071269178457 0 0 0
59 20 1 0.5897 8.623093954997817 1.4550637287162242 5.890529438589141 0 0 0
391 131 2 -1.1794 7.721732348287325 1.5419439858084705 9.318901164453669 0 0 0
61 21 2 -1.1794 9.107501385867112 4.99243217307302 6.688156823685367 0 0 0
470 157 1 0.5897 8.854530680849628 8.904714223653102 7.919631615044708 0 0 0
28 10 2 -1.1794 5.833957878210248 0.2652899828451684 5.553444036251154 0 0 0
500 167 1 0.5897 7.445492307261274 8.971533799760872 9.856908263323849 0 0 0
62 21 1 0.5897 8.246583165936434 5.113850551963636 7.0885769536506915 0 0 0
361 121 2 -1.1794 9.275648445866455 2.3872196444642806 7.181201849929597 0 0 0
359 120 1 0.5897 5.526383008944972 1.6559711462432432 7.006988593856462 0 0 0
469 157 2 -1.1794 9.202167969625696 9.375950477929342 7.162439178085785 0 0 0
379 127 2 -1.1794 7.199413545597883 5.483156951103018 8.533251124007203 0 0 0
360 120 1 0.5897 5.599371533768755 2.0682438569684156 8.461801007903594 0 0 0
380 127 1 0.5897 7.477998991906366 6.373620107106147 8.747363429892774 0 0 0
362 121 1 0.5897 9.158226549631687 3.3060223173258425 6.9396048552201774 0 0 0
60 20 1 0.5897 8.719356102745992 0.026381288972856964 5.398719599301218 0 0 0
167 56 1 0.5897 9.244362278847738 6.584011144655623 5.650040790703768 0 0 0
467 156 1 0.5897 5.544196243665322 8.163858506628584 6.491219979594945 0 0 0
466 156 2 -1.1794 5.437767353924674 8.827968770869086 7.172344080265573 0 0 0
7 3 2 -1.1794 5.716447665438721 4.487701243301977 5.677420557107809 0 0 0
168 56 1 0.5897 8.988531268501664 8.059409834655453 5.87378231737679 0 0 0
63 21 1 0.5897 9.725836297546365 5.302210887592394 7.3499332482475515 0 0 0
29 10 1 0.5897 6.753069723548169 0.47030332766140337 5.381757997581511 0 0 0
682 228 2 -1.1794 5.450569263186951 2.4322818374600716 14.402866515683657 0 0 0
794 265 1 0.5897 8.809853212219762 8.349013776110768 13.108599855997554 0 0 0
791 264 1 0.5897 6.123211604982986 9.065955662143264 14.870494389059411 0 0 0
372 124 1 0.5897 7.29868253765471 4.206905539362757 11.474537308292161 0 0 0
462 154 1 0.5897 5.634948957469933 7.667498379105282 11.489353231003376 0 0 0
331 111 2 -1.1794 6.1603300270082 4.726318581343872 12.696567189760623 0 0 0
686 229 1 0.5897 8.823848235706265 2.126024186012554 14.436177836633478 0 0 0
382 128 2 -1.1794 9.004387537828588 0.573573707219522 11.901445638186717 0 0 0
383 128 1 0.5897 9.086211182263016 1.363318180068975 12.43619876030004 0 0 0
793 265 2 -1.1794 9.034847320690995 8.935010999741612 13.831284720607098 0 0 0
460 154 2 -1.1794 5.9994945628432195 7.270836246462877 12.280563947945653 0 0 0
353 118 1 0.5897 7.297356786437049 0.44163158631958443 11.906624372965869 0 0 0
461 154 1 0.5897 5.749375206181131 7.868121027645108 12.985532797952722 0 0 0
370 124 2 -1.1794 7.962848380763941 3.928704377529482 10.84386807565818 0 0 0
387 129 1 0.5897 9.238018773820336 5.621285921698559 12.943098446551373 0 0 0
386 129 1 0.5897 9.10249746580084 4.265845539959429 13.603897897931214 0 0 0
354 118 1 0.5897 6.092900206876586 0.6873836079393992 12.79013835578399 0 0 0
384 128 1 0.5897 9.597587711093553 0.7201756296810796 11.164637592697241 0 0 0
684 228 1 0.5897 5.792833787792491 3.2615098544027155 14.06881511626588 0 0 0
333 111 1 0.5897 6.037210458819142 5.6310196692521295 12.40893783578109 0 0 0
705 235 1 0.5897 7.659130200108186 5.4159320345091775 14.934953633226458 0 0 0
490 164 2 -1.1794 8.700683509889375 7.0408731937362585 11.771726672535497 0 0 0
352 118 2 -1.1794 6.3535189403948 0.2910615355744244 11.958752938562421 0 0 0
492 164 1 0.5897 7.773560519662195 7.072262137031715 11.535699704261235 0 0 0
385 129 2 -1.1794 9.16786546543248 5.200542538283338 13.80002529462793 0 0 0
685 229 2 -1.1794 9.338379911847811 2.4185233913722968 13.68386593664753 0 0 0
717 239 1 0.5897 6.74408453209245 1.9766424340285398 15.428837175826748 0 0 0
491 164 1 0.5897 9.153254386007088 7.418695508160632 11.017604058256902 0 0 0
790 264 2 -1.1794 5.531575087111038 9.249751398552492 14.140813658719777 0 0 0
332 111 1 0.5897 5.565624711453565 4.2164569607169575 12.146443560023004 0 0 0
795 265 1 0.5897 8.980934433122803 9.81315052678774 13.454030867421528 0 0 0
377 126 1 0.5897 9.883072070580543 3.8450575104662237 10.967598003410975 0 0 0
824 275 1 0.5897 8.024344935825365 8.560198220405573 15.330832368389022 0 0 0
704 235 1 0.5897 6.309334812424704 5.852214068472315 15.463857831167651 0 0 0
371 124 1 0.5897 7.607829243131354 3.127202132179801 10.459275693801045 0 0 0
330 110 1 0.5897 5.070808890162775 0.9390413278032752 10.692822566904299 0 0 0
657 219 1 0.5897 6.571895801548433 3.9610942310650676 18.83555847991591 0 0 0
38 13 1 0.5897 9.072735076154048 1.5742255737838038 19.61843322210716 0 0 -1
708 236 1 0.5897 7.92166577744456 0.49750244446146885 18.4742561622535 0 0 0
815 272 1 0.5897 8.651567245499837 6.670847088427354 19.185075951276904 0 0 0
37 13 2 -1.1794 9.10767351471627 2.245277993547833 20.3001268318548 0 0 -1
786 262 1 0.5897 6.497685946206733 7.2677072738525075 18.77469025011434 0 0 0
785 262 1 0.5897 5.732999154703754 6.15040440420862 19.452214908818057 0 0 0
823 275 2 -1.1794 7.523608540631844 8.566764711750947 16.146570366056604 0 0 0
825 275 1 0.5897 7.485450049089377 7.6478824032309625 16.412156119082336 0 0 0
715 239 2 -1.1794 7.554929419551508 1.5779174118952612 15.74479059598588 0 0 0
695 232 1 0.5897 8.053578674060663 2.8086252709600443 16.900955462237096 0 0 0
694 232 2 -1.1794 8.093103261336728 3.587674222734438 17.455810925708747 0 0 0
696 232 1 0.5897 7.762815251207558 4.294476425767756 16.90113300734756 0 0 0
706 236 2 -1.1794 8.864490861245304 0.38052215114026045 18.357281137964762 0 0 0
676 226 2 -1.1794 6.22230812276659 0.6666643620875726 19.172268319753787 0 0 0
677 226 1 0.5897 5.814078886634096 0.928977991694317 18.347162687516505 0 0 0
784 262 2 -1.1794 5.665472080890163 7.072920306529643 19.205676408958755 0 0 0
655 219 2 -1.1794 5.830212593415796 4.417270739415594 19.23313250986765 0 0 0
816 272 1 0.5897 8.610579278040213 8.182094982076043 19.267344539863416 0 0 0
35 12 1 0.5897 5.457839064123249 1.683410507273501 20.348917994531458 0 0 -1
710 237 1 0.5897 9.004411533081923 4.159912840444192 19.95206790354435 0 0 0
814 272 2 -1.1794 8.475803913728294 7.4529837230203055 18.661896663033428 0 0 0
716 239 1 0.5897 7.408179816243751 0.6357855770100438 15.659753655678376 0 0 0
703 235 2 -1.1794 7.202705611545517 5.651241858573787 15.742759186373709 0 0 0
36 12 1 0.5897 5.4310455863812175 3.1803731204263617 20.57406488630531 0 0 -1
702 234 1 0.5897 9.949818199026742 3.7516161290233745 17.45769158449854 0 0 0
144 48 1 0.5897 5.5782251959903935 8.344291080135305 20.54249472005502 0 0 -1
709 237 2 -1.1794 9.17888900830478 5.085240720180414 20.12445629675434 0 0 0
797 266 1 0.5897 9.765667149620628 7.765986982197157 17.556660141696256 0 0 0
656 219 1 0.5897 5.093991434050961 4.2319223756971045 18.650143544480283 0 0 0
285 95 1 0.5897 7.484811774142711 14.232256546580551 2.364928687704737 0 0 0
251 84 1 0.5897 6.065532401888077 15.437610722495444 1.3260384686239908 0 0 0
263 88 1 0.5897 7.273119526904391 18.386629453700607 4.584772420703748 0 0 0
154 52 2 -1.1794 8.126415582484755 10.845575217861004 3.955739573133271 0 0 0
245 82 1 0.5897 5.740388115814098 13.994733717916539 5.078025242502839 0 0 0
165 55 1 0.5897 7.577213013204706 12.137629928969497 2.5692181211706084 0 0 0
163 55 2 -1.1794 7.295626600305692 12.579842318373192 1.768322169007114 0 0 0
164 55 1 0.5897 6.393155995158638 12.288554646075852 1.6379751950178196 0 0 0
262 88 2 -1.1794 8.097561429268362 18.28335090710425 4.109492497735592 0 0 0
927 309 1 0.5897 8.589266891374564 18.99329280214942 0.40167976335253824 0 0 1
275 92 1 0.5897 7.594191839233587 14.838747273852867 5.182120646939096 0 0 0
264 88 1 0.5897 8.329397704553847 17.362212222317964 4.228409555591809 0 0 0