LAMMPS data file via write_data, version 30 Jul 2021, timestep = 4750000

972 atoms
2 atom types
648 bonds
1 bond types
324 angles
1 angle types

-0.0799324158514132 20.079933415847833 xlo xhi
-0.06475658541510398 20.064757585420224 ylo yhi
-0.1507608346272491 20.850758834622084 zlo zhi

Masses

1 1.008
2 15.999

Pair Coeffs # lj/cut/tip4p/long/omp

1 0 0
2 0.21084 3.1668

Bond Coeffs # harmonic/omp

1 450 0.9572

Angle Coeffs # harmonic/omp

1 55 104.52

Atoms # full

3 1 1 0.5897 3.688779985107842 2.4780413180180783 0.47274034935867115 0 0 0
33 11 1 0.5897 0.8578690902215867 2.4914909927844215 1.4265867128781924 0 0 0
126 42 1 0.5897 4.203424616937556 9.985248982185716 3.2244111895351004 0 0 0
11 4 1 0.5897 0.8994275443306126 3.4799199082751646 3.424610846704376 0 0 0
18 6 1 0.5897 4.029088298772691 2.8905569497169368 3.3693062550001516 0 0 0
236 79 1 0.5897 0.6992625593909501 0.49600173988476703 1.8478504924117087 0 1 0
16 6 2 -1.1794 3.851443525169882 3.7495625520830993 3.752360749736894 0 0 0
10 4 2 -1.1794 1.2115199918932513 4.240461911106148 3.914879013277538 0 0 0
12 4 1 0.5897 2.152830492866635 4.094811475116141 4.0102536649002625 0 0 0
14 5 1 0.5897 4.090373533624161 5.656464235227007 0.7598632782866258 0 0 0
139 47 2 -1.1794 0.5756131802893132 8.91770674205836 1.9072467095701517 0 0 0
31 11 2 -1.1794 0.40312404836220944 2.312117687929689 2.249530039168926 0 0 0
23 8 1 0.5897 2.6159055038934422 0.9386320974023838 4.090475002769906 0 0 0
5 2 1 0.5897 4.3798521644169925 0.160760634094694 2.667177906958622 0 0 0
140 47 1 0.5897 0.8871258606814303 9.434167351059548 2.6504876418727745 0 0 0
2 1 1 0.5897 2.778274736488976 3.5721262935426776 -0.042877140653530835 0 0 0
113 38 1 0.5897 4.764041272474798 7.818741068991217 3.6174497987726433 0 0 0
114 38 1 0.5897 3.2974311191841132 7.9507990400494055 3.969372500105454 0 0 0
111 37 1 0.5897 1.603450519361053 9.517860171370335 0.40808134068612 0 0 0
4 2 2 -1.1794 4.347323109370816 1.0205549137789058 3.0865470178679306 0 0 0
17 6 1 0.5897 3.8120186088915524 4.343182605157908 3.002570709370255 0 0 0
112 38 2 -1.1794 3.9199519035712997 8.088517979217269 3.2554128234724424 0 0 0
20 7 1 0.5897 0.9227535401946598 5.581556502459226 2.7145647943620483 0 0 0
15 5 1 0.5897 4.145781496533009 6.5701510776133425 1.9655928804592517 0 0 0
141 47 1 0.5897 0.6556913950003744 8.008731392061803 2.1962587142692485 0 0 0
19 7 2 -1.1794 0.7204728204159638 5.952517667431469 1.8557055128335573 0 0 0
102 34 1 0.5897 0.10269196448482287 0.4977791963096596 4.995020817290766 1 0 0
674 225 1 0.5897 1.7998534837415916 5.669308573692546 0.46016474336122704 0 0 1
13 5 2 -1.1794 4.524728003265848 5.768353627864739 1.6054525284737389 0 0 0
110 37 1 0.5897 3.0608736157991787 9.411579294345703 0.012070760871797537 0 0 0
22 8 2 -1.1794 1.8669262651954899 0.8691811948615675 4.682506145940652 0 0 0
1 1 2 -1.1794 2.770539135014165 2.6729553005867563 0.28514470550682325 0 0 0
6 2 1 0.5897 4.851740493540549 0.9134504228080498 3.892968816414978 0 0 0
81 27 1 0.5897 -0.035856745443318516 4.5424707695624695 5.068790599188064 1 0 0
325 109 2 -1.1794 2.151918641491078 2.542263873362015 6.7818342244548635 0 0 0
326 109 1 0.5897 1.9220336575822201 2.09692340010286 5.9663575499890085 0 0 0
327 109 1 0.5897 3.0324684368795882 2.2278252282233253 6.987057590381866 0 0 0
356 119 1 0.5897 1.219967997759936 2.263430431843583 8.239472601697472 0 0 0
341 114 1 0.5897 4.098975447948324 3.0084020046829667 10.060923068665872 0 0 0
344 115 1 0.5897 0.7782349553254391 5.206353928247537 9.335708739185042 0 0 0
131 44 1 0.5897 2.281288995470906 6.83134529201634 5.412810054024662 0 0 0
465 155 1 0.5897 0.12315370768167291 8.728045130763299 8.364256910046509 0 0 0
435 145 1 0.5897 2.5635226621018505 8.848357956296987 6.601834453022861 0 0 0
437 146 1 0.5897 4.317991270141087 7.329680648376582 9.365383145338592 0 0 0
27 9 1 0.5897 2.4015911416253624 4.33918075321795 6.469702165656042 0 0 0
339 113 1 0.5897 3.736066341203007 5.654773864309208 7.668492799655833 0 0 0
433 145 2 -1.1794 2.802933218523457 9.482240386431311 7.2778877079533055 0 0 0
25 9 2 -1.1794 2.3814742397169355 5.293645167319418 6.538425244041648 0 0 0
343 115 2 -1.1794 0.4780581805932741 5.6928630815047 8.567995027516103 0 0 0
26 9 1 0.5897 1.5727442121389112 5.482972916753359 7.0142161647423995 0 0 0
358 120 2 -1.1794 4.958299925179536 2.159044115692743 7.248960959591512 0 0 0
337 113 2 -1.1794 4.36063563782022 5.822669311834459 8.374169937452903 0 0 0
464 155 1 0.5897 1.6329625759842403 8.61963239531123 8.332516709404858 0 0 0
345 115 1 0.5897 0.5557943695692884 6.612634835114117 8.821270825756214 0 0 0
436 146 2 -1.1794 4.208659030989175 7.816140657755253 10.182424814885694 0 0 0
355 119 2 -1.1794 0.5905789926602063 2.099843907910653 8.941869456029265 0 0 0
463 155 2 -1.1794 0.8608574731620896 8.301988719429394 8.800769914394262 0 0 0
468 156 1 0.5897 4.769234243283908 9.185704935291653 7.220025785046665 0 0 0
330 110 1 0.5897 3.6135870593851296 0.2783193955734692 9.673253338134876 0 0 0
342 114 1 0.5897 4.015765582203108 4.475613412185868 9.697571502645276 0 0 0
328 110 2 -1.1794 3.517150439189029 1.005462315880407 10.288123931654996 0 0 0
335 112 1 0.5897 1.390802175135465 3.182315105992997 10.094803294499851 0 0 0
438 146 1 0.5897 4.279944078971979 8.73547957057964 9.925767021834464 0 0 0
561 187 1 0.5897 0.5279176515762283 0.2254535308643973 9.285626217131485 0 1 0
132 44 1 0.5897 1.154668489692761 7.842429444599459 5.392525402455966 0 0 0
130 44 2 -1.1794 2.1089691341840844 7.771726771433201 5.36653118460875 0 0 0
24 8 1 0.5897 2.0008715515192375 0.04067022323271274 5.142693866443854 0 0 0
649 217 2 -1.1794 2.463645891616698 2.73533307747576 13.811934790426964 0 0 0
650 217 1 0.5897 2.3386106064555325 1.9849277822650935 13.231078861771074 0 0 0
651 217 1 0.5897 1.8508273707987966 2.5861709166142197 14.531966929805696 0 0 0
347 116 1 0.5897 0.567957276132085 1.1002374088807476 12.42123167444496 0 0 0
533 178 1 0.5897 0.1492650507310042 6.93476330857654 11.586612598932483 1 0 0
757 253 2 -1.1794 2.1909215299572176 9.242062043196881 13.922950225819136 0 0 0
348 116 1 0.5897 1.6136249486197265 1.1861877530182985 11.329832058930714 0 0 0
683 228 1 0.5897 4.177800159705603 2.6201147298135337 14.044732638107508 0 0 0
350 117 1 0.5897 2.6455027108841453 4.533617645386102 13.650370597773689 0 0 0
789 263 1 0.5897 0.7240767695110228 8.572030477351559 15.045969222017066 0 0 0
346 116 2 -1.1794 1.418243190761401 0.747980015881299 12.158055966554205 0 0 0
668 223 1 0.5897 1.3647245118456166 5.709851420509796 14.990476467474776 0 0 0
456 152 1 0.5897 2.296928119847692 6.662727564521666 12.383800149287328 0 0 0
759 253 1 0.5897 1.84642828734486 8.711195581127425 13.204839705645083 0 0 0
454 152 2 -1.1794 2.0525879699671297 7.488601547565791 11.966178206751225 0 0 0
455 152 1 0.5897 2.777341009679878 7.680078778051283 11.370935266559597 0 0 0
792 264 1 0.5897 4.061958823050688 9.163094767896613 13.87124548905879 0 0 0
351 117 1 0.5897 3.494554448475721 5.649918045703063 14.220334601732565 0 0 0
349 117 2 -1.1794 2.7509721031462906 5.48490924475154 13.640562814317505 0 0 0
405 135 1 0.5897 -0.024210171759072807 3.8554977390159255 11.778744936923891 1 0 0
329 110 1 0.5897 4.197213907402868 0.8560722527531246 10.944986528093674 0 0 0
336 112 1 0.5897 2.352444188117746 3.9776084935721787 10.951934362271025 0 0 0
334 112 2 -1.1794 1.4371026072350084 3.942979546155139 10.673906255173529 0 0 0
661 221 2 -1.1794 4.785303754142657 6.005453058368239 15.535854827153464 0 0 0
340 114 2 -1.1794 4.084368806982565 3.8841122301752775 10.446930247000424 0 0 0
665 222 1 0.5897 3.5337794940800937 4.626296895780987 17.9567753140835 0 0 0
653 218 1 0.5897 3.3063008923229167 1.1803135755577814 17.53786231419285 0 0 0
664 222 2 -1.1794 4.439634240251403 4.388242615478224 17.759005632201937 0 0 0
671 224 1 0.5897 2.1955222217753687 1.7330895909189006 19.861905430876007 0 0 0
858 286 1 0.5897 0.3792275043740391 7.334600653482168 18.77464591789539 1 0 0
666 222 1 0.5897 4.4160815903435084 3.439937367978176 17.631216839145594 0 0 0
652 218 2 -1.1794 4.054697978665568 1.5151358591230362 17.043818014376107 0 0 0
658 220 2 -1.1794 1.5474950178521947 4.205110991676345 17.856504844336865 0 0 0
670 224 2 -1.1794 2.1564734766437366 1.0720953816537393 19.170732756042135 0 0 0
672 224 1 0.5897 1.2253487890330612 0.8657035796461267 19.08836388872682 0 0 0
660 220 1 0.5897 1.2018374089807673 4.852304874872139 17.241821423806734 0 0 0
675 225 1 0.5897 2.2213557070650487 5.85773364898192 20.019978096402838 0 0 0
788 263 1 0.5897 0.5208095638010604 9.023341995502971 16.47659152950548 0 0 0
673 225 2 -1.1794 2.46064347813489 5.397848770661348 20.8245671112967 0 0 0
654 218 1 0.5897 4.37395566030165 0.7596442437075187 16.550369111631618 0 0 0
681 227 1 0.5897 0.9513543097962169 2.8322937001800432 16.650544903746944 0 0 0
761 254 1 0.5897 4.40737198776877 9.119250274352742 17.444453912157357 0 0 0
787 263 2 -1.1794 0.21219929000091015 8.385581473614412 15.833013234298516 0 0 0
778 260 2 -1.1794 2.162680917684103 7.463685884228695 18.828242853997747 0 0 0
659 220 1 0.5897 0.8153163884729858 4.016952131642425 18.44370765841805 0 0 0
760 254 2 -1.1794 4.461073470312407 8.167578177517747 17.357473490039254 0 0 0
779 260 1 0.5897 2.155790624694935 8.234957712730132 19.395037977504774 0 0 0
780 260 1 0.5897 2.769854428309415 7.689209617757459 18.12346424978475 0 0 0
884 295 1 0.5897 0.9993071424301965 0.3356302402407179 16.535976440192915 0 1 0
662 221 1 0.5897 4.721423977217899 5.539524753380285 16.36951618651337 0 0 0
669 223 1 0.5897 0.5206829984886044 6.688438878777931 15.779067337688788 0 0 0
679 227 2 -1.1794 0.7198206279977677 2.1580904810617105 16.011787280031292 0 0 0
663 221 1 0.5897 4.625864223452588 6.922141658171693 15.76042538580669 0 0 0
109 37 2 -1.1794 2.2009511978755376 9.662043296039052 20.67582223563038 0 0 -1
667 223 2 -1.1794 0.6385408053663524 5.753271614460589 15.612596047414108 0 0 0
120 40 1 0.5897 0.8654275879957107 11.471988418277459 3.0391289603704714 0 0 0
129 43 1 0.5897 0.5167128092254903 13.9186851419384 2.0414282933110224 0 0 0
124 42 2 -1.1794 4.152115612560223 10.918143721043409 3.4323012201483594 0 0 0
119 40 1 0.5897 2.2148141712685048 11.057370086709899 3.5862774947439533 0 0 0
118 40 2 -1.1794 1.2754078806093303 10.91011356911588 3.6966852108284014 0 0 0
230 77 1 0.5897 4.389576566403937 18.778664399030948 0.6724739358845265 0 0 0
240 80 1 0.5897 2.558643658692755 14.072611281925694 4.19038709799538 0 0 0
123 41 1 0.5897 4.051820846984629 12.349954304747662 0.44043538632006374 0 0 0
125 42 1 0.5897 4.702762787880445 11.021716104491187 4.208374430736986 0 0 0
235 79 2 -1.1794 0.6668183988900613 19.669511780857075 1.881274359665598 0 0 0
220 74 2 -1.1794 3.638966104372295 14.393175224031802 2.852118958045469 0 0 0
127 43 2 -1.1794 0.44784593740686696 12.964238924673424 2.0203141504690616 0 0 0
890 297 1 0.5897 2.09760756392412 19.354465133255133 0.7377182138565951 0 0 1
122 41 1 0.5897 4.4218567335236205 11.851897255881942 1.8212784655490173 0 0 0
232 78 2 -1.1794 3.7513099311991707 17.266664014484085 3.6329934329188642 0 0 0
249 83 1 0.5897 1.5199543968264513 15.98253430839048 1.6612220735800325 0 0 0
247 83 2 -1.1794 0.8198416572646617 15.78053261154854 2.2819432942890137 0 0 0
233 78 1 0.5897 4.007842554228819 17.68777836924744 2.8126081268404413 0 0 0
228 76 1 0.5897 0.6146321934665464 17.920106903730858 4.672029776983164 0 0 0
248 83 1 0.5897 0.9099868402436814 16.441218977862736 2.968623358566533 0 0 0
229 77 2 -1.1794 4.721593667186674 18.862310108793146 1.566318091753089 0 0 0
222 74 1 0.5897 4.102124788830402 14.291976406050859 2.020616464469559 0 0 0
234 78 1 0.5897 2.921746468971019 17.682907434016307 3.86730141902307 0 0 0
221 74 1 0.5897 3.6506315012993515 15.335383762077527 3.020215682994079 0 0 0
226 76 2 -1.1794 1.2579673311542472 17.881668099861525 3.9643428163614933 0 0 0
227 76 1 0.5897 1.0212324527116927 18.60609202827599 3.3852494679868 0 0 0
783 261 1 0.5897 1.791954375085074 12.87987110868615 0.5671297155647879 0 0 1
238 80 2 -1.1794 2.0421265009847804 14.099248668444757 4.9958241300317745 0 0 0
121 41 2 -1.1794 4.794697639573557 12.253001194261468 1.0362501966344841 0 0 0
219 73 1 0.5897 3.379428109818563 16.109096834297503 0.2978527200057431 0 0 0
224 75 1 0.5897 4.923840481407289 18.019244271931687 4.744878028550139 0 0 0
218 73 1 0.5897 2.499947605068467 17.277854107375706 -0.09258324165557441 0 0 0
889 297 2 -1.1794 2.570702603247692 19.184139725417182 -0.07674566764689361 0 0 1
217 73 2 -1.1794 2.4715310372609838 16.34118051183212 0.10237200656262374 0 0 0
133 45 2 -1.1794 2.793339306676853 12.3381438365262 6.889183536736681 0 0 0
134 45 1 0.5897 2.2010944388362037 12.600871513274583 7.59375995490165 0 0 0
135 45 1 0.5897 3.652414928142359 12.6566892729012 7.166351850630229 0 0 0
451 151 2 -1.1794 0.997600508836247 12.959720725163697 8.963117229336852 0 0 0
572 191 1 0.5897 1.3461592704719565 15.88457234439577 9.946293031574518 0 0 0
446 149 1 0.5897 4.646065093848986 13.603272109753453 9.053494929620419 0 0 0
448 150 2 -1.1794 4.495945379449564 10.560086973148815 9.86671884887223 0 0 0
576 192 1 0.5897 4.340767481591903 15.906508718770073 7.01695982273678 0 0 0
434 145 1 0.5897 2.724425619786632 10.33348677763314 6.847324056013217 0 0 0
559 187 2 -1.1794 0.5375493711616022 19.40607903983711 9.16049387356941 0 0 0
239 80 1 0.5897 2.3459290536212096 13.344951424106155 5.500731265084144 0 0 0
543 181 1 0.5897 2.1771479617349034 15.140026962586447 6.456108277715317 0 0 0
453 151 1 0.5897 0.967984158221957 12.440485801503439 9.7666503106107 0 0 0
555 185 1 0.5897 3.3631818492795538 19.018182112611346 7.972140263644832 0 0 0
450 150 1 0.5897 4.5853234069650215 11.286369793873856 9.249713448865734 0 0 0
243 81 1 0.5897 1.3964627771362164 18.933017808120386 7.697401408675752 0 0 0
573 191 1 0.5897 0.9735313027593135 14.60606020139989 9.226375282995743 0 0 0
241 81 2 -1.1794 1.9541247292520567 18.72882810554237 6.946708501880375 0 0 0
242 81 1 0.5897 2.0431884250744274 17.776018355875035 6.966010742806636 0 0 0
541 181 2 -1.1794 2.4861410423004857 15.842315922515409 7.028384101347738 0 0 0
542 181 1 0.5897 2.0259305716437366 15.698066827531823 7.855190295324736 0 0 0
571 191 2 -1.1794 0.9644127909632147 15.558456107163435 9.131370882902226 0 0 0
544 182 2 -1.1794 3.9559828073181684 14.79411640786414 10.207932449151285 0 0 0
558 186 1 0.5897 4.372786715402572 17.9807738837656 10.026613764957993 0 0 0
553 185 2 -1.1794 4.129454408886984 18.967680483010383 8.543590680994898 0 0 0
443 148 1 0.5897 1.0504477728724162 10.010844187451259 10.307187578903733 0 0 0
554 185 1 0.5897 4.866470937298709 18.840232234645534 7.946219551956675 0 0 0
452 151 1 0.5897 0.0812236449610495 13.048731023283503 8.701020255320886 0 0 0
557 186 1 0.5897 4.4008136515290515 16.501276392362 10.345791028123859 0 0 0
457 153 2 -1.1794 2.318686038065707 11.86857483213141 13.580039777595148 0 0 0
458 153 1 0.5897 1.6719044564805603 12.116438453603415 14.240713651185235 0 0 0
459 153 1 0.5897 3.1626774221882012 11.971258055376836 14.019890172369426 0 0 0
562 188 2 -1.1794 1.9936019731643722 14.158893104908405 11.938605457509597 0 0 0
563 188 1 0.5897 2.397864468234645 13.377353671950361 12.3153924799791 0 0 0
442 148 2 -1.1794 1.3336347561139452 10.807054329092091 10.756667121469262 0 0 0
449 150 1 0.5897 4.852891089966329 10.897754886967455 10.688159363779056 0 0 0
564 188 1 0.5897 2.1524809538183467 14.846631892355948 12.585083541168137 0 0 0
769 257 2 -1.1794 4.600871544384066 12.482082388331605 15.10035197175183 0 0 0
567 189 1 0.5897 2.219812236466858 19.565685381214184 13.269088823297587 0 0 0
758 253 1 0.5897 1.9673391143638503 10.141801895302391 13.684947627568588 0 0 0
556 186 2 -1.1794 4.442170380730219 17.36500053598602 10.756106600037002 0 0 0
550 184 2 -1.1794 1.6245552084527763 17.379734556626723 11.083965159556053 0 0 0
444 148 1 0.5897 2.2858669227888906 10.725848883528737 10.811719708656597 0 0 0
879 293 1 0.5897 4.106854495692381 19.128778274922144 14.717777409851958 0 0 0
545 182 1 0.5897 3.1005130629671696 14.555694348495615 10.565218225922747 0 0 0
867 289 1 0.5897 1.7040730970443974 15.942490212115441 14.534821299577521 0 0 0
866 289 1 0.5897 3.1838577836540964 16.209260905596114 14.357940059146399 0 0 0
865 289 2 -1.1794 2.351659340398151 16.21552077256414 13.884944175770666 0 0 0
565 189 2 -1.1794 2.5915588171023782 18.985994484967073 13.933879987579065 0 0 0
566 189 1 0.5897 2.504774916564231 18.10811869174677 13.562437557060596 0 0 0
642 214 1 0.5897 0.14239961836274692 14.205302263324304 11.697906776031752 1 0 0
877 293 2 -1.1794 4.740572243380705 19.28139845142081 15.418748150448689 0 0 0
621 207 1 0.5897 0.1500324362630849 17.3451922850238 12.046122084386074 1 0 0
551 184 1 0.5897 1.3956355000246643 18.188900881266036 10.626766242444395 0 0 0
546 182 1 0.5897 4.559022837228378 14.699235533040218 10.945213494163914 0 0 0
552 184 1 0.5897 2.5741925462018687 17.309168456954087 10.986105434751027 0 0 0
771 257 1 0.5897 4.3495593348609 13.332395282665933 15.460898178351703 0 0 0
768 256 1 0.5897 1.35132738536152 11.302620427638596 17.00217483646371 0 0 0
767 256 1 0.5897 0.5533386522200366 10.692301829419337 18.134652088589235 0 0 0
888 296 1 0.5897 2.161394990265784 14.003451773437874 19.661946025002454 0 0 0
766 256 2 -1.1794 1.3504494260652438 10.570575149131958 17.61883523694749 0 0 0
886 296 2 -1.1794 2.21027450195638 14.73013854903078 19.041027461971883 0 0 0
773 258 1 0.5897 3.1823558443163606 10.798242468491704 18.134967635742868 0 0 0
869 290 1 0.5897 3.4777590696328566 14.38580838224838 17.54744090102331 0 0 0
965 322 1 0.5897 0.34032200605323554 14.36708784913551 19.105033758751507 1 0 0
772 258 2 -1.1794 4.049509957721642 10.938507833939196 17.754577821416813 0 0 0
891 297 1 0.5897 2.4509857665565087 19.980034533972585 20.406771786037574 0 0 0
868 290 2 -1.1794 4.224440572555764 14.443608751304499 16.951293537178465 0 0 0
897 299 1 0.5897 1.0309175952432195 15.912497300482904 16.912092624246906 0 0 0
876 292 1 0.5897 1.0934120979436046 18.09365453619532 17.536719977641056 0 0 0
775 259 2 -1.1794 0.9510823280089664 12.673434655314612 15.77468858775438 0 0 0
878 293 1 0.5897 4.658349499491083 18.51587230405211 15.987409426181195 0 0 0
887 296 1 0.5897 2.402900557509069 15.495750507860071 19.582221017338235 0 0 0
895 299 2 -1.1794 0.8646550838078538 15.345005966329394 16.159444690950693 0 0 0
880 294 2 -1.1794 3.9077525439664185 17.230319048316193 17.471727149111334 0 0 0
881 294 1 0.5897 3.0040338646061264 17.14656556775258 17.776094783831446 0 0 0
776 259 1 0.5897 -0.003054924190131203 12.59731087580833 15.788924028060178 0 0 0
874 292 2 -1.1794 1.2088032685864216 17.28684046036638 18.038610281548042 0 0 0
882 294 1 0.5897 4.118525364729453 16.371129712604514 17.106284510302252 0 0 0
875 292 1 0.5897 0.5299125694292042 17.324185632222456 18.712375518338447 0 0 0
774 258 1 0.5897 3.87749677474626 11.370561377556678 16.917982640521284 0 0 0
782 261 1 0.5897 2.125078899352168 11.688580701625071 20.69594493054693 0 0 0
781 261 2 -1.1794 2.321487689169072 12.617711456038245 20.8155916019853 0 0 0
883 295 2 -1.1794 1.2028648616865873 19.536022950694807 16.42885114808225 0 0 0
777 259 1 0.5897 1.1203517450593226 13.600755827800626 15.94077386914558 0 0 0
896 299 1 0.5897 -0.054698303506409474 15.498651466189854 15.941453644287115 0 0 0
885 295 1 0.5897 1.812661673883184 19.507374790676632 15.691591598397295 0 0 0
34 12 2 -1.1794 5.3942930009285535 2.497331535624745 0.2896289319864667 0 0 0
273 91 1 0.5897 7.860882805188063 -0.005832694636129787 1.8303333216159916 0 1 0
46 16 2 -1.1794 8.201446924334247 4.060427606350534 3.620694912641944 0 0 0
47 16 1 0.5897 8.121025991195527 3.301393986264753 3.04314012899604 0 0 0
67 23 2 -1.1794 7.797059510288629 1.7821316302362522 2.175426649983061 0 0 0
68 23 1 0.5897 8.386113885735316 1.8568361767136246 1.4246504622800218 0 0 0
69 23 1 0.5897 6.920414866741213 1.879198995569111 1.8033867054215569 0 0 0
142 48 2 -1.1794 5.4535588528559185 8.979443911231717 0.49146659945761906 0 0 0
166 56 2 -1.1794 8.948387819650023 7.388037033391076 4.771965167533715 0 0 0
55 19 2 -1.1794 7.22302848913386 6.18946700054839 1.8622146657079122 0 0 0
176 59 1 0.5897 7.461354754343918 8.068004042963322 2.4227716393746905 0 0 0
57 19 1 0.5897 7.567276300226247 5.695022336534033 2.605975607483286 0 0 0
48 16 1 0.5897 7.495507090646949 3.952778645105111 4.258139180619901 0 0 0
143 48 1 0.5897 6.129744330138964 9.005465605916527 1.1684958966356023 0 0 0
175 59 2 -1.1794 7.559755935836516 9.004514003504017 2.251180456606236 0 0 0
709 237 2 -1.1794 9.027036733149192 5.428083697945089 -0.13425280196643155 0 0 1
56 19 1 0.5897 6.321504713321493 5.882225508068651 1.7663149249930523 0 0 0
177 59 1 0.5897 8.226981637822437 9.054277537341168 1.5666442421828826 0 0 0
711 237 1 0.5897 8.384954217236649 5.726169374167387 0.5100275902265912 0 0 1
9 3 1 0.5897 5.3095369709194005 4.216195676611275 4.888088711336586 0 0 0
29 10 1 0.5897 6.9776645471779695 0.935505485152182 5.0214251156418355 0 0 0
58 20 2 -1.1794 8.726458410402662 0.6396273601606689 5.058035099012097 0 0 0
145 49 2 -1.1794 9.317457240522401 9.286844464573607 0.11544381518975766 0 0 0
41 14 1 0.5897 9.954054059951563 1.179425170816011 3.8397675294496305 0 0 0
138 46 1 0.5897 7.023882184761043 7.037957073571017 4.790931669807966 0 0 0
136 46 2 -1.1794 6.069452552824648 7.006882798951078 4.72394947529382 0 0 0
36 12 1 0.5897 5.718125296194866 3.323938181522306 -0.0682068922031017 0 0 0
137 46 1 0.5897 5.843807698611505 6.099782608858798 4.929959852892032 0 0 0
144 48 1 0.5897 5.695658012442 8.236244549577226 -0.06099207221382841 0 0 0
362 121 1 0.5897 9.059142353139631 3.5047086105024974 6.700819724414228 0 0 0
59 20 1 0.5897 8.83006473482305 1.3315390537403828 5.711225382691067 0 0 0
391 131 2 -1.1794 7.11282060358321 2.3610940036194292 9.035935467158138 0 0 0
469 157 2 -1.1794 9.426267065329272 9.25207812949655 6.7784280411039965 0 0 0
467 156 1 0.5897 5.699365853205961 8.596531905960644 6.180976064133383 0 0 0
392 131 1 0.5897 7.740566464202782 2.5169697865247698 8.330339090235084 0 0 0
361 121 2 -1.1794 9.022304707858043 2.615919339285851 7.05410419252136 0 0 0
360 120 1 0.5897 5.367746538886782 1.7613158555535953 6.480610241854104 0 0 0
393 131 1 0.5897 7.273289686835962 1.4564470046032603 9.30434694875291 0 0 0
500 167 1 0.5897 7.525660475480079 9.284765938390688 9.497597308503288 0 0 0
466 156 2 -1.1794 5.674900023034043 9.214688108185292 6.911333768409433 0 0 0
359 120 1 0.5897 5.644405794105485 2.153290911932805 7.916407905172223 0 0 0
381 127 1 0.5897 7.42872165248507 5.378006720523904 9.233676199062737 0 0 0
8 3 1 0.5897 5.758422656368207 3.707276348538858 6.241326782694379 0 0 0
61 21 2 -1.1794 9.211901641995997 5.206954387562361 6.376659886485654 0 0 0
380 127 1 0.5897 7.291297894570414 6.599212501634188 8.34965588609458 0 0 0
379 127 2 -1.1794 7.247589571499112 5.64320226668459 8.33200471243554 0 0 0
499 167 2 -1.1794 7.443506243953192 8.595686177626687 8.83836245580882 0 0 0
338 113 1 0.5897 5.169882292669469 5.4018793652616175 8.083715047823505 0 0 0
501 167 1 0.5897 6.703366346186285 8.869075041036435 8.296381705104944 0 0 0
62 21 1 0.5897 8.48973002762888 5.512674914108434 6.925562484588576 0 0 0
30 10 1 0.5897 5.848283259415801 -0.04095337602996296 5.272586156625119 0 0 0
470 157 1 0.5897 8.986141967128027 9.115085336766365 7.617306117205529 0 0 0
363 121 1 0.5897 9.937260589069936 2.381467107461296 7.209829018405272 0 0 0
167 56 1 0.5897 9.121155174843635 6.649492069199753 5.355809797539525 0 0 0
63 21 1 0.5897 9.957694221362107 5.145259403634689 6.973512627777605 0 0 0
168 56 1 0.5897 9.035405222639508 8.160690172222239 5.33017219332507 0 0 0
7 3 2 -1.1794 5.984436352596979 4.336290469444894 5.5561906971631485 0 0 0
28 10 2 -1.1794 6.031781404467858 0.8919499489873985 5.16211110004102 0 0 0
353 118 1 0.5897 6.430622932413928 0.8902119088963492 11.748102419092364 0 0 0
382 128 2 -1.1794 8.188437883518265 0.8486523772458201 12.100066923047752 0 0 0
331 111 2 -1.1794 5.855455134372033 4.758360931842467 12.607133543113907 0 0 0
685 229 2 -1.1794 8.881861966335345 2.802872892549501 13.853397891246898 0 0 0
332 111 1 0.5897 5.372834056868721 4.511387424840725 11.818283000574572 0 0 0
354 118 1 0.5897 5.380942366242642 1.4791948194658975 12.66631939043945 0 0 0
686 229 1 0.5897 8.343678588741225 2.685935433950059 14.636262420791738 0 0 0
791 264 1 0.5897 5.438466435183506 9.402421156159845 14.45443577712472 0 0 0
352 118 2 -1.1794 5.4986046866045255 0.8427750229764838 11.961135904340841 0 0 0
383 128 1 0.5897 8.395764261411186 1.5129426368053744 12.757259297540319 0 0 0
793 265 2 -1.1794 8.931621984748796 9.519036168966645 14.22332960991039 0 0 0
372 124 1 0.5897 7.375496314973919 4.5606116353069375 11.499326826691929 0 0 0
491 164 1 0.5897 9.500093615039468 7.760863403850249 11.011276239508964 0 0 0
370 124 2 -1.1794 7.941125530834787 4.415003447471405 10.740974915033442 0 0 0
824 275 1 0.5897 7.73875050139246 9.025034524468655 15.251104743869185 0 0 0
386 129 1 0.5897 8.79133209177772 4.640382895611112 13.403621269638796 0 0 0
461 154 1 0.5897 5.617707327816669 8.060284980272517 12.75196132224893 0 0 0
460 154 2 -1.1794 6.092943630603419 7.527238488141279 12.114608702522162 0 0 0
717 239 1 0.5897 6.513679613102747 2.3046033784173567 15.42515416111515 0 0 0
492 164 1 0.5897 8.092641767409125 7.810708987405641 11.566939205676638 0 0 0
705 235 1 0.5897 7.8852633076299075 5.847836360636024 15.256341923858942 0 0 0
490 164 2 -1.1794 9.012282338413502 7.825768919106356 11.832267514355266 0 0 0
385 129 2 -1.1794 8.974107541779315 5.527179404830316 13.71401945713139 0 0 0
333 111 1 0.5897 5.825523147570464 5.714996623800881 12.617125611682548 0 0 0
794 265 1 0.5897 9.002095689346069 8.882789059401528 13.511717388453373 0 0 0
387 129 1 0.5897 9.029442225907626 6.053882130763832 12.916719968531483 0 0 0
384 128 1 0.5897 8.825987309990706 0.9952674895446907 11.401310669120518 0 0 0
684 228 1 0.5897 5.424257455412282 3.3287883469745956 13.55876176677225 0 0 0
462 154 1 0.5897 5.536616315845977 7.53178195017388 11.33570572004879 0 0 0
682 228 2 -1.1794 5.129469474451978 2.5294090738811827 13.994940255493749 0 0 0
371 124 1 0.5897 7.646709079921842 3.579248120854463 10.379012492248275 0 0 0
687 229 1 0.5897 9.781168482729377 2.821826362150777 14.180887768692862 0 0 0
790 264 2 -1.1794 4.963687832160942 9.368304172168227 13.62399592535814 0 0 0
377 126 1 0.5897 9.886948028311524 4.0548665099618 10.510349319594626 0 0 0
696 232 1 0.5897 7.818910807562271 4.7854539825505045 17.46332316280743 0 0 0
35 12 1 0.5897 5.545154169664301 1.858702873081889 20.59432567770175 0 0 -1
657 219 1 0.5897 6.973672646938301 4.30374486286512 19.637113358662734 0 0 0
676 226 2 -1.1794 5.925840266957643 0.6499030267095636 19.316043932258534 0 0 0
762 254 1 0.5897 5.047446664217496 7.8948048323808 18.06314278473775 0 0 0
815 272 1 0.5897 8.929108438019798 6.630885600397681 19.55848348246463 0 0 0
706 236 2 -1.1794 8.620504291820307 0.596774802662262 18.73439044305911 0 0 0
37 13 2 -1.1794 8.95512533830015 2.6920133470922285 20.64643601393571 0 0 -1
655 219 2 -1.1794 6.120845739508816 4.611476063476333 19.94410792332909 0 0 0
694 232 2 -1.1794 7.962000211777509 4.042560655690991 18.04963895622446 0 0 0
695 232 1 0.5897 7.798279100327518 3.2723382408598534 17.505459945436556 0 0 0
715 239 2 -1.1794 7.356150981746746 2.2137846098267424 15.870494725257103 0 0 0
825 275 1 0.5897 6.887931702727734 7.918579188380288 15.837423376755817 0 0 0
702 234 1 0.5897 9.540896244343916 3.783217134146444 17.380351626448107 0 0 0
784 262 2 -1.1794 6.086893105632413 7.301459547177286 19.300892074875925 0 0 0
708 236 1 0.5897 7.675515522272316 0.5647322802158302 18.883886744977044 0 0 0
785 262 1 0.5897 5.967914166727608 6.376051515405369 19.514442051559055 0 0 0
716 239 1 0.5897 7.511602718596467 1.269779150466659 15.899761221120674 0 0 0
816 272 1 0.5897 9.032449632581013 8.120698414720021 19.80618291907568 0 0 0
786 262 1 0.5897 7.0144826154022075 7.37889947694541 19.077495780745245 0 0 0
703 235 2 -1.1794 7.338865355347471 5.952304394679132 16.035292186723165 0 0 0
814 272 2 -1.1794 8.832764953854857 7.478762153088247 19.12494986089615 0 0 0
704 235 1 0.5897 6.441595854884428 5.871149450384751 15.711798390476174 0 0 0
38 13 1 0.5897 8.759318502192178 2.165640833494338 19.8713591726991 0 0 -1
656 219 1 0.5897 5.571824640790329 4.618841033664701 19.160049629906766 0 0 0
707 236 1 0.5897 8.998213939115713 0.14253528455588166 19.487518263052145 0 0 0
677 226 1 0.5897 5.289588652350072 0.903726809889846 18.647478650685557 0 0 0
39 13 1 0.5897 9.898824648598676 2.592170627752969 20.772262655199274 0 0 -1
823 275 2 -1.1794 6.961644802581541 8.87165651919027 15.788589906040725 0 0 0
710 237 1 0.5897 8.899966000895342 4.480457597313024 20.82253137689347 0 0 0
154 52 2 -1.1794 8.226582311042195 11.181218099489202 3.675903233786984 0 0 0
262 88 2 -1.1794 7.617871272533148 17.234513859526512 3.409449272725079 0 0 0
163 55 2 -1.1794 7.420826907694406 12.60478903103351 1.3480795445740612 0 0 0
285 95 1 0.5897 7.516409724019736 14.546662089262016 1.3580890576482745 0 0 0
164 55 1 0.5897 6.497562960184565 12.448965571425239 1.1489053109633178 0 0 0
156 52 1 0.5897 9.183342890436961 11.167752989371913 3.7039225859071707 0 0 0
264 88 1 0.5897 8.547869503053553 17.234594034192042 3.636302466028405 0 0 0
927 309 1 0.5897 8.701160673255151 19.06908061889743 0.14468751453658785 0 0 1
165 55 1 0.5897 7.569504603628537 12.14329832173796 2.1733575033369563 0 0 0
263 88 1 0.5897 7.1796251989826985 17.566637978785977 4.192931220216337 0 0 0
276 92 1 0.5897 9.604289382544117 14.226362378454583 4.22306293518151 0 0 0
283 95 2 -1.1794 7.428056158854114 15.491918503930572 1.2362638518614895 0 0 0
251 84 1 0.5897 5.958718199347045 15.625377498580843 0.5639316579332951 0 0 0