LAMMPS data file via write_data, version 30 Jul 2021, timestep = 45000000

1296 atoms
2 atom types
864 bonds
1 bond types
432 angles
1 angle types

-10.577999861937085 12.557999861937086 xlo xhi
-9.13347166964996 12.12346966964996 ylo yhi
0.13924747509398294 21.72075152490526 zlo zhi
-9.118021073696903 1.8923189952635497 2.821244201916605 xy xz yz

Masses

1 1.008
2 15.999

Pair Coeffs # lj/cut/tip4p/long/omp

1 0 0
2 0.21084 3.1668

Bond Coeffs # harmonic/omp

1 450 0.9572

Angle Coeffs # harmonic/omp

1 55 104.52

Atoms # full

280 94 2 -1.1794 -9.553098036296685 -4.502403044705613 1.4783516914561539 1 1 0
270 90 1 0.5897 -8.331075983694944 -7.341746030027036 2.148373974604441 1 1 0
269 90 1 0.5897 -9.190592909153539 -6.106104765360538 2.3112849101182724 1 1 0
268 90 2 -1.1794 -9.034460203024517 -6.974072976072177 2.6834894210925517 1 1 0
314 105 1 0.5897 -8.698319257457772 -6.654292128564958 4.501688842622854 1 1 0
299 100 1 0.5897 -6.512641141141414 -7.871878832839711 4.143084415164542 1 1 0
163 55 2 -1.1794 -7.034465673579531 -7.897770616684003 0.9523968255644338 1 1 0
164 55 1 0.5897 -6.2604771567307615 -8.348009538862748 1.2906471722060056 1 1 0
298 100 2 -1.1794 -5.9166967458421444 -7.123357614448251 4.113010399000114 1 1 0
73 25 2 -1.1794 -8.230320231715714 -3.6501518983165937 4.790505721686283 1 0 0
324 108 1 0.5897 -7.010795642170612 -4.229546146395417 3.576922473749208 1 1 0
201 67 1 0.5897 0.26956796407717754 -8.503471965192293 0.1880158719660936 1 1 0
282 94 1 0.5897 -10.424292651512971 -4.119062059114175 1.5799986348413946 1 1 0
84 28 1 0.5897 -8.09889313188064 -0.5098952482039696 4.101209740682199 1 0 0
75 25 1 0.5897 -9.03256130410913 -3.2529508363701334 4.451652730503146 1 0 0
281 94 1 0.5897 -8.954842330185755 -3.757398103151032 1.5365704694372664 1 1 0
301 101 2 -1.1794 -7.926573788041491 -2.2502123288307354 1.6243787329383923 1 1 0
53 18 1 0.5897 -12.287701631701369 0.9693269996841689 2.3078264980653085 1 0 0
275 92 1 0.5897 -10.423655159409387 -7.868674072260253 3.390206313431836 1 1 0
97 33 2 -1.1794 -11.774416475886916 0.7209075233139828 5.340163920916633 1 0 0
322 108 2 -1.1794 -6.340473365240054 -4.6531024091484365 3.0406817880597075 1 1 0
300 100 1 0.5897 -5.0482769728916725 -7.51210663409522 4.008173359279854 1 1 0
313 105 2 -1.1794 -8.672549869879244 -6.312224565402752 5.395266470058364 1 1 0
256 86 2 -1.1794 -11.967461493920467 -3.2301895326891295 1.841866243702785 1 1 0
258 86 1 0.5897 -12.393755173696126 -2.7211888985505164 1.1524378584165593 1 1 0
241 81 2 -1.1794 -1.0676897503282436 -6.4139203254250585 5.393950768247627 0 1 0
90 30 1 0.5897 -3.746059422014074 -0.30689663577491366 2.1054701026169744 1 0 0
69 23 1 0.5897 -11.001290779541062 -2.547767508600014 3.2647625021049325 1 0 0
272 91 1 0.5897 -9.36308966306641 -1.2809056421540426 1.1890067918900027 1 1 0
83 28 1 0.5897 -9.586521970656593 -0.7902459699769384 4.083195099625161 1 0 0
82 28 2 -1.1794 -8.951406152821736 -0.07590197746072036 4.134860741805666 1 0 0
271 91 2 -1.1794 -10.140970333118831 -0.856751253006907 0.8268279491285627 1 1 0
98 33 1 0.5897 -11.847069969617683 0.42894538550885386 4.43152981648721 1 0 0
54 18 1 0.5897 -11.447191363578332 -0.26190365174430497 2.043737192234902 1 0 0
67 23 2 -1.1794 -10.555875301191733 -2.3424212784775102 4.086675202646051 1 0 0
68 23 1 0.5897 -11.234260564579717 -2.4317842761746835 4.756043892761581 1 0 0
52 18 2 -1.1794 -12.114063967808779 0.0867814908885407 2.6353238704004545 1 0 0
261 87 1 0.5897 -6.645812369044428 -4.9496724924615085 1.240622759321942 1 1 0
323 108 1 0.5897 -6.226512898683981 -5.516962548767319 3.4369635440966824 1 1 0
310 104 2 -1.1794 -3.446002014409694 -8.342287218931496 3.836026543619631 1 1 0
3 1 1 0.5897 -1.377752566428713 -3.4317235504598944 4.439230720008876 0 0 0
103 35 2 -1.1794 -2.820381097909446 -2.3641083098643163 4.152714739268494 1 0 0
89 30 1 0.5897 -4.495918684393245 0.9783749674251077 2.3846484440184814 1 0 0
259 87 2 -1.1794 -6.675349684748022 -5.261910438327814 0.3363097370136201 1 1 0
59 20 1 0.5897 -13.481953636382972 -0.8143229453184322 3.3963009094277767 1 0 0
88 30 2 -1.1794 -4.3802732954778945 0.08426035473183724 2.706341257550511 1 0 0
302 101 1 0.5897 -7.4857561607710075 -1.974309398074305 2.427920405835389 1 1 0
107 36 1 0.5897 -9.166423557820652 1.545271607428223 3.329188403170493 1 0 0
306 102 1 0.5897 -0.7426118348718198 -7.311266018880691 2.1076653309316282 1 1 0
304 102 2 -1.1794 -1.3983254995351828 -6.915910238054122 2.6821334015843488 1 1 0
318 106 1 0.5897 -2.6691860558359277 -4.016087003837496 1.5500298533476253 1 1 0
242 81 1 0.5897 -1.100077941847303 -6.729011527242019 4.490725642116116 0 1 0
305 102 1 0.5897 -1.556109017340452 -6.049917987453108 2.3060444824229176 1 1 0
316 106 2 -1.1794 -1.8264835003432687 -4.462719931211296 1.468526169376939 1 1 0
311 104 1 0.5897 -2.756596448316129 -7.883536898356262 3.3558662847537444 1 1 0
293 98 1 0.5897 -4.943162790073473 -3.746083838815176 2.3512360050866783 1 1 0
303 101 1 0.5897 -7.259002284730553 -2.1662686219406178 0.9435370683790324 1 1 0
294 98 1 0.5897 -4.694687808603523 -2.7399609033139942 1.247689582796974 1 1 0
243 81 1 0.5897 -0.9301143573879198 -5.469959464797501 5.314128721141556 0 1 0
96 32 1 0.5897 -6.088607771330076 -1.849090372628206 4.442516754371467 1 0 0
95 32 1 0.5897 -5.784275490678161 -0.8811457905613018 3.31899588188406 1 0 0
105 35 1 0.5897 -3.257232013999979 -2.6254659801915343 3.3421781207707673 1 0 0
94 32 2 -1.1794 -6.509804497707604 -1.3080068320703164 3.7747191407302347 1 0 0
104 35 1 0.5897 -3.472384538601955 -2.5168191766088706 4.8366836824137796 1 0 0
26 9 1 0.5897 -4.062795563472766 0.3090653422684575 4.489643345446229 0 0 0
292 98 2 -1.1794 -4.246011391989097 -3.250244708086182 1.9217964776689485 1 1 0
27 9 1 0.5897 -3.908081562539488 1.6074173486191494 5.252837290290138 0 0 0
99 33 1 0.5897 -11.622787260143848 1.6640367582387192 5.277885519338292 1 0 0
25 9 2 -1.1794 -4.055141643152789 0.6696046610657866 5.376274531792083 0 0 0
44 15 1 0.5897 -9.919183376764947 0.9082032678483749 0.32545583439533127 1 0 0
260 87 1 0.5897 -6.774377947315086 -6.21093821166806 0.41311257122991374 1 1 0
315 105 1 0.5897 -8.542410928218363 -5.369936100800662 5.287966271767151 1 1 0
309 103 1 0.5897 -2.7587884691883318 -1.4390811464058384 0.16048977387568325 1 1 0
317 106 1 0.5897 -1.1796212724348951 -3.75710876200029 1.4718992877116897 1 1 0
199 67 2 -1.1794 0.5037886626666399 -7.92889433430991 0.9168606019904095 1 1 0
165 55 1 0.5897 -7.33874192184121 -8.451233254823046 0.23316000057171934 1 1 0
273 91 1 0.5897 -10.465052320616843 -1.4716931839118859 0.16876295872455405 1 1 0
1046 349 1 0.5897 -5.047538103021611 1.4272870042076882 0.18279537196414003 0 -1 1
420 140 1 0.5897 -8.998380154903343 -6.403759776883763 9.922397939820085 1 0 0
618 206 1 0.5897 -7.74074368596023 -7.3546536556659685 6.633936414845762 1 1 0
413 138 1 0.5897 -7.532309298448825 -3.604849918858246 7.779111285229781 1 0 0
419 140 1 0.5897 -8.776856717794749 -5.411948411564673 8.800318009820554 1 0 0
418 140 2 -1.1794 -9.464100148543945 -5.896723756043706 9.257459844278797 1 0 0
414 138 1 0.5897 -6.710710042189648 -4.853067572977394 7.536080323563014 1 0 0
350 117 1 0.5897 -7.118936586421463 -4.212885768421831 9.85092428828964 0 0 0
412 138 2 -1.1794 -7.374775061002409 -4.485580499255189 8.119388659474254 1 0 0
429 143 1 0.5897 -6.307447359259099 -7.123852999872141 8.607885522159325 1 0 0
427 143 2 -1.1794 -5.850768434680993 -6.954446797104415 9.431804900082003 1 0 0
428 143 1 0.5897 -6.524277668884069 -7.054962844085477 10.104506863112 1 0 0
544 182 2 -1.1794 0.4114440096322909 -7.837569537415354 7.285830721430372 0 1 0
403 135 2 -1.1794 -5.047579260471267 -2.849346923123985 5.692501520677834 1 0 0
330 110 1 0.5897 -3.0828666597662426 -0.197155165370269 6.59041867199702 0 0 0
435 145 1 0.5897 -7.37784429998927 -0.92706694155153 9.876377700793972 0 0 0
425 142 1 0.5897 -7.232447487270623 -1.2563467720584622 7.020180679901433 1 0 0
400 134 2 -1.1794 -10.310384783943515 -0.7775287946065674 7.2756846176868475 1 0 0
536 179 1 0.5897 -9.610562521282372 0.0017057677829281914 10.141217917314043 1 0 0
402 134 1 0.5897 -10.71043100139226 -0.2533947352923889 6.581874564842129 1 0 0
526 176 2 -1.1794 -12.520530800699447 1.2348169441341224 9.214678224178172 1 0 0
405 135 1 0.5897 -5.008155580592635 -2.551954183675825 6.601426453605777 1 0 0
537 179 1 0.5897 -9.346537471039992 -0.13113085055007545 8.65652728586117 1 0 0
426 142 1 0.5897 -8.70203324468395 -1.6195244781908587 7.039877195498506 1 0 0
401 134 1 0.5897 -11.048707659776793 -1.2059687616218833 7.70882128651384 1 0 0
527 176 1 0.5897 -11.805918829647599 1.7055391920119956 8.785675256503653 1 0 0
535 179 2 -1.1794 -8.916627302283405 0.07631732012913339 9.486132380004014 1 0 0
424 142 2 -1.1794 -7.827525874717644 -2.0055552776514816 6.990137731314297 1 0 0
528 176 1 0.5897 -12.087475930674902 0.6825416458697564 9.865519004021754 1 0 0
434 145 1 0.5897 -6.281791231070547 -0.7000696813141882 10.895578642781425 0 0 0
337 113 2 -1.1794 -6.217665240225875 0.25420746519990267 7.065078152121709 0 0 0
349 117 2 -1.1794 -7.062461478345497 -3.9786694093451462 10.77725042291111 0 0 0
631 211 2 -1.1794 -5.54158583112915 -5.481495546236314 6.304851473784145 1 1 0
415 139 2 -1.1794 -8.451559470594836 1.6406448765308568 6.285161070655248 1 0 0
329 110 1 0.5897 -3.3394690241930585 -1.2250746070585468 7.6718026730923246 0 0 0
454 152 2 -1.1794 -4.8323576137954065 1.2200384185508195 9.296727529577003 0 0 0
335 112 1 0.5897 -4.860554752108843 -5.409425959239067 9.527843855934528 0 0 0
433 145 2 -1.1794 -6.554267070046335 -1.2948015761347111 10.196812571258892 0 0 0
464 155 1 0.5897 -1.8133163364464657 -0.06551450969695338 10.141576006428675 0 0 0
522 174 1 0.5897 -9.725303156908442 2.252859029408489 7.552628983431756 1 0 0
555 185 1 0.5897 -2.581233161622433 -6.733354968766611 6.337377618732945 0 1 0
416 139 1 0.5897 -7.6319172593979285 1.2626754337619932 6.603767637921288 1 0 0
347 116 1 0.5897 -1.07703827419666 -5.46792042491696 8.798491566932759 0 0 0
348 116 1 0.5897 -1.3743578764741304 -6.445255191693594 9.915746648711997 0 0 0
336 112 1 0.5897 -3.383479819915194 -5.078689733592095 9.498989068783077 0 0 0
359 120 1 0.5897 -4.482548552484975 -3.113655359498704 8.737205489226486 0 0 0
346 116 2 -1.1794 -1.798535515833354 -5.914351038695339 9.241696466225847 0 0 0
632 211 1 0.5897 -4.741278900713671 -5.869614599463718 6.658475604970995 1 1 0
546 182 1 0.5897 -0.022135176189229 -7.313075742343085 6.612747336760446 0 1 0
553 185 2 -1.1794 -3.2423366609013433 -6.842509393100078 7.020949788426079 0 1 0
554 185 1 0.5897 -2.7757894559494902 -6.661966222905433 7.836937992202396 0 1 0
334 112 2 -1.1794 -4.2498663684472735 -4.672306140814149 9.5210126451149 0 0 0
442 148 2 -1.1794 -7.324292639878121 2.378194046286609 9.57848347272604 0 0 0
338 113 1 0.5897 -5.823643140343803 0.44391324170531377 7.916463805565053 0 0 0
627 209 1 0.5897 -10.263140008839862 -6.682078575834511 6.387012193454363 1 1 0
456 152 1 0.5897 -4.419875520948974 0.6174935862151258 9.915559091154837 0 0 0
360 120 1 0.5897 -5.314965185865141 -1.8618800070608188 8.916827365392521 0 0 0
328 110 2 -1.1794 -2.6382315272065746 -0.7262247160372759 7.252623196576132 0 0 0
339 113 1 0.5897 -5.502868958174901 0.36920207815491324 6.438901413065676 0 0 0
455 152 1 0.5897 -4.101246925774412 1.6073249661670683 8.815303792566993 0 0 0
411 137 1 0.5897 -13.280859343059324 0.44684808521327213 6.346942141853594 1 0 0
444 148 1 0.5897 -6.452175391812295 2.0021616460492684 9.458987740126073 0 0 0
358 120 2 -1.1794 -4.655153995756874 -2.256871739854276 8.346817324258495 0 0 0
443 148 1 0.5897 -7.914526268482115 1.624699321583945 9.564083818101286 0 0 0
356 119 1 0.5897 1.1156036839818526 -7.095190061583636 10.173555166873735 0 0 0
616 206 2 -1.1794 -7.309226667314911 -7.929606650077955 7.265891134148492 1 1 0
351 117 1 0.5897 -6.883064545551884 -3.0383597853011786 10.776606153726545 0 0 0
404 135 1 0.5897 -5.238086801366418 -3.78543369067374 5.754237608814939 1 0 0
626 209 1 0.5897 -10.532031426104897 -6.618171443132702 7.875388556498415 1 1 0
410 137 1 0.5897 -13.506772439982113 0.475510674397281 7.843529755193638 1 0 0
417 139 1 0.5897 -8.736069933733521 1.0460730090427255 5.591071188163522 1 0 0
633 211 1 0.5897 -5.811490454691861 -6.080612433812255 5.608839207262075 1 1 0
74 25 1 0.5897 -8.001945849675714 -3.1172220401518036 5.552103885319006 1 0 0
652 218 2 -1.1794 -5.655787087669256 -5.49018880876392 12.60832802921388 0 0 0
780 260 1 0.5897 -7.369550415703262 -4.0158654357960115 15.258786074546613 0 0 0
779 260 1 0.5897 -7.143451367382565 -2.9766114230053997 14.181445519516858 0 0 0
778 260 2 -1.1794 -7.832374264952621 -3.481773152554023 14.61329129013162 0 0 0
768 256 1 0.5897 -9.39923453455869 -2.6600656142252905 14.830693280677693 0 0 0
654 218 1 0.5897 -6.11481739834098 -4.94289172331755 11.971228478242509 0 0 0
653 218 1 0.5897 -6.353516533948767 -5.897162829542308 13.121966991995029 0 0 0
662 221 1 0.5897 -8.808968120142021 -4.193886437664176 13.199313975304214 0 0 0
661 221 2 -1.1794 -9.272318400696175 -4.368857645058779 12.380296589508196 0 0 0
663 221 1 0.5897 -8.617759888893644 -4.220280719682384 11.697859165454041 0 0 0
684 228 1 0.5897 -8.383035495058095 -6.487689152582422 14.396431864683894 0 0 0
682 228 2 -1.1794 -7.734611215734613 -6.871298989595413 13.805951854383402 0 0 0
758 253 1 0.5897 -9.387613617197594 -5.225861454283378 16.253630762058727 0 0 0
819 273 1 0.5897 -5.357050961415858 -0.5810833345845818 16.08985430299735 0 0 0
729 243 1 0.5897 -7.986425447771426 -7.129072506458067 12.037016193518097 1 0 0
727 243 2 -1.1794 -8.045303385260363 -7.377586298998207 11.114572339456357 1 0 0
766 256 2 -1.1794 -10.25625189531969 -2.242966187447669 14.919098777821915 0 0 0
806 269 1 0.5897 -4.1113254058912645 3.0226269958343046 13.269634858956824 0 0 0
767 256 1 0.5897 -10.881919227072276 -2.9648374981259167 14.857688548434636 0 0 0
790 264 2 -1.1794 -10.736676122529536 0.2723589971395075 13.759514906867556 0 0 0
762 254 1 0.5897 -9.123547755736682 2.2530599808870964 12.02656368417237 0 0 0
761 254 1 0.5897 -9.346382384563585 1.1864513559953256 13.077537910412136 0 0 0
924 308 1 0.5897 -2.745533113993364 3.1894386779833077 15.358941898890897 0 0 0
792 264 1 0.5897 -11.430801467271971 0.6378272778616889 14.308061138629354 0 0 0
836 279 1 0.5897 -11.259232812509408 -1.2315818301206418 11.189149069476462 1 0 0
760 254 2 -1.1794 -8.657111010637799 1.689550388335137 12.643846113744232 0 0 0
837 279 1 0.5897 -11.049915235972449 0.05003171622377067 11.967453815576185 1 0 0
791 264 1 0.5897 -10.587696238176779 -0.6045023688498468 14.11335887376658 0 0 0
769 257 2 -1.1794 -12.446554173861104 2.7734920648110073 12.379573667377382 0 0 0
788 263 1 0.5897 -4.941302894170668 -4.66883789969125 15.436731036043001 0 0 0
655 219 2 -1.1794 -0.3815125068367706 -7.385932810298895 11.115407001499168 0 0 0
896 299 1 0.5897 -8.020600340899964 2.4558909497854415 15.55115097019958 0 0 0
807 269 1 0.5897 -3.8818952439035606 2.8510050227314583 11.783174116442456 0 0 0
817 273 2 -1.1794 -5.488889671787483 -1.5273080058552235 16.150179559876207 0 0 0
771 257 1 0.5897 -11.788919908652549 2.906877997925875 11.696954635180301 0 0 0
897 299 1 0.5897 -7.784466170504578 2.4220320365256853 14.05624913591193 0 0 0
678 226 1 0.5897 -4.087733935360579 -6.290891802228429 12.381116070951359 0 0 0
802 268 2 -1.1794 -2.6206316783836527 -2.1896390695083756 14.997465086285949 0 0 0
816 272 1 0.5897 0.27322930384505284 -3.9282828731141333 15.376056155455661 0 0 0
888 296 1 0.5897 -10.51210728647282 3.187517832664291 15.290436439580459 0 0 0
667 223 2 -1.1794 -3.8358339599501843 -3.0599911831103332 11.747982755353084 0 0 0
789 263 1 0.5897 -4.640408438955103 -4.737174877038197 13.954686758023142 0 0 0
676 226 2 -1.1794 -3.213078700957329 -6.671215869890125 12.29990784110512 0 0 0
814 272 2 -1.1794 -0.1560223499965545 -3.448665382263391 14.667660110673614 0 0 0
785 262 1 0.5897 -5.5547288546945985 1.2070819549228613 12.389925819076353 0 0 0
657 219 1 0.5897 -0.3317336716850612 -7.087253222383707 12.023401184007653 0 0 0
803 268 1 0.5897 -3.2073520729892984 -2.9451813984224966 14.96210217906823 0 0 0
795 265 1 0.5897 -2.8140716445305394 -5.488338878169035 15.177310374748764 0 0 0
720 240 1 0.5897 -0.688691422721952 -6.416418133635976 14.393389549060338 0 0 0
804 268 1 0.5897 -1.7415093681190417 -2.5666573224627225 14.961993738576217 0 0 0
698 233 1 0.5897 -1.0863431210816952 -4.134889655288029 13.306690312484692 0 0 0
699 233 1 0.5897 -0.8818858865044685 -4.3026165305076844 11.816149448360324 0 0 0
697 233 2 -1.1794 -1.5447251120594494 -4.378484626399805 12.502539602009051 0 0 0
718 240 2 -1.1794 -0.04089642824344075 -6.827702438097257 13.821123270693894 0 0 0
677 226 1 0.5897 -2.6201089590146207 -5.921093605582712 12.34503520286403 0 0 0
668 223 1 0.5897 -3.0251680371078393 -3.432084231450446 12.095181198976102 0 0 0
793 265 2 -1.1794 -2.0297492678218365 -5.881905180440528 15.559560149753528 0 0 0
773 258 1 0.5897 -5.949310202406745 -1.1539033232083993 13.094500728400929 0 0 0
774 258 1 0.5897 -5.11365501862447 -2.4004255697465178 12.894535936643855 0 0 0
818 273 1 0.5897 -5.543211178143791 -1.8205708150827657 15.24068209251264 0 0 0
787 263 2 -1.1794 -4.259811323156808 -4.4754182898366555 14.79298430070547 0 0 0
901 301 2 -1.1794 -5.09169048185954 1.1625476260894327 15.555870741201058 0 0 0
772 258 2 -1.1794 -5.815715632556263 -2.038413057325415 13.435218867228386 0 0 0
827 276 1 0.5897 -2.9377258447380505 -0.6198895981004462 14.187574536305899 0 0 0
765 255 1 0.5897 -3.3201841652848865 -0.06546829745791705 11.985473279640914 0 0 0
784 262 2 -1.1794 -6.191761609516526 0.4978878620212974 12.302993456238877 0 0 0
828 276 1 0.5897 -3.756911394050949 0.642175647628088 14.355662381686187 0 0 0
826 276 2 -1.1794 -3.0897955232962957 0.24132151977772232 13.798387611580905 0 0 0
740 247 1 0.5897 -10.758415542961286 -3.3072173695041887 12.149834004874375 1 0 0
895 299 2 -1.1794 -7.3479225108070825 2.6082580510660165 14.887421643802531 0 0 0
903 301 1 0.5897 -5.88196979327669 1.5532312439467937 15.183046894096009 0 0 0
786 262 1 0.5897 -7.042816897884276 0.9286884140007672 12.38288280596782 0 0 0
805 269 2 -1.1794 -4.555884461361939 2.775903664090592 12.45870573579701 0 0 0
866 289 1 0.5897 -12.51843982642622 1.8184219172617695 16.1790008173624 0 0 0
770 257 1 0.5897 -11.980313127482107 2.9425322872171353 13.19819476510509 0 0 0
797 266 1 0.5897 -1.7066696516196007 1.0735606997186338 13.03965350955009 0 0 0
764 255 1 0.5897 -3.5106273404369004 -1.347727073694684 11.203393433276535 0 0 0
689 230 1 0.5897 1.3953154011572249 -5.912388556160002 13.177117326065586 0 0 0
835 279 2 -1.1794 -11.145668670060246 -0.2877159436292107 11.077002843962292 1 0 0
763 255 2 -1.1794 -3.3809710807346605 -0.4057395797169434 11.092909994659752 0 0 0
865 289 2 -1.1794 -12.744527846243766 1.2388823250981709 15.451515369987185 0 0 0
902 301 1 0.5897 -4.852740323728567 1.745717510160322 16.27630874943275 0 0 0
757 253 2 -1.1794 -9.631668246044464 -5.798949163918976 15.5268425401577 0 0 0
669 223 1 0.5897 -4.088387707614716 -3.6532616291653515 11.040544206544649 0 0 0
794 265 1 0.5897 -1.7999520985734492 -5.302100388924188 16.285670602778218 0 0 0
1101 367 1 0.5897 -10.132576639976262 -1.0667731628901223 16.309133439462222 0 0 0
1150 384 2 -1.1794 -6.103490035764738 -4.361739510458587 19.23630877137117 0 0 0
1152 384 1 0.5897 -6.796870900387699 -3.99823227065232 19.787094680091442 0 0 0
1227 409 1 0.5897 -8.93667203590003 -3.064106630841371 20.606890331610167 0 0 0
1109 370 1 0.5897 -8.686735598707147 -3.429724246187236 17.78272631633449 0 0 0
1089 363 1 0.5897 -6.378251257646768 -4.6575676370794366 17.402874246617493 0 0 0
1151 384 1 0.5897 -5.930599793812089 -5.226856283342453 19.607737287118127 0 0 0
1108 370 2 -1.1794 -9.285282692916784 -4.174161678893054 17.720402044342677 0 0 0
1225 409 2 -1.1794 -8.119414639700562 -3.4423975931000594 20.93119212930347 0 0 0
1196 399 1 0.5897 -9.668753857417764 1.2648614967898872 16.491994088126127 0 0 0
1233 411 1 0.5897 -1.7436259632308992 2.4841544708916317 17.50575728409384 0 0 0
1087 363 2 -1.1794 -6.42603205993456 -4.9651121822435575 16.497734748111498 0 0 0
1143 381 1 0.5897 -8.38586659466537 -5.176736563265443 21.515172050440633 0 0 0
1130 377 1 0.5897 -7.19216098441302 -1.7495264799824337 18.59476368625532 0 0 0
1248 416 1 0.5897 -5.767296438896844 -1.5792728969906946 20.670578885564794 0 0 0
1294 432 2 -1.1794 -1.4573542189352349 2.7799876549578926 19.255383801368765 0 0 0
1129 377 2 -1.1794 -7.653911378472218 -1.931285523138051 17.77632225533347 0 0 0
1218 406 1 0.5897 -13.236729759266023 3.393805725174335 17.763486000478565 0 0 0
1131 377 1 0.5897 -6.993899189867101 -1.803350136908766 17.09495616632435 0 0 0
1125 375 1 0.5897 1.3158091315317773 -4.613287268153957 17.453668580284912 0 0 0
1246 416 2 -1.1794 -6.243656057980339 -1.0564287609579885 20.02572200863098 0 0 0
1124 375 1 0.5897 1.2025950690131477 -5.850454017039058 16.58840538927865 0 0 0
1232 411 1 0.5897 -1.9521519148827782 1.2414888777188864 16.666483517106606 0 0 0
1217 406 1 0.5897 -11.749807090517647 3.6672806520357923 17.6844532397186 0 0 0
1121 374 1 0.5897 -4.789235967059257 -3.3688759033421523 18.52209458393765 0 0 0
1219 407 2 -1.1794 -10.392898569843005 -2.0075783824160442 20.23610079099985 0 0 0
1099 367 2 -1.1794 -9.914665839195413 -0.47826827772772873 17.03190510084896 0 0 0
1236 412 1 0.5897 -7.898060883373564 -0.21821011176578864 20.283078093692453 0 0 0
1009 337 2 -1.1794 -11.22571005098147 3.6645558419129163 20.890613039566276 0 -1 0
1100 367 1 0.5897 -9.120617342091448 -0.8517206483757711 17.414253442641908 0 0 0
1234 412 2 -1.1794 -8.739761286560896 0.2352360275493588 20.329904426377027 0 0 0
1259 420 1 0.5897 -9.068846342324472 1.8504951520638286 19.51187350047058 0 0 0
1258 420 2 -1.1794 -9.202439294662462 2.724405321142907 19.144830619187736 0 0 0
1260 420 1 0.5897 -9.886994328061725 3.111808417406275 19.690345162928566 0 0 0
1216 406 2 -1.1794 -12.392146190493376 2.958507315671671 17.647450285623613 0 0 0
1197 399 1 0.5897 -9.48197918480167 2.4584510148551892 17.404411579862014 0 0 0
1206 402 1 0.5897 -11.241227243692418 0.14677325068176827 18.244309772413608 0 0 0
1235 412 1 0.5897 -9.391843288188563 -0.4642789537408092 20.287565057072854 0 0 0
1123 375 2 -1.1794 1.287692619521735 -4.8981885488307615 16.540333239221567 0 0 0
1285 429 2 -1.1794 -3.8038601874763813 0.97197482105312 21.614855640847402 0 0 0
1110 370 1 0.5897 -10.157947041829035 -3.780837055585101 17.717835073756504 0 0 0
1272 424 1 0.5897 -0.0673041763111435 -0.10062250321272259 20.24540386121464 0 0 0
1142 381 1 0.5897 -8.50414041504062 -6.430613010692456 20.67499598187804 0 0 0
1187 396 1 0.5897 1.7220463995278 -5.236335923141334 19.594906975899896 0 0 0
1287 429 1 0.5897 -3.6755369030132403 1.917548826065886 21.53880637118909 0 0 0
1045 349 2 -1.1794 -3.3989824218542166 3.6359536175600375 21.070357030977696 0 -1 0
1186 396 2 -1.1794 1.6110616765193733 -4.366858571700812 19.210230870800466 0 0 0
1165 389 2 -1.1794 0.06826104040641212 -1.8596063145690476 17.809132371140528 0 0 0
1205 402 1 0.5897 -12.082310193631768 1.3851977001334426 18.47016635237938 0 0 0
1250 417 1 0.5897 -11.588991620349113 0.7535008056216181 20.651874741575114 0 0 0
1252 418 2 -1.1794 -4.643448087662964 2.8604279448407546 17.77054913654846 0 0 0
1240 414 2 -1.1794 -4.174440791439799 0.41368690830828037 18.935413138411008 0 0 0
1262 421 1 0.5897 -0.1594497852736101 -2.746797748430981 21.670316002667512 0 0 0
1295 432 1 0.5897 -1.2894708668016897 1.889841331421918 19.564822897133915 0 0 0
1247 416 1 0.5897 -5.5662588747527035 -0.5432174098094933 19.585222343784196 0 0 0
1204 402 2 -1.1794 -11.894774886020429 0.5205211410226909 18.8354651744462 0 0 0
1145 382 1 0.5897 -0.969314859080912 -3.3821646651877337 17.722278495364492 0 0 0
1122 374 1 0.5897 -4.479690661435119 -2.4151264391594918 17.387909849038344 0 0 0
1242 414 1 0.5897 -3.49854975262261 -0.007215052848884795 18.404095890973302 0 0 0
1270 424 2 -1.1794 -0.9461699663621914 0.2748136059630717 20.29928664633087 0 0 0
1271 424 1 0.5897 -1.5319638589484175 -0.48205228742047446 20.280953321406024 0 0 0
1144 382 2 -1.1794 -1.5832653439325988 -4.116291595843695 17.74364843426394 0 0 0
1263 421 1 0.5897 -1.215597696202627 -3.007168390281562 20.61752094613329 0 0 0
1133 378 1 0.5897 -1.238301171769173 -5.722526286222114 18.509948679763134 0 0 0
1188 396 1 0.5897 0.9341540579781782 -3.9522962392219405 19.745225106826993 0 0 0
1257 419 1 0.5897 -3.0709497624129014 -2.256875370409775 19.433063143463052 0 0 0
1255 419 2 -1.1794 -2.6269393271615558 -1.9821567112582752 20.23525068874506 0 0 0
1261 421 2 -1.1794 -0.3891980776459629 -3.3468494848811545 20.9608249304665 0 0 0
1256 419 1 0.5897 -3.2792092976864 -2.1056439895793826 20.924842307187163 0 0 0
1120 374 2 -1.1794 -4.06182973503741 -2.9441890783580362 18.067331391073665 0 0 0
1146 382 1 0.5897 -2.4441596306544895 -3.7067044665998257 17.829475658308297 0 0 0
1195 399 2 -1.1794 -9.55008208031837 2.214686562145385 16.481336143627388 0 0 0
1088 363 1 0.5897 -6.59508455911568 -5.904407671855161 16.571937484053542 0 0 0
1296 432 1 0.5897 -2.1479518031533953 3.108085348389178 19.8313204042178 0 0 0
1254 418 1 0.5897 -5.52021655472358 3.24352780453626 17.79822253228361 0 0 0
1135 379 2 -1.1794 -2.2168432439617316 -0.49042495478527215 17.140724097792123 0 0 0
1286 429 1 0.5897 -3.8759321416969827 0.6660252425453184 20.710786498098884 0 0 0
1136 379 1 0.5897 -1.40143473206237 -0.8732916321178585 17.464307759438114 0 0 0
1010 337 1 0.5897 -10.939876609583136 4.191616657015217 21.63673910160957 0 -1 0
1241 414 1 0.5897 -4.265529811022246 1.2889286515677405 18.558656772730693 0 0 0
1141 381 2 -1.1794 -8.502941792586512 -6.1244739034072335 21.58187333014839 0 0 0
1047 349 1 0.5897 -4.161644891672168 4.036868753934659 20.65349182061201 0 -1 0
1249 417 2 -1.1794 -11.535585882884519 1.0604051996496242 21.55691602632328 0 0 0
1178 393 1 0.5897 -0.862608194521636 -6.337124616922738 20.626044810981803 0 0 0
1097 366 1 0.5897 -9.002307778094936 -5.776592382834349 18.539181808723725 0 0 0
1179 393 1 0.5897 -0.6479577026626462 -5.106197089814234 21.48091719468477 0 0 0
1011 337 1 0.5897 -11.983979455784752 4.1334008088715475 20.542193058409524 0 -1 0
1253 418 1 0.5897 -4.051832599004809 3.611743714482536 17.813573806123706 0 0 0
1229 410 1 0.5897 -7.791231100941451 3.651182594417863 18.51223218898391 0 0 0
1251 417 1 0.5897 -11.422513101509715 2.008076280399383 21.482785244446227 0 0 0
1177 393 2 -1.1794 -0.786114530949968 -6.051812248459829 21.536472922147567 0 0 0
1231 411 2 -1.1794 -1.7764822438468872 2.1800617782413543 16.59878793394666 0 0 0
1096 366 2 -1.1794 -8.818833980156963 -6.637145406281106 18.916087386062188 0 0 0
1137 379 1 0.5897 -2.4919533233244646 -1.074139352481513 16.433751145883257 0 0 0
1132 378 2 -1.1794 -1.1076579388360663 -6.612642252946941 18.836941612799507 0 0 0
1226 409 1 0.5897 -7.835639641721106 -2.843903434124612 21.62220716112025 0 0 0
40 14 2 -1.1794 -15.044712516119638 3.820637749576033 1.8581570183883933 1 0 0
177 59 1 0.5897 -14.035225309076207 4.486999004335699 3.215259177500076 1 0 0
56 19 1 0.5897 -12.346751596471789 5.875351636608125 1.2831179854419632 1 0 0
66 22 1 0.5897 -13.475489096355417 2.965185370039354 1.5674421706948483 1 0 0
65 22 1 0.5897 -11.983030211769773 3.2164121698150243 1.5298140418497914 1 0 0
64 22 2 -1.1794 -12.634272532809065 2.51645091015528 1.4822354850667039 1 0 0
191 64 1 0.5897 -12.561346054086167 6.2583244051942994 4.079473998933111 1 0 0
183 61 1 0.5897 -12.104020914531649 3.7467308366088226 4.428798445408117 1 0 0
175 59 2 -1.1794 -13.613555619400131 4.685825437980526 4.051180160666593 1 0 0
176 59 1 0.5897 -14.303011212258308 4.561092537649124 4.7033633628052165 1 0 0
181 61 2 -1.1794 -11.278658379401957 3.3713499144788717 4.735476734980353 1 0 0
55 19 2 -1.1794 -13.137120588246605 6.290951527333384 0.9384779058280978 1 0 0
42 14 1 0.5897 -15.486192224690782 4.36600218298079 1.2071497872746444 1 0 0
108 36 1 0.5897 -10.010836600872627 2.7879430536066288 3.515890363530091 1 0 0
215 72 1 0.5897 -12.347571375203882 8.584172896488639 3.240710753798342 1 0 0
190 64 2 -1.1794 -11.989862052948837 7.026231586363014 4.071474953376024 1 0 0
135 45 1 0.5897 -6.938512772414144 8.69468028689153 5.224096424312062 0 0 0
153 51 1 0.5897 -12.623949413082714 9.246094638569254 1.1425366156963987 1 0 0
216 72 1 0.5897 -13.082008922929711 9.858474505234717 3.599754141124032 1 0 0
162 54 1 0.5897 -14.457486951103313 6.802314309191063 2.146885004142817 1 0 0
209 70 1 0.5897 -7.2789226382906165 10.386845978207937 1.5421597426875135 1 0 0
148 50 2 -1.1794 -18.083480234383565 10.844811691645752 1.9125276491638967 1 0 0
174 58 1 0.5897 -16.479313736446382 10.05327453268048 1.6173455456561279 1 0 0
214 72 2 -1.1794 -12.430632168580631 9.50527775970481 2.993755756398674 1 0 0
43 15 2 -1.1794 -9.769458521541573 1.8502165313962138 0.24449928624770953 1 0 0
206 69 1 0.5897 -14.882141596375963 7.494403066854453 4.498503886883452 1 0 0
160 54 2 -1.1794 -15.09017452393857 7.23780801362123 2.718141771632412 1 0 0
173 58 1 0.5897 -15.000595159368526 10.371053137367333 1.5511431781366325 1 0 0
85 29 2 -1.1794 -10.93597580808961 4.72813973287106 1.62083454170883 1 0 0
219 73 1 0.5897 -7.526225556607116 10.830079074451284 4.466431011884418 0 0 0
291 97 1 0.5897 -15.185272996724004 10.80248046953762 4.412227479513185 1 0 0
161 54 1 0.5897 -15.211066324286517 8.10302650411749 2.326907035870292 1 0 0
172 58 2 -1.1794 -15.620807714133221 9.642873610211836 1.513417106619792 1 0 0
289 97 2 -1.1794 -14.370218620796656 10.43611342932578 4.755215994822737 1 0 0
283 95 2 -1.1794 -16.630811766276526 11.851740465445634 4.049186462429645 1 0 0
285 95 1 0.5897 -17.040592639774847 11.607226160755285 3.2194860648692263 1 0 0