LAMMPS data file via write_data, version 30 Jul 2021, timestep = 27500000

972 atoms
2 atom types
648 bonds
1 bond types
324 angles
1 angle types

-0.03068097257627045 20.030681972550795 xlo xhi
0.02589646493673392 19.974104535057027 ylo yhi
-0.04263371492677592 20.742631714921558 zlo zhi

Masses

1 1.008
2 15.999

Pair Coeffs # lj/cut/tip4p/long/omp

1 0 0
2 0.21084 3.1668

Bond Coeffs # harmonic/omp

1 450 0.9572

Angle Coeffs # harmonic/omp

1 55 104.52

Atoms # full

10 4 2 -1.1794 1.201035538949953 4.29635080559142 3.8465403268210463 0 0 0
11 4 1 0.5897 1.0379389346995809 3.5843283883653156 3.2279846975012125 0 0 0
12 4 1 0.5897 2.1546521199543927 4.337549304284144 3.9190872345401635 0 0 0
33 11 1 0.5897 1.611922067132061 2.419036689535543 1.2321661677093851 0 0 0
31 11 2 -1.1794 1.0262610575655948 2.2669973216650106 1.9738869405257162 0 0 0
18 6 1 0.5897 4.008299101374616 3.2640968200985156 3.41392318648451 0 0 0
4 2 2 -1.1794 4.017700800655457 1.533275447119628 3.2958874104991294 0 0 0
16 6 2 -1.1794 4.094993831218264 4.172552491997631 3.702706136225787 0 0 0
23 8 1 0.5897 2.658838400418054 1.016666742457357 4.29809637137985 0 0 0
17 6 1 0.5897 4.317392940202706 4.656925390124146 2.90763327513514 0 0 0
13 5 2 -1.1794 4.584347729896101 5.7568140947688775 1.548915832700119 0 0 0
20 7 1 0.5897 0.7158843342682536 5.682968476024937 2.660947001096726 0 0 0
114 38 1 0.5897 3.298642418794813 7.6593876256595275 3.8773815333224455 0 0 0
5 2 1 0.5897 4.099823889776448 0.9287496112119538 2.55830986293451 0 0 0
139 47 2 -1.1794 1.021809523495701 8.97651496925193 1.8867103254874742 0 0 0
132 44 1 0.5897 1.055405242957255 7.656385966207922 5.058726088837038 0 0 0
126 42 1 0.5897 4.162775616925201 9.561485741692973 3.2651104789001013 0 0 0
32 11 1 0.5897 0.146412512182728 2.3393365429648596 1.6037930697259073 0 0 0
112 38 2 -1.1794 4.069416742156971 7.7630695545255275 3.3192887348746156 0 0 0
6 2 1 0.5897 4.768773047652823 1.333488172028999 3.854695030010078 0 0 0
141 47 1 0.5897 0.979816766214606 8.060878749260993 2.162416200500771 0 0 0
140 47 1 0.5897 1.1334974544498777 9.467381956695307 2.7008208765844435 0 0 0
19 7 2 -1.1794 0.6758213040116544 6.272807020848251 1.908152212533572 0 0 0
15 5 1 0.5897 4.3050515676845365 6.449416275716662 2.1476722095276894 0 0 0
674 225 1 0.5897 1.740642803395318 5.721189079797197 0.4883259605406871 0 0 1
110 37 1 0.5897 2.0752128207761906 9.38702714553216 0.4354734410679494 0 0 0
14 5 1 0.5897 3.883062324416229 5.703748839741638 0.8995570976076881 0 0 0
111 37 1 0.5897 3.543525533155283 9.38996336488201 0.06639925290562741 0 0 0
3 1 1 0.5897 3.4701459812635864 2.7539326506562665 0.10233349468393105 0 0 0
236 79 1 0.5897 0.8493727784447473 0.4025112554964842 2.176339002286378 0 1 0
113 38 1 0.5897 4.8115605286626995 7.697353819737553 3.920293206856203 0 0 0
102 34 1 0.5897 0.12110124254440116 0.9167961904337074 5.0654488901975965 1 0 0
22 8 2 -1.1794 1.995990588931941 0.7818540861998439 4.947543645056105 0 0 0
325 109 2 -1.1794 2.5465271488680323 2.5813123058306293 6.892473638955413 0 0 0
326 109 1 0.5897 2.303367582859499 1.9615876162200732 6.2047047456473505 0 0 0
327 109 1 0.5897 3.4563167991111152 2.366441692003045 7.098477424356464 0 0 0
355 119 2 -1.1794 0.933862364154246 1.9493877951237424 8.944366127955202 0 0 0
356 119 1 0.5897 1.5913014230349933 2.1586104895162577 8.280830644793248 0 0 0
27 9 1 0.5897 2.3700833812085564 4.365063500478321 6.595759004836888 0 0 0
329 110 1 0.5897 4.273799445569971 0.7370535694674389 9.464612863091581 0 0 0
436 146 2 -1.1794 4.300963824260477 8.143910303679183 10.216065891004162 0 0 0
337 113 2 -1.1794 4.179985325762937 6.026211283525275 8.49568648037442 0 0 0
465 155 1 0.5897 0.10634344123209116 8.663256226394065 8.571056722191624 0 0 0
25 9 2 -1.1794 2.2268897081376697 5.303586369469683 6.717715615849817 0 0 0
342 114 1 0.5897 4.0019681076067695 4.829829141965432 9.776173873453281 0 0 0
335 112 1 0.5897 1.1558645548058482 3.147505797723931 10.108597899109409 0 0 0
26 9 1 0.5897 1.5844022974161398 5.358404480170723 7.425167396855423 0 0 0
435 145 1 0.5897 2.470073750324828 8.645964117070081 6.429475192868878 0 0 0
433 145 2 -1.1794 2.683984862891409 9.22301447752344 7.162598865012343 0 0 0
345 115 1 0.5897 0.6710755070843689 6.741381083303621 9.009593201396493 0 0 0
339 113 1 0.5897 3.6811831448601824 5.828587772626137 7.702967919341647 0 0 0
468 156 1 0.5897 4.489179441741756 9.104648030139327 7.149649954007132 0 0 0
437 146 1 0.5897 4.316135040566419 7.5006996394932255 9.507361919903406 0 0 0
463 155 2 -1.1794 0.8866105028382226 8.481957125383177 9.095084576079351 0 0 0
464 155 1 0.5897 1.6185495081806949 8.722086329445563 8.526837612316907 0 0 0
343 115 2 -1.1794 0.4380792307776833 5.851964699972636 8.743411741900125 0 0 0
344 115 1 0.5897 0.5736253951002915 5.322938075297696 9.529526853693781 0 0 0
328 110 2 -1.1794 4.141175878277008 1.427529853271104 10.114127824609783 0 0 0
131 44 1 0.5897 2.0649530230877304 6.672059264922554 5.610005017229676 0 0 0
438 146 1 0.5897 4.128295709654571 8.978031482130763 9.779443082889383 0 0 0
561 187 1 0.5897 0.8008525330643992 0.26016671773715405 8.681089551410816 0 1 0
357 119 1 0.5897 0.09563816696642391 2.108577689274287 8.510360372813233 0 0 0
341 114 1 0.5897 3.936759970793874 3.3616488210706277 10.139483264526378 0 0 0
443 148 1 0.5897 0.9213559916862634 9.874186135667124 10.342689431646784 0 0 0
130 44 2 -1.1794 1.9961597944840954 7.5203593243872415 5.171988458144585 0 0 0
649 217 2 -1.1794 2.6918620783511122 2.5361275831929477 13.6874185174244 0 0 0
650 217 1 0.5897 2.466703917929712 1.8168674394346265 13.097348388585095 0 0 0
651 217 1 0.5897 2.0731016041979116 2.4538183327851546 14.413117615518736 0 0 0
348 116 1 0.5897 2.6764908275372825 0.7383608987039393 10.968842447933813 0 0 0
346 116 2 -1.1794 2.1449136940567364 0.5361296216429654 11.738768382268342 0 0 0
350 117 1 0.5897 2.587025204527768 4.50914065987738 13.075159105467545 0 0 0
347 116 1 0.5897 1.273083579323346 0.8667292126210228 11.522112378408814 0 0 0
683 228 1 0.5897 4.461140939791743 2.461893501257793 14.212247287749282 0 0 0
336 112 1 0.5897 2.1793030206213184 4.066416848065626 10.741174364491226 0 0 0
334 112 2 -1.1794 1.2471624744373957 3.8489193463283526 10.75349100893904 0 0 0
330 110 1 0.5897 4.649789105779837 1.143455932147801 10.873639832258947 0 0 0
533 178 1 0.5897 0.387684534611724 7.591552957590372 11.87729611804173 1 0 0
757 253 2 -1.1794 2.7663927662730226 9.305665725090435 14.200769065027416 0 0 0
759 253 1 0.5897 2.657612724390586 8.692654376503118 13.473721427430792 0 0 0
792 264 1 0.5897 4.685765828339721 9.113252068150615 14.316991326600817 0 0 0
349 117 2 -1.1794 2.609264752776164 5.416125870428837 13.38025025115303 0 0 0
455 152 1 0.5897 2.8517043097806716 7.905856294472175 11.287853200974983 0 0 0
668 223 1 0.5897 1.3688329623591755 5.520763282485748 14.72302766832873 0 0 0
351 117 1 0.5897 3.32678482251553 5.438805359983834 14.01345084586515 0 0 0
456 152 1 0.5897 2.5043538468177085 6.855715429351207 12.3214973445334 0 0 0
454 152 2 -1.1794 2.2251573175989967 7.70664249126686 11.98357909424644 0 0 0
680 227 1 0.5897 0.2115308949197958 2.245667135375181 15.20827265009899 0 0 0
789 263 1 0.5897 1.4430714531164155 8.671943594809038 15.209922562823483 0 0 0
661 221 2 -1.1794 4.459784144866526 5.653518586447482 15.396914425747461 0 0 0
667 223 2 -1.1794 0.7069582033132857 5.648972332959274 15.402555019292905 0 0 0
340 114 2 -1.1794 3.921881905108568 4.237993162530483 10.524186787016363 0 0 0
653 218 1 0.5897 3.1397341390583295 0.9627278949865726 17.51927262183271 0 0 0
652 218 2 -1.1794 4.053668621038807 1.0207416090853378 17.2405811815336 0 0 0
664 222 2 -1.1794 3.9952203857133624 3.7744456379441744 17.28953242193421 0 0 0
671 224 1 0.5897 1.9246294598667268 1.720173514633025 19.24120784076311 0 0 0
666 222 1 0.5897 4.122417051080782 2.833065247989933 17.17201180299196 0 0 0
670 224 2 -1.1794 1.701198472993943 1.0030120848906874 18.64794128255157 0 0 0
665 222 1 0.5897 3.0937809741779736 3.857840869882249 17.600624890101848 0 0 0
681 227 1 0.5897 1.0279444524613754 2.5838217203749094 16.437531042054296 0 0 0
672 224 1 0.5897 0.7453540585322574 0.95839025103942 18.674633390674828 0 0 0
658 220 2 -1.1794 1.3531132222228508 4.20202504082465 17.63238108992699 0 0 0
659 220 1 0.5897 0.6948503650560707 4.411930063597004 18.294887171629046 0 0 0
654 218 1 0.5897 4.1047517688119 0.45947052252861387 16.46690648552828 0 0 0
663 221 1 0.5897 4.321456729199933 6.512832115631542 15.795227814836254 0 0 0
660 220 1 0.5897 1.1719442697316345 4.807782519490567 16.91373289265794 0 0 0
762 254 1 0.5897 4.81481177498927 7.5779814931898235 17.686992553647155 0 0 0
787 263 2 -1.1794 0.838720356020581 8.377865006988575 15.891492862030253 0 0 0
662 221 1 0.5897 4.340988252927513 5.0335654083253285 16.116467782194416 0 0 0
858 286 1 0.5897 0.20015589209499093 7.398092231240224 18.70057502383788 1 0 0
788 263 1 0.5897 0.9630517070360058 9.000787142374179 16.607539864695326 0 0 0
761 254 1 0.5897 4.10542269179503 8.751597010069084 17.04566127871667 0 0 0
778 260 2 -1.1794 1.9572963069625993 7.6099060441563955 18.697199569603125 0 0 0
675 225 1 0.5897 2.249484947230296 6.363343648586125 20.00056625837576 0 0 0
779 260 1 0.5897 2.1181246543926933 8.424449900504964 19.173498725023457 0 0 0
760 254 2 -1.1794 4.169788097724145 7.797098682092282 17.014526748929423 0 0 0
780 260 1 0.5897 2.568990466292562 7.637368075634205 17.96143232915314 0 0 0
656 219 1 0.5897 4.836191364495702 4.401921660590853 18.76757817951107 0 0 0
669 223 1 0.5897 0.7382274727709681 6.5862498343474405 15.594208774735394 0 0 0
679 227 2 -1.1794 0.9515153028204004 1.940284799405515 15.733097139551901 0 0 0
884 295 1 0.5897 0.715474961371167 0.10088308234773204 15.859273068616401 0 1 0
109 37 2 -1.1794 2.6733746830134284 9.572050304170407 20.49669221753236 0 0 -1
1 1 2 -1.1794 2.5726309561855993 2.9365711205699143 20.60930378601491 0 0 -1
673 225 2 -1.1794 2.470785304680767 5.700719643551861 20.654916815203062 0 0 0
2 1 1 0.5897 2.513085599939341 3.8918781629260355 20.602837679607074 0 0 -1
120 40 1 0.5897 1.1650577702356397 11.413051568599563 3.0590114417513647 0 0 0
129 43 1 0.5897 0.9342753384691335 13.463104463159915 1.8993679449463257 0 0 0
118 40 2 -1.1794 1.300350461297117 10.802110399876533 3.783348978711683 0 0 0
119 40 1 0.5897 2.2516135773407733 10.739935251897954 3.8703853031504956 0 0 0
240 80 1 0.5897 2.596086828331927 14.295046191249464 4.451945854750018 0 0 0
127 43 2 -1.1794 0.7510359553948514 12.531964421944595 1.7744528518549179 0 0 0
123 41 1 0.5897 4.1126265111952165 12.53189406941049 1.0265810167643326 0 0 0
222 74 1 0.5897 4.178708755096686 14.023169014466925 2.7712640739421692 0 0 0
124 42 2 -1.1794 4.089128887465651 10.507029404274485 3.3943625598937412 0 0 0
220 74 2 -1.1794 4.0449985335506 14.61107243383063 3.5146952049596996 0 0 0
783 261 1 0.5897 2.037057717640997 12.303498081602863 0.6322409530884855 0 0 1
229 77 2 -1.1794 4.424015159525269 19.316632032809466 1.6201310541578473 0 0 0
248 83 1 0.5897 1.1243507245695226 16.01779979013117 2.72400066643443 0 0 0
890 297 1 0.5897 1.7392853112687798 19.185349178122216 0.3086128881488003 0 0 1
247 83 2 -1.1794 1.1927412357892606 15.293838171232313 2.101579404316021 0 0 0
221 74 1 0.5897 3.921568334164315 15.473919552331546 3.1191372756725326 0 0 0
228 76 1 0.5897 0.5960132505805433 17.648512013819982 4.554816280516697 0 0 0
122 41 1 0.5897 4.509943090497361 11.869568289418538 2.3286346988924134 0 0 0
232 78 2 -1.1794 3.9462018315697796 17.364890829110294 3.5397543997876446 0 0 0
226 76 2 -1.1794 1.1926647722934822 17.511440868901197 3.818955309839634 0 0 0
233 78 1 0.5897 4.238470850534899 18.040570245009867 2.927994714980247 0 0 0
227 76 1 0.5897 1.0130307807354733 18.240522674405618 3.2253354510248893 0 0 0
234 78 1 0.5897 3.0140557528463052 17.54237316313295 3.6660196528651694 0 0 0
235 79 2 -1.1794 0.6190751665718729 19.458722107080227 1.9165343170209472 0 0 0
230 77 1 0.5897 3.985378544127725 19.16163922030146 0.7835756470290551 0 0 0
249 83 1 0.5897 1.584215790177839 15.68497956587111 1.3205589841692769 0 0 0
121 41 2 -1.1794 4.709950175042722 12.62016460758186 1.7693323106563623 0 0 0
125 42 1 0.5897 4.616055392921082 10.684490359113452 4.173527889712064 0 0 0
317 106 1 0.5897 0.0396813281409126 14.08922193505056 4.659881370739181 1 0 0
238 80 2 -1.1794 1.9396337086047921 14.177795823133657 5.138683141142998 0 0 0
188 63 1 0.5897 0.06885068632262303 11.078100304299916 5.019519530559868 1 0 0
219 73 1 0.5897 3.373358330737274 16.181957480568492 0.07030204207566015 0 0 0
133 45 2 -1.1794 2.4103849835722633 11.949762917683593 6.734830194919556 0 0 0
134 45 1 0.5897 1.7023369713204162 12.04681993168872 7.3716513617915576 0 0 0
135 45 1 0.5897 3.1998948616858423 12.203024734275829 7.213192117048797 0 0 0
453 151 1 0.5897 0.6101262725653522 11.792610543121882 9.400536333092232 0 0 0
451 151 2 -1.1794 0.44844015900841666 12.346382955651904 8.636725874198484 0 0 0
450 150 1 0.5897 4.274969494182618 11.495554260909762 9.774089247874343 0 0 0
446 149 1 0.5897 4.460337610936714 13.3619121080743 8.771756853701902 0 0 0
558 186 1 0.5897 4.208895049787782 17.798377363701178 10.034311259860885 0 0 0
555 185 1 0.5897 4.0458920904828215 18.931826985036132 7.828628438149718 0 0 0
573 191 1 0.5897 0.4881876044911502 14.257482888299329 8.965376651257342 0 0 0
239 80 1 0.5897 2.121665776086709 13.309894805537146 5.498977746761984 0 0 0
445 149 2 -1.1794 4.67322791018051 12.56302796703213 8.28939212837368 0 0 0
571 191 2 -1.1794 0.4828927380310465 15.208207800814897 8.85454817361354 0 0 0
572 191 1 0.5897 0.7417644620640159 15.550973012982615 9.709953739233605 0 0 0
553 185 2 -1.1794 4.467999388289685 19.033488691358976 8.681704168924627 0 0 0
241 81 2 -1.1794 2.7189182602450424 18.518857515407966 6.607185962357675 0 0 0
542 181 1 0.5897 1.9813213280719948 15.672164417582108 7.796038765098083 0 0 0
576 192 1 0.5897 4.511576531972943 15.529442368252484 7.297552486167866 0 0 0
541 181 2 -1.1794 2.654975266436847 15.881008012648607 7.148843297627176 0 0 0
559 187 2 -1.1794 0.7776455984689045 19.27023606194838 8.492528105999233 0 0 0
242 81 1 0.5897 2.6446676507675746 17.565202537933928 6.572103614578083 0 0 0
543 181 1 0.5897 2.473452948766448 15.293399044811233 6.415367882300096 0 0 0
243 81 1 0.5897 2.0720491076445686 18.786062750119505 7.26021383870035 0 0 0
544 182 2 -1.1794 4.0316890630552935 14.601833310294484 10.277037034959381 0 0 0
551 184 1 0.5897 1.0182221553657083 18.13430997268344 9.891217846323244 0 0 0
434 145 1 0.5897 2.425721620481293 10.095236142956638 6.864719708720965 0 0 0
24 8 1 0.5897 2.337085553913605 19.938059511444777 5.3629651711473425 0 -1 0
457 153 2 -1.1794 2.6078591080885185 11.896913218956694 13.445497228138075 0 0 0
458 153 1 0.5897 1.8247945160719385 12.008727534259394 13.984564617617847 0 0 0
459 153 1 0.5897 3.3231808401476552 12.225425776507763 13.99017791790543 0 0 0
562 188 2 -1.1794 1.9261280829726342 13.970550036009277 11.835853562818675 0 0 0
563 188 1 0.5897 2.0974068929889436 13.121382712432412 12.243025281334129 0 0 0
556 186 2 -1.1794 3.8765253443849055 17.33451603798541 10.802816184505447 0 0 0
557 186 1 0.5897 4.0163190975820955 16.408842438777604 10.603442792205197 0 0 0
885 295 1 0.5897 1.175326224153147 18.986417255936267 14.8840076836583 0 0 0
642 214 1 0.5897 0.14779832250108993 14.126335353900092 11.989884452965633 1 0 0
564 188 1 0.5897 2.359590547162343 14.603149724325148 12.408713542589421 0 0 0
442 148 2 -1.1794 1.0629775555133358 10.751498712553978 10.698296952666036 0 0 0
769 257 2 -1.1794 4.567255790192363 12.751112041048652 15.162705869215863 0 0 0
449 150 1 0.5897 4.391448317492686 10.841525855498228 11.134436843092843 0 0 0
550 184 2 -1.1794 1.1478191244041394 17.42446147505177 10.520124430364604 0 0 0
552 184 1 0.5897 2.0891245842763415 17.42686818170725 10.694142679353503 0 0 0
444 148 1 0.5897 2.00484800203586 10.897412985400084 10.60925589330812 0 0 0
879 293 1 0.5897 3.7499956301383843 18.727443592518895 14.677831262786597 0 0 0
865 289 2 -1.1794 2.8908963818627673 15.83461315172745 13.658595873192615 0 0 0
867 289 1 0.5897 2.218990072551635 15.704561733142482 14.32786014628766 0 0 0
565 189 2 -1.1794 2.4379356241515877 18.521884419709103 13.610021476093033 0 0 0
567 189 1 0.5897 2.269285191950386 19.044531639298683 12.826045645609122 0 0 0
866 289 1 0.5897 3.7193839790601375 15.73487811423271 14.127620518966241 0 0 0
566 189 1 0.5897 2.6662534667484667 17.65453499141428 13.275682241217797 0 0 0
758 253 1 0.5897 2.711910126134826 10.170987102130988 13.795253362491756 0 0 0
545 182 1 0.5897 3.2762714195345715 14.26689659037754 10.760215245954907 0 0 0
896 299 1 0.5897 0.2517411793387261 15.499318604165897 15.192988436107663 0 0 0
775 259 2 -1.1794 0.7417050448554416 12.430483425391001 15.482544400887052 0 0 0
546 182 1 0.5897 4.784819681032038 14.378302944715706 10.823965239990558 0 0 0
512 171 1 0.5897 0.05634113100955673 11.358348743275581 12.105284602685051 1 0 0
877 293 2 -1.1794 4.456552502140255 18.958918653770425 15.280719730436859 0 0 0
448 150 2 -1.1794 3.813931850112459 10.909300964608356 10.374083046436605 0 0 0
768 256 1 0.5897 1.30576463791936 11.353609380385034 16.723348751721854 0 0 0
888 296 1 0.5897 2.3165595132540013 13.587669104289951 19.563786036801226 0 0 0
766 256 2 -1.1794 1.4399114421371828 10.722414092205806 17.430324553179474 0 0 0
773 258 1 0.5897 3.296800621619356 10.65265361791827 17.35496738345049 0 0 0
886 296 2 -1.1794 2.007297474100954 14.313168646815129 19.02135475565641 0 0 0
774 258 1 0.5897 4.376737953723688 11.190054290266238 16.440104851567998 0 0 0
772 258 2 -1.1794 4.239772033789944 10.616634801061977 17.1941871996833 0 0 0
869 290 1 0.5897 3.1195935958523413 14.579663193413388 17.448691129072717 0 0 0
767 256 1 0.5897 0.7326086814166879 10.90202584256684 18.04980415036845 0 0 0
777 259 1 0.5897 0.9861770466303588 13.34182784981092 15.643457330988447 0 0 0
965 322 1 0.5897 0.17940616868123058 14.084413213957076 18.925876520587504 1 0 0
895 299 2 -1.1794 1.0167568565557084 15.222467844591621 15.697378236262924 0 0 0
891 297 1 0.5897 2.252217990336391 19.74934156806004 19.785937908952405 0 0 0
881 294 1 0.5897 3.327399765764781 17.33500676834651 17.799527318911952 0 0 0
882 294 1 0.5897 4.315868145048235 16.42016115425026 17.10817001011461 0 0 0
887 296 1 0.5897 2.119285806344926 15.0886187950122 19.571213272552463 0 0 0
868 290 2 -1.1794 3.9230541519774342 14.70585799971038 16.94387241224004 0 0 0
876 292 1 0.5897 0.9620715507546176 18.04367302749509 16.877147711156567 0 0 0
897 299 1 0.5897 1.1227760254969574 15.900751857327464 16.364361704998807 0 0 0
874 292 2 -1.1794 1.3328994787976665 17.460761415311346 17.539668741027604 0 0 0
878 293 1 0.5897 4.411466254277653 18.29553252740869 15.969260942502373 0 0 0
782 261 1 0.5897 2.7447996800460905 11.37514409074391 20.453589223460323 0 0 0
880 294 2 -1.1794 4.232275068290546 17.293934198643377 17.489924679768876 0 0 0
875 292 1 0.5897 0.684714217756648 17.454912509943917 18.244011917155603 0 0 0
889 297 2 -1.1794 2.4524297355521094 19.10090074256874 20.46095839078636 0 0 0
870 290 1 0.5897 4.623957900255508 14.433316733106404 17.536095645024453 0 0 0
218 73 1 0.5897 2.5325078385232582 17.334445333984675 20.34893270551606 0 0 -1
883 295 2 -1.1794 0.5323237186361945 19.15428455308222 15.572956341973425 0 0 0
217 73 2 -1.1794 2.4679450467338384 16.439021137350643 20.68097181939227 0 0 -1
781 261 2 -1.1794 2.697673546338255 12.291852076890153 20.724897705291696 0 0 0
771 257 1 0.5897 4.29742223302121 13.483187172734114 15.717184888721441 0 0 0
166 56 2 -1.1794 8.880705751052533 7.483072920504493 4.801384596186433 0 0 0
34 12 2 -1.1794 5.19732405926153 2.4965938872550586 0.4744869939518458 0 0 0
177 59 1 0.5897 8.236286048174545 9.013493071757358 1.3728785078258392 0 0 0
48 16 1 0.5897 7.001323612205436 4.374911085049754 4.594222778576667 0 0 0
67 23 2 -1.1794 7.378280623255978 2.36269004101905 2.074870805129279 0 0 0
68 23 1 0.5897 8.119028353668792 2.3841039716111845 1.4689695971478378 0 0 0
47 16 1 0.5897 7.438244672734624 3.5125556359286327 3.429176781784666 0 0 0
69 23 1 0.5897 6.605936274333647 2.4138273414527993 1.5116968306172627 0 0 0
46 16 2 -1.1794 7.705362469052917 4.266624712010733 3.9547700215444577 0 0 0
37 13 2 -1.1794 9.216928287655898 2.367507471015657 0.15464956870903132 0 0 0
56 19 1 0.5897 6.4283146831437294 5.938193611789164 1.7905153188288103 0 0 0
711 237 1 0.5897 8.441614786075759 5.215335048060516 0.7226438121180618 0 0 1
143 48 1 0.5897 6.10454129550029 9.021059421584614 0.9474567327882519 0 0 0
57 19 1 0.5897 7.508606934199196 5.595052569278869 2.7941283100226184 0 0 0
176 59 1 0.5897 7.578268730443602 7.879308718443745 2.129543657581164 0 0 0
55 19 2 -1.1794 7.3649490772957575 6.0408879666262 1.9593920383666883 0 0 0
9 3 1 0.5897 5.125633837343659 4.609324000550082 5.068956355059975 0 0 0
175 59 2 -1.1794 7.5777489090271235 8.832625650043536 2.043613869151622 0 0 0
58 20 2 -1.1794 8.77516618195617 0.7193932138560244 4.872891394324316 0 0 0
273 91 1 0.5897 7.273232768481881 0.5396543284938489 2.046438910258918 0 1 0
142 48 2 -1.1794 5.431382578746726 9.144878646321413 0.2782733535602954 0 0 0
53 18 1 0.5897 9.571421592807308 4.054886164194735 3.9939035039234714 0 0 0
29 10 1 0.5897 6.934099178234447 0.7977303541502032 4.806650871942281 0 0 0
28 10 2 -1.1794 5.990779263585216 0.7684980294655015 4.9667787104926475 0 0 0
138 46 1 0.5897 7.076004764930754 7.504738525988405 4.871347705985054 0 0 0
136 46 2 -1.1794 6.1542395072533616 7.438574116961768 5.120972844354233 0 0 0
62 21 1 0.5897 8.266612978033857 5.600658283094027 7.346579653050586 0 0 0
137 46 1 0.5897 6.073205775727116 6.568383674291657 5.511367434223468 0 0 0
359 120 1 0.5897 5.809259289666002 2.15139014110418 7.799344693653492 0 0 0
338 113 1 0.5897 5.095969966720725 5.964702151955625 8.224517473002717 0 0 0
8 3 1 0.5897 5.658054300514683 4.009655876940763 6.353022631154554 0 0 0
392 131 1 0.5897 7.946515245372202 2.1240956031427474 8.034349488958062 0 0 0
361 121 2 -1.1794 9.162180737345102 2.6830318849107906 6.817533994402671 0 0 0
393 131 1 0.5897 7.241401790429053 1.053944409181805 8.840247959556281 0 0 0
362 121 1 0.5897 9.008340195806053 3.627611527292671 6.800053965429206 0 0 0
391 131 2 -1.1794 7.2713109497221815 2.000538658972971 8.701518626616094 0 0 0
360 120 1 0.5897 5.458703623132463 1.7123725151176046 6.393549088339794 0 0 0
466 156 2 -1.1794 5.446276018008474 9.111192820155381 7.133031004586031 0 0 0
358 120 2 -1.1794 5.193167186613472 2.317685529821449 7.08587277070605 0 0 0
381 127 1 0.5897 7.227790854999546 5.48601724114033 9.382306114269431 0 0 0
379 127 2 -1.1794 6.999451097267848 5.950219562397906 8.576945277725326 0 0 0
470 157 1 0.5897 8.863215424943178 8.88526625703178 7.86912660747577 0 0 0
59 20 1 0.5897 8.835748206713806 1.518578797738685 5.396164625622092 0 0 0
500 167 1 0.5897 7.698646624630946 9.34200426441405 9.708651928001768 0 0 0
467 156 1 0.5897 5.680896147592356 8.39767985085338 6.539675201098733 0 0 0
167 56 1 0.5897 8.89929406114161 6.602115857724486 5.175241498295684 0 0 0
469 157 2 -1.1794 9.334112634626809 9.020227003608094 7.046753572023358 0 0 0
61 21 2 -1.1794 9.01248713204382 5.485056241542662 6.757853164082302 0 0 0
380 127 1 0.5897 7.201178726515375 6.867206609358575 8.76308358935218 0 0 0
499 167 2 -1.1794 7.609769569378244 8.645573959142776 9.058042375695235 0 0 0
168 56 1 0.5897 9.18425622561853 8.050814595149486 5.509723442712498 0 0 0
501 167 1 0.5897 6.881149678901343 8.92608314620063 8.504213048680077 0 0 0
371 124 1 0.5897 7.515035901023426 3.2272653866149894 10.042879893950504 0 0 0
7 3 2 -1.1794 5.758025878146086 4.762904727739373 5.770932808415348 0 0 0
63 21 1 0.5897 9.758884521745845 5.834871163101756 7.244475666402493 0 0 0
377 126 1 0.5897 9.636332941452725 4.125620937226886 10.321068406387713 0 0 0
462 154 1 0.5897 5.536974254441422 7.545477723449234 11.247984503869057 0 0 0
461 154 1 0.5897 5.927084423521299 7.91452441983769 12.663439331785064 0 0 0
331 111 2 -1.1794 5.863558716051408 4.544563714305998 12.356231130098735 0 0 0
383 128 1 0.5897 8.82516904507577 1.3198927978581434 12.686794680200757 0 0 0
352 118 2 -1.1794 5.698439073522008 0.6646185614138586 12.224671424666719 0 0 0
685 229 2 -1.1794 9.241142368882697 2.6817400486112803 13.834158063430522 0 0 0
372 124 1 0.5897 7.25227826808073 4.069322927986569 11.273233339532931 0 0 0
684 228 1 0.5897 5.570506539802888 3.317938873739521 13.639071853202536 0 0 0
382 128 2 -1.1794 8.659092020789634 0.6548922241142999 12.018659156460815 0 0 0
354 118 1 0.5897 5.582684924491107 1.2133668770925472 13.000360696261703 0 0 0
686 229 1 0.5897 8.75501660626328 2.5101206383346257 14.640673708940911 0 0 0
384 128 1 0.5897 9.269321558391617 0.8667942398817104 11.312264422514113 0 0 0
353 118 1 0.5897 6.642262290734285 0.6707297033857774 12.065021212146522 0 0 0
386 129 1 0.5897 9.17975453042264 4.510412556907358 13.693098175710295 0 0 0
705 235 1 0.5897 7.758802522901528 5.710062125910891 15.243770849108145 0 0 0
791 264 1 0.5897 6.105556562040437 9.055193309179483 14.839460695655452 0 0 0
370 124 2 -1.1794 7.837450249644118 3.992090786822006 10.51965238895208 0 0 0
460 154 2 -1.1794 6.191160609922925 7.36743324611065 11.923721045202125 0 0 0
793 265 2 -1.1794 9.260617368659153 9.161370603045572 14.220763735115211 0 0 0
385 129 2 -1.1794 9.203183143119926 5.434865004213071 13.940158023902564 0 0 0
333 111 1 0.5897 6.081672899098729 5.474267944863557 12.421688551746067 0 0 0
790 264 2 -1.1794 5.599022388762985 9.12727014484934 14.030458160636968 0 0 0
491 164 1 0.5897 9.44508125417647 7.645804031095663 11.275651296678427 0 0 0
492 164 1 0.5897 8.039985934425893 7.504514594134002 11.821356774303231 0 0 0
794 265 1 0.5897 9.05896649699821 8.660785469000913 13.43021144643605 0 0 0
387 129 1 0.5897 9.118498189316496 5.906875702590398 13.111753366768115 0 0 0
490 164 2 -1.1794 8.960710669783417 7.443334466358577 12.076026610537665 0 0 0
682 228 2 -1.1794 5.4140549138260345 2.549891957271743 14.188471584695588 0 0 0
332 111 1 0.5897 5.206354518507972 4.500547077437493 11.661657944449775 0 0 0
717 239 1 0.5897 6.72205780405104 2.2936162284028345 15.36001598570626 0 0 0
657 219 1 0.5897 6.33336560949237 4.229110909622834 18.911754706504123 0 0 0
709 237 2 -1.1794 8.972268126321385 5.0533530640799595 20.727891000007517 0 0 0
36 12 1 0.5897 5.268290026152013 3.2711718208723357 20.701897050096377 0 0 -1
785 262 1 0.5897 5.729017797050377 6.2873213626078455 19.30695095339775 0 0 0
655 219 2 -1.1794 5.5586683880376695 4.540232971251928 19.380104279412347 0 0 0
706 236 2 -1.1794 8.517153304559896 0.9453081892240215 18.692708297134477 0 0 0
814 272 2 -1.1794 8.702538716229958 7.253983238211143 18.992552905685944 0 0 0
716 239 1 0.5897 7.466991760514789 1.1543028034167913 16.0225585677361 0 0 0
703 235 2 -1.1794 7.199139178132903 5.936161545000937 15.98668778766443 0 0 0
676 226 2 -1.1794 5.8206555476635495 0.7293114646486623 19.259990017653266 0 0 0
694 232 2 -1.1794 7.785256407399551 3.9661024399896068 17.819433191004 0 0 0
38 13 1 0.5897 8.992839232954314 1.9667631806833397 20.100027318468214 0 0 -1
695 232 1 0.5897 7.6331854597599325 3.2346699103180634 17.221022889850467 0 0 0
708 236 1 0.5897 7.580584996774172 1.1381951068896519 18.737193762192447 0 0 0
696 232 1 0.5897 7.711013080388519 4.745770249386223 17.269157930085676 0 0 0
677 226 1 0.5897 5.204354869303329 0.8461057810864807 18.53693161183212 0 0 0
702 234 1 0.5897 9.575596827657115 4.105025108550235 17.667673537040688 0 0 0
816 272 1 0.5897 8.979558419036051 7.916757009877934 19.625168037888574 0 0 0
784 262 2 -1.1794 5.932022573258065 7.196877281757788 19.088534564974733 0 0 0
823 275 2 -1.1794 7.43773991187241 8.758293046751819 16.181524623496507 0 0 0
825 275 1 0.5897 7.463091591284979 7.818907775723689 16.36349413967213 0 0 0
786 262 1 0.5897 6.882273005802818 7.209794937757604 18.973660599163793 0 0 0
815 272 1 0.5897 8.853735353986343 6.419891217638013 19.43711967816457 0 0 0
710 237 1 0.5897 8.975069788916919 4.100882104417346 20.633093989185966 0 0 0
715 239 2 -1.1794 7.488470264770651 2.1034899164655254 15.901068920312014 0 0 0
144 48 1 0.5897 5.578718968085733 8.433414321869101 20.440400812948354 0 0 -1
35 12 1 0.5897 5.382264836507965 1.7618378386010352 20.674821484772252 0 0 -1
704 235 1 0.5897 6.307560743518424 5.86906959690003 15.644753424819712 0 0 0
707 236 1 0.5897 8.616746969735788 0.12609085414282903 19.177650461563772 0 0 0
145 49 2 -1.1794 9.29215152730869 9.364297540162033 20.67603153802766 0 0 -1
824 275 1 0.5897 8.192460664286207 8.913142845415196 15.613475854704257 0 0 0
224 75 1 0.5897 5.0960049561243865 17.698042270514932 4.917725453437342 0 0 0
155 52 1 0.5897 7.924945058627618 10.215082203758616 3.2045518308816825 0 0 0
272 91 1 0.5897 7.379144265157096 19.00628844080456 2.338912881196804 0 0 0
164 55 1 0.5897 6.485353325468257 12.885765257642355 1.695022389535977 0 0 0
276 92 1 0.5897 9.488929318059776 14.289411130563638 4.29099465618551 0 0 0
285 95 1 0.5897 7.494731218465307 14.839055086056407 1.9612197915980385 0 0 0
819 273 1 0.5897 8.52141317776944 12.413918312773868 0.42987629925464554 0 0 1
156 52 1 0.5897 9.136577098133936 10.957028604533916 3.727543485268061 0 0 0
154 52 2 -1.1794 8.179617051652363 10.958116205995816 3.7515931542285963 0 0 0
165 55 1 0.5897 7.677733276569163 12.34359247657837 2.4541600247584454 0 0 0
163 55 2 -1.1794 7.436090585128803 12.968100365838348 1.7702010419756673 0 0 0
254 85 1 0.5897 8.710566701901232 16.027532416252797 0.32900523680791294 0 0 0
927 309 1 0.5897 8.234861600190854 19.124778765533122 0.41144696677955905 0 0 1
271 91 2 -1.1794 7.070949415155359 19.62744453633608 1.679060303946651 0 0 0
264 88 1 0.5897 8.520381930472524 17.584184894954177 3.731653683172289 0 0 0
263 88 1 0.5897 7.193354676582197 17.81379148861926 4.423324882885693 0 0 0