LAMMPS data file via write_data, version 30 Jul 2021, timestep = 7500000

864 atoms
2 atom types
576 bonds
1 bond types
288 angles
1 angle types

0.40397930561285733 17.80359309439293 xlo xhi
1.5673655307723866 22.061812269228124 ylo yhi
0.4928538092591648 21.72034199073154 zlo zhi

Masses

1 1.00794
2 15.9994

Pair Coeffs # lj/cut/tip4p/long/omp

1 0 0
2 0.21084 3.1668

Bond Coeffs # harmonic/omp

1 450 0.9572

Angle Coeffs # harmonic/omp

1 55 104.52

Atoms # full

423 1 1 0.5897 7.2501062581935365 1.5826597505784024 4.689252927321736 -2 -1 4
570 1 1 0.5897 3.1523170323361236 5.814719193248963 4.070496728473951 4 3 2
36 1 1 0.5897 7.701215638939868 5.8013300467342415 1.080157326414195 -3 2 -3
466 1 2 -1.1794 4.162170017256244 1.9115777532689917 4.697062645196387 3 0 6
683 1 1 0.5897 7.324154330510099 2.990359029340639 3.2979043290501022 2 0 -5
115 1 2 -1.1794 6.262785736311831 6.386475075101007 5.257205371631331 -4 1 5
468 1 1 0.5897 5.079097775145116 2.1215003532742633 4.8742340615070185 3 0 6
129 1 1 0.5897 5.33897596081568 5.5884043046754615 0.9803456568005863 0 -1 -5
846 1 1 0.5897 2.326691112149427 3.526630140588195 1.7949721670831815 -2 -1 5
684 1 1 0.5897 6.99693314679723 3.67014598696882 1.9853974711786724 2 0 -5
127 1 2 -1.1794 5.519511020798633 4.686272366243966 1.2444964501440974 0 -1 -5
374 1 1 0.5897 3.48560142879552 3.232342833569634 3.7157670211654024 3 6 -1
63 1 1 0.5897 1.2667681875664225 1.7352054690371532 1.6317143196441526 -3 3 1
373 1 2 -1.1794 3.2339840798930517 3.989894323357366 3.187530351304299 3 6 -1
128 1 1 0.5897 5.0740066777439425 4.150350817546527 0.5883390988920761 0 -1 -5
422 1 1 0.5897 7.474675555403739 2.926129141486541 5.349955469167316 -2 -1 4
682 1 2 -1.1794 7.713886902529934 3.2547193450994523 2.4645735260151502 2 0 -5
375 1 1 0.5897 4.016739798972257 4.197200185513013 2.6770861246233584 3 6 -1
662 1 1 0.5897 0.6358175429751567 6.2803393582609175 1.8496458469589585 -5 -5 1
844 1 2 -1.1794 1.7397434209763483 3.316678614928997 1.0685932433597152 -2 -1 5
34 1 2 -1.1794 8.334715246614191 6.432264259285267 1.4219313005096548 -3 2 -3
421 1 2 -1.1794 6.815257554876651 2.413114964685722 4.8828250438269505 -2 -1 4
663 1 1 0.5897 0.4726205432527415 5.335420124354686 0.6781051679003129 -5 -5 1
116 1 1 0.5897 6.0955271355781235 5.610129456019612 5.791561119983207 -4 1 5
393 1 1 0.5897 7.87295313141324 3.9713603466440577 7.418112829957345 2 -3 -2
99 1 1 0.5897 3.8110829505474593 2.79213425683193 9.559126357062613 2 -5 3
112 1 2 -1.1794 1.82181639028635 3.9075827301058585 7.015002807400775 -3 2 2
637 1 2 -1.1794 0.9251296655749156 3.3126400420428723 9.596391242480944 -3 -2 5
492 1 1 0.5897 6.154583739206056 2.464526626170605 8.895571606291332 1 -1 1
381 1 1 0.5897 0.6010018949619956 6.404310845035778 11.045772307411797 7 3 2
113 1 1 0.5897 1.3826211725196158 4.753300230774277 6.925070956881572 -3 2 2
98 1 1 0.5897 4.347227662757131 3.035396094556466 8.164413786528446 2 -5 3
638 1 1 0.5897 1.3428359860352104 2.6717693595290033 10.171737753678292 -3 -2 5
95 1 1 0.5897 7.350022423367907 2.7452936657583438 10.843477922373099 -4 0 0
114 1 1 0.5897 1.6346360415509398 3.6342515773248754 7.9130364153530195 -3 2 2
97 1 2 -1.1794 4.207533618267324 2.34431560066354 8.811800720531568 2 -5 3
252 1 1 0.5897 5.292749796949263 5.006017442255446 10.913429010831551 0 -8 0
507 1 1 0.5897 7.443564993541179 5.564415970743113 9.794008177141057 3 0 -1
639 1 1 0.5897 0.9185496483224507 4.123456411281227 10.105069442055001 -3 -2 5
490 1 2 -1.1794 7.024440929979472 2.863447445408283 8.91667937186526 1 -1 1
250 1 2 -1.1794 5.860394097249696 5.76673163392357 11.037165377562422 0 -8 0
715 1 2 -1.1794 4.75619993917913 4.745972500593128 6.9983344215247625 0 -7 -2
506 1 1 0.5897 7.947833379911564 6.526269299589574 8.739299259737013 3 0 -1
244 1 2 -1.1794 4.157471147040878 6.66633564168693 8.815409001165838 -5 3 1
717 1 1 0.5897 4.823526820167339 5.531562469218754 7.541043368739133 0 -7 -2
716 1 1 0.5897 3.822337635854028 4.535952286952257 6.994926491084468 0 -7 -2
246 1 1 0.5897 3.8118372214901113 6.4552668268738405 9.682718191224819 -5 3 1
391 1 2 -1.1794 8.345737087783426 4.248127603116092 6.633182850036712 2 -3 -2
491 1 1 0.5897 7.628189580451116 2.1284888692506625 8.809266588205686 1 -1 1
624 1 1 0.5897 8.238956425964883 6.3204631473304715 6.16498177569073 4 2 3
505 1 2 -1.1794 8.231747612420929 5.813131855791745 9.311171770851573 3 0 -1
383 1 1 0.5897 0.8070010733950568 2.871891747375544 5.992079544743982 -9 -1 -3
69 1 1 0.5897 3.0816821164690653 5.73293360151372 14.159202491612296 5 -3 -3
90 1 1 0.5897 8.494087058754058 4.037396256164965 15.280657977607213 5 -4 2
749 1 1 0.5897 1.4062653671480845 3.7183645083861805 13.807696946924091 0 4 0
88 1 2 -1.1794 7.95553897593063 3.265904132450833 15.104650324478841 5 -4 2
67 1 2 -1.1794 2.8767650075166986 4.824053443843431 13.939725549089818 5 -3 -3
94 1 2 -1.1794 7.496735876926704 2.2923923562394375 11.67387961916241 -5 0 0
68 1 1 0.5897 3.7205477931145543 4.3732723821683 13.972084932380772 5 -3 -3
743 1 1 0.5897 7.426870697233259 5.390874917777534 12.109291137652182 -1 -1 2
748 1 2 -1.1794 0.8400560685387722 2.9476948296374115 13.766410439463309 0 4 0
96 1 1 0.5897 6.635060142791515 1.9551546642418847 11.918814804869577 -5 0 0
410 1 1 0.5897 4.828765257891 6.18370544739148 16.34875996006166 4 -1 -5
91 1 2 -1.1794 5.36223301767639 3.563786537578685 14.349224028101986 1 -6 -2
251 1 1 0.5897 5.441508953478853 6.267401673551909 11.737217499982238 0 -8 0
93 1 1 0.5897 5.106968490559779 2.7780586991014475 14.8326415027702 1 -6 -2
539 1 1 0.5897 3.2305989812733684 4.374803455861745 11.914969748120313 -7 -5 0
89 1 1 0.5897 7.481917021704336 3.4820267354689856 14.30141635641041 5 -4 2
92 1 1 0.5897 5.570872328579466 4.2058429680656975 15.027783033413675 1 -6 -2
742 1 2 -1.1794 8.229367361499795 5.062375107380723 12.514627373586475 -1 -1 2
390 1 1 0.5897 2.95036085843243 4.39820673156786 15.77544042483484 2 6 6
744 1 1 0.5897 8.359415453454487 4.19840321144953 12.123669762048598 -1 -1 2
750 1 1 0.5897 0.9938432148592912 2.583331621585023 12.894719934603971 0 4 0
409 1 2 -1.1794 5.5821327384843675 6.010710190999507 15.784188074980733 4 -1 -5
540 1 1 0.5897 3.591902914667348 2.9428559360400994 11.58207343260563 -7 -5 0
281 1 1 0.5897 8.291591732471574 1.6248955180218987 15.390109726108056 -4 -1 1
411 1 1 0.5897 6.299988338413819 6.5008296249232735 16.185039466858367 4 -1 -5
380 1 1 0.5897 0.545989062406921 5.664512840465799 12.365439693617615 7 3 2
379 1 2 -1.1794 0.8721290059242275 5.589513868536746 11.46864683115502 7 3 2
538 1 2 -1.1794 3.54635464732888 3.820041027778803 11.20170653895493 -7 -5 0
738 1 1 0.5897 4.617386092093397 1.593592604533498 16.40516912352828 -1 1 1
285 1 1 0.5897 8.214497382515964 6.2513366783858215 18.170843383550896 6 -2 -1
688 1 2 -1.1794 6.031250598542461 2.702490636616061 17.155445040691646 2 -1 2
162 1 1 0.5897 5.186310744180325 5.818968171402269 19.395199113119432 6 7 1
160 1 2 -1.1794 4.873432907932888 5.1064961599269 18.837790591286435 6 7 1
319 1 2 -1.1794 7.999599767495518 3.306994909384456 19.804667454600782 7 0 2
161 1 1 0.5897 4.01203414999121 5.396910793357742 18.538005719639486 6 7 1
451 1 2 -1.1794 0.44173735697038113 6.050003516177111 16.87807324631831 1 -2 2
185 1 1 0.5897 4.27230658342072 3.7818958298925947 19.83098085256089 -1 5 1
184 1 2 -1.1794 4.117279558013015 3.2585461373769746 20.61728867575126 -1 5 1
5 1 1 0.5897 0.9113687718043533 4.696093771596915 19.318995533558265 2 -1 -2
389 1 1 0.5897 2.618371005827601 3.754601751261604 17.104875813509253 2 6 5
320 1 1 0.5897 8.58971958747089 3.390999268064726 20.553614334232392 7 0 2
690 1 1 0.5897 6.902042818323189 2.8973850689384006 16.809077825042465 2 -1 2
321 1 1 0.5897 8.336712253358817 2.555706782326449 19.31661036008306 7 0 2
186 1 1 0.5897 4.636565482499673 2.465582943046935 20.48402765712771 -1 5 1
689 1 1 0.5897 5.890079849210112 3.361927559198425 17.834735296525317 2 -1 2
283 1 2 -1.1794 8.73304401482814 5.472578434714839 18.372964851604515 6 -2 -1
550 1 2 -1.1794 2.047095253373121 6.044462788827374 19.994643400735875 -1 6 -4
284 1 1 0.5897 8.17089910375876 4.952288610180513 18.947000289816316 6 -2 -1
388 1 2 -1.1794 2.7130469129391 4.6066333432085385 16.679039240048922 2 6 6
452 1 1 0.5897 1.278942430391067 5.598668425262367 16.770170161765606 1 -2 2
616 1 2 -1.1794 2.330459799285367 1.9729068266862388 17.738703182300107 -3 2 1
845 1 1 0.5897 2.2848952646532243 3.4038275813004546 21.51414246614921 -2 -1 4
551 1 1 0.5897 2.0378883363351066 6.552293280882599 20.80596704821813 -1 6 -4
617 1 1 0.5897 1.5560094927671384 1.5686431523639064 17.34752783597638 -3 2 1
552 1 1 0.5897 1.8682571135899675 6.686507008571928 19.307609944016846 -1 6 -4
510 1 1 0.5897 6.969774432965225 7.571847443067295 2.0282817265485003 1 -1 5
776 1 1 0.5897 2.0106134116173653 7.755943495185386 5.273614663412167 2 -6 -1
759 1 1 0.5897 1.7730799398327703 8.198771033782366 1.6835465156564389 -1 3 1
35 1 1 0.5897 8.722898933451503 6.829005604419004 0.642112011115018 -3 2 -3
529 1 2 -1.1794 3.5980604495455997 10.702563743769709 4.323745444116583 -1 -1 -6
258 1 1 0.5897 3.6277456141718223 9.807514497282499 2.811060331893431 0 -1 1
569 1 1 0.5897 4.038806215689101 6.927019063813305 4.589036034254586 4 3 2
735 1 1 0.5897 3.1569933926576237 11.08853563910672 1.1927306304679834 0 2 -3
566 1 1 0.5897 7.796172887441269 10.07993942729522 4.413469421289182 -3 5 -5
508 1 2 -1.1794 6.237359915151455 7.8326955420205575 2.586654239571096 1 -1 5
775 1 2 -1.1794 1.752115769324978 8.649865782070343 5.49793663195664 2 -6 -1
256 1 2 -1.1794 3.9989498509337382 9.596769513864505 1.9542850389493387 0 -1 1
777 1 1 0.5897 2.3861106891967303 9.20429713032365 5.043105671879103 2 -6 -1
509 1 1 0.5897 6.064051286834262 7.063857587029023 3.1298908595410913 1 -1 5
450 1 1 0.5897 1.2923117117790275 10.406146881256415 1.2374382140136113 8 -1 -6
257 1 1 0.5897 4.708522068721776 8.98314667701586 2.1445480620096293 0 -1 1
565 1 2 -1.1794 7.617716556720994 10.52366319070487 3.5843283233145544 -3 5 -5
530 1 1 0.5897 2.8347785145091033 11.279988336928023 4.337543832698781 -1 -1 -6
531 1 1 0.5897 4.340249842269598 11.289298898818956 4.178471580144127 -1 -1 -6
567 1 1 0.5897 6.816074347139144 10.113163756996082 3.2601320082976466 -3 5 -5
758 1 1 0.5897 2.7556589752172105 7.315251399327799 2.4223159420399987 -1 3 1
757 1 2 -1.1794 2.1897256904879017 7.33764756081483 1.6506630375452218 -1 3 1
568 1 2 -1.1794 3.182183113666471 6.7633828542243775 4.194406741059161 4 3 2
448 1 2 -1.1794 0.6332100419667801 9.76428643742319 1.5017038903482691 8 -1 -6
733 1 2 -1.1794 2.51855493963894 11.676256412970156 0.7887614657534372 0 2 -3
494 1 1 0.5897 9.087822941398079 9.713080309208014 2.4099209033517743 0 -4 -1
198 1 1 0.5897 0.7719050699273435 8.81753313152733 11.07482726449272 -1 -3 -1
303 1 1 0.5897 8.164509359430767 7.8494469536198626 10.216500268849922 -3 2 6
822 1 1 0.5897 4.239854484425733 9.923696210093212 10.840647483094067 4 1 5
135 1 1 0.5897 1.7416133785319985 8.30489864164149 7.411011289891384 1 -5 -4
133 1 2 -1.1794 1.7070247819360804 7.617238706693745 8.0759501496768 1 -5 -4
800 1 1 0.5897 6.317420484202334 11.628780223213978 8.208116926600786 -2 2 4
11 1 1 0.5897 8.76157952161763 10.197039178900075 6.322097775328203 -4 -1 5
691 1 2 -1.1794 5.46304188817376 8.862965301315807 6.290327444391946 0 -1 5
693 1 1 0.5897 4.921841515064004 9.565464583262369 6.650621280202696 0 -1 5
608 1 1 0.5897 2.323709266289577 11.603660768710956 7.319716031481478 3 1 3
372 1 1 0.5897 3.720258577167213 10.157229193073691 8.43360797940569 5 3 -2
692 1 1 0.5897 6.305978390565307 9.278513675303024 6.1087061618085 0 -1 5
134 1 1 0.5897 1.1976823153641711 7.999696480202872 8.79044890836694 1 -5 -4
360 1 1 0.5897 6.824815824924976 9.887241858888329 9.367726900078361 6 4 -6
753 1 1 0.5897 6.37226107041535 8.422680282973975 7.684981026008035 1 -1 -2
751 1 2 -1.1794 6.60359822977297 8.078221686599768 8.547567476764662 1 -1 -2
371 1 1 0.5897 4.319773586681759 11.334516259896013 7.694377457886044 5 3 -2
370 1 2 -1.1794 3.705082535864985 10.608295322005466 7.589491448191476 5 3 -2
359 1 1 0.5897 6.695026897123078 10.876105009706095 10.506662585310073 6 4 -6
358 1 2 -1.1794 6.773903893843102 10.824742708048301 9.5540862268916 6 4 -6
820 1 2 -1.1794 3.6588031364051345 9.532029243089266 10.188580126486405 4 1 5
622 1 2 -1.1794 8.999590215623353 6.874398133657644 5.989476931523711 4 2 3
821 1 1 0.5897 3.3636742455653206 8.714802711761301 10.590147919636527 4 1 5
12 1 1 0.5897 8.599866221433091 8.727930403775733 5.994367356136532 -4 -1 5
10 1 2 -1.1794 8.102753771713324 9.539008321154876 6.100396884321324 -4 -1 5
752 1 1 0.5897 5.80388256911618 7.654425548893287 8.859116341544784 1 -1 -2
301 1 2 -1.1794 8.481484894846659 8.511045846876094 10.831334945468754 -3 2 6
245 1 1 0.5897 3.4510726375216896 7.14938411010242 8.386604341187935 -5 3 1
117 1 1 0.5897 5.984888034754815 7.1199134559467945 5.805897357684425 -4 1 5
513 1 1 0.5897 0.5955831956442236 6.7207594258836565 6.943527963697699 1 2 0
562 1 2 -1.1794 5.818445189050357 10.403005589180031 12.156255297530198 2 -1 1
158 1 1 0.5897 1.5384607479861443 10.337764270109702 12.76282115859004 3 4 -2
322 1 2 -1.1794 7.966943342664174 9.238854846161543 13.43755336500054 6 1 -1
376 1 2 -1.1794 2.3776259583633585 7.445593204129949 14.623599777256418 2 5 2
707 1 1 0.5897 5.310707072211755 9.87825744679777 16.033943644531185 -2 1 -8
349 1 2 -1.1794 5.330886230548958 7.333936488357955 13.294994012397542 -10 1 -1
324 1 1 0.5897 8.509027983455459 8.713183260442854 14.025792970823725 6 1 -1
803 1 1 0.5897 1.263623110294168 10.596506891737494 15.068495524612432 4 1 -2
378 1 1 0.5897 2.513574927064337 7.58874840194293 15.560220214343255 2 5 2
626 1 1 0.5897 2.2590078941431484 6.846172382754466 12.151660468967298 -6 -4 1
351 1 1 0.5897 6.035765985302843 7.979304027618225 13.241434962810516 -10 1 -1
563 1 1 0.5897 6.587892445671127 10.065668246951603 12.614958565188632 2 -1 1
377 1 1 0.5897 1.455817047424851 7.198462880153979 14.54993920756218 2 5 2
130 1 2 -1.1794 4.2900803603148345 9.774015851030253 14.3211113306795 -7 3 -1
323 1 1 0.5897 8.19202115933098 8.927064427761453 12.561002929573228 6 1 -1
132 1 1 0.5897 4.789131007980786 10.01011500818584 13.539178200061178 -7 3 -1
157 1 2 -1.1794 1.2630766642651439 10.299398477512582 11.846867089782842 3 4 -2
131 1 1 0.5897 4.007839897538183 8.873199253326568 14.16275269427175 -7 3 -1
804 1 1 0.5897 2.6187907712490013 10.414203147036242 14.418758679463135 4 1 -2
564 1 1 0.5897 5.809247233706146 11.338468683839338 12.358840167581976 2 -1 1
802 1 2 -1.1794 1.8336712013418595 10.961070717992255 14.39147002515325 4 1 -2
625 1 2 -1.1794 2.934181424644867 7.479186099418631 11.907434679296967 -6 -4 1
627 1 1 0.5897 3.542702833559584 7.4780890204794455 12.646297764995454 -6 -4 1
264 1 1 0.5897 8.50369575093043 10.973564874916853 13.979144618016644 2 -1 5
159 1 1 0.5897 2.0814703135034596 10.283167181525002 11.350703631291221 3 4 -2
350 1 1 0.5897 5.429930739496614 6.9418145715815704 14.162555295172137 -10 1 -1
42 1 1 0.5897 0.4771087335397439 8.843967555022882 19.60516796859659 -4 -1 3
255 1 1 0.5897 4.074334780917872 8.328985203420924 17.162389300624888 0 4 -4
732 1 1 0.5897 8.18859315487678 9.318084623742777 20.058712305805727 0 0 -6
730 1 2 -1.1794 7.743309963190022 9.246996067169386 20.903040949246574 0 0 -6
19 1 2 -1.1794 5.610017707482084 7.111088647021679 20.639218060405035 -2 -3 1
277 1 2 -1.1794 5.560069154636233 10.554984808838315 20.03343224183454 3 0 1
236 1 1 0.5897 0.4587196590278548 9.121198771979746 16.984369989109616 -1 -3 -3
278 1 1 0.5897 5.292614373807164 11.236523998857884 20.650023356267077 3 0 1
254 1 1 0.5897 2.683935791252186 8.14201750664964 17.731320562949243 0 4 -4
819 1 1 0.5897 4.143101187510368 9.490159577532937 20.189099009664027 -1 -4 0
40 1 2 -1.1794 1.1555474847704086 8.695437057863675 18.946458306321233 -4 -1 3
41 1 1 0.5897 1.973133390157548 8.925264591640593 19.38799168088328 -4 -1 3
396 1 1 0.5897 6.6025580692966 8.392999793908784 17.29250433571167 2 0 3
818 1 1 0.5897 3.4639954334633076 9.133472609751163 21.494255454441905 -1 -3 0
20 1 1 0.5897 6.314307044919309 7.7152295883287065 20.404231509143344 -2 -3 0
731 1 1 0.5897 8.448051381467435 9.103577449590755 21.534699069566948 0 0 -6
253 1 2 -1.1794 3.351757454000394 7.702652396990265 17.20483769591913 0 4 -4
21 1 1 0.5897 4.810363901728422 7.63044063837537 20.55532702778656 -2 -3 1
706 1 2 -1.1794 5.344945660899975 9.684110613254063 16.97060880575178 -2 1 -8
817 1 2 -1.1794 3.44358948293715 8.949008479687894 20.555230645599806 -1 -3 0
708 1 1 0.5897 5.09938278136879 10.506080574221478 17.395200172808934 -2 1 -8
401 1 1 0.5897 8.093323703053827 11.200603679807799 18.554476409681037 -4 -2 1
279 1 1 0.5897 6.3289486566517965 10.153483026970605 20.438192869899986 3 0 1
394 1 2 -1.1794 7.321076522832917 7.760908979008119 17.3124926710582 2 0 4
395 1 1 0.5897 7.975859631924596 8.12293168707982 16.715495478877735 2 0 4
400 1 2 -1.1794 8.765317141450355 10.532294207606139 18.68872167291881 -4 -2 1
340 1 2 -1.1794 5.738365219823293 12.569801805623342 3.6556198827604147 5 6 -1
77 1 1 0.5897 6.747416612805978 15.750460752738675 3.912203832253955 -3 -2 -3
831 1 1 0.5897 4.72477069423448 13.024757230733032 0.6614242071632204 3 8 1
431 1 1 0.5897 1.5767246455413102 14.565345619005244 1.7265445662591967 -7 -1 -1
829 1 2 -1.1794 5.476351679000295 12.454569092979732 0.8233932355260452 3 8 1
343 1 2 -1.1794 1.3178054484486728 12.249513302730504 4.429844924683209 -3 -1 2
432 1 1 0.5897 2.7201551170753775 14.762384716541149 2.698954158645431 -7 -1 -1
830 1 1 0.5897 5.638194030799446 12.53210499357234 1.763608926570871 3 8 1
734 1 1 0.5897 2.515696613327539 12.450673358985398 1.3513258017697747 0 2 -3
342 1 1 0.5897 5.854849715367109 13.44047750143692 4.035837920633561 5 6 -1
289 1 2 -1.1794 2.314835113987698 15.17744509505946 5.721239679018703 -9 -6 -4
585 1 1 0.5897 7.895953073649134 16.695985730583843 1.2326751861454555 2 -6 3
345 1 1 0.5897 1.5741205485486276 12.996375396029583 3.8888212749902404 -3 -1 2
30 1 1 0.5897 4.415064457957638 15.869393896669436 1.3108737098791265 -7 0 5
430 1 2 -1.1794 2.1780941873771 14.084588076809656 2.295258463526057 -7 -1 -1
76 1 2 -1.1794 6.614768982449893 15.099573671809967 4.601375478375585 -3 -2 -3
344 1 1 0.5897 1.6095156284868077 12.480662418192317 5.311717883534406 -3 -1 2
78 1 1 0.5897 6.145159497696526 15.57093914960792 5.289480536607616 -3 -2 -3
318 1 1 0.5897 7.9884512205480815 13.991393837294664 5.629577125803679 -3 -4 1
485 1 1 0.5897 8.796232434306914 12.210296620968249 2.617012539594729 -1 4 -1
28 1 2 -1.1794 4.849370978144177 15.298320521517828 0.6772313273509145 -7 0 5
290 1 1 0.5897 1.47189544890824 15.368154032062481 5.309769483339129 -9 -6 -4
313 1 2 -1.1794 3.2681341258790093 16.909232651774197 2.128429593770595 -2 -3 0
341 1 1 0.5897 6.534440950918234 12.095091887160152 3.89463308320963 5 6 -1
486 1 1 0.5897 8.691877691420968 13.172985827975243 1.4533219923260101 -1 4 -1
37 1 2 -1.1794 3.3806269862301526 12.848644740536416 10.987336478062197 -3 1 -4
533 1 1 0.5897 8.363687701777696 14.012383935187207 9.264883553943749 -4 -1 -1
523 1 2 -1.1794 7.0269885824622955 16.926037055814817 9.647074898189857 1 -1 4
766 1 2 -1.1794 8.690945035141448 15.344357114623289 8.18749862079588 -2 -1 4
595 1 2 -1.1794 2.471162624552396 14.401264703353604 8.763850830439386 5 -6 2
767 1 1 0.5897 8.156323771976105 15.907184380922393 8.747535133448432 -2 -1 4
524 1 1 0.5897 6.340814781806063 16.2588377389578 9.631414251531503 1 -1 4
317 1 1 0.5897 8.266347569538091 14.168691034116316 7.107141560842114 -3 -4 0
597 1 1 0.5897 2.0162807356680803 15.22121021793233 8.956171821639394 5 -6 2
38 1 1 0.5897 2.925665960773648 13.387826924584886 10.340399983480589 -3 1 -4
801 1 1 0.5897 6.629464572055147 12.61290060449366 7.1008783437776835 -2 2 4
607 1 2 -1.1794 1.6626404501304437 12.284006968698487 7.191776691025266 3 1 3
329 1 1 0.5897 5.288108488801169 15.264004897671835 8.120255498413727 4 6 1
534 1 1 0.5897 8.123911450507974 12.548595258995183 9.56767870545342 -4 -1 -1
609 1 1 0.5897 1.9830906234715153 13.028725441606314 7.700662088611302 3 1 3
291 1 1 0.5897 2.22598497653778 15.508474657830547 6.614958610694711 -9 -6 -4
532 1 2 -1.1794 8.254659149114216 13.397439859926017 9.990264136680302 -4 -1 -1
328 1 2 -1.1794 5.3466432316110835 14.791765004878265 8.950783329894627 4 6 1
330 1 1 0.5897 5.707689711630273 13.93696091424675 8.715861257359373 4 6 1
596 1 1 0.5897 3.398661871637374 14.609107302739506 8.876974114324241 6 -6 2
316 1 2 -1.1794 8.092364936081577 13.500194037235277 6.444525900538181 -3 -4 1
799 1 2 -1.1794 5.900294880457976 12.191141415811979 7.5554559194277155 -2 2 4
769 1 2 -1.1794 5.097064870100645 16.255490109193538 6.466365187866642 6 -1 2
204 1 1 0.5897 0.673341410063673 13.347349579507258 10.793972759088552 -2 2 -2
39 1 1 0.5897 4.2905975162644445 13.142929558128557 10.947745196553248 -3 1 -4
771 1 1 0.5897 4.2292973029173995 16.01542616831596 6.141465965182336 6 -1 2
525 1 1 0.5897 7.414177176810279 16.851639179215688 10.519291040409392 1 -1 4
694 1 2 -1.1794 1.8840159110220815 16.926180789297426 7.979449108901919 3 -2 1
203 1 1 0.5897 0.5843923798542338 11.859787277182557 11.06064773208515 -2 2 -2
594 1 1 0.5897 6.911441273442758 13.586833130868605 11.060849285710745 -2 -1 -3
798 1 1 0.5897 2.2996497668661555 14.514563171478837 15.053894415908019 -1 -3 -3
797 1 1 0.5897 2.956239625529835 15.035820288143853 16.314468230155725 -1 -3 -3
522 1 1 0.5897 2.8037268991597206 12.611198462062447 13.972970568415665 -6 -3 -2
832 1 2 -1.1794 5.713834939505815 12.481648186893747 14.491539802458343 2 -1 -1
723 1 1 0.5897 5.492725927695492 15.523072501445093 16.172181449303885 3 2 -4
593 1 1 0.5897 6.018593365554309 14.495583653166292 11.878682267590225 -2 -1 -3
32 1 1 0.5897 1.6653498143153396 15.498024698629518 11.896321752898826 4 6 1
262 1 2 -1.1794 8.54432192280964 11.887449589833356 14.260882017129017 2 -1 5
502 1 2 -1.1794 0.6124850077089219 16.885207188765833 14.547902325841804 -2 1 2
834 1 1 0.5897 5.095959990892555 13.145804329063228 14.186020627005858 2 -1 -1
521 1 1 0.5897 3.1452577089370233 13.328761724662433 12.684446309424379 -6 -3 -2
356 1 1 0.5897 6.007585970928887 16.419516981185357 14.123041029488153 5 1 4
592 1 2 -1.1794 6.257907989606542 13.576402129928058 11.760141806427015 -2 -1 -3
796 1 2 -1.1794 2.1160935775493726 15.001845591734586 15.857062587580561 -1 -3 -3
292 1 2 -1.1794 5.253043078970306 15.912774377506196 12.49914369587022 -5 -3 3
833 1 1 0.5897 5.534849833711257 12.400191852843257 15.428312974624285 2 -1 -1
294 1 1 0.5897 4.301319893733088 16.01230407417463 12.522408023313194 -5 -3 3
520 1 2 -1.1794 3.127944523180792 13.445703548406708 13.6343052341976 -6 -3 -2
355 1 2 -1.1794 6.271071059579323 16.638383059222 15.016849276863923 5 1 4
503 1 1 0.5897 1.0465271072857862 16.237525423844218 15.103188858900248 -2 1 2
263 1 1 0.5897 7.628831733873689 12.158480839908014 14.32905265062284 2 -1 5
293 1 1 0.5897 5.578763610471678 16.777591818977314 12.249642291335773 -5 -3 3
31 1 2 -1.1794 1.003332970167146 15.0112416808054 11.40541873380925 4 6 1
517 1 2 -1.1794 8.687554190153051 16.53907232649545 11.63851236773872 -1 -2 -3
709 1 2 -1.1794 2.7098492490063526 16.910205966914393 12.473215256841568 -2 -2 -1
519 1 1 0.5897 8.66242610421984 16.665966329568953 12.586927897245474 -1 -2 -3
357 1 1 0.5897 7.21838397410855 16.76478623506581 14.963643484769912 5 1 4
265 1 2 -1.1794 3.190327464988742 13.0741468481089 19.546792816291635 -3 -1 0
295 1 2 -1.1794 1.173859081500515 13.471686615968405 17.840649683560613 2 6 0
286 1 2 -1.1794 7.450643477542828 12.983114896578055 18.301242705711545 2 1 -3
332 1 1 0.5897 8.45446114692484 16.272725495039843 19.703960361086814 -1 -4 -4
288 1 1 0.5897 7.6536742769598405 13.14911031922073 19.221808707373633 2 1 -3
287 1 1 0.5897 8.074647417632914 13.52348067805261 17.816648963115128 2 1 -3
267 1 1 0.5897 3.1244698487775593 13.942798210760493 19.943434458878315 -3 -1 0
212 1 1 0.5897 1.9817099095923658 15.911389002376035 20.63611326773691 1 0 1
172 1 2 -1.1794 4.946897157585347 12.444279435979917 17.39574977762708 5 1 -2
296 1 1 0.5897 1.5353760190635346 13.780428311389585 17.009853611101846 2 6 0
174 1 1 0.5897 5.824234181071951 12.57793834583363 17.754413480515062 5 1 -2
266 1 1 0.5897 2.873109113327224 12.476501497307535 20.22385014368846 -3 -1 0
722 1 1 0.5897 5.102334600707763 14.170362755602579 16.728629289396203 3 2 -4
211 1 2 -1.1794 2.7608002405890257 15.963690161283864 20.082488968605837 1 0 1
331 1 2 -1.1794 8.40124598361664 16.724611718162564 18.861825579599554 -1 -4 -4
87 1 1 0.5897 5.156576970264205 16.34244078299232 18.282256855068596 0 5 1
173 1 1 0.5897 4.360086800492951 12.582220067490493 18.13928056232423 5 1 -2
213 1 1 0.5897 3.4775878272784166 15.678992549978743 20.649396618682474 1 0 1
297 1 1 0.5897 1.9397306016558866 13.32387906007748 18.395483411206335 2 6 0
721 1 2 -1.1794 4.842953247403549 15.091740681864923 16.72712276615505 3 2 -4
333 1 1 0.5897 7.471666473942655 16.70045448671234 18.63483919188058 -1 -4 -4
667 1 2 -1.1794 7.748179962291796 13.595709328727603 21.10351881765053 -7 -3 -3
668 1 1 0.5897 7.83219638567357 14.547439410857868 21.161565349423235 -7 -3 -4
142 1 2 -1.1794 0.48863631978882877 15.12561791383818 21.512956178236536 1 8 4
669 1 1 0.5897 6.87192661773889 13.411074980430405 21.441604758872465 -7 -3 -3
29 1 1 0.5897 5.622765874972827 15.790292207065017 21.62892588479321 -7 0 4
583 1 2 -1.1794 8.215396075306018 16.355765841449447 21.624429190595738 2 -6 2
155 1 1 0.5897 5.2069171405874055 21.668475820694994 0.9392952800430561 3 3 -3
61 1 2 -1.1794 1.142541370570838 21.307589687851873 1.8566070965206105 -3 2 1
576 1 1 0.5897 1.4257559855424413 20.84906578024882 3.5712735090022645 2 4 -1
632 1 1 0.5897 8.203090599742978 19.861296647980033 5.623303061385365 6 6 4
828 1 1 0.5897 8.78979556382848 21.551376496630482 0.8024722155758854 -4 0 3
655 1 2 -1.1794 4.016331829890637 20.967815633755627 2.424171792627984 -5 1 2
642 1 1 0.5897 8.22052671785379 17.281871587233056 3.562418452522118 -1 5 -6
640 1 2 -1.1794 7.485908690959422 17.215124371389606 2.9524162586928444 -1 5 -6
656 1 1 0.5897 3.7166562837416506 21.472811747898632 3.180092814992244 -5 1 2
641 1 1 0.5897 6.834877600343648 17.82878413430364 3.292722319788 -1 5 -6
574 1 2 -1.1794 1.528662004488993 20.391993136157893 4.405962332762185 2 4 -1
755 1 1 0.5897 4.845263203237177 18.866497697262368 4.543626683233051 -5 -4 -6
754 1 2 -1.1794 4.997226984293247 18.67347621345673 3.6184875396776506 -5 -4 -6
62 1 1 0.5897 1.397215192393516 20.831397285874168 1.066287442992019 -3 2 1
315 1 1 0.5897 2.419016850246276 17.338652158107138 2.024378075314967 -2 -3 0
756 1 1 0.5897 4.664130939190928 19.44196575984212 3.1551289619236353 -5 -4 -6
501 1 1 0.5897 2.2770468988273525 18.90947185501387 5.2532726833002625 2 -2 -2
499 1 2 -1.1794 2.648424601329735 18.077028512208294 5.545380650864045 2 -2 -2
500 1 1 0.5897 2.16070009366151 17.412676468496752 5.05857610771187 2 -2 -2
657 1 1 0.5897 3.223786335626586 20.811061011465462 1.910831952297465 -4 1 2
496 1 2 -1.1794 0.7051957560543987 18.24869110676824 2.455190125395239 2 1 1
273 1 1 0.5897 8.337099134819622 20.40029102835293 3.042202130804278 -6 5 4
826 1 2 -1.1794 8.334217034293392 20.731562683522633 0.9937313980136635 -4 0 3
271 1 2 -1.1794 8.525902466487132 20.644838403135942 3.9481672353067383 -6 5 4
314 1 1 0.5897 3.8491087653945817 17.60019511412319 2.4466250219465033 -2 -3 0
498 1 1 0.5897 0.4949193934202751 18.954532769449777 3.0665765192526777 2 1 0
575 1 1 0.5897 1.215268063467573 21.015433446031473 5.061196765233561 2 4 -1
467 1 1 0.5897 3.8516032443393584 21.989721793519884 5.5010892098119895 3 -1 6
156 1 1 0.5897 6.692521633350732 21.500065653746773 0.7016524871802119 3 3 -3
81 1 1 0.5897 2.623150025260815 17.799382186322212 9.633704380336498 3 2 -5
792 1 1 0.5897 5.3254701009995635 19.196782996408047 7.676621969617969 4 3 1
702 1 1 0.5897 5.068488467443428 21.220781170717416 10.809512662608467 6 1 2
633 1 1 0.5897 7.834045560511119 19.94993806408329 7.088847323304215 6 6 4
80 1 1 0.5897 2.0795008686257583 18.756468123512875 10.673066299671143 3 2 -5
791 1 1 0.5897 5.9568210314672 19.058933024627585 6.307576988661017 4 3 1
240 1 1 0.5897 3.46358983806071 20.154178328004022 6.881268438714252 -3 -4 -1
124 1 2 -1.1794 0.6501594721700743 20.10281291202854 8.271998954850844 4 0 3
79 1 2 -1.1794 2.897424326097922 18.441998446289553 10.287945739539737 3 2 -5
238 1 2 -1.1794 3.014389819268613 20.98972961675895 7.0089466103277305 -3 -4 -1
8 1 1 0.5897 6.5348268363330515 18.80776832704109 9.598421091270696 5 1 1
790 1 2 -1.1794 5.108687372847554 19.110495131333145 6.748294984317447 4 3 1
239 1 1 0.5897 3.5116452776462785 21.42629530103232 7.700594242637127 -3 -4 -1
696 1 1 0.5897 2.141481552301604 17.53467482374431 7.286870484991586 3 -2 1
864 1 1 0.5897 9.040315606822785 20.412863585713737 9.020941170253302 2 -2 1
862 1 2 -1.1794 8.64661382493227 21.035210719202965 8.409471561874401 2 -2 1
9 1 1 0.5897 5.027304015518462 18.865778868566146 9.724302555692278 5 1 1
125 1 1 0.5897 1.4424320939074737 20.409783772438693 7.8311377809321705 4 0 3
631 1 2 -1.1794 7.786118596684417 19.368453967355343 6.330040412656323 6 6 4
7 1 2 -1.1794 5.8067747437965735 19.42080096490149 9.700136707701775 5 1 1
770 1 1 0.5897 5.016956280942258 17.17899512747872 6.704987787804492 6 -1 2
620 1 1 0.5897 9.10213975157573 18.368218890644947 10.480614850988658 -1 -2 5
695 1 1 0.5897 0.9270429044287298 16.945304624228186 7.972156130034162 3 -2 1
227 1 1 0.5897 8.852857514144857 17.976982883580717 7.051434201980552 3 -2 -1
477 1 1 0.5897 3.2897262886436396 17.834512231248084 15.903689072658624 7 -3 -2
781 1 2 -1.1794 1.8561866902315647 21.21948633900226 14.967766995261089 -3 1 -1
194 1 1 0.5897 6.002290047280041 19.092392980471978 11.5416833693852 1 -5 -2