LAMMPS (30 Jul 2021)
  using 32 OpenMP thread(s) per MPI task
package omp 0
using multi-threaded neighbor list subroutines
echo both

include		in.partitions
variable        pid world 0
include		in.temp
variable	temperature equal 270.0
variable	tempDamp equal 100.0
include		in.pressure
variable        pressure equal 1000
variable        pressureDamp equal 1000.0 # This is 1 ps
include		in.seed
variable        seed world 745823

units		real
atom_style	full
include		in.box
read_data       water.data
Reading data file ...
  orthogonal box = (0.0000000 0.0000000 0.0000000) to (18.207572 23.629178 22.213196)
  1 by 1 by 1 MPI processor grid
  reading atoms ...
  864 atoms
  reading velocities ...
  864 velocities
  scanning bonds ...
  2 = max bonds/atom
  scanning angles ...
  1 = max angles/atom
  reading bonds ...
  576 bonds
  reading angles ...
  288 angles
Finding 1-2 1-3 1-4 neighbors ...
  special bond factors lj:    0        0        0       
  special bond factors coul:  0        0        0       
     2 = max # of 1-2 neighbors
     1 = max # of 1-3 neighbors
     1 = max # of 1-4 neighbors
     2 = max # of special neighbors
  special bonds CPU = 0.000 seconds
  read_data CPU = 0.134 seconds
include 	in.setup
variable	out_freq equal 500
variable	out_freq2 equal 500

timestep	2.0

neigh_modify    delay 7 every 1

include		in.tip4p
# This is TIP4P/Ice

# create groups ###
group ox type 2
288 atoms in group ox
group hy type 1
576 atoms in group hy

# set charges - beside manually ###
set group ox charge -1.1794
Setting atom values ...
  288 settings made for charge
set group hy charge 0.5897
Setting atom values ...
  576 settings made for charge

# ### TIP3P Potential Parameters ###
pair_style lj/cut/tip4p/long 2 1 1 1 0.1577 8.5
pair_coeff 1 1*2 0.000 0.000
pair_coeff 2 2 0.21084 3.1668
bond_style  harmonic
bond_coeff  1 450 0.9572
angle_style harmonic
angle_coeff 1 55 104.52
kspace_style pppm/tip4p 1.0e-5
pair_modify tail yes

thermo          ${out_freq}
thermo          500
thermo_style 	custom step temp pe etotal epair emol press lx ly lz vol pxx pyy pzz pxy pxz pyz
thermo_modify   flush yes
restart 	${out_freq} restart.lmp.${pid} restart2.lmp.${pid}
restart 	500 restart.lmp.${pid} restart2.lmp.${pid}
restart 	500 restart.lmp.0 restart2.lmp.${pid}
restart 	500 restart.lmp.0 restart2.lmp.0


include         in.dump
dump            myDump all atom ${out_freq2} dump.water.${pid}
dump            myDump all atom 500 dump.water.${pid}
dump            myDump all atom 500 dump.water.0
dump            myDump2 all dcd ${out_freq2} dump.dcd
dump            myDump2 all dcd 500 dump.dcd
dump_modify     myDump append yes
dump_modify     myDump2 append yes


timer           timeout 23:50:00 every 1000
New timer settings: style=normal  mode=nosync  timeout=23:50:00

fix 		1 all shake 1e-6 200 0 b 1 a 1
       0 = # of size 2 clusters
       0 = # of size 3 clusters
       0 = # of size 4 clusters
     288 = # of frozen angles
  find clusters CPU = 0.000 seconds
fix             2 all nph aniso ${pressure} ${pressure} ${pressureDamp}
fix             2 all nph aniso 1000 ${pressure} ${pressureDamp}
fix             2 all nph aniso 1000 1000 ${pressureDamp}
fix             2 all nph aniso 1000 1000 1000
fix             3 all temp/csvr ${temperature} ${temperature} ${tempDamp} ${seed}
fix             3 all temp/csvr 270 ${temperature} ${tempDamp} ${seed}
fix             3 all temp/csvr 270 270 ${tempDamp} ${seed}
fix             3 all temp/csvr 270 270 100 ${seed}
fix             3 all temp/csvr 270 270 100 745823
velocity 	all create ${temperature} ${seed} dist gaussian
velocity 	all create 270 ${seed} dist gaussian
velocity 	all create 270 745823 dist gaussian

run             1000000
PPPM initialization ...
  extracting TIP4P info from pair style
  using 12-bit tables for long-range coulomb (../kspace.cpp:340)
  G vector (1/distance) = 0.37089722
  grid = 24 27 25
  stencil order = 5
  estimated absolute RMS force accuracy = 0.0032495733
  estimated relative force accuracy = 9.7859934e-06
  using double precision FFTW3
  3d grid and FFT values/proc = 35904 16200
Last active /omp style is kspace_style pppm/tip4p/omp
Neighbor list info ...
  update every 1 steps, delay 7 steps, check yes
  max neighbors/atom: 2000, page size: 100000
  master list distance cutoff = 10.8154
  ghost atom cutoff = 10.8154
  binsize = 5.4077, bins = 4 5 5
  1 neighbor lists, perpetual/occasional/extra = 1 0 0
  (1) pair lj/cut/tip4p/long/omp, perpetual
      attributes: half, newton on, omp
      pair build: half/bin/newton/omp
      stencil: half/bin/3d
      bin: standard
Per MPI rank memory allocation (min/avg/max) = 39.73 | 39.73 | 39.73 Mbytes
Step Temp PotEng TotEng E_pair E_mol Press Lx Ly Lz Volume Pxx Pyy Pzz Pxy Pxz Pyz 
       0          270   -5396.4194   -4933.6487   -5396.4194            0     -8991.61    18.207572    23.629178    22.213196    9556.7825    -9272.227   -9505.9789   -8196.6242   -1637.6985    784.46514    906.24441 
     500    272.66778   -4215.0397   -3747.6965   -4215.0397            0    490.97188    18.102145    23.446596    22.158324    9404.7393    2021.0493    1435.5101   -1983.6437   -1984.8829    291.01222    77.203683 
    1000    262.87748   -4189.2326   -3738.6696   -4189.2326            0    1082.2519    18.008895    23.597773    22.079989    9383.3289    919.39294   -3.4212436    2330.7842   -216.35762   -781.62023   -71.600794 
    1500     268.9239    -4220.172   -3759.2457    -4220.172            0    253.01119    18.188464    23.497032    22.049446    9423.3803    135.31404    -231.8572    855.57672    1233.3554     645.0697    627.12637 
    2000    265.66362   -4192.9665   -3737.6282   -4192.9665            0    851.36166    18.131143    23.342671    22.221818    9404.9247    1279.6181    1768.4173    -493.9504     178.0258   -1039.2611   -193.94639 
    2500    273.68006   -4198.7599   -3729.6816   -4198.7599            0     84.94813    18.043326    23.984484    21.916519    9484.5898    839.39729   -295.24904   -289.30385   -37.660872    90.667901    148.65584 
    3000    268.86387   -4211.3466   -3750.5232   -4211.3466            0    1023.8769    18.204813    23.239286    22.186354    9386.3116    1063.6817     1207.364    800.58488   -57.558432    96.207102    -294.0582 
    3500    259.06225   -4227.5852   -3783.5614   -4227.5852            0    840.51669    17.993421    23.593538    22.138815    9398.5566    629.50547    840.98792    1051.0567   -581.81844    -23.58676    -380.3641 
    4000    262.10099   -4241.8144   -3792.5823   -4241.8144            0    646.74122    18.198874    23.566851    21.970627    9422.9854    725.49503    1257.9193   -43.190659      648.403   -519.47588    337.36618 
    4500    271.35827   -4228.7172   -3763.6184   -4228.7172            0    2228.0384    17.979193    23.281207    22.247112    9312.1364    2321.4197    2529.2258    1833.4695   -578.00373    166.55902   -58.816093 
    5000    265.08407   -4184.7602   -3730.4152   -4184.7602            0    851.58915    18.185304    23.502331     22.14946    9466.6135    845.30663   -61.214399    1770.6752   -271.85451    39.008477   -105.02115 
    5500    254.28102   -4223.9773   -3788.1484   -4223.9773            0    1262.3824    18.149409    23.734348    21.875435    9423.1587    728.80735    1717.1513    1341.1886    -130.2632   -222.58608   -222.55949 
    6000    282.25939   -4212.0467   -3728.2638   -4212.0467            0     1354.241    18.161745    23.342853    22.257753    9436.1064    1507.5719    1382.1307    1173.0202    4.8461735   -817.43357   -69.717543 
    6500    270.66674    -4232.407   -3768.4934    -4232.407            0   -633.39326    18.142084    23.642205    22.149002    9500.1247   -510.95605    -848.8762   -540.34752    -845.9528    9.9381015   -720.98738 
    7000     270.7214   -4203.4803   -3739.4731   -4203.4803            0    2358.2355    18.033742    23.517848    22.075543    9362.5645    2228.6069     1787.594    3058.5055    244.33561   -160.40819    562.26261 
    7500    259.71893   -4203.8173   -3758.6679   -4203.8173            0   -277.41125    18.177695    23.543621    22.242742    9519.1989    857.89249   -76.242816   -1613.8834   -420.71283    28.017071   -44.034461 
    8000     268.5385   -4188.6995   -3728.4337   -4188.6995            0    1674.6817     18.03845    23.532797    22.104836    9383.3969    982.19911    1101.1957    2940.6502   -587.63478   -475.17463    365.53881 
    8500    263.42391   -4192.5695   -3741.0699   -4192.5695            0    1846.5276    18.070027     23.55804    22.030804    9378.3903    1826.8708    124.67433    3588.0375    629.14682    335.69086    458.64448 
    9000    277.56552   -4194.1767   -3718.4389   -4194.1767            0   -1440.9781    18.361632     23.45433    22.244424    9579.7788   -1154.8144     -1250.45   -1917.6701    314.12748   -359.43658   -395.26515 
    9500    268.86649   -4195.9584   -3735.1304   -4195.9584            0    1848.3452    17.920567    23.574868     22.21688    9386.0764    3949.3683    1020.3901    575.27726   -801.42693   -537.58418    73.606727 
   10000     272.8955   -4199.9004   -3732.1669   -4199.9004            0    2173.7833    18.223974    23.434287     22.05637     9419.522    1827.2195    2546.9161    2147.2142   -418.14164   -553.76419    651.49126 
   10500    278.57477   -4169.7547   -3692.2871   -4169.7547            0    -328.8465    18.223747    23.641088    22.286249    9601.5671   -954.49651    318.52325   -350.56624    1208.1427   -142.99218    119.49493 
   11000    258.70658   -4188.5406   -3745.1264   -4188.5406            0    2294.0314    17.951937    23.427796    22.217483    9344.1029    2518.7307    865.77141    3497.5922   -155.77973   -1545.9473   -293.00149 
   11500    263.27529   -4232.3834   -3781.1386   -4232.3834            0    1628.0357    18.176389    23.481498    22.065548    9417.7711    1310.2783    1394.8375    2178.9912   -483.29663   -530.52385    -85.56328 
   12000    287.61218   -4190.1122   -3697.1548   -4190.1122            0    -629.9933     17.88748    23.791833    22.350939     9512.022    765.61079   -499.18167    -2156.409   -630.10779    -899.8273   -602.49014 
   12500     270.1108     -4208.97   -3746.0093     -4208.97            0    892.77406    18.374509    23.317715     22.02165    9435.2106    60.412295   -146.09267    2764.0025    106.87226    715.50556     627.1862 
   13000    279.21955   -4183.3409   -3704.7681   -4183.3409            0    1353.0672    17.977818    23.627348     22.06672    9373.2402    2014.8139    288.06946    1756.3182    657.87574    286.24873     174.4678 
   13500    255.45547   -4213.1867   -3775.3448   -4213.1867            0    1279.5123    18.129265    23.470642    22.165898    9431.7111    705.87983    269.30793    2863.3493    46.691381    276.88781    648.23226 
   14000    268.20608    -4228.981    -3769.285    -4228.981            0    948.08558    18.160028    23.459187    22.084533    9408.4418    134.11627    1096.8302    1613.3103   -86.662961    91.661675    -7.350828 
   14500    264.31194   -4226.5668   -3773.5451   -4226.5668            0   -295.06351    18.010867    23.722616    22.144658    9461.6344    723.71301   -1093.8863   -515.01729    17.506159   -72.296226   -232.99615 
   15000    275.55123    -4205.608   -3733.3226    -4205.608            0    1624.0821    18.321244    22.988618    22.291944    9388.9228    2329.7793    2884.1402   -341.67308   -23.276477   -394.41698    1003.1274 
   15500    269.91404   -4208.2096   -3745.5862   -4208.2096            0    1124.5515    17.956409    23.828097    22.061486    9439.3831    1635.8847   -565.79335    2303.5632   -338.77489   -24.361448    526.86171 
   16000    260.70707   -4185.2113   -3738.3683   -4185.2113            0    1792.6645    18.140301    23.480281    22.057531    9395.1709    735.03662    1695.6982    2947.2589   -890.73931   -568.31703   -554.38729 
   16500     277.3337   -4184.1597   -3708.8192   -4184.1597            0    1209.5697    18.143029    23.451822    22.288489    9483.4643    423.90024    1312.8931    1891.9158    284.53636    369.35854   -318.60834 
   17000    269.30336    -4199.075   -3737.4982    -4199.075            0    1655.2807     17.82882     23.98603    22.020763    9417.0166    2105.3989    1856.3454    1004.0978    276.28339    363.00327   -769.90045 
   17500    267.03718   -4197.0091   -3739.3166   -4197.0091            0    563.40913    18.367344    23.298793    22.107918    9460.7951       376.57    825.11878    488.53859    467.02773    823.75796    168.78622 
   18000    266.23403   -4236.3312   -3780.0152   -4236.3312            0    512.72273    18.029477    23.659367    22.206959    9472.7339    931.31384    649.40111   -42.546746    1073.8184   -798.47752    561.39855 
   18500    256.41038   -4209.6299   -3770.1513   -4209.6299            0    702.22917    18.226607    23.563624    22.002198    9449.6122    389.65451   -606.26279    2323.2958   -549.90015   -322.12626   -777.01569 
   19000    281.24586   -4225.0267   -3742.9809   -4225.0267            0    1996.0577    18.085565     23.37752    22.103185    9345.1307    3188.6386    1412.0398    1387.4948    139.47517    98.208602    350.14413 
   19500    261.12592   -4174.8421   -3727.2812   -4174.8421            0    714.99029    18.016089    23.679499    22.285091    9507.0867    2178.4754    -303.5247    270.02015    315.32837    170.11589   -29.955788 
   20000    260.26303   -4209.3606   -3763.2786   -4209.3606            0    1131.6478    18.275584    23.366743    21.992168    9391.5545    202.44733    363.43471    2829.0613   -343.62725    915.14025    514.32914 
   20500    279.04666   -4216.5821   -3738.3057   -4216.5821            0    973.46214    17.968887    23.637098    22.138103    9402.7684    487.57473   -28.429998    2461.2417   -409.51642   -319.28703    280.33612 
   21000    272.13786     -4236.25    -3769.815     -4236.25            0    1628.0844    18.177612    23.421824    22.131666     9422.619     2727.932     1784.573    371.74813   -974.18181    838.06256    121.77092 
   21500      273.311   -4242.6938   -3774.2481   -4242.6938            0    688.39405    18.033746    23.556185    22.173993    9419.6511    1177.8669    552.29948    335.01578    -276.2835   -339.99464    177.39567 
   22000    267.86951    -4188.223   -3729.1038    -4188.223            0    858.69771    18.196225    23.522982    22.055537    9440.4197    789.97136    1920.2222   -134.10042   -668.41314   -174.73896   -793.53822 
   22500     265.8331   -4204.3342   -3748.7054   -4204.3342            0    2334.3182    18.170852    23.371203    21.974898    9332.1828    1904.9156    2421.2276    2676.8114   -519.28838   -220.02181    53.037537 
   23000    256.06269   -4208.6601   -3769.7774   -4208.6601            0    127.89726    17.958082    23.681551     22.26305    9467.9242     1661.854   -1177.1328   -101.02946   -42.272199    269.05891   -51.584669 
   23500    256.73845   -4177.2301   -3737.1892   -4177.2301            0    793.72589    18.322136    23.528732    21.866668    9426.6471   -5.3323889    300.55216    2085.9579   -776.27611   -723.19045   -659.63131 
   24000    286.32626   -4174.3045    -3683.551   -4174.3045            0    1561.9374    17.907388    23.650403    22.204468    9403.9685    3694.1196    33.463668    958.22875    1154.0088    299.89788   -82.527387 
   24500    272.14654   -4230.0166   -3763.5668   -4230.0166            0     1536.027    18.203653    23.223503    22.307702    9430.6389    2239.7384    1110.3579    1257.9848    134.28597   -378.04414   -138.56522 
   25000    256.55507   -4178.8379   -3739.1113   -4178.8379            0    430.22137    18.062275    23.721875    22.050312    9447.9196    1040.3795    346.85565   -96.571045   -1117.3464   -693.85678     379.7681 
   25500    278.29033   -4237.6808   -3760.7007   -4237.6808            0    55.607692    18.146531    23.428328     22.24349    9456.6613    137.17806    273.55106   -243.90604   -1661.7385   -263.32107   -369.98444 
   26000    272.70509    -4171.264   -3703.8568    -4171.264            0    42.122465    18.133908     23.30212    22.378106    9456.0589   -1524.5796    1706.1203   -55.173286   -488.16818   -1253.9688    68.684159 
   26500    247.40038   -4218.5405   -3794.5047   -4218.5405            0    1040.8076    18.010201    24.050466     21.71894    9407.6397    785.09885   -899.64683    3236.9709   -282.52699    91.651308    587.46891 
   27000    264.03525   -4173.1707   -3720.6233   -4173.1707            0    1734.3713    18.212237    23.380314    22.055069    9391.2208    815.71794    2630.4699    1756.9261    1139.5088    168.89447   -431.55689 
   27500    269.91154   -4193.7583   -3731.1391   -4193.7583            0    936.74981     17.89362    23.633046    22.202166    9388.8682    769.30475     2139.253   -98.308292    1000.1538   -7.8289958    330.54501 
   28000    276.70898   -4234.2982   -3760.0285   -4234.2982            0    93.918631    18.373849    23.454803    22.000992    9481.4379   -1289.6177    338.28439    1233.0892   -327.06149   -869.83866   -763.72006 
   28500    273.47873   -4214.6079   -3745.8747   -4214.6079            0    1181.8536    18.115681    23.603553    22.061626    9433.4286    1375.3729    669.46355    1500.7244   -1538.3565    162.03952    172.21123 
   29000    257.27808   -4216.6419   -3775.6761   -4216.6419            0    813.69983    17.984953    23.467002    22.320897    9420.6002    1684.6301    625.57058    130.89881    317.85072    605.23416    1064.2492 
   29500    267.49803   -4201.5664   -3743.0839   -4201.5664            0    387.80913    18.451581    23.532912    21.723305    9432.6815   -2022.4887    905.33613    2280.5799    243.99578   -341.66465   -251.42318 
   30000    274.06274   -4188.7175   -3718.9834   -4188.7175            0    883.11134    18.054561    23.555077    22.222356    9450.6477    1764.8616    1663.2904     -778.818    314.28889     889.4689   -705.87991 
   30500    261.98643   -4225.0596   -3776.0238   -4225.0596            0    791.80872       18.169    23.298072    22.267542      9425.91    1782.8975   -150.97288    743.50158   -1149.6254   -933.31017    125.29593 
   31000    282.68909   -4192.8545    -3708.335   -4192.8545            0    1607.8199    18.054419    23.718527    21.944962    9397.3643    567.03953    1173.9037    3082.5163   -170.69655    156.17152   -223.65405 
   31500     273.7999   -4210.5533   -3741.2696   -4210.5533            0    1429.7212     18.15869    23.253059    22.089941    9327.3688    1974.7704     946.7297    1367.6635   -628.53309   -88.670267    723.05612 
   32000    264.94427   -4182.9689   -3728.8635   -4182.9689            0    346.19257    18.098636    23.507411    22.295123    9485.5062    1781.1292    619.94676   -1362.4982    161.42736    899.38388    571.02294 
   32500    288.52355   -4224.0037   -3729.4842   -4224.0037            0    2196.9155    17.949251    23.643531    22.130238     9391.712    3256.9348    1375.2145    1958.5971   -1192.0108    319.18021    1112.6623 
   33000    276.66873   -4206.9895   -3732.7887   -4206.9895            0    515.82657    18.376627    23.326435     22.09854    9472.7867   -1104.5048    2745.9814    -93.99699   -723.24194    506.05339   -171.92873 
   33500       270.37   -4211.4112   -3748.0063   -4211.4112            0    977.11632    17.787395    23.697545    22.293092    9396.9306    2674.2737   -66.260141    323.33542   -474.91435    498.51144    102.13877 
   34000    262.58789   -4224.3092   -3774.2426   -4224.3092            0    375.63213    18.287839    23.380105    22.112974    9454.8799   -451.18765    1411.5687    166.51533   -490.78298    668.12404   -498.10103 
   34500    252.95777   -4230.0351   -3796.4741   -4230.0351            0    1297.8692    18.177526      23.4938    22.051049    9417.1026    233.16035      2430.38    1230.0671    428.03938   -339.29397    406.42848 
   35000    260.33668   -4229.9868   -3783.7786   -4229.9868            0   -461.37601    17.989166    23.603421    22.368067    9497.6124    791.96674   -893.47778    -1282.617    239.54492   -201.40071    329.14255 
   35500    279.92824   -4244.2185   -3764.4311   -4244.2185            0    320.58379    18.293395    23.460639    22.025022    9452.5828   -66.881758    920.89188    107.74126    57.600718    22.781315   -446.03855 
   36000    269.75181   -4228.7234    -3766.378   -4228.7234            0   -105.62668    18.162326    23.643335    22.048643    9468.0836   -611.74769    738.00131   -443.13365    85.134875   -8.7527456   -193.21538 
   36500    285.51504    -4202.773     -3713.41    -4202.773            0   -308.73371    18.083558    23.313711    22.665296    9555.5719    474.63865    808.24974   -2209.0895    467.98515    133.91236    90.785529 
   37000    278.94991   -4215.9803   -3737.8697   -4215.9803            0    1739.7931    18.124093    23.584959    21.947029    9381.3892    793.68578     1772.909    2652.7846    1514.3239    492.88303    119.56734 
   37500    275.68507   -4219.0332   -3746.5184   -4219.0332            0    109.57471     18.31807    23.487755    21.994027    9462.9373   -165.91372   -697.58862    1192.2265    -45.76512    412.65744    313.64967 
   38000    265.60574   -4196.2003   -3740.9612   -4196.2003            0    570.25396    17.905061    23.663256    22.425637     9501.564     1153.123    1267.4777    -709.8388   -13.227128    352.84452   -85.678512 
   38500    259.14312   -4189.0972   -3744.9348   -4189.0972            0    489.16731     18.22562    23.478943    22.085588    9450.8274    1180.4263    206.76664    80.308986    372.52559   -307.16527   -178.48731 
   39000    261.48946   -4186.9922   -3738.8082   -4186.9922            0    1566.5306    18.198558     23.44958    22.107862     9434.498    1735.6156    1503.2384    1460.7377   -103.61406   -237.41256    382.77987 
   39500    269.67412   -4206.8037   -3744.5915   -4206.8037            0    27.387426    17.884483    23.614719    22.494541    9500.2779    637.73147    89.779703    -645.3489   -520.00766    333.28692    454.49629 
   40000     263.2078   -4200.0806   -3748.9515   -4200.0806            0    2028.5623    18.295663    23.331519    21.883145    9341.1618   -135.35602    2950.8466    3270.1965    302.21268   -35.210455    196.84236 
   40500     266.7122   -4254.5523   -3797.4168   -4254.5523            0    1423.4957    18.077742    23.653969    22.005142    9409.6262    2412.7572    279.38875     1578.341   -1020.5317   -350.24334   -113.04591 
   41000    268.96651   -4214.0029   -3753.0035   -4214.0029            0     1109.812    18.136363    23.269292    22.318153    9418.7144   -396.32528    2264.5038    1461.2574    737.11043   -235.11032    438.73532 
   41500    267.43821   -4191.2316   -3732.8516   -4191.2316            0    728.19164    18.053981    23.740748    22.114135    9478.4504    717.77612    305.76952    1161.0293   -575.25798    445.69617   -734.79297 
   42000     281.9121   -4240.0611   -3756.8734   -4240.0611            0    1254.7752    18.245481     23.55611    21.887411    9407.0464    775.14228    328.71288    2660.4705   -503.40731    -549.1335   -409.36956 
   42500    264.79622   -4206.3962   -3752.5446   -4206.3962            0    1735.9887    17.963837    23.448256    22.237892    9367.0597    2185.3308    590.41647    2432.2189   -80.539416     48.26763   -1064.7623 
   43000    270.52683   -4196.3438   -3732.6701   -4196.3438            0    1102.3811    18.120248    23.572858    22.050354    9418.7211    1297.2523    659.52944    1350.3616   -85.583571   -31.179171    440.00247 
   43500    272.51583   -4232.5933   -3765.5105   -4232.5933            0    2208.9703    18.104681    23.448284    22.035763    9354.7035    1512.0089    2709.9723    2404.9298    278.52335   -847.40608   -319.41938 
   44000    278.43568   -4213.4829   -3736.2536   -4213.4829            0    1455.0975    18.008145    23.557661    22.169369    9404.9066    1748.8553    945.91267    1670.5244    160.76392    -143.1531    -233.1355 
   44500    271.50675   -4187.5371   -3722.1838   -4187.5371            0   -10.436874    18.422766    23.387931    22.224081    9575.6982      119.203   -876.81229    726.29867   -818.66977    240.80655    140.19624 
   45000    259.76532   -4239.5332   -3794.3043   -4239.5332            0    1082.6083     17.89974    23.657024    22.106213    9360.9771    1434.1783     218.3734    1595.2731    398.67393   -505.70401    1084.2003 
   45500    276.69245   -4240.2108   -3765.9694   -4240.2108            0    1364.3602     18.11732    23.489163    22.062214    9388.8109    252.88296    1821.0292    2019.1684    338.53168   -624.78066    -26.55408 
   46000    270.46356   -4193.7653      -3730.2   -4193.7653            0    1336.0659    18.220967    23.410153    22.153999     9449.913    2453.1082    1739.7991   -184.70964    827.37564   -150.22806   -42.146353 
   46500    261.67343   -4209.0125   -3760.5132   -4209.0125            0    916.92571    17.876917    23.719813    22.176551    9403.6807    812.92203    581.74078    1356.1143   -395.67688    684.86224   -191.50063 
   47000    276.52609   -4242.2037   -3768.2475   -4242.2037            0    1504.7146    18.423263    23.196875    21.890979    9355.3753    1948.5917    1632.8684    932.68371   -213.01984    61.901837   -656.61746 
   47500    276.09556   -4214.9615   -3741.7431   -4214.9615            0      1118.99    17.905296    23.734382    22.245104    9453.5268    1992.4623    687.19328    677.31454    417.61631   -593.92359   -144.52792 
   48000    268.05777   -4197.0042   -3737.5624   -4197.0042            0    1715.5379    18.105555    23.514042    22.106384    9411.4566    1525.2455    3224.8686    396.49973   -118.56008    126.58831    841.26563 
   48500    278.91319   -4214.4167    -3736.369   -4214.4167            0    1574.7057    18.155188    23.496563    22.098721    9426.9721    1047.6209    2047.0194    1629.4769   -821.86574    148.34006   -1.6082481 
   49000    274.67779    -4198.712   -3727.9236    -4198.712            0      45.4589    18.040443    23.771004    22.045113    9453.8143    580.36013   -865.99782    422.01439    843.81524    -139.9245    -542.2379 
   49500    292.93375   -4185.1762   -3683.0977   -4185.1762            0    1433.3396     18.08397    23.064523    22.350224    9322.2368    2741.4242    2859.3219   -1300.7273   -632.76462    1259.4784   -426.30746 
   50000    273.59153   -4235.1275    -3766.201   -4235.1275            0    714.69377    18.109208     23.64598    22.055407    9444.3449   -23.912933    576.84451    1591.1497   -433.68676   -66.638503     943.7335 
   50500    265.82023   -4183.1903   -3727.5835   -4183.1903            0    1047.5045    18.072297    23.547965    22.178347    9438.3462    2291.1149    839.02469    12.373923    598.01104   -286.60742   -392.09164 
   51000    275.53653   -4191.4401   -3719.1799   -4191.4401            0    1036.6835    18.191559    23.225898    22.480694    9498.4372    392.26883    3194.6595   -476.87788   -4.3069194   -616.40975   -530.36107 
   51500    268.05247   -4186.3605   -3726.9277   -4186.3605            0    1256.7093    18.126321    23.755443    21.857143     9411.659    432.25834    861.69317    2476.1764   -58.990687   -374.20895    488.02715 
   52000     267.6454   -4208.4885   -3749.7534   -4208.4885            0    913.77965    18.179796    23.392999    22.200257    9441.3243    387.33242    1670.6326    683.37393   -436.57308    977.82651    198.15217 
   52500    271.70372   -4195.6305   -3729.9396   -4195.6305            0    527.21316    18.038806    23.528849    22.264673    9449.8472   -122.17004    1123.0422    580.76733    805.58197    231.04015   -297.23548 
   53000     262.3462   -4210.7405   -3761.0881   -4210.7405            0    2492.5728    18.199899    23.460719     21.85181    9330.3451    2795.9814    857.03558    3824.7014     839.3486   -427.34889    80.878191 
   53500     267.5196   -4206.0969   -3747.5775   -4206.0969            0    1401.8372    17.951901    23.599305    22.233202    9419.1494    1049.8642    1346.3383    1809.3089    256.98683   -288.33857    391.93517 
   54000    276.30774   -4188.2852   -3714.7032   -4188.2852            0    470.22048    18.209603    23.338574    22.239028     9451.279    1628.9603    1066.9333   -1285.2322   -668.57694    -666.1739    337.63248 
   54500     259.2358   -4232.5391   -3788.2179   -4232.5391            0    2284.5488     18.01963     23.70825    21.817915    9320.9168    3054.6483    1029.3775    2769.6206   -886.82248   -543.18463    191.19826 
   55000    265.56416   -4196.9198   -3741.7519   -4196.9198            0    67.537568    18.118769    23.489214    22.270595    9478.2683    688.91581    -111.9714   -374.33171    671.18222    346.75612    252.77351 
   55500    262.51206   -4234.0141   -3784.0774   -4234.0141            0    423.20963    18.119287    23.497791    22.158527    9434.2854    -1325.649    138.57785    2456.7001   -1617.9561    139.55022   -68.435345 
   56000    278.57705   -4185.9125    -3708.441   -4185.9125            0   -402.63262    17.988623    23.823876    22.130685    9484.2983     1461.219    -782.3063   -1886.8106   -433.64412   -434.18458    14.384512 
   56500    264.12589   -4191.4429   -3738.7402   -4191.4429            0    1056.9908    18.504643    23.131275    21.980548    9408.4657    466.47982    1640.9755    1063.5171   -1037.2204    45.440331   -242.14943 
   57000    280.98734   -4230.8985   -3749.2958   -4230.8985            0    1232.2304    17.822063    23.582006    22.297439    9371.1674    1987.5335    1991.3993   -282.24159   -1246.8761   -766.17678   -560.85616 
   57500    273.31684   -4200.7047    -3732.249   -4200.7047            0    367.09914    18.179455    23.459278    22.118091    9432.8551   -1171.9283    666.24157    1606.9841   -318.03815    400.72863    1014.7499 
   58000    274.40684   -4216.4133   -3746.0893   -4216.4133            0    2045.8803    18.184547    23.346494    21.898421    9296.8743    2456.7823    2005.0057    1675.8528    899.20845    1214.7183   -38.555074 
   58500     282.5014   -4229.7853   -3745.5876   -4229.7853            0    4.0694751    18.023307    23.616996    22.271154    9479.8588    691.02763    640.69316   -1319.5124    -234.9246   -447.87653    529.26731 
   59000    276.78731   -4214.3772   -3739.9732   -4214.3772            0    2438.3399     18.11141    23.294048    22.132282    9337.3457    2695.3878      3692.81    926.82203   -520.58196    398.10876    275.86629 
   59500    285.92858   -4226.5326   -3736.4608   -4226.5326            0    946.94803    18.155123    23.660649    21.930444    9420.4851    295.07726    2414.6731     131.0937   -608.10627    182.89057    497.86477 
   60000    253.82265   -4221.7668   -3786.7235   -4221.7668            0   -275.85618    18.126364    23.516018    22.299795    9505.5086    673.27449   -962.68707   -538.15598    700.29813    400.11209    456.31721 
   60500     261.6631   -4221.4529   -3772.9713   -4221.4529            0    1111.2865    18.082775    23.291795    22.315872    9399.0052    1282.9902    2470.7621   -419.89258    -1180.019   -28.118975   -356.32226 
   61000     267.1451   -4204.1376   -3746.2601   -4204.1376            0    322.49097    18.042118    23.852765    22.020617    9476.6698    1293.0125   -741.18782    415.64821    925.87788   -881.33185    535.64465 
   61500    274.00036   -4202.3979   -3732.7707   -4202.3979            0    782.76272    18.282278    23.391984     22.05285    9431.0948    1110.5169    1120.9787    116.79258   -190.36327   -411.56502   -398.33899 
   62000    276.04032   -4197.5744   -3724.4507   -4197.5744            0    1266.4176    17.889439    23.374533     22.39179    9363.2899    2941.7023    368.06067    489.48991    982.18276   -266.98113   -319.66906 
   62500    274.01002   -4224.6496   -3755.0058   -4224.6496            0   -118.74026     18.26997    23.605931    21.958729    9470.3527   -1349.6112   -894.92293    1888.3133    68.653313   -648.96618    70.883693 
   63000    289.70313   -4201.7992    -3705.258   -4201.7992            0    1204.8488    18.115784    23.534246    22.062169    9406.0138    743.95039     413.1206    2457.4753    525.87616     -45.0646   -735.04274 
   63500    255.28928   -4211.7221    -3774.165   -4211.7221            0     555.8054     18.10643    23.385307     22.37938    9475.9762    1575.9863    1772.8032   -1681.3733    233.39763    350.48099     615.0904 
   64000    277.16895   -4222.1012   -3747.0431   -4222.1012            0    1058.5995    18.224782    23.618889    21.822787    9393.5988    1614.2189    667.06644    894.51327    397.50601       1271.4    584.79459 
   64500    272.47329   -4234.8301   -3767.8202   -4234.8301            0    1958.0574    18.017848     23.56813    22.007785    9345.5398    2458.5595    2079.4264    1336.1863    318.74334   -130.59464   -713.83444 
   65000     256.0258   -4219.4759   -3780.6564   -4219.4759            0   -760.76831    18.138499     23.46893    22.329741    9505.5735   -451.12066   -380.34272   -1450.8415    1548.0431     2.425188   -523.73621 
   65500    275.79151   -4226.1593   -3753.4621   -4226.1593            0     292.2775     18.10098    23.696351    22.008439    9440.0174     463.1779    -708.6467    1122.3013    234.31546   -423.86487    77.475107 
   66000    274.75958   -4180.2531   -3709.3246   -4180.2531            0    838.20305    18.156995    23.281324    22.187708    9379.1631    1211.5012    1861.0236   -557.91556     339.0389   -660.10393    174.69404 
   66500    277.65953   -4200.6803   -3724.7813   -4200.6803            0   -509.44374    18.040756    23.624349    22.355248    9527.8317     434.6846   -46.967238   -1916.0486   -1319.5468    201.33854    24.797133 
   67000    266.28845   -4248.7893     -3792.38   -4248.7893            0    1959.7583    18.065573    23.510441    21.899526    9301.3772    2813.2098    1137.8703    1928.1948   -448.87142    186.76546     332.5069 
   67500    270.63438   -4235.4596   -3771.6015   -4235.4596            0    1299.8958    18.168564    23.457964    22.099367    9418.6955    822.96734    1700.6569    1376.0633    283.66208    213.72707   -830.23356 
   68000    265.78309   -4205.7238   -3750.1807   -4205.7238            0   -212.38079    17.881814    23.569313    22.456022    9464.3617    1377.3084   -857.48164   -1156.9691   -412.74823    821.37968    794.61772 
   68500    271.78113   -4197.6536   -3731.8301   -4197.6536            0    866.27506    18.312401    23.488371    21.878211    9410.4416    1364.4988    1961.2772   -726.95082    556.63065    621.96817   -244.37373 
   69000    258.16039   -4231.1457   -3788.6676   -4231.1457            0    1486.4273    18.164427     23.54919    22.003574    9412.1949    352.58428    1612.9564    2493.7411    974.52362     283.8521    849.58285 
   69500    266.77018   -4217.6802   -3760.4453   -4217.6802            0    1696.3986    17.935134    23.415287    22.344923    9383.8913    1651.1866    2947.3991    490.61025    656.33252   -35.079719    336.60133 
   70000    267.95045   -4203.5873   -3744.3294   -4203.5873            0    146.75089    18.320746    23.461409    21.944871    9432.5752   -416.51563    196.36312    660.40519   -394.24896    215.18079   -312.42843 
   70500    269.62616    -4210.625    -3748.495    -4210.625            0    718.38686    18.026309    23.807752    22.037691    9457.8259    1060.7955   -233.12404    1327.4892   -644.67689    -1098.697    1145.5751 
   71000    272.67456   -4219.6526   -3752.2977   -4219.6526            0    969.96014    18.153221    23.301745    22.260607    9416.2752   -506.72567    788.47463    2628.1315   -335.94125    123.77385   -417.52711 
   71500    258.98386   -4214.0527   -3770.1632   -4214.0527            0    1645.6825    18.058264     23.65905    21.922938     9366.386    1185.4475    1914.1558    1837.4442    -417.2992    1002.1999    869.39043 
   72000    284.01676   -4167.4506   -3680.6556   -4167.4506            0    416.17026    18.239545    23.565852     22.08262    9491.7819   -942.43363   -80.191827    2271.1362   -775.17961    345.55405    -1517.705 
   72500     273.0346   -4224.0604   -3756.0884   -4224.0604            0    263.49383    18.131878    23.487578    22.230245    9467.2812    704.30421   -296.49962    382.67691    36.141607   -579.04118   -15.316711 
   73000    261.81894   -4230.3276   -3781.5789   -4230.3276            0     1105.387    17.906634     23.61553    22.321726    9439.2924    1538.4058      305.978    1471.7772   -1122.9414   -537.88233    78.854701 
   73500    282.68742   -4205.1224   -3720.6058   -4205.1224            0    1982.4245    18.386995    23.359039    21.747795     9340.733    371.39535    3040.7565    2535.1218    305.38616    166.04043    30.292896 
   74000    269.25621   -4210.8966   -3749.4006   -4210.8966            0    1888.8735    17.981219    23.611468    22.119681    9391.1977    1153.6581    2652.6225    1860.3398    396.16541   -396.51827    393.53972 
   74500     274.3315   -4191.0601   -3720.8653   -4191.0601            0    456.07659    18.196852    23.424343    22.333451    9519.6177    725.07533   -222.75871    865.91315    953.94717   -459.86345   -371.04796 
   75000    274.69215   -4228.8762   -3758.0633   -4228.8762            0    357.84961    18.180357    23.709567    21.928052    9452.0516    8.9608536   -250.64188    1315.2299    525.86527   -1150.0272    465.52673 
   75500     265.4886   -4230.3152   -3775.2768   -4230.3152            0    975.77949       18.075    23.441686     22.07163    9351.9366      501.888     1642.069    783.38148    914.40824    538.21152   -379.97442 
   76000    262.44551   -4200.0622   -3750.2395   -4200.0622            0    1023.1598    18.049258     23.38009    22.545279    9513.9563    957.20783    1315.3953    796.87616    97.776592   -184.28434    117.84972 
   76500    249.81836   -4247.7529   -3819.5727   -4247.7529            0    979.04649    18.096864    23.720698    21.925969    9412.1663    2377.1817   -28.557295     588.5151   -453.47542    734.62708    252.68462 
   77000    262.28689   -4221.3095   -3771.7588   -4221.3095            0    900.98468    18.248047    23.548917    22.039426    9470.8208     1392.783    817.87448    492.29652   -236.00245    -1282.237   -481.41056 
   77500    263.45439   -4193.2398    -3741.688   -4193.2398            0    1176.2051    17.976146    23.624889    22.314665    9476.6918    2478.3029    1755.0003   -704.68797    771.30824    336.60741    341.05197 
   78000    275.11441   -4176.4704   -3704.9337   -4176.4704            0   -495.53745    18.345922    23.452024     22.18549     9545.285    -730.1271    382.74777    -1139.233   -720.37433     245.8633    318.60607 
   78500    264.36306    -4230.895   -3777.7858    -4230.895            0    1694.1362    18.067915      23.5209    21.990329    9345.3098    1158.5732     2214.353    1709.4824   -340.45361    -441.9829   -152.78504 
   79000    270.39637   -4227.3776   -3763.9275   -4227.3776            0    344.66616    18.110952    23.473434    22.266821    9466.2097   -140.16927    430.81506    743.35269    30.359832    239.31123   -136.45464 
   79500    266.70987   -4184.7856    -3727.654   -4184.7856            0    1499.4817    18.211655    23.535053    22.012671    9434.9008    1887.5883    908.33621    1702.5206    -578.1081   -844.07333   -187.27631 
   80000    287.91063   -4194.7645   -3701.2956   -4194.7645            0    529.45362    18.059947    23.783774    21.921366    9415.9652    2084.7024   -160.69825   -335.64329   -60.778989   -304.73596    293.60513 
   80500    268.02791   -4200.3638   -3740.9731   -4200.3638            0    1326.8769    18.136449     23.18825    22.397079    9419.1476     1502.623    1089.4382    1388.5693    1471.1513    164.43579    551.27343 
   81000    283.59713   -4233.5069   -3747.4311   -4233.5069            0    640.80791    18.144838    23.651423    22.022004    9450.7702   -680.86389   -8.1076353    2611.3953   -80.923611    117.71869    663.82662 
   81500    261.28366   -4209.0183   -3761.1871   -4209.0183            0    1778.4112    18.312486    23.538738    21.923466    9450.1717     2182.592    2138.8666    1013.7751    22.721711   -180.22511    117.34465 
   82000    271.75687   -4232.8271   -3767.0451   -4232.8271            0    1864.5562    17.897123    23.351657    22.388902    9356.9371    3519.6966    3212.8779   -1138.9061    214.26029   -398.36791    538.14184 
   82500    288.95549   -4181.8737   -3686.6139   -4181.8737            0     439.7284    18.211768    23.569379    22.155974    9510.2315    504.19415    1180.5782   -365.58721   -1403.1092    380.34073   -741.83103 
   83000    261.70985   -4217.3009   -3768.7392   -4217.3009            0     1019.224    18.211319    23.491085    21.890716    9364.9284     335.9427    1271.3934    1450.3359   -522.15548    308.32157   -726.07872 
   83500    268.16781   -4194.8446   -3735.2141   -4194.8446            0    1001.0171    18.010852    23.468446    22.251685    9405.4912    748.44684    831.02756    1423.5768    416.83483   -530.19125    191.24402 
   84000    290.67787   -4202.9486   -3704.7366   -4202.9486            0    1238.0981    18.181407    23.470762    22.036395    9403.6234    1651.5501    1020.5864    1042.1578     14.17023    138.20169     35.77536 
   84500    266.34278   -4217.8745   -3761.3721   -4217.8745            0     656.7337    18.153323    23.601925    22.099949    9468.7972    1769.9748   -134.83584    335.06219    1303.4924    483.15842   -291.40713 
   85000    269.63734    -4201.787   -3739.6378    -4201.787            0    2095.1225    17.898233    23.539182    22.353578    9417.7806    2924.2184    2826.1186    535.03048    164.94614    323.32386    104.53425 
   85500    279.79339   -4177.4746   -3697.9183   -4177.4746            0    715.97531    18.346293    23.405161    22.105997    9492.2692    630.96049     463.6867    1053.2787   -60.678653   -159.10686    27.283538 
   86000    271.56714   -4207.8738    -3742.417   -4207.8738            0    2196.7695    18.030369    23.675216    21.934162    9363.0989    1833.1782    900.48825    3856.6421   -963.91547   -36.194401    533.31447 
   86500    264.62836    -4227.096   -3773.5321    -4227.096            0    548.31048    18.074346    23.518362    22.362701    9505.9146    2459.0286    -7.241178   -806.85595    -876.5207    698.53819   -89.113351 
   87000    270.92594    -4227.561   -3763.2032    -4227.561            0    1046.9918    18.175042    23.453085     22.09475    9418.1258    2167.9877   -34.736638    1007.7243    -14.65989   -1102.7496    -500.8813 
   87500    278.15509   -4222.6391   -3745.8908   -4222.6391            0    1409.0456    17.983807    23.770514    22.006961    9407.6314     1808.518    4.3632009    2414.2558    412.83552   -915.66225    172.83747 
   88000    283.54365   -4199.5217   -3713.5376   -4199.5217            0    206.24765    18.466567    23.162592    22.217263    9503.0687   -921.31855      1111.22    428.84149   -738.54422   -369.56398    410.87528 
   88500    261.80438    -4209.366   -3760.6422    -4209.366            0   -542.81528     18.02951    23.749058    22.144548    9481.9386   -878.95841   -321.72399   -427.76344    250.17636   -406.86144    851.71339 
   89000    256.28743   -4224.1259    -3784.858   -4224.1259            0    615.92556    18.111699    23.460153    22.176228    9422.7509    1366.4111    556.74435   -75.378827    529.87968   -77.394991    -533.0374 
   89500    268.81362   -4232.7221   -3771.9847   -4232.7221            0   -1087.0937    18.444276    23.519329    22.018444    9551.5351   -2060.9027   -992.12518   -208.25337    671.59773   -471.89688    1031.1868 
   90000    271.95581   -4212.7616   -3746.6386   -4212.7616            0    1446.9614    17.995508    23.621889     22.17399    9425.8947    2241.6163   -206.54556    2305.8136   -382.88326    126.85011    370.31045 
   90500    280.90896    -4219.663   -3738.1947    -4219.663            0     1724.509    18.117891    23.457838    22.178356    9425.9469   -342.79855    2599.8404    2916.4851   -374.90567   -369.40975   -989.95256 
   91000    265.70391   -4234.8777   -3779.4703   -4234.8777            0    737.65089    18.139821    23.592612    21.915914    9379.2605    31.951676   -33.135714    2214.1367    -290.5764   -175.78914   -875.52659 
   91500    247.79509   -4236.3026   -3811.5903   -4236.3026            0    1155.6088    18.030884    23.520552    22.167297    9401.0694    192.35834    2053.6001     1220.868    -304.4951   -436.03936    -1003.818 
   92000    277.51649   -4207.3132   -3731.6594   -4207.3132            0    1126.8844    18.179806    23.221412    22.401474    9457.0234    788.09048    2152.9535     439.6092    190.15983   -232.17331   -336.33796 
   92500    258.82383   -4224.5843   -3780.9691   -4224.5843            0    407.35322    18.079015    23.797147    21.912718    9427.4865    6.8435372    746.85053    468.36557   -461.46714   -943.75094    312.16645 
   93000    254.94349   -4211.4656   -3774.5012   -4211.4656            0    1649.9174    18.144312    23.425103    22.232526    9449.5435    1367.0632    2499.9675    1082.7214   -992.96576    732.51414    341.08123 
   93500    272.88019   -4239.6177   -3771.9104   -4239.6177            0     873.0064    18.004805    23.451381    22.288904     9411.212    580.96451    1057.4289    980.62583   -1322.2605    943.13604    426.39559 
   94000    261.32481   -4199.8259   -3751.9241   -4199.8259            0    1199.7869    18.253601    23.675469    21.773461    9409.6744   -221.51517    1293.5452    2527.3306   -552.94319   -356.72185   -735.80525 
   94500    275.30514   -4222.6779   -3750.8143   -4222.6779            0    727.91848    18.111165    23.555687    22.230526    9484.0076     266.7086    210.91239    1706.1344    605.84801    364.29064   -30.011176 
   95000     257.2172   -4216.0929   -3775.2314   -4216.0929            0    2105.4872    18.057271     23.44135    22.178473    9387.8548    481.71513    3536.8279    2297.9185   -882.24935   -522.98284   -664.00428 
   95500    265.08972   -4215.5998   -3761.2451   -4215.5998            0    921.16382    18.274965    23.567079    21.918992    9440.2366    565.01817    655.08467    1543.3886    1348.3599    134.47288   -188.48899 
   96000    262.25585    -4180.906   -3731.4085    -4180.906            0    1634.6644    18.029297    23.780168     22.00701    9435.2791    1632.9786    1047.5201    2223.4945    601.83863   -104.39683    239.18256 
   96500     275.0372   -4192.4466   -3721.0422   -4192.4466            0    540.02013    18.139403    23.305824    22.427842     9481.454   -378.99614    1052.3407    946.71584   -412.75697   -450.80881    377.29882 
   97000     272.8263   -4215.5205   -3747.9055   -4215.5205            0    629.30818    18.134406    23.766457    21.931325    9452.1946    1683.4005   -1053.9541    1258.4782   -302.21135    312.01417   -740.14145 
   97500    273.68272   -4203.7933   -3734.7104   -4203.7933            0    2579.7104    18.181892    23.493181    21.948573    9375.3436    1454.0079    3259.3648    3025.7586    366.40834    851.91095   -473.02734 
   98000    268.51876    -4242.772     -3782.54    -4242.772            0    220.59717    18.098036    23.496125    22.308795    9486.4521    221.33129    990.41711   -549.95688   -1166.3264     713.6371   -1147.7262 
   98500    269.31836    -4201.749   -3740.1466    -4201.749            0   -254.71666     18.13631    23.730933    22.092112    9508.2584    17.356915    1333.7425   -2115.2494   -1144.6434   -9.5973313    126.63064 
   99000    271.82989   -4207.3056   -3741.3985   -4207.3056            0     1126.597    18.175252    23.187504    22.304479    9399.9713   -285.73694    3518.1391    147.38888     507.5553   -187.24781   -486.15494 
   99500    279.08829   -4184.6692   -3706.3215   -4184.6692            0    887.12922    17.979321    23.774515    22.123412    9456.6444    857.86114    1113.7385    689.78807   -1042.5071     406.4808   -1.1882266 
  100000    268.96857   -4230.1253   -3769.1224   -4230.1253            0    1288.9546    18.276659    23.504104    21.895724    9405.8883    1985.1374    836.90621    1044.8202   -1100.2266    345.84515    757.39627 
  100500     274.6764   -4221.5273   -3750.7413   -4221.5273            0    885.68199    18.002526    23.523292    22.329779    9456.1849    1083.2888     1106.206    467.55109   -273.81116    131.88206   -161.07311 
  101000    261.14959   -4234.9194   -3787.3179   -4234.9194            0    1068.7223    18.105783    23.455695    22.144882     9404.571    2046.9586    2111.6376   -952.42928     115.7894    725.05837    167.49141 
  101500    264.17428   -4192.5275   -3739.7418   -4192.5275            0    1870.3651    18.311904    23.572677    21.744185     9386.108    23.891796    1035.5053    4551.6981   -1044.1916    226.70125    982.15369 
  102000    272.48033   -4194.6589    -3727.637   -4194.6589            0    1523.5566    17.902895    23.528879    22.350972    9415.0128    1602.2847      1519.57    1448.8151   -456.09017      -29.726    972.23153 
  102500    255.62556   -4215.6691   -3777.5356   -4215.6691            0    920.89742    18.155756    23.399453    22.133294    9402.9925    1510.4588    1272.7865   -20.553043    746.33643   -79.270074   -305.85995 
  103000    280.13165   -4217.7534   -3737.6173   -4217.7534            0    665.74326    18.129705    23.904766    21.919545    9499.6321    1841.1452   -887.31447    1043.3991   -224.60216    42.870972    391.85806 
  103500    280.51512   -4241.6285   -3760.8351   -4241.6285            0    658.79548    18.126128    23.353371     22.26215    9423.7057    854.91833    1317.8067   -196.33861    713.12353   -836.85179   -357.67344 
  104000      269.176   -4214.3406   -3752.9822   -4214.3406            0   -302.11845    18.084659     23.49708    22.442522    9536.6504    124.43847   -682.65435   -348.13948    706.71325   -578.00918    912.96027 
  104500    273.56084   -4218.1647   -3749.2908   -4218.1647            0    903.63873    18.156749     23.68747    21.981898    9454.1383    1456.4576    771.33335    483.12524   -945.87564    11.297956    322.88567 
  105000    278.58545   -4195.9722   -3718.4863   -4195.9722            0    968.74447    18.140228    23.476046    22.160541    9437.3062    509.44649    795.64022    1601.1467   -498.98816    -203.2427    -432.2884 
  105500    285.29254   -4199.0447   -3710.0631   -4199.0447            0    582.36583    17.974442    23.629605    22.357467    9495.8638    840.05481   -453.80143    1360.8441   -62.969864   -299.21473   -360.78035 
  106000    251.10896    -4210.703   -3780.3109    -4210.703            0    1735.7788    18.250982    23.396389    21.999303    9393.8585    1922.3306    2790.8058    494.19985    639.35224    366.60911   -920.39978 
  106500    263.69815   -4195.8731   -3743.9035   -4195.8731            0    537.71962    18.131821    23.731794    22.014492    9472.8499   -995.63405     1019.237    1589.5559    -141.8796   -213.36105   -1091.2409 
  107000    280.08834   -4257.1371   -3777.0752   -4257.1371            0    604.36586    18.016805    23.466204    22.295909    9426.3987    68.467184   -144.03149    1888.6619    807.73889   -554.71001    161.24265 
  107500    275.36082   -4208.2712   -3736.3122   -4208.2712            0    1071.4299    18.224643    23.468601     22.01932    9417.8149    410.11345    2451.8983    352.27799   -867.58449   -1017.5223   -337.06846 
  108000    260.14261   -4192.1429   -3746.2674   -4192.1429            0   -427.47299     18.08127    23.756808    22.107635    9496.4063   -61.144841    415.62835   -1636.9025    442.43302    332.25953    275.92208 
  108500    270.02402   -4181.7383   -3718.9264   -4181.7383            0    712.12748    18.210725    23.221097    22.330143    9442.8154    1294.1928    1418.3668   -576.17714    70.389299    659.73739    411.72386 
  109000     267.9776   -4211.0392   -3751.7348   -4211.0392            0    1832.8388    17.931401     23.70297    22.073551    9381.8655    1852.8288    2995.5068    650.18097   -746.70295    261.26629    771.91426 
  109500    254.85271   -4178.6172   -3741.8084   -4178.6172            0    -501.6922    18.257589     23.48527    22.193911    9516.4026   -1638.7278    -354.0103    487.66151   -574.42012    63.749203   -168.17257 
  110000    258.57781   -4198.4388   -3755.2453   -4198.4388            0    1222.3201    18.131041    23.427626    22.171337    9417.6579    1011.5641    1006.4755    1648.9207    -379.2744    297.85766   0.75248727 
  110500    271.25886   -4226.2607   -3761.3323   -4226.2607            0    1104.1449    17.860013    23.774626    22.127802    9395.7996    2625.4153    108.46496    578.55442    316.64586    101.54972    443.79626 
  111000    275.74574    -4204.659   -3732.0402    -4204.659            0    578.02142    18.485208    23.107194    22.102162    9440.7463    925.94754    343.28417    464.83255   -71.759681   -518.00402    258.21313 
  111500    272.61885   -4186.5809   -3719.3215   -4186.5809            0    1610.0106    18.029027    23.705827    22.098343     9444.677    2522.4796    896.28198    1411.2704   -1365.3864   -692.61146    254.21841 
  112000    279.33191   -4225.0248   -3746.2595   -4225.0248            0    333.65618    18.206011    23.429067    22.218714     9477.389    337.86838    869.83128   -206.73112   -942.73005    -452.0081    627.56316 
  112500    265.87873   -4207.8819   -3752.1749   -4207.8819            0    814.67441    18.234549    23.417038    22.033032    9408.0854    80.818596    966.08304    1397.1216   -160.22005    288.07807    94.283382 
  113000    259.17035   -4199.7938   -3755.5847   -4199.7938            0    1381.3743    17.914271    23.601806    22.109964    9348.2953    189.75359    1965.3978    1988.9714    802.93376   -465.39076    206.33122 
  113500    263.68527   -4214.1133   -3762.1658   -4214.1133            0    1523.1477    18.229906    23.297965    22.184157    9422.0488    2065.2073    2144.4255    359.81027   -574.09234    459.97763    140.16226 
  114000    294.97688   -4209.3674   -3703.7871   -4209.3674            0    973.42716    18.054354    23.643892     22.14777    9454.3336    862.76957    769.06743    1288.4445   -13.819874    -558.3353     569.9273 
  114500    262.70812   -4210.9955   -3760.7228   -4210.9955            0   -129.87473    18.411491    23.176441    22.266535    9501.4163   -352.96905   -141.09394    104.43879    319.62722   -391.63435     675.1828 
  115000    284.34929   -4205.5494   -3718.1845   -4205.5494            0    1345.6513    17.953188    23.937051    21.937747    9427.6677    1295.1012   -133.31512    2875.1677   -888.56888    -663.4533    163.59273 
  115500    271.65354   -4212.0099    -3746.405   -4212.0099            0    2809.6501     18.14279    23.351299    22.108715    9366.5276    1426.4046    3137.2125    3865.3334    174.89479   -371.12392   -87.509723 
  116000    268.98205   -4229.5332   -3768.5072   -4229.5332            0    1139.8302    18.153323     23.36218    22.224529    9425.4494    2289.6924    535.29111    594.50707   -120.36096   -162.12949   -555.52542 
  116500    275.88545   -4207.0098   -3734.1516   -4207.0098            0     2541.534    17.907079    23.668631     22.00288     9325.614    3335.5121    2435.6701    1853.4198    681.10877   -593.93496    948.82675 
  117000    261.63662   -4235.5372    -3787.101   -4235.5372            0    840.44091    18.366425    23.382019    22.008305    9451.3363    960.46018    37.893953    1522.9686   -194.26238   -193.24215    1323.4675 
  117500    265.95526   -4237.9899   -3782.1517   -4237.9899            0    -127.6803    17.986111    23.719699    22.245302    9490.4048     1199.083    -1507.436   -74.687871    -26.78051   -733.44064    236.11679 
  118000    265.39915   -4223.1431   -3768.2581   -4223.1431            0    241.30517    18.082884    23.477193    22.187556    9419.4019    1443.5477   -197.62776   -522.00439   -1357.2376    174.11579   -848.25349 
  118500    271.64202   -4217.7022   -3752.1171   -4217.7022            0   -6.6573236    18.317876    23.518098    22.134923    9535.7609    242.98661   -1665.0432    1402.0846    -386.7814    413.34523    332.54114 
  119000    270.36936   -4194.7836   -3731.3798   -4194.7836            0    1564.8897    17.987521     23.79661    22.025922    9428.0197    2231.4533    333.17883    2130.0369    792.03132   -1560.4116    448.04509 
  119500    270.81041   -4225.4581   -3761.2983   -4225.4581            0    1353.3421    18.245811    23.235825    22.235472     9426.872   -1022.8456    3857.0589     1225.813    251.27999   -508.86844   -758.41609 
  120000    250.09908   -4188.5967   -3759.9355   -4188.5967            0    1028.3902    17.933832    23.828116    22.087452    9438.6183    1406.3791    483.80719    1194.9842    257.68746   -165.32503    640.60318 
  120500    275.83528   -4193.3604   -3720.5882   -4193.3604            0    1493.4666    18.189587    23.477176     21.97675    9384.9545    1758.9823    1915.2578    806.15962   -542.46394   -29.535379    108.32287 
  121000    267.46331   -4219.8147   -3761.3917   -4219.8147            0    302.00275    18.132382    23.456615    22.271209    9472.4866    1593.2242    -353.0373   -334.17865      874.885   -75.534375   -421.64407 
  121500    263.20759   -4216.3516   -3765.2228   -4216.3516            0    1717.1095    18.111852    23.634626    22.021316    9426.5955    2607.3442    2303.7365    240.24792     1544.128   -852.55996     217.6318 
  122000    277.14935   -4195.1825    -3720.158   -4195.1825            0   -411.68293     18.26553    23.502661    22.115931    9494.1165    280.99832   -1039.7306   -476.31647    627.68589    670.22932    234.37309 
  122500    270.05221   -4171.0222   -3708.1619   -4171.0222            0    1507.9291    17.965781    23.313954     22.40997    9386.4917    14.876091    3034.1578    1474.7535    325.40896    85.343345   -13.107916 
  123000    271.99488   -4245.2317   -3779.0418   -4245.2317            0     384.7451    18.207775    23.704785    21.866517    9437.8375   -394.63295    136.71946    1412.1488   -404.73981    1465.4198    431.62081 
  123500    253.26513   -4188.2431   -3754.1554   -4188.2431            0    800.94077    18.132945    23.467149    22.097563    9403.1435   -6.0070882    580.51466    1828.3147   -57.098058   -494.44395    176.72339 
  124000    262.85478   -4174.5471    -3724.023   -4174.5471            0   -1013.4557     18.19301    23.443683    22.506873    9599.4322    391.53414    -273.1851   -3158.7161     -582.943   -473.10768    194.78335 
  124500     265.8163   -4210.5317   -3754.9317   -4210.5317            0    2083.3217    18.129188    23.497224    21.944162    9347.8966    1718.2007     1748.161    2783.6035   -1877.9931   -677.22087   -941.28892 
  125000    276.84259   -4178.1888   -3703.6901   -4178.1888            0    1443.0789    18.099289     23.51057    22.110259    9408.4589    1542.5239     1763.132    1023.5807   -258.92676    114.54996    399.95745 
  125500    259.73022   -4189.9342   -3744.7655   -4189.9342            0   -683.76584    18.166316    23.345957    22.359642    9482.9486   -2079.9823    1227.5281   -1198.8433   -114.58652   -227.79276    370.82061 
  126000    271.12264   -4211.6916   -3746.9967   -4211.6916            0    2363.0989    18.043634    23.570464    21.939816    9330.9342    3839.1536    2703.5223    546.62064    183.84147   -663.62726    328.28599 
  126500    251.95974     -4224.64   -3792.7896     -4224.64            0    2112.8983    18.120279    23.500131    21.933977    9340.1221    2474.5053    2403.5793    1460.6104   -59.543269    -490.0439    111.60425 
  127000    272.16443   -4204.6254   -3738.1449   -4204.6254            0    779.34195    18.039464    23.334752    22.298852    9386.6224    1873.6538    1128.0855   -663.71347   -244.13852     -181.237   -602.17597 
  127500    283.00956   -4226.1228   -3741.0541   -4226.1228            0    858.36628    18.054964    23.570667    22.084025    9398.2438   -83.726698    1564.7301    1094.0954   -193.38231    76.596453    307.99926 
  128000    271.17992   -4210.0737   -3745.2806   -4210.0737            0    447.89519    18.190797    23.476661    22.118013    9445.7003   -557.35592    612.81234    1288.2292   -208.28628   -316.82398    227.57499 
  128500    258.00057   -4212.3824   -3770.1783   -4212.3824            0    1102.7598    17.995807    23.637921    22.144293    9419.8161    2685.0679    537.23554    85.975868   -56.355828   -271.27676    20.164557 
  129000    276.66041   -4185.0664   -3710.8799   -4185.0664            0    1444.0485    18.449653    23.417652     21.75189    9397.8505    1297.7259    361.98596    2672.4337   -361.91203    829.23691    328.04379 
  129500    267.99199    -4218.213   -3758.8839    -4218.213            0    574.10687    17.941536    23.609348    22.326416     9457.201    484.84679    1163.7696    73.704202   -741.43451    -243.9537   -608.81327 
  130000    271.11384   -4247.1455   -3782.4656   -4247.1455            0   -140.44741    18.129402    23.482665    22.198163    9450.3499    839.46553   -719.70957   -541.09819    128.46945    34.274223    532.10452 
  130500     269.8855   -4195.8395    -3733.265   -4195.8395            0    416.97172    18.236541    23.505607    21.964894    9415.4926     511.4058   -923.49372    1663.0031    -63.97889    504.72903    265.10366 
  131000    265.49527   -4240.8634   -3785.8136   -4240.8634            0    368.39156    17.935667    23.535818     22.25931    9396.3358   -299.57199    271.90147    1132.8452   -594.88044    469.80046    544.76339 
  131500    283.14276   -4222.6908   -3737.3938   -4222.6908            0    1551.4397    18.120257    23.311651    22.249261    9398.3798    1630.6309    1543.2542    1480.4338    401.63637    270.99843   -378.55612 
  132000    268.97794   -4179.1709    -3718.152   -4179.1709            0    396.80537    18.231665    23.760794    21.885967    9480.9755    445.09365   -1243.9569    1989.2793    642.43701    1001.9235    473.00905 
  132500    278.59798   -4201.4416   -3723.9342   -4201.4416            0    1322.2159    18.094246    23.462751    22.147512    9402.5222    1143.7489    910.86073     1912.038    59.421848    -412.1635    364.12583 
  133000    257.11958   -4198.3572    -3757.663   -4198.3572            0    133.57527    18.103365    23.476264    22.231301    9448.2891   -689.32976   -620.47118    1710.5267   -18.198681    315.89918   -435.85421 
  133500    272.27423   -4192.2726   -3725.6039   -4192.2726            0    2784.4237    18.242568    23.655175     21.62459    9331.6842    2519.8422    1294.1168    4539.3119    151.06382   -318.12491   -126.84548 
  134000    245.13104   -4202.0929   -3781.9467   -4202.0929            0    556.56215     18.07079    23.464504    22.230863    9426.3781    586.52634    174.57102     908.5891    319.56287   -762.89318   -991.27905 
  134500    263.55571    -4192.951   -3741.2255    -4192.951            0    873.49496    18.003539    23.606781    22.194128    9432.6288    1482.9502    277.36233    860.17235   -840.18927   -429.43712   -473.52331 
  135000    254.12601   -4228.4584   -3792.8951   -4228.4584            0    79.458962    18.439185    23.358414    21.994232    9473.1384   -617.75313    1546.4837   -690.35374    -181.0491   -395.86233    778.31122 
  135500    280.05227   -4238.9683   -3758.9683   -4238.9683            0    49.963729    17.917258    23.614206    22.306703    9438.0066   -449.23258   -320.11106    919.23483     659.2588    414.25398   -313.84386 
  136000    260.38935    -4187.712   -3741.4136    -4187.712            0    796.97633    18.242277    23.462671    21.983895    9409.3827    304.02561    571.78603    1515.1174   -935.75329     437.4147    118.14165 
  136500    276.37905    -4203.958   -3730.2537    -4203.958            0    937.52708    18.163437    23.551112    22.043413    9429.4913    620.53609    1241.9782    950.06701    1039.4086   -351.59879    690.38009 
  137000    259.05264   -4210.9358   -3766.9284   -4210.9358            0    1487.1561    18.038262    23.601514    22.037034    9381.8329    1397.3947    1549.7086    1514.3649    53.408467    659.00151   -193.22687 
  137500    276.38549   -4159.9233    -3686.208   -4159.9233            0    1794.4916    18.406832    23.289019    22.004194    9432.6931    177.45489    808.16331    4397.8566    472.33011    659.92259    101.58047 
  138000    279.23945   -4225.4067   -3746.7998   -4225.4067            0   -175.15023    17.736274    23.790793    22.387697     9446.713   -602.72698    64.544806    12.731497   -75.886577    184.55281    764.59813 
  138500    264.91386   -4193.1595   -3739.1062   -4193.1595            0    698.51568    18.270159    23.398292    22.077416     9437.886   -387.16348    1681.1696    801.54091    282.84466    50.816934   -135.51096 
  139000    254.20306   -4233.2941   -3797.5988   -4233.2941            0    2370.7587    18.030446    23.536036    21.961996    9319.9071     1476.132    3050.2972     2585.847   -604.54993    553.35139    546.03988 
  139500    263.20191   -4180.7013   -3729.5823   -4180.7013            0    1637.7032    18.096019    23.433636    22.231571    9427.4207    1675.0515    1798.9451    1439.1132   -462.07428   -217.96091    536.77698 
  140000    263.30774   -4205.9285   -3754.6281   -4205.9285            0     2641.709    18.019168    23.295822    22.276077    9350.8582    3131.8289    2985.4197    1807.8784   -603.22245    764.33327   -275.52075 
  140500    265.77764   -4178.1841   -3722.6503   -4178.1841            0    381.34896    18.210919    23.764422     21.95081    9499.6955    371.58656   -120.76356    893.22388   -1274.1007   -177.27723    20.418599 
  141000    269.34719   -4248.8733   -3787.2214   -4248.8733            0   -6.2093395    18.152633    23.468037    22.261011    9483.3395    387.40189    4.8328922    -410.8628   -499.18456   -362.78669    214.00943 
  141500    263.35209   -4208.0414    -3756.665   -4208.0414            0    1342.3266    17.986555    23.507128     22.20191     9387.239    2109.9094     1043.672    873.39842    939.08165   -251.52548    259.25562 
  142000    255.68048   -4203.4743   -3765.2467   -4203.4743            0    955.20013    18.298913     23.52358      21.8211    9393.0221   -308.17778    1740.1366    1433.6416   -16.910586   -756.88427     46.22403 
  142500    283.07197   -4216.0819   -3730.9063   -4216.0819            0   -830.07021    18.035522    23.599399    22.357229    9515.8511   -1578.8764   -816.95805   -94.376173    827.40723    359.85757    140.45448 
  143000    262.99251   -4219.2522    -3768.492   -4219.2522            0    1171.9645     18.15067     23.43515     22.09054    9396.5135    176.45447    1902.5266    1436.9126    553.81616   -491.06211    419.63913 
  143500    263.03032   -4207.7803   -3756.9553   -4207.7803            0    2073.2862    18.075952    23.583106    21.947906    9356.1086    1108.1318    2228.0608     2883.666   -164.92404    578.72607    418.54782 
  144000    268.29078   -4208.6069   -3748.7657   -4208.6069            0    710.42782    17.964475    23.397989    22.452276    9437.4234    1848.3081    809.34686   -526.37148   -1004.9912   -950.41608     631.2772 
  144500    261.09315   -4213.7668    -3766.262   -4213.7668            0    2418.2538    18.246432    23.330824    21.929217    9335.3618    898.75919    4422.1706    1933.8316    -110.6939   -156.51537   -141.26141 
  145000    272.93244   -4189.9184   -3722.1215   -4189.9184            0    815.15863    18.073266    23.654708    22.052991    9428.0472    1215.1012    326.68166    903.69306   -8.6689948   -331.87376    239.10245 
  145500    278.82607   -4204.1587   -3726.2604   -4204.1587            0    1001.1932    18.204308    23.375049    22.278822    9480.2307   -346.70713    2355.3739    994.91282     492.6021    190.70304   -425.15307 
  146000     262.9845   -4221.9545   -3771.2081   -4221.9545            0     1726.309    17.953697    23.532265    22.043415    9313.1478    1213.9153    1698.2742    2266.7374    230.98801   -336.37569    184.54366 
  146500    269.78769   -4209.5797   -3747.1729   -4209.5797            0   -1263.1331    18.330658    23.628914    21.967839    9515.0081   -1947.5261   -1884.2699    42.396823   -944.96136   -703.78091    -50.49891 
  147000    253.23555   -4211.3392   -3777.3022   -4211.3392            0     1315.422    18.041656    23.392108    22.242258     9386.953    1051.0091    1924.5715    970.68548    782.69198   -333.81797   -810.10066 
  147500     280.9957   -4227.3704   -3745.7534   -4227.3704            0    888.58272     18.10746    23.590474    22.086288    9434.4577    1469.4323    1125.2679    71.047926   -341.30826   -891.66582    134.45779 
  148000     241.2129   -4205.2851   -3791.8545   -4205.2851            0     286.8078    18.295546    23.591388    21.930879    9465.7477   -158.84528    647.40961    371.85907   -169.45291    515.95993   -83.259392 
  148500    276.99409   -4229.6691   -3754.9107   -4229.6691            0    2736.4001     17.87847    23.463263    22.191776     9309.167    3502.8548    2927.2813    1779.0642    169.36627    73.803814    481.92887 
  149000    283.95811   -4194.7461   -3708.0516   -4194.7461            0    572.34391     18.15608    23.378058    22.345125    9484.4753    1716.7941    926.75668    -926.5191    94.903039    202.28564    358.78123 
  149500     275.2629   -4201.7124   -3729.9212   -4201.7124            0    1908.6807    18.091954     23.64616    21.862833    9353.0346    1497.8407    1339.2329    2888.9684    597.34864   -92.233685   -174.33895 
  150000    276.57843   -4234.4187   -3760.3728   -4234.4187            0     1859.497    18.098511    23.277456      22.1249    9320.9391    2116.0691    3073.3897    389.03217    438.15053    1025.5052    555.39316 
  150500    278.14571   -4223.0503   -3746.3181   -4223.0503            0    1517.4535    17.978406    23.625434    22.197669     9428.408    1755.9988    2526.4845    269.87718    444.23489   -468.11626    137.15408 
  151000    275.82326    -4198.102   -3725.3504    -4198.102            0    414.25678    18.275648    23.613169     21.89518    9448.7768    1023.7004    308.03649   -88.966513   -53.174795    485.28007   -320.11064 
  151500    262.90422    -4198.947   -3748.3381    -4198.947            0    881.64679    18.078549    23.389248    22.244968    9406.1437    1108.0627    1048.9956    487.88204    351.26417    195.12833    836.60585 
  152000    252.13327   -4214.9437   -3782.7959   -4214.9437            0    263.45362     17.96875    23.908316    22.130207    9507.1934    340.29499   -1093.7716    1543.8374   -151.53727    19.279684    1331.5574 
  152500    271.24239   -4237.5706   -3772.6704   -4237.5706            0    1918.1564    18.218565     23.25462     22.08709    9357.5445     1633.687    3215.4967    905.28559    172.61745    586.56915   -57.853404 
  153000    269.46711   -4195.8205   -3733.9631   -4195.8205            0    521.07503    17.995219    23.625747    22.118315    9403.6131    835.90927   -174.12627    901.44209    375.91107   -194.25179   -606.21587 
  153500     277.4799   -4204.6562   -3729.0651   -4204.6562            0   -1058.5638    18.313916     23.42303    22.269293     9552.801   -1625.7862   -700.68894   -849.21624   -410.93951    98.925758   -25.531774 
  154000    264.13396   -4232.7594   -3780.0428   -4232.7594            0    550.07074    18.043268    23.625716    22.154838    9444.2778   -140.58181   -477.81685    2268.6109   -1353.9841   -595.41683   -481.05424 
  154500    253.14066   -4229.9721   -3796.0977   -4229.9721            0    703.99329    18.163785    23.592332    21.983114    9420.3366    274.46759    1986.2186   -148.70633   -332.88841     221.2736    142.69799 
  155000    267.63372   -4215.2503   -3756.5353   -4215.2503            0    814.04568     18.15129    23.411039    22.128544    9403.3161     500.0144    643.01712    1299.1055   -958.80696   -337.41913   -659.43546 
  155500    274.04281   -4229.6747   -3759.9747   -4229.6747            0    903.82858    17.919237    23.798509    22.191191    9463.4583    1911.8942    1177.1219   -377.53038    135.71244   -539.82773   -797.87889 
  156000    259.55082    -4248.396   -3803.5348    -4248.396            0     324.2688     18.37056    23.263282    22.125656    9455.6095   -649.17974    815.16787    806.81828    661.58389    182.47947    116.07095 
  156500    271.17058    -4222.394    -3757.617    -4222.394            0   -468.86894     17.98135    23.879848    22.124419    9500.0468    951.33156   -1609.6203   -748.31807   -180.23502   -234.36227    167.53517 
  157000    260.85744   -4212.5623   -3765.4616   -4212.5623            0    1524.8951     18.07723    23.488746     22.12833     9395.943    1585.5536    2589.6467    399.48507   -717.80941    387.00102    105.01735 
  157500    262.82994   -4211.1734   -3760.6919   -4211.1734            0    390.33715    18.216981    23.421663     22.21264    9477.5115    1683.0831    627.15458   -1139.2262   -405.67917   -1311.1919    174.17267 
  158000    271.78664   -4234.2724   -3768.4394   -4234.2724            0    1723.3141    17.698306    23.891167    22.199021     9386.483    4407.4243     481.1335    281.38441   -1258.8532   -631.27457   -937.75822 
  158500    263.84356   -4218.4476   -3766.2287   -4218.4476            0    1089.1701    18.369038    23.263611    22.034449    9415.9848   -113.26457    701.08216    2679.6927   -956.82954   -221.81963    1072.6681 
  159000    255.26935   -4191.3215   -3753.7985   -4191.3215            0    2136.5961    17.938777    23.640653    22.093423     9369.476    1637.5748    2849.4791    1922.7343   -484.25092    620.20031    1031.7641 
  159500    267.31339   -4201.5561   -3743.3901   -4201.5561            0    682.36829    18.157972    23.415121    22.169506    9425.8338    93.994462    1570.7021    382.40829   -56.726289   -435.02276   -1248.3517 
  160000    275.24344   -4186.1419    -3714.384   -4186.1419            0   -507.90255    18.293029    23.614138    22.050192    9525.1119    -1957.593    -85.26061    519.14594    333.60108      494.782    777.28566 
  160500    271.98302   -4214.7698   -3748.6002   -4214.7698            0    868.82182    17.961838    23.646659    22.142579    9404.7826    664.77495    883.84448     1057.846   -1364.7498   -405.34969   -48.332182 
  161000    263.29696   -4240.7627   -3789.4807   -4240.7627            0    1383.6781    18.226304    23.118135    22.200111    9354.1983    1217.1314     2111.315     822.5879    359.25074   -347.41407   -599.68848 
  161500    260.53223    -4194.789   -3748.2456    -4194.789            0   -559.60518    18.117714    23.809178    21.933049    9461.2125   -753.26894   -389.99912   -535.54748   -603.55379   -793.03986   -57.724848 
  162000    264.42744   -4217.1008   -3763.8812   -4217.1008            0    1942.9358    17.977936    23.629496     22.07116      9376.04    2985.2808    2006.3891     837.1374    155.93849    -114.9496   -150.43753 
  162500    266.62453   -4211.4243    -3754.439   -4211.4243            0    871.04737    18.207254    23.279906    22.190382    9405.6858    1485.9696    1126.1541    1.0183553   -926.80728   -180.91353   -973.73219 
  163000     264.7213   -4202.1059   -3748.3827   -4202.1059            0    15.015396    18.017635    23.798571    22.075895    9466.0106   -62.697915   -812.63053    920.37464    941.94954    937.89995    -697.6712 
  163500    252.60797    -4237.273   -3804.3116    -4237.273            0    2207.7013    18.157985    23.301606    22.038636    9324.7719     1737.891    1581.5124    3303.7004    824.38013   -224.28568    21.752977 
  164000    273.54458   -4233.2287   -3764.3826   -4233.2287            0     410.3965    18.168728    23.564561    22.132115    9475.6015   -750.09791    1049.2548    932.03265    330.91514   -283.63081    570.78178 
  164500    274.62632   -4212.0257   -3741.3256   -4212.0257            0    1232.2453    18.004427    23.645637    22.117719     9416.091    937.19234    1177.3706     1582.173   -36.273404    219.51877    279.62504 
  165000    270.50276   -4220.0693   -3756.4368   -4220.0693            0    2320.0888    18.169994     23.29955    22.017456     9321.149    687.83615    1766.6883    4505.7421   -428.91834    153.87926   -283.43426 
  165500    262.21769   -4197.5844   -3748.1522   -4197.5844            0    567.88525    17.958316    23.705693    22.172139    9438.9971    1230.6277    807.98451   -334.95648    352.98164     392.3461    288.02204 
  166000    264.21572   -4192.9374   -3740.0807   -4192.9374            0    970.61988    18.206683      23.2615    22.205286     9404.266    552.85146    1861.7449    497.26324   -1126.9327    619.06861   -437.46974 
  166500    259.00279   -4216.5008   -3772.5789   -4216.5008            0     1223.757    18.052062     23.83111    21.906465    9424.1757    131.99622    1597.8388    1941.4359    190.08863    5.4597133    758.39948 
  167000    274.04333   -4257.0536   -3787.3528   -4257.0536            0   -230.46377    18.121124    23.454882    22.331175    9491.3931    1008.9787   -243.94418   -1456.4258   -109.33865    410.70036    594.07958 
  167500    259.55926   -4219.4356   -3774.5599   -4219.4356            0    635.80732     18.21043    23.518356    22.091496    9461.3321    179.44492    1795.8933   -67.916198    1354.1423   -46.095451   -461.44291 
  168000    289.18888   -4207.5539    -3711.894   -4207.5539            0     693.6429    17.979375    23.820461    21.972638    9410.3755    369.80532     281.2631    1429.8603    54.994502   -661.68298    226.45375 
  168500     273.1543   -4213.3272   -3745.1501   -4213.3272            0    984.03811    18.189405    23.088462    22.368583    9394.0305    2205.6145    410.87219    335.62762    1183.7085    557.01303    273.21246 
  169000     276.7758    -4189.311   -3714.9267    -4189.311            0     1162.605     18.05506    23.768433    22.005437     9443.424    2028.8249     471.5603    987.42981   -275.07396   -461.18041   -155.97505 
  169500    268.99448   -4230.0168   -3768.9694   -4230.0168            0    1280.8859    18.080183    23.502575    22.065847    9376.4594    2612.5062    301.91482    928.23659   -801.27218    77.188659    746.91068 
  170000     266.8187   -4204.6471    -3747.329   -4204.6471            0    657.36556    18.264163     23.30149    22.238884    9464.4735   -695.19466    2004.6951     662.5962    404.56755    382.23171    316.25782 
  170500     262.9053   -4236.1137    -3785.503   -4236.1137            0    1680.4002    17.909631     23.77739    22.122189    9420.6075    3432.5285    880.13507    728.53717    101.22839     114.6313    42.727137 
  171000     263.5048   -4205.0901   -3753.4519   -4205.0901            0    1656.5865    18.369652     23.24522    21.974997    9383.4685    1162.5796    3393.4733    413.70645   -879.84192    262.48775   -256.31298 
  171500    258.67277   -4205.4995   -3762.1432   -4205.4995            0    514.65849     17.94403    23.772341    22.177186    9460.1578    1853.2802    1160.1483    -1469.453    784.62347    302.75411    421.89971 
  172000    275.04839   -4235.3785    -3763.955   -4235.3785            0     1390.763    18.133595    23.363527    22.225105    9415.9936    1195.9499    1249.1928    1727.1463    623.20207    573.88365    591.93817 
[...]
  960500     272.9091    -4214.376   -3746.6191    -4214.376            0   -511.97485    18.305725     23.31727    22.417812    9568.8083    -419.5326   -247.36011   -869.03182    718.34776   -774.27082   -1442.4427 
  961000    283.51101   -4249.7227   -3763.7945   -4249.7227            0    1505.6662    18.016999    23.664812     21.95913    9362.6898    1544.5901    1426.9011    1545.5074   -653.33938   -150.85733    1021.8789 
  961500     264.1188   -4216.9098   -3764.2192   -4216.9098            0    1162.6828    18.190208    23.549229    22.141037    9484.4536    55.628108    2236.0013     1196.419    31.748136   -763.99459   -317.69752 
  962000    260.49073   -4184.7278   -3738.2556   -4184.7278            0    1100.8287    18.088564    23.388681    22.222886     9401.784    1591.2186    986.91199    724.35548    544.32434     479.2117   -396.24656 
  962500    271.67419   -4208.1883    -3742.548   -4208.1883            0    1957.6224     18.00735    23.941841    21.784575    9391.9645    805.33735    992.46048    4075.0694     268.8645   -158.66334   -852.83069 
  963000    253.02313   -4204.6882   -3771.0152   -4204.6882            0    915.83405    18.334304    23.304395    22.167438    9471.4781   -8.4067958   -24.799193    2780.7081    119.99077   -369.97841     549.8179 
  963500    271.47218   -4198.9304   -3733.6364   -4198.9304            0    1120.4623    18.028638    23.534081     22.37096    9491.7173    1732.6833    374.92916    1253.7745   -1886.3438   -18.446262    56.112142 
  964000    269.60979   -4205.4245   -3743.3226   -4205.4245            0    1912.6245    18.160478    23.599294    21.946558     9405.734    1565.3119    1818.6797    2353.8819   -617.85668    490.95553  -0.73582332 
  964500    273.89629   -4192.6355   -3723.1866   -4192.6355            0    733.88601    18.250609    23.590384     22.08214    9507.2198    2208.5994   -693.96878    687.02743    158.56245    87.588236    208.63423 
  965000    270.32645    -4188.382   -3725.0517    -4188.382            0    253.45964    18.065524    23.567759    22.256978    9476.2178   -297.82778    1193.9651   -135.75838   -111.03179   -260.06553     146.4267 
  965500    264.57426   -4164.3046   -3710.8334   -4164.3046            0    2505.0391    18.135058    23.458398    21.970412    9346.6398    2316.1308    2540.2207    2658.7659   -584.83634   -366.67898   -15.978142 
  966000    270.27216   -4203.1689   -3739.9316   -4203.1689            0    21.754932    18.131113    23.693418     22.04263    9469.2502   -1040.4585    223.20149    882.52177   0.76374301   -802.02849    111.88641 
  966500    270.35187   -4156.7905   -3693.4166   -4156.7905            0    1268.8589    18.000685    23.298729    22.319493    9360.6413    2291.2708    1315.9023    199.40355    834.64953   -138.95508    173.93357 
  967000    261.97065   -4226.5962   -3777.5874   -4226.5962            0      719.531     18.16482    23.535551    22.000612    9405.6807   -577.72347    1059.1104    1677.2061    -987.6063    468.65074    75.860352 
  967500    268.51242    -4235.507   -3775.2859    -4235.507            0   -376.04661     18.02869    23.741189    22.163219    9486.3575    840.26477   -1049.3842   -919.02042    126.58867    516.38692   -362.80094 
  968000    260.72598   -4172.3404    -3725.465   -4172.3404            0    2471.5958    18.225402    23.053788    22.280161    9361.3337    3091.2124    2310.8054    2012.7695   -150.24467    715.76398   -734.65465 
  968500    251.88212    -4246.369   -3814.6517    -4246.369            0    1399.1053    18.000056    23.699855    22.053563    9408.0218    1549.2528    1398.9802    1249.0829   -554.12921    360.51027    512.10123 
  969000    286.03867   -4221.2023   -3730.9418   -4221.2023            0    987.10725    18.250983    23.350731    22.088564    9413.5667    267.05357     2686.527    7.7411959    3.0902295   -491.44383   -519.56906 
  969500    276.94521   -4227.3553   -3752.6807   -4227.3553            0   -375.55553    18.070353    23.498103    22.281634    9461.2054    -726.5975    515.52657   -915.59567    1304.6689    495.98988    774.34474 
  970000    276.39212   -4169.3531   -3695.6265   -4169.3531            0    1119.6142    18.102219    23.747208    22.065886    9485.6205    279.69592    1560.9277     1518.219    386.84846    248.58468   -341.08475 
  970500    257.85325   -4217.7968   -3775.8452   -4217.7968            0    654.36066    18.342969    23.264485     22.15817    9455.7719    450.71079    1557.2121   -44.840902   -506.38834   -171.04362   -329.94553 
  971000    264.93715   -4226.5108   -3772.4176   -4226.5108            0     2028.078    17.906222     23.68836    22.039799    9348.5998    2801.6987    1959.8114    1322.7238    950.78773   -263.09934     737.1106 
  971500    263.94233   -4187.3658   -3734.9777   -4187.3658            0    1115.7967    18.385915      23.2079     22.15625    9454.0381   -838.18692    2294.2538    1891.3233   -1068.5027   -522.25608    340.92779 
  972000    271.82163   -4188.1314   -3722.2384   -4188.1314            0   -432.21787    17.956643    23.758005     22.23813    9487.0981    589.57193   -1889.7584    3.5328493   -1261.1186    -114.1526     233.4019 
  972500     283.0585   -4250.2848   -3765.1322   -4250.2848            0   -99.079598    18.184501    23.450169    21.985735    9375.3684   -1956.9891    1022.9953    636.75503    5.7600782   -66.537403    133.12011 
  973000    261.11745    -4194.884   -3747.3376    -4194.884            0    925.50722    18.182369    23.315276    22.192989    9408.2061    699.58047     1535.427    541.51414   -334.89371    76.186963    607.69423 
  973500    286.27858   -4207.0598   -3716.3881   -4207.0598            0    2055.4587    17.769294    23.869031    22.065857    9358.9206    2938.6238    666.58789    2561.1645   -146.40704   -549.50674    590.04589 
  974000    273.75348   -4232.9545   -3763.7504   -4232.9545            0    353.81857    18.283345    23.324317    22.085876    9418.4452   -232.03392    1181.5048    111.98486   -694.63338    509.14091    638.74273 
  974500    278.72136   -4246.2949   -3768.5761   -4246.2949            0    1994.6278     17.92864    23.586754    22.137161    9361.3277    3082.0229    304.44645     2597.414   -52.658196   -1032.3943   -456.15737 
  975000    274.67037   -4197.6837    -3726.908   -4197.6837            0    38.161675    18.193056     23.49273    22.243543    9506.9916   -543.47622    2165.9216   -1507.9604    260.81929    635.27788   -269.07122 
  975500    261.85011     -4223.27   -3774.4679     -4223.27            0   -14.083901    18.221578    23.590653    22.046877    9477.0469   -675.18165    255.68567    377.24427   -226.49567    338.06609    -768.1497 
  976000    263.60782   -4204.5486   -3752.7338   -4204.5486            0    1630.8104    17.990161    23.584172    22.170725    9406.6628    2742.4796     1602.132    547.81959   -563.47381    705.34736   -77.330747 
  976500    275.72662   -4216.9443   -3744.3583   -4216.9443            0    651.24116    18.184888    23.392355     22.28484    9479.6891    125.63172    9.6798979    1818.4119   -309.08736    793.41752   -528.82378 
  977000    291.37692   -4194.2861   -3694.8761   -4194.2861            0     3401.756     17.99019    23.788368    21.828465      9341.65    3899.4572    2271.3881    4034.4227   -154.34306    639.92778    116.44749 
  977500    272.53371   -4224.9836   -3757.8702   -4224.9836            0      881.164    18.273053    23.226409    22.140234    9396.7006    1397.4297    1239.0195    7.0428275   -820.62615    269.40319   -173.10569 
  978000    271.52671   -4141.9705    -3676.583   -4141.9705            0     795.4524    17.979171     23.63113    22.323368    9484.4871    885.28081     1401.496     99.58041     1050.486   -407.35622    176.69869 
  978500    269.27887   -4206.8673   -3745.3325   -4206.8673            0    1194.2346    18.196311    23.548957    22.006454    9429.8568    792.69114    739.27166     2050.741    1064.3047   -433.87721   -134.00062 
  979000    265.44608   -4230.0565    -3775.091   -4230.0565            0   -28.450343    18.189494    23.594531    22.144136    9503.6558    499.86593   -1796.1945    1210.9776   -473.17606   -120.17368   -188.34619 
  979500    270.10199    -4217.107   -3754.1614    -4217.107            0    2485.5375    17.932944    23.503495    22.174924    9346.4391    3397.5897    1805.6447    2253.3781    169.80161   -161.08971   -172.49011 
  980000    281.76161   -4217.5432   -3734.6135   -4217.5432            0    1323.1549    18.220914    23.421041     22.09217    9427.8945    2082.9387    1734.5477    151.97827    880.85544    70.580253   -246.91333 
  980500    256.00399   -4240.4152   -3801.6331   -4240.4152            0    102.01065    18.012919    23.692725    22.123668    9441.8314    457.56478   -921.61299    770.08016   -571.96648   -437.47566   -290.01856 
  981000    270.03039   -4196.9377   -3734.1149   -4196.9377            0    164.46122    18.285964    23.250068    22.241828    9456.1111    787.24673    641.12034   -934.98339    256.45065    67.650923   -504.21315 
  981500    251.74164     -4210.83   -3779.3534     -4210.83            0    721.58266     18.10353    23.544945    22.084846     9413.591    1257.2416    721.44296    186.06346    143.68914   -303.91114    956.79931 
  982000    277.07504   -4203.9763   -3729.0792   -4203.9763            0    200.65682     18.08895    23.697039      22.1535    9496.1986    -395.9331    815.88318    182.02039   -88.862577    691.85233   -4.8418208 
  982500    287.26035   -4216.9319   -3724.5775   -4216.9319            0    1406.6467    18.208283    23.243095    22.268682    9424.4815    1731.7537    839.02009    1649.1662   -1397.7802   -236.87537   -318.35677 
  983000    270.20487    -4201.178    -3738.056    -4201.178            0    1873.1246    17.934144    23.739171    22.035163    9381.2877    1459.6569    470.89936    3688.8175    324.99164   -749.51216   -570.85493 
  983500    261.07455   -4216.9702   -3769.4973   -4216.9702            0    1113.4926    18.328559    23.331864    21.977647    9398.5086    2393.5323    327.43865    619.50671   -165.71133    -952.4396    442.49832 
  984000    270.05713   -4241.8598   -3778.9911   -4241.8598            0   -868.90813    17.934479      23.8082    22.250782    9500.8095    57.537942    -665.2068   -1999.0555   -652.87888    244.37856   -267.89681 
  984500    269.05999   -4230.4369   -3769.2773   -4230.4369            0     1732.534    18.069138    23.421162    22.227819    9406.8176    2928.3191    2343.8461   -74.563272     121.7217     303.6421    277.01544 
  985000    277.21818   -4215.9846   -3740.8422   -4215.9846            0    1585.7164     18.14448    23.511754    22.004986    9387.5152     1134.933    1698.1482    1924.0679   -68.368199   -595.07579   -106.87361 
  985500    261.13533   -4231.1235   -3783.5464   -4231.1235            0    150.39673    18.069039    23.767384    22.102262    9491.8999    810.07878   -922.40299     563.5144    40.108434    245.96944    637.52117 
  986000     263.4319   -4168.8693    -3717.356   -4168.8693            0    1475.3605    18.158555    23.333697    22.292624    9445.5235    2434.3171    1082.7825    908.98173   -1752.8817    -256.9977    405.04239 
  986500     290.0978   -4246.0797    -3748.862   -4246.0797            0    1617.4536    18.077818    23.676214    21.948593    9394.3115    2190.0657    1228.5069    1433.7882    104.47138    100.87924     739.5646 
  987000    265.52737   -4204.0687   -3748.9639   -4204.0687            0     426.4524    18.287879    23.535293      21.9973    9467.8712   -913.28124   -412.50303    2605.1415    707.75203    6.8839686    595.28265 
  987500    268.67345   -4211.6761    -3751.179   -4211.6761            0    1353.5511    17.919419    23.406852    22.407703    9398.6237    2759.3901    2052.4296   -751.16638    327.94424    99.950101    934.19973 
  988000    293.15462   -4211.0054   -3708.5484   -4211.0054            0    1638.8773    18.074944    23.567649    22.029455    9384.1939    1209.0753    522.20974     3185.347   -24.549831   -859.13249   -364.53078 
  988500    272.23847   -4195.5109   -3728.9034   -4195.5109            0    189.38511    18.232791    23.492378    22.088681    9461.2808   -995.48905    1027.4052    536.23923    778.45982     295.9025    314.19799 
  989000    269.81648   -4189.1779   -3726.7216   -4189.1779            0     1435.051    17.892733    23.642244     22.17559    9380.8148    3383.9557     426.0202    495.17701   -830.03492   -1072.4751    24.026098 
  989500    272.15335   -4214.2442   -3747.7827   -4214.2442            0    1742.7623    18.397315    23.247721    22.022579     9418.961    2664.4221    1736.8027    827.06213    384.59027    -7.069296   -180.93301 
  990000    274.28468   -4177.3833   -3707.2687   -4177.3833            0    290.43259    17.950124    23.892391    22.063407    9462.3638      632.272   -1012.7774    1251.8032    722.95549    54.504486   -19.372845 
  990500    262.28626   -4233.6904   -3784.1407   -4233.6904            0    1315.7711    18.097874    23.317579    22.157895    9350.6011    1.3589388    1466.8084    2479.1459    -888.6854   -254.76177   -728.94435 
  991000    265.12753    -4218.052   -3763.6325    -4218.052            0    1068.0201    18.189654    23.517417    22.080838    9445.6017    771.36935    570.22739    1862.4635   -209.17124    870.61242    267.12017 
  991500    281.06215   -4208.9235   -3727.1926   -4208.9235            0      1808.04    17.989968    23.833837    21.880499     9381.701    3236.0554    2246.8881   -58.823672   -419.59829   -618.41969   -10.745969 
  992000    274.55203   -4193.0356   -3722.4628   -4193.0356            0    2121.5027    18.156066    23.012396    22.450294    9380.0601    2263.5102    3575.8236    525.17447   -499.70023     28.22124    225.30675 
  992500    264.88139   -4205.7551   -3751.7574   -4205.7551            0    1702.0542    18.001658    23.667701    22.015947    9380.0673    2355.6468    1584.0156    1166.5002     1473.467    103.86582    339.28192 
  993000    260.05879   -4211.2127   -3765.4809   -4211.2127            0    836.52019     18.22193    23.524925    21.990132    9426.4997    2249.8998   -734.71346     994.3742   -928.35026    145.37301   -346.36468 
  993500     269.0151   -4187.9057   -3726.8231   -4187.9057            0    1184.1475    17.903619    23.551719    22.271665    9391.0926   -25.184305    1633.9221    1943.7047   -36.799496     -330.481   -9.8087242 
  994000    279.91037   -4212.9112   -3733.1545   -4212.9112            0    2846.9718    18.187702    23.377525    21.903095    9312.8337    3188.9465    2681.2448    2670.7242    545.08081   -492.65311   -970.97858 
  994500    266.75277   -4224.2214   -3767.0162   -4224.2214            0     838.0838    18.091873    23.599988    22.113573    9441.7879    -339.9266    2774.5201    79.657901   -418.08985   -242.49077    -144.2575 
  995000    244.75375   -4210.2644   -3790.7648   -4210.2644            0    1445.7139     18.10958    23.375823    22.122197    9364.9088    2024.8434    524.88045    1787.4177    917.65944    1009.2798    544.02126 
  995500    294.98602   -4213.7465   -3708.1506   -4213.7465            0    1255.3163    18.070063    23.720011    21.915069    9393.2827    2181.0808    530.82925    1054.0389    619.51276    132.37152    882.84506 
  996000    265.44536   -4220.0697   -3765.1055   -4220.0697            0   -270.16718    18.124122    23.426313     22.44315     9528.943    1105.2027   -155.67037   -1760.0339   -1874.1733    432.95656      184.517 
  996500    268.50531   -4220.6921   -3760.4831   -4220.6921            0    1362.5621    18.053939    23.397864    22.051651    9315.1382    1794.7196    1760.7847     532.1821   -844.81237    491.11948    -120.6596 
  997000    257.51084   -4208.9613   -3767.5965   -4208.9613            0    1452.3023    18.039769    23.616839    21.954252    9353.4407     1745.531    862.12876    1749.2472     205.7001    165.85223    -597.4957 
  997500     276.7644   -4208.6288   -3734.2641   -4208.6288            0    1301.4656    18.206186    23.367673    22.042913    9377.8532     540.5084    1549.7965     1814.092   -466.51977    1213.4088    223.94335 
  998000    275.10923   -4229.7003   -3758.1725   -4229.7003            0    1347.2192    17.874495    23.683134    22.162515    9381.9257    2880.5649    1194.1781   -33.085482   -318.76572    658.06599    172.89801 
  998500    271.14268   -4216.6893     -3751.96   -4216.6893            0    338.80481    18.187952    23.573763    22.017831    9440.3317   -667.01762    262.67882    1420.7532   -32.029549    996.78294    238.17078 
  999000    253.75248   -4206.5049   -3771.5818   -4206.5049            0    1362.7459    18.223862    23.336661    22.175192    9430.7566    1324.2605    1047.8472      1716.13   -656.99383   -100.70335    682.58874 
  999500    265.57042   -4204.0117   -3748.8331   -4204.0117            0    1021.7036    17.868435    23.808089    22.231231    9457.4612    2234.0471    27.522401    803.54128    61.190353    565.94801     603.2312 
 1000000    263.13626   -4224.1098   -3773.1033   -4224.1098            0    1232.6081    18.206372    23.446462    22.023962     9401.479    2226.2158     720.7722    750.83633   -1005.6906   -542.03918   -180.60147 
Loop time of 3120.89 on 32 procs for 1000000 steps with 864 atoms

Performance: 55.369 ns/day, 0.433 hours/ns, 320.422 timesteps/s
3184.1% CPU use with 1 MPI tasks x 32 OpenMP threads

MPI task timing breakdown:
Section |  min time  |  avg time  |  max time  |%varavg| %total
---------------------------------------------------------------
Pair    | 276.49     | 276.49     | 276.49     |   0.0 |  8.86
Bond    | 46.567     | 46.567     | 46.567     |   0.0 |  1.49
Kspace  | 2006.4     | 2006.4     | 2006.4     |   0.0 | 64.29
Neigh   | 10.365     | 10.365     | 10.365     |   0.0 |  0.33
Comm    | 167.11     | 167.11     | 167.11     |   0.0 |  5.35
Output  | 5.4142     | 5.4142     | 5.4142     |   0.0 |  0.17
Modify  | 603        | 603        | 603        |   0.0 | 19.32
Other   |            | 5.553      |            |       |  0.18

Nlocal:        864.000 ave         864 max         864 min
Histogram: 1 0 0 0 0 0 0 0 0 0
Nghost:        6528.00 ave        6528 max        6528 min
Histogram: 1 0 0 0 0 0 0 0 0 0
Neighs:        207063.0 ave      207063 max      207063 min
Histogram: 1 0 0 0 0 0 0 0 0 0

Total # of neighbors = 207063
Ave neighs/atom = 239.65625
Ave special neighs/atom = 2.0000000
Neighbor list builds = 27960
Dangerous builds = 0

unfix		3
unfix		2
unfix		1

write_data	data.final.${pid}
write_data	data.final.0
System init for write_data ...
PPPM initialization ...
  extracting TIP4P info from pair style
  using 12-bit tables for long-range coulomb (../kspace.cpp:340)
  G vector (1/distance) = 0.37145141
  grid = 24 27 25
  stencil order = 5
  estimated absolute RMS force accuracy = 0.0031800152
  estimated relative force accuracy = 9.5765215e-06
  using double precision FFTW3
  3d grid and FFT values/proc = 35904 16200
Last active /omp style is kspace_style pppm/tip4p/omp
WARNING: Not all mixed pair coeffs generated from mixing. Use write_data with 'pair ij' option to store all pair coeffs. (../write_data.cpp:312)

write_restart   restart.lmp.${pid}
write_restart   restart.lmp.0
System init for write_restart ...
PPPM initialization ...
  extracting TIP4P info from pair style
  using 12-bit tables for long-range coulomb (../kspace.cpp:340)
  G vector (1/distance) = 0.37145141
  grid = 24 27 25
  stencil order = 5
  estimated absolute RMS force accuracy = 0.0031800152
  estimated relative force accuracy = 9.5765215e-06
  using double precision FFTW3
  3d grid and FFT values/proc = 35904 16200
Last active /omp style is kspace_style pppm/tip4p/omp
Total wall time: 0:52:02
