LAMMPS data file via write_data, version 30 Jul 2021, timestep = 16500000

1296 atoms
2 atom types
864 bonds
1 bond types
432 angles
1 angle types

-10.725108222277658 12.705108222277659 xlo xhi
-9.221383933272541 12.211381933272541 ylo yhi
0.09028976432694336 21.769709235670994 zlo zhi
-9.208190569446801 2.040911686642777 3.0614868428069655 xy xz yz

Masses

1 1.008
2 15.999

Pair Coeffs # lj/cut/tip4p/long/omp

1 0 0
2 0.21084 3.1668

Bond Coeffs # harmonic/omp

1 450 0.9572

Angle Coeffs # harmonic/omp

1 55 104.52

Atoms # full

280 94 2 -1.1794 -9.876832444116339 -4.575013197440822 1.6036762363074977 1 1 0
270 90 1 0.5897 -8.631830358783409 -7.304251326744599 2.2251763710425467 1 1 0
269 90 1 0.5897 -9.64378345253419 -6.188096806368277 2.3735236747203645 1 1 0
268 90 2 -1.1794 -9.451969642055948 -7.079618755420167 2.6645006233708908 1 1 0
314 105 1 0.5897 -8.880951308376765 -6.693866971366072 4.402180578715098 1 1 0
299 100 1 0.5897 -6.3513445337092795 -8.052351281414756 4.332017556893823 1 1 0
163 55 2 -1.1794 -7.275693761286027 -7.887217028575361 1.1712646888931781 1 1 0
164 55 1 0.5897 -6.443526765794598 -8.163529682611127 1.555119406134744 1 1 0
298 100 2 -1.1794 -5.711373859507559 -7.35208887478573 4.20447831715276 1 1 0
324 108 1 0.5897 -6.853815534590504 -4.501561182322653 3.2701049069091677 1 1 0
259 87 2 -1.1794 -7.016168324528394 -5.300894160715915 0.1109697073570648 1 1 0
73 25 2 -1.1794 -8.231047649363328 -3.8372924487190385 4.496482179764214 1 0 0
317 106 1 0.5897 -1.1364685316523833 -4.056185291247289 1.246929232565483 1 1 0
282 94 1 0.5897 -10.687262351746748 -4.066305996640676 1.6281654845384983 1 1 0
310 104 2 -1.1794 -3.3530654309489103 -8.379877120070953 3.8138900158712374 1 1 0
241 81 2 -1.1794 -0.9277356209461729 -6.30079700702385 5.494448687123078 0 1 0
261 87 1 0.5897 -6.682690281733812 -4.790456981234572 0.8488409014489674 1 1 0
313 105 2 -1.1794 -8.778122478452403 -6.338035448644016 5.284773428788399 1 1 0
75 25 1 0.5897 -9.086007116485188 -3.466531997776083 4.277963586478575 1 0 0
318 106 1 0.5897 -2.605777523410742 -3.9643629806078415 1.5994448997344264 1 1 0
323 108 1 0.5897 -5.930827881620858 -5.700188083542203 3.2127883555747565 1 1 0
322 108 2 -1.1794 -6.00088545782815 -4.7850224050462025 2.9410635635417197 1 1 0
3 1 1 0.5897 -1.2918141600326756 -3.408760765067104 4.466619932408822 0 0 0
300 100 1 0.5897 -4.866060961621357 -7.800598349577625 4.183065115730025 1 1 0
305 102 1 0.5897 -1.4932677518827884 -6.1781653937034715 2.340015091109175 1 1 0
242 81 1 0.5897 -0.9549855577956485 -6.687020732716018 4.619092343028121 0 1 0
306 102 1 0.5897 -0.4501472851669739 -7.271142308243314 2.2443313934843245 1 1 0
316 106 2 -1.1794 -1.904767705214029 -4.595079582132455 1.4352414971378662 1 1 0
304 102 2 -1.1794 -1.1977907605455922 -6.982096385045936 2.767374403061425 1 1 0
311 104 1 0.5897 -2.6229388262729536 -7.836991237923064 3.516687820309104 1 1 0
281 94 1 0.5897 -9.180676287305388 -3.9193065326084096 1.6439163850062684 1 1 0
293 98 1 0.5897 -4.759733091854618 -3.71385871415045 2.199417205703973 1 1 0
260 87 1 0.5897 -7.143173745961289 -6.1808324054717865 0.4656848591809734 1 1 0
315 105 1 0.5897 -8.564415791339167 -5.415045555982433 5.148090991067128 1 1 0
74 25 1 0.5897 -7.833916744333546 -3.1946429809145274 5.084278865425553 1 0 0
165 55 1 0.5897 -7.484615336727947 -8.570294067217858 0.5340921991164822 1 1 0
243 81 1 0.5897 -0.6607564177957457 -5.393275258206102 5.348214115473861 0 1 0
1262 421 1 0.5897 -2.47263692810124 -5.87527568648573 0.13158125437975948 0 0 1
201 67 1 0.5897 0.3327221591723628 -8.40605849220549 0.2185409579124996 1 1 0
420 140 1 0.5897 -9.129132240065914 -6.278788613637355 9.812874743676739 1 0 0
618 206 1 0.5897 -7.661327936553178 -7.1466102040633475 6.387105113002748 1 1 0
413 138 1 0.5897 -7.541140481555406 -3.511246295992322 7.5942609553741915 1 0 0
419 140 1 0.5897 -8.871631422851145 -5.391096222132783 8.613961100810213 1 0 0
418 140 2 -1.1794 -9.574049834282317 -5.723175891118297 9.172905670594494 1 0 0
414 138 1 0.5897 -6.6809290969440305 -4.747003692303268 7.436636829481818 1 0 0
350 117 1 0.5897 -7.226828957286601 -4.281229929717726 9.91901443297054 0 0 0
412 138 2 -1.1794 -7.398393127548174 -4.385528903055642 7.95691360100947 1 0 0
429 143 1 0.5897 -6.246692198594824 -7.072298402366145 8.465406205264484 1 0 0
427 143 2 -1.1794 -5.881581431657256 -6.901840833836907 9.333631048520717 1 0 0
428 143 1 0.5897 -6.636877397021644 -6.928110217443795 9.920918800778562 1 0 0
544 182 2 -1.1794 0.3908039963542187 -7.913899911341846 7.41332634340584 0 1 0
626 209 1 0.5897 -10.438407882962261 -6.543763274074602 7.572226696371 1 1 0
404 135 1 0.5897 -5.137271302790586 -3.6679374408675187 5.54753789135728 1 0 0
627 209 1 0.5897 -10.355298696890582 -6.5775229483438595 6.0610834359558865 1 1 0
335 112 1 0.5897 -4.761808836793728 -5.342269364106974 9.276851815625434 0 0 0
631 211 2 -1.1794 -5.361615944672506 -5.695150238237146 6.322124568224103 1 1 0
555 185 1 0.5897 -2.4862392519169436 -6.7690670608732795 6.383661358897552 0 1 0
347 116 1 0.5897 -1.046772169985248 -5.3758912974313695 8.721811175021434 0 0 0
359 120 1 0.5897 -4.486369563954431 -2.8870020538825267 8.442146894464381 0 0 0
348 116 1 0.5897 -1.33426615972202 -6.51833956804567 9.672537412706102 0 0 0
336 112 1 0.5897 -3.3392412584371787 -4.828585169469935 9.341171148091936 0 0 0
632 211 1 0.5897 -4.593142043396824 -6.057546086527174 6.762941551536385 1 1 0
553 185 2 -1.1794 -3.0876593510607826 -7.06970648368535 7.064814025200405 0 1 0
346 116 2 -1.1794 -1.7527741683877434 -5.7844722087622635 9.22251982183847 0 0 0
554 185 1 0.5897 -2.5723472965497507 -7.038356211367828 7.870822265360883 0 1 0
546 182 1 0.5897 -0.08474788380849319 -7.378624124525762 6.778074776033181 0 1 0
334 112 2 -1.1794 -4.231579094258712 -4.560563030294602 9.121905632458303 0 0 0
616 206 2 -1.1794 -7.286721919932614 -7.766794540225757 7.012614563471293 1 1 0
356 119 1 0.5897 1.2556297866660149 -6.979235478521987 10.056677414834422 0 0 0
349 117 2 -1.1794 -7.103226854823179 -3.9791425418450093 10.818804668212765 0 0 0
351 117 1 0.5897 -6.800113486890058 -3.0756285564996277 10.729179735761168 0 0 0
669 223 1 0.5897 -4.270795187864682 -3.1888373123907376 10.714080408706542 0 0 0
326 109 1 0.5897 -3.2129602836090463 -7.673243779088769 10.345849796391166 0 0 0
617 206 1 0.5897 -8.037174463371276 -8.083581890433685 7.515165284018255 1 1 0
655 219 2 -1.1794 -0.3263570086181211 -7.684630911288046 10.711295775440272 0 0 0
633 211 1 0.5897 -5.49050927442077 -6.260769938657239 5.560774967374367 1 1 0
652 218 2 -1.1794 -5.776685916440631 -5.355920565133568 12.80887932922022 0 0 0
780 260 1 0.5897 -7.407013015653502 -3.940530101985117 15.3353899035134 0 0 0
779 260 1 0.5897 -7.047794112075054 -3.0255581437072685 14.184108654558637 0 0 0
778 260 2 -1.1794 -7.789079069326623 -3.4715972567548556 14.593549906380444 0 0 0
768 256 1 0.5897 -9.431928836910505 -2.63269012925789 14.899075579493454 0 0 0
654 218 1 0.5897 -6.1930321402212405 -4.79309457266803 12.156115931759365 0 0 0
653 218 1 0.5897 -6.504157154436088 -5.705486671218894 13.323352375843477 0 0 0
662 221 1 0.5897 -8.94612964243978 -4.283534274624371 13.160749036993616 0 0 0
661 221 2 -1.1794 -9.377240062320325 -4.354071630562512 12.309075874853495 0 0 0
663 221 1 0.5897 -8.664305192113789 -4.29265915785721 11.673450221907215 0 0 0
684 228 1 0.5897 -8.596397135748624 -6.2208405182731115 14.376344222709356 0 0 0
682 228 2 -1.1794 -7.928503580371508 -6.69519308899932 13.881331301655294 0 0 0
787 263 2 -1.1794 -4.210453028066423 -4.416684672544289 14.993327547910301 0 0 0
740 247 1 0.5897 -10.80888615790678 -3.3726709137567177 12.195940615703156 1 0 0
802 268 2 -1.1794 -2.56199040576543 -2.1007493776232877 14.82379479730343 0 0 0
774 258 1 0.5897 -5.227388210761664 -2.213668488074293 12.898427205866652 0 0 0
818 273 1 0.5897 -5.350517796022563 -1.7835150165022178 15.44994372098696 0 0 0
729 243 1 0.5897 -8.132797343002942 -6.799151289823861 11.979273054296518 1 0 0
788 263 1 0.5897 -4.833487007384404 -4.450332858982064 15.719108390125095 0 0 0
678 226 1 0.5897 -4.2266374843852565 -6.35761042091646 12.299223030585972 0 0 0
789 263 1 0.5897 -4.725979856674595 -4.656205466031582 14.223228305577656 0 0 0
767 256 1 0.5897 -10.934481594181639 -2.7064846341340036 15.067851100048115 0 0 0
657 219 1 0.5897 -0.22308114759821152 -7.223188189335822 11.543508499838792 0 0 0
699 233 1 0.5897 -1.0177340926694711 -4.213659617271978 11.506168987969472 0 0 0
697 233 2 -1.1794 -1.7258284919398577 -4.35956244052959 12.133370276681934 0 0 0
718 240 2 -1.1794 -0.15276770449093924 -6.875283516987302 13.353605989020293 0 0 0
677 226 1 0.5897 -2.788261377749846 -5.951751871215775 12.058450399068924 0 0 0
668 223 1 0.5897 -3.2360161792577777 -3.3374750939421114 11.809037341778401 0 0 0
793 265 2 -1.1794 -1.8478860165033648 -5.816180617105924 15.489560307916099 0 0 0
816 272 1 0.5897 0.3814042742034722 -3.791172872477766 15.157885104154676 0 0 0
667 223 2 -1.1794 -4.025856886875336 -2.8499984616085907 11.575103677243447 0 0 0
676 226 2 -1.1794 -3.393928866867694 -6.686491977747272 11.960761534925275 0 0 0
814 272 2 -1.1794 -0.099894402329193 -3.3887848484499115 14.434948919908246 0 0 0
803 268 1 0.5897 -3.0943616270116125 -2.861984371819334 15.054651354248628 0 0 0
804 268 1 0.5897 -1.6959912352483215 -2.4620238125583374 14.634935357630516 0 0 0
795 265 1 0.5897 -2.6411795634288637 -5.330485674748507 15.26375442712756 0 0 0
720 240 1 0.5897 -0.7368374173102197 -6.368445277644412 13.917625720324684 0 0 0
698 233 1 0.5897 -1.3396830583231552 -4.151013044419654 12.983999287279731 0 0 0
794 265 1 0.5897 -1.5147052262964902 -5.380271924289433 16.273889404579812 0 0 0
766 256 2 -1.1794 -10.201584890721751 -2.090842935231205 15.072873531757452 0 0 0
758 253 1 0.5897 -9.754953579856844 -5.081889772415256 16.266779980054086 0 0 0
689 230 1 0.5897 1.4856199681329798 -5.981573075911424 12.878482007252162 0 0 0
727 243 2 -1.1794 -8.169882522538579 -7.183213144482517 11.103334235384821 1 0 0
739 247 2 -1.1794 -11.577469754312045 -2.8707367510488915 11.924733312301454 1 0 0
757 253 2 -1.1794 -9.912539953159072 -5.572210884162693 15.459973747957202 0 0 0
1123 375 2 -1.1794 1.459837155811769 -4.784453962743027 16.290359134223266 0 0 0
1150 384 2 -1.1794 -6.237257153701509 -4.288492288640013 19.346346139301502 0 0 0
1152 384 1 0.5897 -6.842404605295892 -3.8503805752454827 19.944657617000342 0 0 0
1227 409 1 0.5897 -8.926163150629444 -2.726944422696093 20.750339584574373 0 0 0
1109 370 1 0.5897 -8.667238279889915 -3.381052149636899 17.71925433919675 0 0 0
1089 363 1 0.5897 -6.437331812599395 -4.680283453299631 17.43059045519844 0 0 0
1151 384 1 0.5897 -5.997894270536371 -5.098180439965251 19.797297991797066 0 0 0
1108 370 2 -1.1794 -9.30713959829137 -4.092737234352212 17.734384827266776 0 0 0
1225 409 2 -1.1794 -8.07538742512248 -3.0777323583754512 21.01362141542241 0 0 0
1221 407 1 0.5897 -10.677293945958112 -2.0280363826739087 19.673727529740287 0 0 0
1125 375 1 0.5897 1.3792453923406693 -4.443352820875015 17.18102670893114 0 0 0
1187 396 1 0.5897 1.7841494769132762 -5.071985886080364 19.683222304033173 0 0 0
1143 381 1 0.5897 -8.483041493395444 -4.7972169656414785 21.606548629997125 0 0 0
1219 407 2 -1.1794 -10.345659787281441 -1.7212123140263085 20.517563712269844 0 0 0
1142 381 1 0.5897 -8.468745174685761 -6.099142354189899 20.834070894780822 0 0 0
1179 393 1 0.5897 -0.5499235291673248 -5.127549714054927 21.4422773555073 0 0 0
1186 396 2 -1.1794 1.6618969648566146 -4.153786901259372 19.44189725712645 0 0 0
1177 393 2 -1.1794 -0.7157807142249304 -6.062408308332841 21.563925355285637 0 0 0
1087 363 2 -1.1794 -6.470526521581303 -4.918813914129848 16.50423258677666 0 0 0
1255 419 2 -1.1794 -2.8514705791963166 -2.100539746076776 20.183734919235075 0 0 0
1165 389 2 -1.1794 0.20553860191886386 -1.8970536849411737 17.698214802152087 0 0 0
1121 374 1 0.5897 -4.747931897744781 -3.598329119203446 18.535386450785253 0 0 0
1129 377 2 -1.1794 -7.764171790241086 -1.8379640509131097 17.736729763439367 0 0 0
1261 421 2 -1.1794 -0.5572916678589657 -3.3210646716848684 21.009073409750197 0 0 0
1188 396 1 0.5897 0.874960147032743 -3.883944153536717 19.915197072948153 0 0 0
1256 419 1 0.5897 -3.524744836942026 -2.1021887113769013 20.863995985926294 0 0 0
1120 374 2 -1.1794 -4.015234545191396 -3.2053070912384847 18.061269044702566 0 0 0
1146 382 1 0.5897 -2.300242674632054 -3.94300025495661 18.030970872318974 0 0 0
1122 374 1 0.5897 -4.424931003745899 -2.5872921603677552 17.455942194886056 0 0 0
1145 382 1 0.5897 -0.8944883058530522 -3.3898776874847307 17.93320719113622 0 0 0
1144 382 2 -1.1794 -1.4074059223588904 -4.184254750931183 17.784501734378093 0 0 0
1133 378 1 0.5897 -1.1743537181937462 -5.7657802805887055 18.47790129539738 0 0 0
1263 421 1 0.5897 -1.3622137266039225 -2.9710412922171354 20.627267061065748 0 0 0
1257 419 1 0.5897 -3.306387941917171 -2.3961327191045916 19.39514816699423 0 0 0
1088 363 1 0.5897 -6.645531953556413 -5.859904413908797 16.504818532495555 0 0 0
1097 366 1 0.5897 -8.972983317947893 -5.585229985156488 18.63422634629549 0 0 0
1248 416 1 0.5897 -6.140669355791536 -1.268768053780378 20.46157307646332 0 0 0
1130 377 1 0.5897 -7.3439187630701355 -1.6444942257309716 18.574666631283748 0 0 0
1226 409 1 0.5897 -7.795368537660624 -2.5128497298952492 21.733838094984222 0 0 0
1124 375 1 0.5897 1.4857285649867862 -5.735160962703356 16.398835702804938 0 0 0
1096 366 2 -1.1794 -8.874539835802581 -6.454157910635056 19.023486065540077 0 0 0
1141 381 2 -1.1794 -8.540327651614232 -5.745874178648803 21.720760015097888 0 0 0
1110 370 1 0.5897 -10.14188779346981 -3.660988697350877 17.915889466826 0 0 0
1131 377 1 0.5897 -7.067003529505661 -1.7346955633107175 17.089156128400386 0 0 0
256 86 2 -1.1794 -12.287689287816681 -3.0914705531717734 2.186911426445391 1 1 0
53 18 1 0.5897 -12.474508509115932 1.0142114170969698 2.062582260690724 1 0 0
25 9 2 -1.1794 -4.251044914941697 0.6887499693748982 5.187734866517408 0 0 0
301 101 2 -1.1794 -7.9794301754580275 -2.6576318364335902 1.5238354107558065 1 1 0
107 36 1 0.5897 -9.255180103064202 1.456617581663675 3.130004801137478 1 0 0
69 23 1 0.5897 -11.076621278012906 -2.5971492332169337 3.4655850767442007 1 0 0
82 28 2 -1.1794 -8.949651503542576 -0.17300167806613942 3.950129787256226 1 0 0
104 35 1 0.5897 -3.629783545375755 -2.482829327027325 4.634134619937857 1 0 0
98 33 1 0.5897 -11.890221848479547 0.5201188196642956 4.230301571542825 1 0 0
54 18 1 0.5897 -11.637976100004039 -0.24733454230761254 2.08783597852357 1 0 0
83 28 1 0.5897 -9.43963913045629 -0.9819052750778283 4.097806666483471 1 0 0
272 91 1 0.5897 -9.500885137726375 -1.0223727214502318 1.2721863359267602 1 1 0
271 91 2 -1.1794 -10.271262777433403 -0.6694166530468326 0.8270511757492838 1 1 0
68 23 1 0.5897 -11.205706858276365 -2.2665504612795715 4.937204325040025 1 0 0
67 23 2 -1.1794 -10.566300866744404 -2.321879904569246 4.2271599666741215 1 0 0
52 18 2 -1.1794 -12.383725935489112 0.17501849010122683 2.51397333256457 1 0 0
258 86 1 0.5897 -12.68989632833943 -2.6314523985126685 1.450160871727979 1 1 0
84 28 1 0.5897 -8.05749396778517 -0.4639553920246371 3.761621555996023 1 0 0
44 15 1 0.5897 -10.011947251038805 0.9866233443663699 0.2898902254498429 1 0 0
105 35 1 0.5897 -3.0766402404247435 -2.4438994239103797 3.225577524251698 1 0 0
303 101 1 0.5897 -7.345421999522286 -2.349397333968927 0.8764504566760071 1 1 0
302 101 1 0.5897 -7.628698909833922 -2.360637140461865 2.3634525073776764 1 1 0
26 9 1 0.5897 -4.361461035237939 0.3961115523020915 4.2831210798779065 0 0 0
27 9 1 0.5897 -4.173773675634704 1.6407424229461203 5.124314448572276 0 0 0
103 35 2 -1.1794 -2.828381323283259 -2.3099507895609896 4.1402276022182924 1 0 0
89 30 1 0.5897 -4.907552932380977 1.0298669850074447 2.2009613516642186 1 0 0
96 32 1 0.5897 -6.23158692763709 -2.045001435430274 4.123948892587243 1 0 0
294 98 1 0.5897 -4.6932062085632715 -2.6791346963631595 1.0963840780697205 1 1 0
95 32 1 0.5897 -5.835017894358437 -1.0038240892679156 3.099066823807673 1 0 0
94 32 2 -1.1794 -6.596705554876032 -1.4498570309757888 3.469208548643187 1 0 0
88 30 2 -1.1794 -4.665935514204604 0.17246137479136792 2.55129461924121 1 0 0
90 30 1 0.5897 -3.955623268264583 -0.1271224861568392 1.9840233412225037 1 0 0
59 20 1 0.5897 -13.680131577097864 -0.8793129211454378 3.2687741392860974 1 0 0
292 98 2 -1.1794 -4.189261283448805 -3.0430633206844977 1.824249931897494 1 1 0
273 91 1 0.5897 -10.615652732895391 -1.4064663705180251 0.3226696045820188 1 1 0
417 139 1 0.5897 -8.67504588834063 1.0908542690736098 5.245881637178287 1 0 0
97 33 2 -1.1794 -11.75083644927962 0.7191460266711189 5.156104664076859 1 0 0
99 33 1 0.5897 -11.547532551243512 1.6543815918617462 5.172596375148426 1 0 0
1287 429 1 0.5897 -5.860768404375287 -0.6978011201376031 0.09480193797439587 0 0 1
1249 417 2 -1.1794 -13.716572821887102 -1.8467104669460834 0.11683351669825284 0 0 1
535 179 2 -1.1794 -8.720866969469467 0.09026171189810128 9.335310559693482 1 0 0
433 145 2 -1.1794 -6.582173619894519 -1.4901990376873266 10.332562353436407 0 0 0
454 152 2 -1.1794 -4.971167850796496 1.1669998010611682 9.016908079652922 0 0 0
424 142 2 -1.1794 -8.070971442911352 -2.0144821174541043 6.568076730767423 1 0 0
435 145 1 0.5897 -7.386381598959012 -1.2055202085887728 9.898504208585152 0 0 0
415 139 2 -1.1794 -8.474029007561537 1.7849216682661684 5.873653167384418 1 0 0
426 142 1 0.5897 -8.948058616646518 -1.730746627245475 6.825624801229825 1 0 0
402 134 1 0.5897 -10.659555383742354 -0.48545949796255705 6.4420616113764195 1 0 0
400 134 2 -1.1794 -10.368974554786991 -0.9868441323296651 7.203875951898463 1 0 0
536 179 1 0.5897 -9.327900017337996 0.03027650182404784 10.07285937835068 1 0 0
526 176 2 -1.1794 -12.464494839107608 1.4130202639332463 9.030434441051575 1 0 0
537 179 1 0.5897 -9.234709813681292 -0.19057567270328057 8.578149799426727 1 0 0
401 134 1 0.5897 -11.178619488792297 -1.2884906327406487 7.6156558243706005 1 0 0
528 176 1 0.5897 -12.066862205172104 0.9311253058038194 9.755599164864023 1 0 0
527 176 1 0.5897 -11.726686602921685 1.8322239990458282 8.587699063272812 1 0 0
425 142 1 0.5897 -7.558555153074797 -1.2068097595393343 6.531693349571413 1 0 0
442 148 2 -1.1794 -7.242869140454371 2.571830585749618 9.650022845465793 0 0 0
411 137 1 0.5897 -13.28767720558492 0.40578931217189584 6.192307628997166 1 0 0
360 120 1 0.5897 -5.484465900332022 -1.8169108597473116 8.830104784675276 0 0 0
337 113 2 -1.1794 -6.4186760695079546 0.21818978261402933 6.7683227126578025 0 0 0
464 155 1 0.5897 -1.756224788336075 -0.11690834425890273 9.986699768749585 0 0 0
443 148 1 0.5897 -7.921527984678577 1.9054223997084474 9.542658773311608 0 0 0
416 139 1 0.5897 -7.747744198835699 1.4373425663676667 6.391248557331744 1 0 0
455 152 1 0.5897 -4.260745196254595 1.654415847558134 8.599959475668 0 0 0
338 113 1 0.5897 -5.999516527521451 0.5471696636864465 7.563478241190927 0 0 0
405 135 1 0.5897 -5.147547777843566 -2.4299896117452215 6.418908615973215 1 0 0
444 148 1 0.5897 -6.421969595338145 2.106082045468943 9.490775096469186 0 0 0
358 120 2 -1.1794 -4.789642454480107 -2.011619309313577 8.20131272433351 0 0 0
329 110 1 0.5897 -3.2985684094849077 -1.2104518258562393 7.430341582000898 0 0 0
339 113 1 0.5897 -5.713101887809284 0.1817006950504343 6.122646270661377 0 0 0
456 152 1 0.5897 -4.544292977753864 0.6712740425416932 9.715646337437633 0 0 0
328 110 2 -1.1794 -2.633270619806302 -0.7421774370209544 6.926148058947837 0 0 0
330 110 1 0.5897 -3.131861251476921 -0.15465742964928353 6.358296975779806 0 0 0
522 174 1 0.5897 -9.763949457265994 2.3351971590260376 7.282505161862667 1 0 0
458 153 1 0.5897 -10.216823546970398 2.665921834032309 9.877973997993118 0 0 0
403 135 2 -1.1794 -5.2783713910908805 -2.7216732895172395 5.516709685748525 1 0 0
410 137 1 0.5897 -13.496805289569622 0.5621588364607089 7.683413890469122 1 0 0
835 279 2 -1.1794 -10.867540555910997 -0.36757386205667864 11.058421199815339 1 0 0
771 257 1 0.5897 -11.794512011862897 2.7950252611840725 11.574383133974017 0 0 0
790 264 2 -1.1794 -10.862790779633508 0.35701388456484295 13.757712222043283 0 0 0
806 269 1 0.5897 -3.935620807397801 3.0149164007496143 13.46582290571203 0 0 0
761 254 1 0.5897 -9.316543392324334 1.3817292441635907 13.299363552415388 0 0 0
837 279 1 0.5897 -10.784439183423878 -0.08646598545681883 11.969587379219929 1 0 0
792 264 1 0.5897 -11.63370796156816 0.47358107477224465 14.312850140870259 0 0 0
762 254 1 0.5897 -8.957752247536654 2.2435441413746933 12.107655984974906 0 0 0
760 254 2 -1.1794 -8.571667875244326 1.7856724182772847 12.854296908916325 0 0 0
791 264 1 0.5897 -10.534401844184009 -0.5135046405153094 13.982723564752158 0 0 0
896 299 1 0.5897 -7.869393550792707 2.8220195909065247 15.519776856290536 0 0 0
770 257 1 0.5897 -12.010072194826844 2.645755870827257 13.065294519889193 0 0 0
836 279 1 0.5897 -11.166921831189118 -1.2750923850465572 11.113547229278304 1 0 0
805 269 2 -1.1794 -4.413421230141324 2.800311257096787 12.664675623744015 0 0 0
895 299 2 -1.1794 -7.187241204658735 2.9397746993890888 14.858820589291504 0 0 0
903 301 1 0.5897 -5.835672344706277 1.7234769279401156 15.380752511325811 0 0 0
828 276 1 0.5897 -3.6705138900033196 0.8914475943127371 13.945902336062666 0 0 0
866 289 1 0.5897 -12.718816317243602 1.7702663462394916 16.28100740786809 0 0 0
786 262 1 0.5897 -7.056461583539608 1.0375932089491045 12.525647839027128 0 0 0
769 257 2 -1.1794 -12.460988071845957 2.572261927050306 12.224198462014007 0 0 0
784 262 2 -1.1794 -6.214810204105415 0.5901983684256926 12.438355172176724 0 0 0
827 276 1 0.5897 -2.963843262393322 -0.41583532725800865 14.235017886226883 0 0 0
826 276 2 -1.1794 -2.9424300437688506 0.3436057115510387 13.65277958427353 0 0 0
785 262 1 0.5897 -5.563041801177271 1.285208013478524 12.529846045109377 0 0 0
765 255 1 0.5897 -3.2088182490725234 0.03854059011406363 11.94820503133207 0 0 0
897 299 1 0.5897 -7.60866678755179 2.6996657256463035 14.033635851261243 0 0 0
924 308 1 0.5897 -2.6356365853389345 3.3210705826428253 15.451087593234243 0 0 0
901 301 2 -1.1794 -5.123175370668088 1.2209986216150757 15.775824345953655 0 0 0
773 258 1 0.5897 -5.985899439743997 -0.9722427557073878 13.31725087055345 0 0 0
888 296 1 0.5897 -10.54637601659493 3.1343644989374546 15.15274233599103 0 0 0
807 269 1 0.5897 -3.788521859202297 2.969973250090721 11.959858200703927 0 0 0
772 258 2 -1.1794 -5.7707228983517975 -1.8602200942129041 13.602676070283772 0 0 0
819 273 1 0.5897 -5.301211305408618 -0.506355332664036 16.26133951517654 0 0 0
434 145 1 0.5897 -6.432077167501112 -0.8345870976103935 11.013638346532588 0 0 0
763 255 2 -1.1794 -3.327558249932518 -0.24192515695351524 11.040797950686446 0 0 0
764 255 1 0.5897 -3.5496538613534865 -1.170887781406524 11.103794168913181 0 0 0
309 103 1 0.5897 -0.4957061725215386 1.8670477997312975 21.762028593216563 1 1 -1
1242 414 1 0.5897 -3.540516954733743 0.11806027300802491 18.411721040674838 0 0 0
1259 420 1 0.5897 -9.301538433097624 2.0652066408005627 19.715032573651925 0 0 0
1253 418 1 0.5897 -4.238586227610345 3.862341868228885 17.816775413878624 0 0 0
1251 417 1 0.5897 -11.380913675515952 2.1148688871787833 21.65764640810298 0 0 0
1195 399 2 -1.1794 -9.464559692810852 2.290726249296114 16.650114015066038 0 0 0
1233 411 1 0.5897 -1.5018502314149185 2.558300817057308 17.402530889589254 0 0 0
1047 349 1 0.5897 -4.217723222680317 4.246821608872054 20.50161540260179 0 -1 0
1258 420 2 -1.1794 -9.366913056200332 2.932075359457592 19.314386798496106 0 0 0
1101 367 1 0.5897 -10.1434860854173 -0.7642941110868655 16.489218837323026 0 0 0
1216 406 2 -1.1794 -12.621279761308793 2.8672010348321155 17.83655431399757 0 0 0
1197 399 1 0.5897 -9.582499976808796 2.6341304116621505 17.53572133774807 0 0 0
1206 402 1 0.5897 -11.19989861547936 0.04913252507513377 18.582687057757234 0 0 0
1235 412 1 0.5897 -9.401872524680979 -0.20550340941088407 20.525120070218605 0 0 0
1099 367 2 -1.1794 -9.951522494757882 -0.33004777938970875 17.320340591980198 0 0 0
1009 337 2 -1.1794 -11.390070610563983 3.81667157372123 20.845803676546073 0 -1 0
1236 412 1 0.5897 -7.94465852952849 0.19087736748343076 20.419960119831877 0 0 0
1100 367 1 0.5897 -9.153541930514852 -0.755159249483329 17.634522255661732 0 0 0
1260 420 1 0.5897 -10.110006914183739 3.3445581101770827 19.754605181727968 0 0 0
1234 412 2 -1.1794 -8.814285135241686 0.5460254599098437 20.603694599721223 0 0 0
1250 417 1 0.5897 -11.765201153722632 0.853061504523021 20.914607038973223 0 0 0
1231 411 2 -1.1794 -1.5498153007593167 2.276011558278105 16.48921177397813 0 0 0
1240 414 2 -1.1794 -4.0615195066195495 0.6256448143951054 19.033857984680676 0 0 0
1294 432 2 -1.1794 -1.355811519226977 2.9857527342678 19.15471038331678 0 0 0
1217 406 1 0.5897 -11.987879533299903 3.573240228236372 17.96514355590997 0 0 0
1252 418 2 -1.1794 -4.7444119918276595 3.053160231523984 17.891577420271535 0 0 0
1296 432 1 0.5897 -2.075639847777195 3.4761340649944774 19.55159378892224 0 0 0
1246 416 2 -1.1794 -6.445906305908471 -0.6622281396363263 19.78692563436023 0 0 0
1241 414 1 0.5897 -4.266343597074766 1.4372334032414216 18.569518959985647 0 0 0
1286 429 1 0.5897 -3.9685053188803474 1.2402631264287436 20.77037727068539 0 0 0
1271 424 1 0.5897 -1.6524499852353767 -0.11270275572560884 20.367719270838684 0 0 0
1135 379 2 -1.1794 -2.184014137081139 -0.3966102990732736 17.13033660441816 0 0 0
1136 379 1 0.5897 -1.2980612206460087 -0.7207832197541197 17.292128021279073 0 0 0
1254 418 1 0.5897 -5.655055170163223 3.3433776418479244 17.943097741536874 0 0 0
1270 424 2 -1.1794 -0.9947923811312958 0.5792823077796285 20.43735962256671 0 0 0
1045 349 2 -1.1794 -3.3600616443543716 4.041771683180112 20.873846013617825 0 -1 0
1247 416 1 0.5897 -5.644572983478645 -0.2935365928207627 19.415392856605873 0 0 0
1196 399 1 0.5897 -9.662447395966987 1.3572857342957096 16.72626667045036 0 0 0
1285 429 2 -1.1794 -3.949391745395568 1.4173925798154343 21.710799503773725 0 0 0
1137 379 1 0.5897 -2.4926381689069217 -0.9055871361361021 16.380739878488832 0 0 0
1011 337 1 0.5897 -12.238002279554207 4.157481790127733 20.561117225457593 0 -1 0
1232 411 1 0.5897 -1.781633686139866 1.3484914094327198 16.536505619744478 0 0 0
1229 410 1 0.5897 -7.99057594849723 3.9089375070732135 18.657773008510727 0 0 0
902 301 1 0.5897 -4.710228632048841 1.8304539204553993 16.38759557785952 0 0 0
1295 432 1 0.5897 -1.3491257499225142 2.149728893807069 19.620823266870566 0 0 0
1272 424 1 0.5897 -0.15721251151226312 0.12337898467745845 20.355076183265155 0 0 0
817 273 2 -1.1794 -5.35044664512977 -1.4581792823445863 16.350110195131673 0 0 0
40 14 2 -1.1794 -15.112817614397589 3.8096368636084854 1.6663131626782874 1 0 0
177 59 1 0.5897 -14.137874815633758 4.460668185227226 3.1373409167938133 1 0 0
56 19 1 0.5897 -12.645282764452455 5.773046530550513 1.2085097138541234 1 0 0
66 22 1 0.5897 -13.593018222226979 2.9270229314192076 1.297001499220361 1 0 0
65 22 1 0.5897 -12.115894772551176 3.21966104170793 1.1417390909718268 1 0 0
64 22 2 -1.1794 -12.747009254101958 2.5002797548190205 1.161666415996054 1 0 0
191 64 1 0.5897 -12.665985549393143 6.252461173169078 4.114344841044965 1 0 0
183 61 1 0.5897 -12.244576251568938 3.616800727630645 4.366355013501915 1 0 0
175 59 2 -1.1794 -13.781800501867588 4.739706528451114 3.9808614739244677 1 0 0
176 59 1 0.5897 -14.53442783568417 4.735775635117966 4.572129707042341 1 0 0
181 61 2 -1.1794 -11.384095064253614 3.3728557037462465 4.707300945220731 1 0 0
55 19 2 -1.1794 -13.332015053048368 6.320578002127192 0.8279443926190285 1 0 0
42 14 1 0.5897 -15.563012921845548 4.382086749817109 1.0451490942390658 1 0 0
192 64 1 0.5897 -11.20943704754559 6.523639503144803 3.8036629967870916 1 0 0
108 36 1 0.5897 -10.083617264513633 2.6197337704824015 3.6326891008361426 1 0 0
111 37 1 0.5897 -4.5095408525026075 3.840429747196417 4.431745915385835 0 0 0
85 29 2 -1.1794 -11.274441081066982 4.8188663624791666 1.5170316291185302 1 0 0
45 15 1 0.5897 -9.709445540043856 2.192023174581779 1.1544363705791394 1 0 0
182 61 1 0.5897 -11.26155151648861 3.9338255375557925 5.473130061674313 1 0 0
204 68 1 0.5897 -9.224096504632394 5.052442450182692 3.9920010049698393 1 0 0
211 71 2 -1.1794 -6.0784633164080795 4.698452358095693 4.035812613830275 1 0 0
101 34 1 0.5897 -4.313913982019683 3.31679565243679 1.380448697980013 1 0 0
100 34 2 -1.1794 -5.009416583207851 2.6599009769376103 1.4114973106435875 1 0 0
86 29 1 0.5897 -10.825230303138476 4.934893158013891 2.354239268445182 1 0 0
106 36 2 -1.1794 -9.449040025303855 2.3781145955578857 2.9581392203543695 1 0 0
203 68 1 0.5897 -9.00924255244271 6.2085987253818935 3.03861870161272 1 0 0
77 26 1 0.5897 -8.104872931116484 3.5062934187113104 2.207153484396779 1 0 0
213 71 1 0.5897 -6.4461569342302125 4.597811275060023 3.1578365136324833 1 0 0
202 68 2 -1.1794 -9.691044267010307 5.745501673209587 3.5252374920343272 1 0 0
198 66 1 0.5897 -6.85909903867956 7.007158999763291 2.0094374073868293 1 0 0
212 71 1 0.5897 -6.841108974675713 4.728519029013215 4.6133363909738545 1 0 0
76 26 2 -1.1794 -7.40153070063282 3.9570529712970313 1.7399945896502589 1 0 0
87 29 1 0.5897 -10.719997345267494 5.272591703598497 0.8823410332977907 1 0 0
78 26 1 0.5897 -7.850622980413354 4.475293943823026 1.0721986486117872 1 0 0
102 34 1 0.5897 -5.820012779034674 3.165949063683442 1.356343077920127 1 0 0
190 64 2 -1.1794 -12.021726403981097 6.958500042812737 4.062951015795879 1 0 0
162 54 1 0.5897 -14.62925185187285 7.083929998185074 2.224035843594838 1 0 0
167 56 1 0.5897 -16.707063481643885 6.673119192377236 3.2490336132484425 1 0 0
57 19 1 0.5897 -13.733053805079937 5.769771252452323 0.15563639816917008 1 0 0
43 15 2 -1.1794 -9.83784467626709 1.9267506705321296 0.24377702658593026 1 0 0
41 14 1 0.5897 -15.817346483978117 3.388891491655709 2.15896977197433 1 0 0
508 170 2 -1.1794 -13.479685965305706 6.331548119159875 7.410047692374476 1 0 0