LAMMPS data file via write_data, version 30 Jul 2021, timestep = 10250000

864 atoms
2 atom types
576 bonds
1 bond types
288 angles
1 angle types

0.13839449717827712 18.06917790282226 xlo xhi
1.2545417073833285 22.374636092618392 ylo yhi
0.16884096331662235 22.044354836685763 zlo zhi

Masses

1 1.00794
2 15.9994

Pair Coeffs # lj/cut/tip4p/long/omp

1 0 0
2 0.21084 3.1668

Bond Coeffs # harmonic/omp

1 450 0.9572

Angle Coeffs # harmonic/omp

1 55 104.52

Atoms # full

54 1 1 0.5897 1.717458869035363 5.516356974782688 5.589372192210965 -4 -2 6
204 1 1 0.5897 0.32063690861902927 2.8796837365766845 4.6898093108817305 -7 -1 2
161 1 1 0.5897 0.5844563891692794 5.488905079940743 1.9020328829889084 7 9 1
53 1 1 0.5897 3.035176097193525 4.7713060121517925 5.56786116084801 -4 -2 6
254 1 1 0.5897 4.302464651709511 4.803848657408112 1.4978727759439943 -1 7 -5
162 1 1 0.5897 0.7097087928995052 4.348372870901933 2.889651770193718 7 9 1
160 1 2 -1.1794 1.2078293336855186 5.060706342534525 2.488791793689439 7 9 1
255 1 1 0.5897 2.9514509858512175 5.433427214667775 1.763002700175254 -1 7 -5
168 1 1 0.5897 1.8657928698847128 1.897033481114618 1.120844740608594 -1 1 1
144 1 1 0.5897 3.5129571171289204 1.7148026514181822 5.434727168082264 2 -1 5
253 1 2 -1.1794 3.7488065751679254 5.5425019073115065 1.2447471598904096 -1 7 -5
71 1 1 0.5897 4.454986548793827 2.558965193973075 1.8747515697381385 3 1 -4
142 1 2 -1.1794 3.9063637463908845 2.568923565753846 5.613455830440671 2 -1 5
166 1 2 -1.1794 1.3749998886648167 2.1854419085779098 0.3513241636101654 -1 1 1
450 1 1 0.5897 2.9654779820999657 4.158904619290083 8.768672862366408 5 -1 -7
14 1 1 0.5897 3.081895359433913 6.4398761424120465 9.425060101082888 0 -5 -7
448 1 2 -1.1794 2.3178274753919177 4.852800983394464 8.644933730713861 5 -1 -7
449 1 1 0.5897 2.3992567062707413 5.095364227797041 7.722560347486232 5 -1 -7
511 1 2 -1.1794 0.4209845088117087 4.693894752802117 10.569494824945757 5 1 -9
512 1 1 0.5897 0.9808269425699904 4.993600270629181 9.853273588832506 5 1 -9
52 1 2 -1.1794 2.6467776741941247 5.615927421441004 5.795963593033742 -4 -2 6
45 1 1 0.5897 0.4010000621492142 2.457063972828421 6.905799984537308 1 4 0
73 1 2 -1.1794 4.586915189510575 2.960167147392055 8.932646676158788 4 -4 1
249 1 1 0.5897 0.5906166241804036 1.7231921101679495 9.191029279953451 0 0 -6
248 1 1 0.5897 0.29759142213758594 3.108613051593399 9.726400525916919 0 0 -6
75 1 1 0.5897 4.591072675557287 2.018875060069551 8.758939418501683 4 -4 1
694 1 2 -1.1794 2.868182441438956 4.286206373334885 14.847452157371546 5 -2 -2
696 1 1 0.5897 2.347508467337495 4.055737706763255 14.078034962187235 5 -2 -2
292 1 2 -1.1794 1.606911853253466 3.1530021086419806 12.668204777284323 1 -2 0
293 1 1 0.5897 2.043201619235517 2.5111676382967154 12.107842350676039 1 -2 0
294 1 1 0.5897 1.041127865823944 3.6454445802160564 12.073551661278302 1 -2 0
614 1 1 0.5897 4.264496871404798 5.019295201692067 13.774552384461453 -4 0 5
695 1 1 0.5897 2.229696806214879 4.618211328827433 15.478622671351815 5 -2 -2
417 1 1 0.5897 3.237767651951608 6.487947199746405 12.808320423906713 0 -1 -2
306 1 1 0.5897 3.3914723852786004 3.0029511022387982 16.160003874148245 3 -2 -4
624 1 1 0.5897 3.7243823470433766 3.8528408581998046 20.140575504300365 7 -3 1
305 1 1 0.5897 2.622454564998177 2.1031760803584163 17.1039172147251 3 -2 -4
304 1 2 -1.1794 3.423647997088216 2.622772342701312 17.03788990865542 3 -2 -4
96 1 1 0.5897 2.467592642342198 6.185496068881843 16.621252671644985 0 -1 0
94 1 2 -1.1794 1.580931621578965 5.896947428149627 16.837622874970087 0 -1 0
167 1 1 0.5897 2.037652566884382 2.5584927661876 21.645503788775436 -1 1 0
623 1 1 0.5897 3.154267509174113 2.8881706460217877 19.122615735151346 7 -3 1
747 1 1 0.5897 4.544431049651729 5.5626337180429815 21.370568424923725 -2 1 -7
622 1 2 -1.1794 3.12350053846882 3.1129709636551377 20.052528134533166 7 -3 1
763 1 2 -1.1794 0.26183949105714166 6.095582435613336 19.74529944993105 -3 -1 -4
95 1 1 0.5897 1.6479769296606481 5.56657386840275 17.733492062734637 1 -1 0
764 1 1 0.5897 0.19299336228832495 6.026353109708089 20.69754183275178 -3 -1 -4
539 1 1 0.5897 4.56929207762136 2.1634476022306326 20.552249744456084 0 -1 1
342 1 1 0.5897 2.2205171527255785 8.653684630204921 4.898783075508714 0 2 4
498 1 1 0.5897 4.415512489871851 9.66246879653177 4.547711912375559 1 -1 2
760 1 2 -1.1794 2.7966158037602113 9.31658823543098 0.9506738405755543 -2 -2 2
832 1 2 -1.1794 0.3671593712808785 9.058822446253728 4.820612621677964 2 -1 0
815 1 1 0.5897 4.433073039857227 7.070171059036101 1.975887378940053 -5 7 -1
834 1 1 0.5897 0.21095698208604707 9.805490570996707 5.398810138108049 2 -1 0
761 1 1 0.5897 1.9591954549787944 9.29067239362455 1.413587957722294 -2 -2 2
389 1 1 0.5897 3.466790878180093 11.228645965096723 3.5361143518105673 5 3 5
762 1 1 0.5897 3.3671835364066944 8.735843428730892 1.454084115846478 -2 -2 2
340 1 2 -1.1794 3.1201677636695053 8.448349282293506 5.15314324616038 0 2 4
341 1 1 0.5897 3.1382799774264103 7.493771159833348 5.221588635831747 0 2 4
13 1 2 -1.1794 3.5747922171432918 7.130225898374472 9.868559619066174 0 -5 -7
426 1 1 0.5897 3.830200633867036 11.248622017385323 9.440432663882614 7 -5 -2
184 1 2 -1.1794 0.44130262347957044 9.166264278324704 8.440243442312688 4 6 5
569 1 1 0.5897 3.5979457481948103 9.785143869740685 7.980526555915592 3 -1 1
570 1 1 0.5897 3.170661347843363 8.90203831810123 6.8275096596013 3 -1 1
568 1 2 -1.1794 3.274496109879796 8.907062553274763 7.779042793859768 3 -1 1
186 1 1 0.5897 1.3913677837083687 9.103274386904214 8.34208525867986 4 6 5
15 1 1 0.5897 3.658201316895425 7.823810305857653 9.214187058083446 0 -5 -7
424 1 2 -1.1794 3.810594400925224 11.513016697455097 8.520680693994333 7 -4 -2
621 1 1 0.5897 0.17075837088692508 10.816914725382283 14.109849414713121 -1 0 4
651 1 1 0.5897 3.199485890155539 8.777046213083455 13.158364132089334 2 -1 2
619 1 2 -1.1794 0.9332230199060958 11.363311335221065 13.91924672329787 -1 0 4
620 1 1 0.5897 1.6291835210356225 10.73994950167111 13.711178269937006 -1 0 4
649 1 2 -1.1794 3.352575401067214 9.678518638813026 13.44147103468839 2 -1 2
415 1 2 -1.1794 2.603573399872138 7.112033142737199 12.455393379896053 0 -1 -2
636 1 1 0.5897 4.2437697300509996 10.388444305954001 11.945240606847422 -8 4 -2
820 1 2 -1.1794 4.290338314687586 6.8281574588861575 16.334835578262894 4 2 3
650 1 1 0.5897 3.852115052896903 9.593460554736055 14.253538710229531 2 -1 2
600 1 1 0.5897 0.6222334836539734 7.184224828139641 12.707662974588695 0 0 -5
416 1 1 0.5897 2.7165897250208584 7.058268310263702 11.506410247067425 0 -1 -2
821 1 1 0.5897 4.474706669609618 7.750308905436501 16.15628188320384 4 2 3
350 1 1 0.5897 0.7059468339152066 10.928534161089017 16.257228532139887 -8 6 -2
634 1 2 -1.1794 4.602481854632743 10.725696522935502 11.124353176289912 -8 4 -2
31 1 2 -1.1794 1.4297632754910634 8.917044442497156 20.218911238734126 0 7 2
33 1 1 0.5897 0.5661185183103112 9.320766708659688 20.30469390294121 0 7 2
581 1 1 0.5897 2.769993902808002 8.73490501511922 18.98655306980843 0 -4 0
32 1 1 0.5897 1.70675996274987 8.749210666651827 21.119651641848556 0 7 2
580 1 2 -1.1794 3.6241436533452673 8.47079438968176 18.64458866551975 0 -4 0
107 1 1 0.5897 4.226202395717175 11.235423314949085 21.105967934189266 -5 3 2
582 1 1 0.5897 3.427137193121342 7.772960254156883 18.019736212247306 0 -4 0
349 1 2 -1.1794 0.881063565310978 10.493207959062376 17.091533960084917 -8 6 -2
351 1 1 0.5897 1.819594085559434 10.616095263930463 17.23402364894274 -8 6 -2
765 1 1 0.5897 0.6932730305028235 6.93699673691873 19.596462404008037 -3 -1 -4
565 1 2 -1.1794 2.602290989743872 11.803601393339582 21.479591555590126 -2 3 -6
567 1 1 0.5897 2.5470682691286313 10.952970653448524 21.915035176640828 -2 3 -6
390 1 1 0.5897 3.3007040028856527 12.698275002488483 3.8593609132516935 5 3 6
384 1 1 0.5897 2.76131479379681 15.66675764271844 1.5096079367961606 -9 -3 -1
674 1 1 0.5897 2.913890691467761 14.847627872961345 3.787139070306163 0 -2 -2
675 1 1 0.5897 3.8065856954146153 15.040694690888547 4.994485304131103 0 -2 -2
22 1 2 -1.1794 0.7036910218247369 13.23111628077568 2.1119538628909758 -3 3 2
382 1 2 -1.1794 2.196122578934259 15.656510252557188 2.2820632760606867 -9 -3 -1
206 1 1 0.5897 2.9528574482706422 16.862950470867027 3.249180592922843 -2 4 0
673 1 2 -1.1794 3.092948056984237 14.497590341587093 4.65985525105009 0 -2 -2
383 1 1 0.5897 1.5967054894960815 14.925649409190958 2.131165004679644 -9 -3 -1
23 1 1 0.5897 1.399806593365555 12.923145005760382 2.692340322959982 -3 3 2
257 1 1 0.5897 1.7661820130896988 13.859061237092789 5.617607579709878 -1 -2 4
469 1 2 -1.1794 3.7662423673343537 14.368185242978443 0.2635651058979429 0 -4 6
24 1 1 0.5897 0.21968265992843944 13.869722748450332 2.635550884548949 -3 3 2
388 1 2 -1.1794 2.862752460317977 11.963534575553922 3.4297336882183247 5 3 6
787 1 2 -1.1794 0.6302251168970302 16.73895468441495 5.451970466669126 4 -2 5
467 1 1 0.5897 2.085000383368 14.168072568583844 10.427823760010254 2 -5 5
794 1 1 0.5897 1.727538252795154 13.937061070094886 7.768185029386437 -4 0 7
256 1 2 -1.1794 0.9718059286754269 13.570084164136638 6.066727321033306 -1 -2 4
793 1 2 -1.1794 2.3447684542068243 13.865517012596873 8.496291923788752 -4 0 7
456 1 1 0.5897 3.849183126899047 14.966515226555664 8.635230921744801 3 2 0
455 1 1 0.5897 3.9404485575253783 16.23092011825547 9.462774929642928 3 2 0
454 1 2 -1.1794 4.4056059656426445 15.7291426307554 8.793390631004703 3 2 0
410 1 1 0.5897 3.607378817244149 16.42422220008985 7.401656836077089 1 2 -2
795 1 1 0.5897 2.7475205074151616 13.004240078213453 8.385748829763974 -4 0 7
836 1 1 0.5897 0.5385311910082472 15.807273715569211 10.35837637902403 4 1 1
258 1 1 0.5897 0.9840417909463376 12.616355049201733 5.986199429198357 -1 -2 4
788 1 1 0.5897 1.4734082711610827 16.892579010172376 5.878195453202079 4 -2 5
409 1 2 -1.1794 3.206474274130349 16.99079367340805 6.742487170460333 1 2 -2
394 1 2 -1.1794 3.5750277706536204 14.507921622489976 15.605266770313849 2 0 4
131 1 1 0.5897 0.39117803098431303 13.077400276895267 14.102205608510019 -4 -2 -3
743 1 1 0.5897 3.9070202230792823 14.436272271257243 13.969615754769155 -1 -2 5
742 1 2 -1.1794 3.9735809004987845 14.577995695400157 13.025305651553124 -1 -2 5
744 1 1 0.5897 3.0752585253971256 14.492849273643658 12.705929904270782 -1 -2 5
468 1 1 0.5897 1.0219497656790049 13.852462543621012 11.45854887469453 2 -5 5
779 1 1 0.5897 2.905407553516115 16.513992905171648 13.463254091436596 -2 1 -3
335 1 1 0.5897 0.5508280414814994 12.092902195020026 12.218918695537871 0 2 4
395 1 1 0.5897 3.9932437032752137 15.256196610428967 16.031193506135555 2 0 4
466 1 2 -1.1794 1.7621949071875274 14.435064491526065 11.288504844665024 2 -5 5
396 1 1 0.5897 3.3285235088476157 13.928398888648667 16.326108034381672 2 0 3
778 1 2 -1.1794 2.189003945537542 17.005525703138986 13.061498940134152 -2 1 -3
435 1 1 0.5897 1.151650545705358 17.019901656766265 14.764766479819261 -3 4 -4
668 1 1 0.5897 0.7270479837194763 15.736794876826306 16.46161419771709 -6 -7 -3
566 1 1 0.5897 1.9104256584172012 12.326163112288548 21.88515040152146 -2 3 -6
667 1 2 -1.1794 0.427708897513537 14.919320257756684 16.859608401651457 -6 -7 -2
200 1 1 0.5897 4.116054370547097 16.876850834414483 19.591437837582873 -2 -2 -3
457 1 2 -1.1794 0.8600326784456082 14.06862684494976 20.14661299580778 1 1 -4
176 1 1 0.5897 1.66720280144807 13.749282388402655 17.607538684030867 1 -2 6
175 1 2 -1.1794 2.3631478975791436 13.16037158285807 17.899280872933513 1 -2 6
458 1 1 0.5897 0.4413219801886754 14.023364446630561 21.006191572018288 1 1 -4
177 1 1 0.5897 2.3522241819183702 13.230274356421614 18.85387713669858 1 -2 6
201 1 1 0.5897 4.374361274376889 15.399525340109271 19.38467622846937 -2 -2 -3
199 1 2 -1.1794 4.126174288773518 16.038326607617897 20.052981667988483 -2 -2 -3
470 1 1 0.5897 3.6494234092376976 15.02404685973634 21.451745959687617 0 -4 5
459 1 1 0.5897 0.4518173515285595 13.364083930729974 19.643421307063473 1 1 -4
35 1 1 0.5897 3.790358682812486 11.959030312835134 18.026874442466607 -6 2 -3
471 1 1 0.5897 3.49059907735255 13.545396699838049 21.735025396065694 0 -4 5
846 1 1 0.5897 1.4326545389472343 19.324479315774955 1.845638736641093 0 0 3
81 1 1 0.5897 0.35577532480602725 20.731702685072268 3.0073317361720022 1 2 -5
207 1 1 0.5897 2.929747796842765 17.24890199093521 4.7128794995170695 -2 4 0
113 1 1 0.5897 3.4660693399946334 20.444521035560147 5.081077126491416 -5 0 3
112 1 2 -1.1794 2.973331042007442 21.214355544093507 4.7968515472527 -5 0 3
844 1 2 -1.1794 1.1456787007594502 19.171893926605858 2.745962667348848 0 0 3
722 1 1 0.5897 3.6972884795361 21.569930611651333 1.9452062655385816 1 4 1
205 1 2 -1.1794 3.1456452977667175 17.587657464395807 3.844054338498254 -2 4 0
114 1 1 0.5897 2.2457046074202283 21.27553270536013 5.415762084218239 -5 0 3
845 1 1 0.5897 1.8870631782115443 18.73300818889692 3.1630369416211592 0 0 3
723 1 1 0.5897 2.934584507961531 22.03678198436607 3.166789527023232 1 4 1
721 1 2 -1.1794 3.170973435358072 22.297522239063092 2.276638366532308 1 4 1
300 1 1 0.5897 2.4829953651964467 18.04384153266423 9.859980930408174 -2 0 0
560 1 1 0.5897 0.639129176188417 18.662727925526003 8.501931705245424 6 3 1
299 1 1 0.5897 3.881271716211905 18.20451086510188 10.417594326056228 -2 0 0
825 1 1 0.5897 2.9984287628108195 21.35794694411036 8.600492358578316 -3 2 0
298 1 2 -1.1794 3.0697386909521285 17.71166625888888 10.53940916213711 -2 0 0
823 1 2 -1.1794 2.1138576985046833 21.440721989639844 8.956803442747576 -3 2 0
559 1 2 -1.1794 1.5910876198597619 18.748596980150687 8.553348502657853 6 3 1
411 1 1 0.5897 2.863788387787598 17.73301188773204 7.240381730784515 1 2 -2
561 1 1 0.5897 1.7381292336905314 19.672541654821256 8.755646003044502 6 3 1
252 1 1 0.5897 4.078151153698369 18.549917529338664 6.103098667080453 3 -1 1
250 1 2 -1.1794 4.600897416047974 19.3472060251901 6.017664487730472 3 -1 1
824 1 1 0.5897 2.2448741620240127 21.732567037019106 9.858960611545406 -3 2 0
707 1 1 0.5897 1.1121814649974822 21.43698074419954 7.327466158297545 1 -4 -8
706 1 2 -1.1794 0.774373182423036 21.679468158237455 6.465305071324696 1 -4 -8
558 1 1 0.5897 4.195726425713718 21.58267330597932 14.24642631571823 1 1 3
181 1 2 -1.1794 2.2612479929238045 19.69035126128474 12.877068845713955 -5 1 -2
6 1 1 0.5897 2.6691312696525866 21.33571888979145 12.088962056222602 -4 0 -1
557 1 1 0.5897 3.028954131593568 20.618374330260124 14.221198577077205 1 1 3
556 1 2 -1.1794 3.52287940698201 21.19381608659566 14.805256458766587 1 1 3
702 1 1 0.5897 2.3522429818839385 21.32672826458063 16.20366255145524 5 -1 0
182 1 1 0.5897 1.3696472966250406 19.91049154080318 12.607234299983368 -4 1 -2
780 1 1 0.5897 2.480240634673823 17.16332620111234 12.163444357009604 -2 1 -3
701 1 1 0.5897 0.8833210180227502 21.53495173607294 16.504991772891945 5 -1 0
433 1 2 -1.1794 0.9205041457202011 17.361868570926514 15.628394978448176 -3 4 -4
183 1 1 0.5897 2.303581388678105 18.736425640744 12.810240156972592 -5 1 -2
4 1 2 -1.1794 2.902169170895722 22.10104121919212 11.563410645473411 -4 0 -1
5 1 1 0.5897 3.773564938753321 22.348353982464015 11.872843902922865 -4 0 -1
517 1 2 -1.1794 1.6230619641813928 19.012787327640513 17.99087709966669 -1 -3 -5
519 1 1 0.5897 1.2430878896032835 18.55162142620411 17.24308217408079 -1 -3 -5
518 1 1 0.5897 1.6565420280473673 19.929050221151492 17.715967459145567 -1 -3 -5
698 1 1 0.5897 3.3193238752149967 18.708635508581665 18.736876285968876 2 2 -3
84 1 1 0.5897 0.44096420914652806 18.987741156385148 19.349582440047723 -7 -2 -8
445 1 2 -1.1794 4.258657146660993 20.283063022693433 21.082597719229835 3 0 0
447 1 1 0.5897 3.3398774094775976 20.430512082178065 21.306964613604922 4 0 0
697 1 2 -1.1794 4.2107638690516405 18.551295764567737 19.04802148882023 2 2 -3
135 1 1 0.5897 1.3689930461730087 21.22826782633721 22.036445631636063 1 -6 -5
134 1 1 0.5897 0.7390891007640075 19.941902027595276 21.546166809663223 1 -6 -5
700 1 2 -1.1794 1.7495802325056504 21.55406547957869 16.911751988892295 5 -1 0
133 1 2 -1.1794 1.519300553410503 20.284502447474477 21.98222862855168 1 -6 -5
699 1 1 0.5897 4.297508861502728 19.110090551103045 19.820333467590405 2 2 -3
654 1 1 0.5897 8.195816722236657 5.853259617448062 3.5985110073873066 -2 1 -2
220 1 2 -1.1794 6.021182092655571 3.618955833245625 4.188208671803909 4 -5 4
408 1 1 0.5897 8.386896956881909 1.3778821199926274 4.886110581839899 -9 -3 4
652 1 2 -1.1794 8.951721277473624 5.4033895195465185 3.221076013814757 -2 1 -2
222 1 1 0.5897 6.885776016837449 3.2335406916198983 4.33016565341893 4 -5 4
72 1 1 0.5897 5.333000385812617 2.8596153691928228 0.6786861872999368 3 1 -4
213 1 1 0.5897 8.407440191756844 1.9957574129177111 1.6857407776760598 5 3 2
221 1 1 0.5897 5.908889551749638 3.6129536663820354 3.2376436169111975 4 -5 4
70 1 2 -1.1794 5.129672104863344 3.1624847534894776 1.5636442175164182 3 1 -4
211 1 2 -1.1794 8.69115061884809 2.9061536202403406 1.602591387139289 5 3 2
212 1 1 0.5897 8.82643258860188 3.19862116652158 2.5039324450465394 5 3 2
406 1 2 -1.1794 8.473074610757509 2.2940338291905693 4.622558687925077 -9 -3 4
407 1 1 0.5897 8.524334690515326 2.7771946102619465 5.447268522715043 -9 -3 4
89 1 1 0.5897 8.015080088571818 3.897671032300381 0.2759317274752445 5 -2 4
143 1 1 0.5897 4.6330041542546185 2.6328907336235177 4.99363141307308 2 -1 5
688 1 2 -1.1794 6.915330530787483 3.9255628913373983 10.115710095716102 5 -4 2
302 1 1 0.5897 8.397900502712645 3.475418646948593 9.596191886327084 1 5 4
689 1 1 0.5897 6.67223577752997 4.845548514929844 10.011967272562943 5 -4 2
7 1 2 -1.1794 5.593174251397466 4.7355044919684595 6.917177449716419 2 0 -3
126 1 1 0.5897 7.499349504268947 4.717793697079552 6.816343589431057 -1 3 4
125 1 1 0.5897 8.695025358048392 4.08107576015383 7.492276551327194 -1 3 4
690 1 1 0.5897 7.100806925416375 3.830241111692853 11.049928328914516 5 -4 2
74 1 1 0.5897 5.457911192849017 3.1430341543046048 9.284988943426178 4 -4 1
9 1 1 0.5897 5.237121650651181 4.076507561684236 7.513163452995426 2 0 -3
124 1 2 -1.1794 8.385949273281213 4.400447130340325 6.644517484767985 -1 3 4
8 1 1 0.5897 5.422474718803149 4.38552241909216 6.0427593036658775 2 0 -3
141 1 1 0.5897 6.00048544962672 6.497013614767634 6.97836658091185 2 2 1
465 1 1 0.5897 7.16500027132276 2.1098059898924104 15.623059113971166 4 5 -2
178 1 2 -1.1794 6.777543350580014 3.68305860824793 12.964120551600901 -7 2 -2
464 1 1 0.5897 8.460515998174861 1.6262618440652936 15.006870494988569 4 5 -2
463 1 2 -1.1794 7.91695753105705 2.407265018872382 15.11088713947814 4 5 -2
179 1 1 0.5897 7.122633108774741 3.2920312965738114 13.766762142627563 -7 2 -2
180 1 1 0.5897 6.437040079870269 4.534354764062998 13.239043507556552 -7 2 -2
217 1 2 -1.1794 5.246673795174697 1.4044628369831254 13.0049380533438 2 -3 -3
218 1 1 0.5897 5.4893857977983815 2.323888279834555 13.114449200861722 2 -3 -3
613 1 2 -1.1794 4.8543946267494595 5.721953415526222 13.501527928301368 -4 0 6
615 1 1 0.5897 5.032943678272121 6.211075749236093 14.304723775597413 -4 0 6
88 1 2 -1.1794 7.7902874952123575 4.607546891182846 21.549970591818703 5 -2 3
348 1 1 0.5897 8.560986155372694 3.319289934138404 18.57695630624617 -8 5 0
804 1 1 0.5897 6.407085991805635 2.323612130801326 18.113781398317432 2 2 -7
346 1 2 -1.1794 7.718123956277115 3.6597617508160005 18.87680911790488 -8 5 0
483 1 1 0.5897 7.661271125928004 1.4640802087114104 20.355575793165805 -2 3 -4
347 1 1 0.5897 7.626767894330708 4.501510458288286 18.430337675651437 -8 5 0
90 1 1 0.5897 7.79576400228704 4.199316396640623 20.684203123632454 5 -2 3
745 1 2 -1.1794 5.000686834005738 5.198659379779626 20.611896672682953 -2 1 -7
538 1 2 -1.1794 5.378958359699977 1.7097449864789949 20.78640021249821 0 -1 1
802 1 2 -1.1794 6.041386229669442 1.730989523831299 17.457060479479942 2 2 -7
746 1 1 0.5897 5.880052091359769 4.999707858519553 20.93339392038552 -2 1 -7
803 1 1 0.5897 5.133292038308907 2.0161468078389992 17.355618048307633 2 2 -7
790 1 2 -1.1794 6.959401003433237 6.020322737983707 17.32274070798731 6 5 -1
791 1 1 0.5897 7.6969210726012305 6.299902304820942 16.780414053311077 6 5 -1
822 1 1 0.5897 5.103958471935439 6.488539147072523 16.70753817103325 4 2 3
422 1 1 0.5897 6.079033542655409 7.224839769997258 3.6499382183133937 -3 2 8
233 1 1 0.5897 8.266279936236147 8.953912900447612 3.4308403779721153 -2 0 1
521 1 1 0.5897 7.697582127200723 11.57462281874038 4.348776951661803 -6 0 -2
816 1 1 0.5897 5.28613001100403 8.089144726640594 1.2507168585947877 -5 7 -1
520 1 2 -1.1794 7.637746972439061 10.750145757706003 4.831352246152916 -6 0 -2
522 1 1 0.5897 6.804530868992831 10.369496339840762 4.553718088760416 -6 0 -2
423 1 1 0.5897 6.3940734814904685 7.248719594719989 5.130499982965749 -3 2 8
421 1 2 -1.1794 6.805236026048668 7.162528833411613 4.270415263666648 -3 2 8
487 1 2 -1.1794 8.829037988554735 11.570009291029445 1.301567048725602 1 -8 2
234 1 1 0.5897 8.774720285517512 9.957730239130042 2.4180463073355836 -2 0 1
260 1 1 0.5897 8.046879406806706 7.937345849127079 1.2677140614972524 0 -4 6
232 1 2 -1.1794 8.863972962632689 9.043916192090041 2.6886164786257374 -2 0 1
497 1 1 0.5897 5.004882753728247 9.625840637872694 3.1537382389203996 1 -1 3
496 1 2 -1.1794 4.991049831347901 10.147401996212633 3.956244234082879 1 -1 3
489 1 1 0.5897 8.190214994494633 11.723940372504654 0.6055537636279806 1 -8 2
814 1 2 -1.1794 4.876252091944983 7.909919505003667 2.0969436763473954 -5 7 -1
259 1 2 -1.1794 7.708268352925941 7.4645876068003325 0.5073926454850126 0 -4 6
261 1 1 0.5897 7.8730498598241105 6.542647988530036 0.7051392687695106 0 -4 6
676 1 2 -1.1794 6.820070712532811 9.354238476538697 10.292118480861474 2 -2 -3
784 1 2 -1.1794 6.5999795121787 10.651529030028694 7.875072040279961 6 4 4
510 1 1 0.5897 5.280957698749629 6.909814046134174 10.523624772768633 4 -3 3
786 1 1 0.5897 6.916360695631967 10.105633481426814 7.155256734118002 6 4 4
242 1 1 0.5897 8.100281273300366 9.251002273319918 5.847010079729142 -1 -3 0
678 1 1 0.5897 5.99465762364997 9.750198330954143 10.571634250818633 2 -2 -3
785 1 1 0.5897 6.886545985137207 10.19522702953572 8.666204171088912 6 4 4
677 1 1 0.5897 6.652314091019742 8.412014784721919 10.309653587299874 2 -2 -3
241 1 2 -1.1794 8.43043792148242 8.776398198403115 6.609888331228719 -1 -3 0
139 1 2 -1.1794 6.022112425665731 7.441019729529592 6.821502771069186 2 2 1
243 1 1 0.5897 7.714039062369191 8.191792644060333 6.857370439428141 -1 -3 0
198 1 1 0.5897 8.113676602733637 10.406406243717035 10.753511772707776 -3 2 0
140 1 1 0.5897 5.252076158411144 7.778082443274575 7.279379840112657 2 2 1
425 1 1 0.5897 4.731472173479657 11.551565223191123 8.262379347878795 7 -4 -2
508 1 2 -1.1794 6.218103424102533 6.71782811336139 10.490180519357333 4 -3 3
196 1 2 -1.1794 8.852320086454085 10.942892531062524 11.041287151356721 -3 2 0
155 1 1 0.5897 8.498494099758336 6.960563655048069 12.305565920670118 4 3 -5
734 1 1 0.5897 7.283793254225218 10.342937116655726 14.14620347927735 -3 0 -4
290 1 1 0.5897 5.587271667832708 9.569519102450135 15.506502212107854 -9 -3 -7
156 1 1 0.5897 8.056462294768497 6.826623887024163 13.747313113583706 4 3 -5
509 1 1 0.5897 6.513814241284895 6.8069388680864344 11.396184528300106 4 -3 3
735 1 1 0.5897 7.467157912564005 8.88335922409079 13.788611554082344 -3 0 -4
154 1 2 -1.1794 7.742990017975454 7.083913325327726 12.880236499422553 4 3 -5
733 1 2 -1.1794 6.911056800281649 9.474188929756703 14.296458183540622 -3 0 -4
25 1 2 -1.1794 8.87607495713903 6.55926127924347 15.372097517318519 -5 4 6
635 1 1 0.5897 5.285485689272764 11.339274528076288 11.395080984338694 -8 4 -2
289 1 2 -1.1794 4.719682993177573 9.536115500308387 15.909525686552819 -9 -3 -7
705 1 1 0.5897 8.366419139935816 10.236763246091398 16.374901955773666 3 -4 0
291 1 1 0.5897 4.717017192978014 10.261686263012653 16.533844779084756 -9 -3 -7
297 1 1 0.5897 5.034658747282107 7.980118090544645 20.389995540068508 2 1 -1
108 1 1 0.5897 5.177155670613482 10.064575575849249 20.97685139470104 -5 3 2
730 1 2 -1.1794 6.667366721890335 8.49554323796378 18.346296242677294 4 0 -5
731 1 1 0.5897 7.123501384576181 9.214918541851695 17.909638923232826 4 0 -5
296 1 1 0.5897 6.181442591819861 7.941838600781962 21.377567123161956 2 1 -1
106 1 2 -1.1794 5.0990767321026995 11.00034850257222 20.791241075340647 -5 3 2
486 1 1 0.5897 8.849898905074017 7.137939267351258 20.414915295579142 -3 1 1
732 1 1 0.5897 5.756059135501967 8.784147141842269 18.39588016061967 4 0 -5
484 1 2 -1.1794 9.080534895310882 7.287447185815107 19.498032244753688 -3 1 1
295 1 2 -1.1794 5.285107012985699 8.260141519517383 21.270390423253364 2 1 -1
36 1 1 0.5897 4.7363529461145335 11.296332657995134 19.005567937810103 -6 2 -3
703 1 2 -1.1794 7.970099201716664 10.429771900314092 17.224561651812 3 -4 0
153 1 1 0.5897 8.814884264946244 11.170391221163358 18.543100257865287 -1 1 1
485 1 1 0.5897 8.29166411236103 7.667016567694463 19.1109532786702 -3 1 1
704 1 1 0.5897 7.580675444655427 11.297428449912548 17.11616284011322 3 -4 0
792 1 1 0.5897 6.671602693681708 6.818256840579867 17.76627865125045 6 5 -1
34 1 2 -1.1794 4.668127478383918 11.58337995252009 18.09497007581279 -6 2 -3
151 1 2 -1.1794 9.034139270347477 11.490681909410132 19.41806606441489 -1 1 1
749 1 1 0.5897 7.0563239872294465 13.624015371358706 2.900122611013281 5 9 2
686 1 1 0.5897 4.7970887635367525 14.422619297768213 1.8077533501321612 8 -8 -3
748 1 2 -1.1794 7.79156151815298 13.143908747020987 3.2810984998632335 5 9 2
685 1 2 -1.1794 5.463611002538924 14.668618657262783 2.4492200666680275 8 -8 -3
750 1 1 0.5897 8.123570029478381 12.60444501933377 2.5634789895734547 5 9 2
710 1 1 0.5897 5.618988370915293 15.441213755956348 4.145552254976108 -6 -1 -2
687 1 1 0.5897 5.847344410153451 15.473103569333638 2.100156254481889 8 -8 -3
709 1 2 -1.1794 5.593124043189692 15.440105069264115 5.1023966591619425 -6 -1 -2
711 1 1 0.5897 6.049728777751746 14.637268705659155 5.3538742487552335 -6 -1 -2
214 1 2 -1.1794 6.838119139632317 13.382210227146707 6.719641250290909 0 3 0
121 1 2 -1.1794 8.432353974191534 15.825627954028631 10.464980881850211 1 0 6
318 1 1 0.5897 5.808442163476173 14.973349745076497 9.276180618177943 -5 -4 2
215 1 1 0.5897 6.7765705652162325 13.809545764124554 7.573938845507095 0 3 0
545 1 1 0.5897 8.630396010233783 13.232722017714094 6.865560890900802 -1 4 4
317 1 1 0.5897 7.25454634608878 14.942036892916336 9.723050112271292 -5 -4 1
316 1 2 -1.1794 6.531640501644586 14.373279326804072 9.458167062543126 -5 -4 2
444 1 1 0.5897 6.144786189706335 16.974882396433777 6.055340742851195 4 4 -4
216 1 1 0.5897 6.7492018244214185 12.448629268072168 6.911337963118567 0 3 0
345 1 1 0.5897 6.873607074163827 15.790580285053558 13.656566411084599 -6 -1 -1
343 1 2 -1.1794 6.569267955422587 16.11694613820287 12.80975501664763 -6 -1 -1
670 1 2 -1.1794 5.203553692853588 16.532755601991653 16.414432725842133 2 1 -3
122 1 1 0.5897 7.9537741919953815 15.615196628839376 11.266793260640842 1 0 6
541 1 2 -1.1794 5.977383634757879 12.990760512607615 11.897981568670556 -8 1 1
864 1 1 0.5897 7.176602869251887 14.181852141965225 15.807944227232023 0 1 4
542 1 1 0.5897 5.185514801670492 13.397370936714271 12.24989105871182 -8 1 1
344 1 1 0.5897 5.702612007797509 15.725885399079301 12.699227515575561 -6 -1 -1
863 1 1 0.5897 5.890656519045943 14.771667244258005 15.269120294261628 0 1 4
862 1 2 -1.1794 6.655616849414051 14.2586073993319 15.00862062031104 0 1 4
587 1 1 0.5897 7.432437328891298 12.637542947382414 14.277077812380556 -3 -1 4
586 1 2 -1.1794 7.876928609568821 11.944134348118464 13.789397900864442 -3 -1 4
588 1 1 0.5897 7.468003136607102 11.959329634702135 12.92406341797494 -3 -1 4
543 1 1 0.5897 6.173336454913954 13.492331761942024 11.106623723950733 -8 1 1
187 1 2 -1.1794 8.177784383037846 13.654481953192937 17.254529339087863 -4 6 3
188 1 1 0.5897 8.829470721519064 14.340134085306204 17.108219217703507 -4 6 3
718 1 2 -1.1794 5.805954777799034 13.855199377193994 18.933793545215835 5 5 1
405 1 1 0.5897 7.947833381491779 14.225236077397733 21.639286311980204 7 -4 1
528 1 1 0.5897 7.08819418149326 16.0036669326541 21.13608217761847 -2 -5 0
719 1 1 0.5897 6.176923959161096 13.433159873583636 19.708718710668002 5 5 1
720 1 1 0.5897 5.440372661720099 13.134934981467016 18.420143889833035 5 5 1
403 1 2 -1.1794 8.377517931570724 15.024700418824143 21.943349882723023 7 -4 1
527 1 1 0.5897 5.751285578397668 16.336504973860883 20.50850897105207 -2 -5 0
193 1 2 -1.1794 7.203501247432859 12.71556347320842 21.072725841758295 1 -3 2
632 1 1 0.5897 7.190150534417804 16.269411315818495 18.752157894546517 2 6 4
195 1 1 0.5897 7.773901592206897 12.308004435614958 20.420988624719726 1 -3 2
671 1 1 0.5897 5.9065614099049455 16.28038827783268 17.013025566296616 2 1 -3
189 1 1 0.5897 7.552464825886048 14.044187374991733 17.86555605224229 -4 6 3
631 1 2 -1.1794 7.425444271442517 16.27191836209093 17.824329613417046 2 6 4
194 1 1 0.5897 6.468059287431818 12.10925364407022 21.160680989844625 1 -3 2
526 1 2 -1.1794 6.665428919277409 16.61893697818241 20.536943746768987 -2 -5 0
404 1 1 0.5897 8.976542006146504 15.259618119343628 21.234673244697678 7 -4 1
633 1 1 0.5897 8.061838078366613 16.981944074336027 17.740054044759717 2 6 4
714 1 1 0.5897 5.787413283801107 20.861194218202318 1.7007905439499547 -8 2 3
97 1 2 -1.1794 7.625183599552753 21.361279536746913 1.4839327028453986 0 -8 6
98 1 1 0.5897 8.083098967135712 20.53282324622621 1.6261036825944015 0 -8 6
564 1 1 0.5897 6.534718610846826 18.14665844230136 2.9453287063991875 3 2 1
713 1 1 0.5897 5.484514792039364 19.44314476791205 2.1358622714725963 -8 2 3
563 1 1 0.5897 5.041427216276333 17.90250904201609 2.993785239896062 3 2 1
712 1 2 -1.1794 5.066509928925954 20.24164285719796 1.8135198278153517 -8 2 3
562 1 2 -1.1794 5.804503976025227 17.81549598607769 2.422502378342039 3 2 1
55 1 2 -1.1794 8.30154863569602 18.204762971055807 4.197182327455291 0 2 1
57 1 1 0.5897 8.405501147184468 19.079857906017235 4.57084325153786 0 2 1