LAMMPS data file via write_data, version 30 Jul 2021, timestep = 6000000

864 atoms
2 atom types
576 bonds
1 bond types
288 angles
1 angle types

0.0034438582510212257 18.20412854175217 xlo xhi
0.27991109882474596 23.349266701178735 ylo yhi
-0.05171252800393766 22.264908328005298 zlo zhi

Masses

1 1.00794
2 15.9994

Atoms # full

707 1 1 0.5897 2.785776792348742 1.9653138384419084 3.6389227227741077 0 0 0
706 1 2 -1.1794 2.843553416715336 1.8143728973005886 2.6955702758961615 0 0 0
30 1 1 0.5897 4.736643125992059 4.172696560805612 2.163324398885603 0 0 0
708 1 1 0.5897 2.022895467926723 2.161825095499529 2.346293214557457 0 0 0
29 1 1 0.5897 4.307748319444381 2.721733045423449 2.1104157856553507 0 0 0
28 1 2 -1.1794 4.90734264975704 3.3490562446628718 1.7064776182290744 0 0 0
846 1 1 0.5897 6.978776085016993 1.9474681130296974 4.6626888849875945 0 0 0
181 1 2 -1.1794 0.09540027596203529 5.444726112016365 5.4755002257205945 0 0 0
487 1 2 -1.1794 2.677221248190153 2.216167608487233 5.483205005879882 0 0 0
494 1 1 0.5897 6.56107799841009 2.4843419877577575 2.1853301318614338 0 0 0
493 1 2 -1.1794 7.157536529774459 1.8866791730220007 2.6361603639027633 0 0 0
495 1 1 0.5897 8.019242056864794 2.29328426897284 2.544650537643185 0 0 0
1 1 2 -1.1794 0.5792216212071973 3.0858935605030546 1.8201428254190672 0 0 0
3 1 1 0.5897 0.5404300028367808 3.9834335775843837 2.150575395652659 0 0 0
136 1 2 -1.1794 5.060843222421164 5.814662108454748 2.8971954831596185 0 0 0
597 1 1 0.5897 0.5085653441241957 5.542020928789887 3.6437371134249212 0 0 0
595 1 2 -1.1794 0.5165417147071905 5.591206335484831 2.6879412203579083 0 0 0
137 1 1 0.5897 5.008431962774551 5.980721455300666 3.8383476131503294 0 0 0
668 1 1 0.5897 5.147954312254116 3.453713557774149 0.04881280359684824 0 0 0
685 1 2 -1.1794 5.069949751093509 5.9115228841482095 5.597231986429925 0 0 0
488 1 1 0.5897 1.9456758516195105 2.5684217730215364 5.990082261214435 0 0 0
82 1 2 -1.1794 4.890944358471205 3.3846659417227043 6.658832881297956 0 0 0
34 1 2 -1.1794 0.36527834867192377 3.6440826088745633 9.61928832048333 0 0 0
674 1 1 0.5897 3.2498584034815963 2.2981522528633014 9.842976927905802 0 0 0
356 1 1 0.5897 7.230375639862075 1.420148162620101 9.99906261348136 0 0 0
676 1 2 -1.1794 4.979154107371005 5.936223432737266 10.375590951690665 0 0 0
83 1 1 0.5897 4.181814573237297 3.0216164187700554 6.128264812960541 0 0 0
686 1 1 0.5897 4.972220966933429 5.041269809982367 5.983693870374908 0 0 0
489 1 1 0.5897 2.6857841122110426 1.2819233682272873 5.691544071090648 0 0 0
84 1 1 0.5897 5.677760601391584 2.9387734266137686 6.345300031305793 0 0 0
274 1 2 -1.1794 4.823699294897065 3.2830300910762626 9.40990920251407 0 0 0
678 1 1 0.5897 4.973088322007189 4.998912217307904 10.18141985637926 0 0 0
419 1 1 0.5897 8.719153237850238 2.4932562872962145 6.140654879442803 0 0 0
36 1 1 0.5897 1.014593233937169 3.1410935614895314 10.110804552606417 0 0 0
355 1 2 -1.1794 7.243833770679517 2.3702687584616826 10.11476085639246 0 0 0
784 1 2 -1.1794 0.4356127829517296 3.0599658470195474 6.8033041086296056 0 0 0
785 1 1 0.5897 0.4557676861137634 3.0624284406381737 7.760180002554294 0 0 0
276 1 1 0.5897 5.664028000915922 2.8342689744967346 9.50309673414752 0 0 0
675 1 1 0.5897 2.5015156846560154 0.9873010268998865 9.726021189887705 0 0 0
275 1 1 0.5897 4.725594979053244 3.415395232417702 8.46710353214286 0 0 0
673 1 2 -1.1794 2.582414183941793 1.7662794794807244 10.276363496549095 0 0 0
176 1 1 0.5897 8.97686949612774 2.7901724021083214 9.713278120535755 0 0 0
183 1 1 0.5897 0.24349683968376748 4.632407677742985 5.959678893358922 0 0 0
35 1 1 0.5897 0.5075272145245238 4.550659443251577 9.891600789911775 0 0 0
845 1 1 0.5897 7.207936306309246 1.0390500506385891 5.851757241317997 0 0 0
844 1 2 -1.1794 7.078291889393761 1.9573206234935632 5.614557425246277 0 0 0
357 1 1 0.5897 7.171954206527746 2.497858620791667 11.060587241292751 0 0 0
166 1 2 -1.1794 2.9190001357944433 2.2128377715370537 12.935202041682128 0 0 0
167 1 1 0.5897 2.910944877675991 1.9797757923753145 12.006942472876085 0 0 0
457 1 2 -1.1794 5.017260927592155 3.453427859529683 14.127497966076703 0 0 0
458 1 1 0.5897 5.717084523049413 2.897206560865186 13.785317185435764 0 0 0
459 1 1 0.5897 4.209635796626752 3.018512593296455 13.85400808765938 0 0 0
762 1 1 0.5897 5.0246645720130605 5.034707741560368 13.297987255262163 0 0 0
71 1 1 0.5897 5.234285926007626 3.1426228111547547 16.091127881933637 0 0 0
168 1 1 0.5897 2.0830202002134355 2.6564834741390952 13.07850708892252 0 0 0
760 1 2 -1.1794 5.057377293172815 5.9758026929198245 13.12606274910497 0 0 0
365 1 1 0.5897 0.5898208931663886 5.230260524097453 13.620624526759347 0 0 0
593 1 1 0.5897 7.4863336362509845 1.331259350150682 12.906163342767051 0 0 0
592 1 2 -1.1794 7.25632742654579 2.258457745771482 12.845096461930094 0 0 0
594 1 1 0.5897 8.053804052237542 2.721015594591883 13.102559023111896 0 0 0
468 1 1 0.5897 0.498468573010496 3.532071974787188 14.857661405990328 0 0 0
466 1 2 -1.1794 0.5539861804015402 3.5342020419599733 13.902180975280562 0 0 0
133 1 2 -1.1794 0.5797063501182098 3.3183311824218844 16.590143586364327 0 0 0
761 1 1 0.5897 5.045690350136482 6.0458799219298465 12.171592201634876 0 0 0
754 1 2 -1.1794 7.386480824610245 1.703800455077245 18.06552454063125 0 0 0
667 1 2 -1.1794 5.104114492501601 3.4877145598096724 21.409939697291975 0 0 0
42 1 1 0.5897 7.437401194493815 1.315452511099506 21.13385604499937 0 0 0
755 1 1 0.5897 7.648167721975245 1.7379191711452537 18.985524718116352 0 0 0
81 1 1 0.5897 2.9041074739057033 0.28942551594584803 20.942552653099995 0 1 0
19 1 2 -1.1794 0.659488812543577 3.2320894047917736 21.25735773478062 0 0 0
289 1 2 -1.1794 2.86384357830067 2.032102164224883 17.748788197130295 0 0 0
41 1 1 0.5897 6.735933446977866 2.6410641401872015 20.927179249917437 0 0 0
143 1 1 0.5897 5.013866088072056 5.15474195361485 20.90260371399681 0 0 0
569 1 1 0.5897 2.0855927295085177 2.429034152127926 20.886772276220107 0 0 0
279 1 1 0.5897 4.415513054265725 6.0148032192982805 17.64325469614986 0 0 0
570 1 1 0.5897 2.985822760179294 2.1052927604455305 19.713553678430557 0 0 0
40 1 2 -1.1794 7.583777018891158 2.209058319465483 20.823485024132495 0 0 0
290 1 1 0.5897 2.7915173643656117 1.1571200653905485 17.367409985944214 0 0 0
571 1 2 -1.1794 0.3959341530622181 5.673666732085527 17.967520428311772 0 0 0
278 1 1 0.5897 5.415646961449763 4.888121982697692 17.49405452367065 0 0 0
568 1 2 -1.1794 2.943883878783572 2.0655550239455978 20.668914075345604 0 0 0
756 1 1 0.5897 6.609686695458283 2.2609328912945923 18.016136623457022 0 0 0
669 1 1 0.5897 4.329639953698047 2.9713935830806744 21.186732921643554 0 0 0
72 1 1 0.5897 4.324138752216091 2.790280822121877 17.24830958082761 0 0 0
291 1 1 0.5897 2.077996408835732 2.489807991410819 17.45017017258565 0 0 0
21 1 1 0.5897 0.6280022819456993 4.179915257517777 21.127266607017347 0 0 0
277 1 2 -1.1794 5.345846849169677 5.810899806559496 17.73877755660058 0 0 0
599 1 1 0.5897 8.74067378970815 2.762444198186064 17.15381262645854 0 0 0
70 1 2 -1.1794 5.173321811560271 3.1826606892168323 17.04544358888422 0 0 0
648 1 1 0.5897 0.5690558021918289 5.880670429911326 19.726665377577255 0 0 0
134 1 1 0.5897 0.40876242070194696 4.183240625760272 16.962942996732302 0 0 0
646 1 2 -1.1794 0.47354098741136386 5.964469391449948 20.675284941007867 0 0 0
20 1 1 0.5897 0.5860912193402364 3.117336432219285 22.204708997531156 0 0 -1
138 1 1 0.5897 4.262968110686781 6.204525110829305 2.5399719704439376 0 0 0
123 1 1 0.5897 2.660930777974315 8.771601915643092 2.535517371077888 0 0 0
121 1 2 -1.1794 2.8272491589526307 9.672275918210422 2.8137255905748564 0 0 0
122 1 1 0.5897 2.7396286417961395 9.649119396046453 3.7665181629178206 0 0 0
44 1 1 0.5897 1.4528968678337455 10.311936259528316 2.1222245702894957 0 0 0
218 1 1 0.5897 5.840962954472996 10.369813875253975 2.259193486606308 0 0 0
416 1 1 0.5897 6.750535673327759 6.657099217259074 2.2172940951087043 0 0 0
219 1 1 0.5897 4.335800322172665 10.268054669710319 2.1328319214106055 0 0 0
253 1 2 -1.1794 2.619801272043749 7.121785210181262 1.9773274889581547 0 0 0
415 1 2 -1.1794 7.530237549647002 7.150599549919395 1.9628453154323098 0 0 0
396 1 1 0.5897 0.5299167572924393 10.760442661760703 0.31106476737821864 0 0 0
254 1 1 0.5897 2.696136553907584 7.183668494867369 1.0252831612324154 0 0 0
217 1 2 -1.1794 5.106686779538278 10.64902352823727 1.7123539848274467 0 0 0
66 1 1 0.5897 7.830325938648998 9.713717720120584 3.5930302431427044 0 0 0
65 1 1 0.5897 7.628710159163206 8.880327644191723 2.345464444672585 0 0 0
64 1 2 -1.1794 7.512048838483643 9.765015031621703 2.691856462605841 0 0 0
417 1 1 0.5897 8.26056925863222 6.648827246656298 2.3248432569942414 0 0 0
255 1 1 0.5897 1.8334516157875227 6.595286523541396 2.1212756763318508 0 0 0
43 1 2 -1.1794 0.6398397681784395 10.80823261893001 2.028093109787145 0 0 0
45 1 1 0.5897 0.8113874658282071 11.63702774200066 2.475208953470838 0 0 0
363 1 1 0.5897 5.152162980922957 10.900267870674128 0.04731247699430188 0 0 1
162 1 1 0.5897 7.457962577708786 7.004366697782818 0.16230622962703492 0 0 1
712 1 2 -1.1794 7.665711326934687 9.753490113600247 5.522338460197869 0 0 0
11 1 1 0.5897 1.7464454406598713 6.70542176679701 6.211579972186146 0 0 0
577 1 2 -1.1794 5.178147967282275 10.610161052373877 6.252904656046057 0 0 0
10 1 2 -1.1794 2.6757601437534597 6.861441743754015 6.379752360717473 0 0 0
550 1 2 -1.1794 0.596042635556446 10.675663408233905 6.997057435154352 0 0 0
526 1 2 -1.1794 7.233179300091492 7.274349317425712 8.897946453746066 0 0 0
651 1 1 0.5897 3.7649154078717006 6.742753830523489 9.372398856864525 0 0 0
145 1 2 -1.1794 7.631427890843152 6.982023916850367 6.143187513574457 0 0 0
794 1 1 0.5897 1.9794038011324042 10.130143097784389 5.916203603027828 0 0 0
822 1 1 0.5897 7.821538187715279 10.223740320167243 10.37935702827446 0 0 0
551 1 1 0.5897 0.46386777742238955 10.594077654910661 7.941470115084443 0 0 0
650 1 1 0.5897 2.9287050919463304 7.2987569723861725 8.239588446745202 0 0 0
578 1 1 0.5897 6.100619518669354 10.427366465877155 6.074486274429575 0 0 0
527 1 1 0.5897 7.082545686032168 7.9730374084564755 9.534597588943559 0 0 0
15 1 1 0.5897 1.3780473305990142 10.251955237614018 10.046468122652575 0 0 0
582 1 1 0.5897 5.245252083835255 10.925149597916628 8.042140154005022 0 0 0
713 1 1 0.5897 8.200541779586178 10.351057800759616 6.044898981058663 0 0 0
581 1 1 0.5897 5.696213961656582 10.374425220599482 9.378132182631031 0 0 0
147 1 1 0.5897 7.4293150780588375 7.084000317856424 7.0731247911147 0 0 0
649 1 2 -1.1794 3.0107720615248943 7.304345164484957 9.193179725652676 0 0 0
114 1 1 0.5897 1.4414187584235287 6.579554972956501 10.284789277889741 0 0 0
677 1 1 0.5897 5.774933254099894 6.263117010135336 9.955994197724328 0 0 0
258 1 1 0.5897 3.64015078123927 10.287241170085203 9.804805408648004 0 0 0
714 1 1 0.5897 7.799476008628096 8.896016672807772 5.9262338594534025 0 0 0
257 1 1 0.5897 3.1610303762461105 8.877181927602436 10.077173274590498 0 0 0
580 1 2 -1.1794 5.095838906873842 11.00718221645852 8.983938244271341 0 0 0
820 1 2 -1.1794 7.1595125490306 9.603056940492657 10.683843417021935 0 0 0
256 1 2 -1.1794 3.0698254047153144 9.77988247150813 10.3822793103746 0 0 0
12 1 1 0.5897 2.789324599419673 7.802379907104193 6.24542213648752 0 0 0
687 1 1 0.5897 4.2298052270847 6.341180529812121 5.757793299540387 0 0 0
146 1 1 0.5897 6.8789071413229665 6.511810389487172 5.784253428121914 0 0 0
528 1 1 0.5897 7.960753558658977 6.770296560929724 9.262327030266217 0 0 0
13 1 2 -1.1794 0.5465653546518171 10.676764971738553 9.83572513505527 0 0 0
552 1 1 0.5897 0.32939765268960186 11.572330874642592 6.7940220764952155 0 0 0
795 1 1 0.5897 3.4508559680711195 9.906633414032235 5.639269284084581 0 0 0
579 1 1 0.5897 5.083654881832777 11.548741893696235 6.0903350099468945 0 0 0
793 1 2 -1.1794 2.594898286541003 9.483775037793066 5.5703403954373245 0 0 0
14 1 1 0.5897 0.7023780302705824 11.606112000735886 10.004034426649012 0 0 0
112 1 2 -1.1794 0.6265308394385988 6.244575188024106 10.658864812513059 0 0 0
261 1 1 0.5897 0.7722850128739194 10.736963741066214 14.935246777794696 0 0 0
366 1 1 0.5897 1.386015349851523 6.486654820110142 13.902692195314074 0 0 0
332 1 1 0.5897 2.807565260452472 7.769695820712456 14.154393695878113 0 0 0
797 1 1 0.5897 3.116776290285813 9.371670572247588 12.335312862109333 0 0 0
796 1 2 -1.1794 3.0378126526907763 9.31070299970289 13.287194933868925 0 0 0
798 1 1 0.5897 2.356457167326205 9.94412334067888 13.5125180673407 0 0 0
722 1 1 0.5897 4.631243813890317 10.295107622691782 13.748455069886752 0 0 0
827 1 1 0.5897 6.561166456026859 6.516058458947626 13.734509249669456 0 0 0
723 1 1 0.5897 5.303120125143805 11.207065548664819 14.752811951771255 0 0 0
828 1 1 0.5897 7.440211237517118 6.775632876630752 14.939266297625844 0 0 0
721 1 2 -1.1794 5.296730908532923 10.979071893584987 13.82325281505128 0 0 0
331 1 2 -1.1794 3.0286493809346036 6.935611526992327 14.568722760629234 0 0 0
333 1 1 0.5897 3.7029777668201453 6.5582546759854825 14.003874875194917 0 0 0
826 1 2 -1.1794 7.441186257353305 6.7993965875182445 13.982470279952766 0 0 0
475 1 2 -1.1794 7.558487038894185 9.45533541900337 13.44262632380985 0 0 0
476 1 1 0.5897 6.727123203660734 9.908109586652175 13.584222314998518 0 0 0
477 1 1 0.5897 7.37752133803806 8.543833999663788 13.672174022386356 0 0 0
225 1 1 0.5897 2.966505335034456 6.89935865139292 16.28594335251632 0 0 0
259 1 2 -1.1794 0.8089634928678601 10.764623305054181 13.979256349060202 0 0 0
113 1 1 0.5897 0.7600046096721276 6.2914271153916 11.60545085382995 0 0 0
104 1 1 0.5897 8.931165271922946 10.720511116053252 13.86280255547815 0 0 0
364 1 2 -1.1794 0.5658616336391775 6.181357132258601 13.514963305946488 0 0 0
821 1 1 0.5897 7.291252843087619 9.557054781983627 11.630710111816443 0 0 0
851 1 1 0.5897 9.060553502372258 6.285425306124249 13.273612430662892 0 0 0
572 1 1 0.5897 1.236495172436389 6.069171573853762 17.736772736585365 0 0 0
141 1 1 0.5897 7.3850008661544155 8.681696910928705 20.923853489907124 0 0 0
5 1 1 0.5897 3.6884889750623757 6.9188055589054445 21.2302995834281 0 0 0
627 1 1 0.5897 2.119352472737271 9.956596232797436 17.185391610029384 0 0 0
287 1 1 0.5897 8.580909844064967 10.754003630113898 21.24172770277835 0 0 0
522 1 1 0.5897 7.800205108224343 8.072402041753822 17.318758802011317 0 0 0
361 1 2 -1.1794 5.1355619970910915 11.005912270768784 21.412835478717454 0 0 0
647 1 1 0.5897 1.245310970990907 6.4587667797702615 20.95142756289745 0 0 0
140 1 1 0.5897 6.4706927087861414 9.888049293129667 20.95098059859116 0 0 0
142 1 2 -1.1794 5.063731024492031 6.086100001232245 20.68724833384335 0 0 0
690 1 1 0.5897 1.8774406918059932 10.341523724192854 20.6604154301341 0 0 0
625 1 2 -1.1794 2.8605308953658053 9.508062683520931 17.5924273332515 0 0 0
688 1 2 -1.1794 2.5828122171574917 9.780970567704529 20.337228186501655 0 0 0
680 1 1 0.5897 4.436995334163494 10.448857224643854 16.947702929398872 0 0 0
9 1 1 0.5897 6.851177027667365 10.30917967096176 17.60941827531412 0 0 0
689 1 1 0.5897 3.381127344937647 10.169514767478065 20.694899469674773 0 0 0
161 1 1 0.5897 6.641442220633453 6.671207570124818 21.248545052312693 0 0 0
626 1 1 0.5897 2.7660707295252607 9.688662930258118 18.527572724924312 0 0 0
139 1 2 -1.1794 7.3450327385209215 9.606850985887881 20.681418519730038 0 0 0
6 1 1 0.5897 2.7294035973024613 8.088205062067939 21.161483379768555 0 0 0
224 1 1 0.5897 2.7297463137158124 7.6534763868508495 17.577025560206266 0 0 0
8 1 1 0.5897 7.649729488287757 9.775297598524851 18.779427430632552 0 0 0
7 1 2 -1.1794 7.674957860926791 9.873305446749606 17.827685328789563 0 0 0
160 1 2 -1.1794 7.484601166970536 7.032013189688609 21.52260480955546 0 0 0
394 1 2 -1.1794 0.3205723034567272 10.77580094509978 21.693860183263922 0 0 0
4 1 2 -1.1794 2.835736281926762 7.21799770761808 21.545811357260924 0 0 0
144 1 1 0.5897 5.139349616735023 6.108093313901756 19.73340383284914 0 0 0
521 1 1 0.5897 7.095009927208839 6.733473347245653 17.27444986936692 0 0 0
462 1 1 0.5897 8.968252683717122 6.445042200175978 20.51064375756051 0 0 0
679 1 2 -1.1794 5.294835892541725 10.83097736640381 16.76238920978964 0 0 0
445 1 2 -1.1794 0.7359432075742285 11.09082078739146 16.789493042343928 0 0 0
681 1 1 0.5897 5.260775724641862 11.701291659335476 17.159461487872584 0 0 0
223 1 2 -1.1794 2.7900157750757253 6.768385510522499 17.217469981407696 0 0 0
520 1 2 -1.1794 7.766542757669017 7.2504080720010275 16.829463270973044 0 0 0
174 1 1 0.5897 5.104848838440301 12.404422814602674 2.3704859547535473 0 0 0
173 1 1 0.5897 4.57532747271412 13.787771311722624 2.683489652648304 0 0 0
172 1 2 -1.1794 5.320719774445433 13.208650688893208 2.8425440961475967 0 0 0
374 1 1 0.5897 0.8463332783692977 13.343959834116335 4.327755974858037 0 0 0
558 1 1 0.5897 2.759591995824242 14.903597823910767 1.3789549468999258 0 0 0
556 1 2 -1.1794 2.9538263420138042 14.997825112648503 2.31138942305724 0 0 0
557 1 1 0.5897 2.2607266751841832 14.505987377044836 2.7517313619664936 0 0 0
478 1 2 -1.1794 7.561028846679141 14.773920356036275 2.562119570211353 0 0 0
373 1 2 -1.1794 0.8197716720414319 13.398196083925004 3.3725699847264585 0 0 0
293 1 1 0.5897 2.8682462969135245 16.74601631346016 2.644005909147669 0 0 0
479 1 1 0.5897 8.372437967603645 14.27561206905892 2.659757908632134 0 0 0
449 1 1 0.5897 7.575716782225427 16.501228173954594 2.772729490341072 0 0 0
480 1 1 0.5897 6.871497943605232 14.162976919292486 2.821970886171939 0 0 0
200 1 1 0.5897 5.402987707834981 13.303726727582585 4.775177856150062 0 0 0
317 1 1 0.5897 7.371693142066772 14.98901745573199 0.6099019854434891 0 0 0
448 1 2 -1.1794 7.678297442783995 17.452800464497642 2.7560643445168354 0 0 0
307 1 2 -1.1794 7.523686054868639 17.523074983157343 5.3738678440708005 0 0 0
384 1 1 0.5897 2.8328181037324667 16.570665069218173 9.721930708222336 0 0 0
18 1 1 0.5897 3.653661147859283 14.133685136760182 6.243070541083603 0 0 0
518 1 1 0.5897 7.52497620273425 15.694547483610707 5.976375423196872 0 0 0
454 1 2 -1.1794 5.139165525454453 13.7090861542208 9.880668790117353 0 0 0
811 1 2 -1.1794 2.621422837489148 14.722314650641787 9.206612718649893 0 0 0
656 1 1 0.5897 1.3051091452010644 13.840076716697938 6.203489952455024 0 0 0
813 1 1 0.5897 1.9828325655319876 14.191812986667468 9.683020184265706 0 0 0
17 1 1 0.5897 2.7760210834260004 14.38643405587101 7.450307897929656 0 0 0
239 1 1 0.5897 3.13323204471437 16.517667742525603 6.171087875621417 0 0 0
201 1 1 0.5897 6.061336571242288 13.885985185806822 6.007708235633602 0 0 0
377 1 1 0.5897 6.705239296770995 14.36172661540972 9.483171878993685 0 0 0
199 1 2 -1.1794 5.350641790111775 13.30764134518125 5.730829754805474 0 0 0
519 1 1 0.5897 8.131806684622754 14.314257663713594 6.112671818792737 0 0 0
812 1 1 0.5897 3.4715446777601184 14.37921098313939 9.481883036787984 0 0 0
456 1 1 0.5897 5.141828922466584 12.840075777401973 9.479301691084643 0 0 0
376 1 2 -1.1794 7.512848687942783 14.83195267338088 9.276081455648631 0 0 0
16 1 2 -1.1794 2.80619921704864 14.496941997064809 6.50009031644087 0 0 0
517 1 2 -1.1794 7.3691191651876435 14.834221882499369 6.365988735105669 0 0 0
186 1 1 0.5897 7.482414298521919 16.58845474595138 9.866969674889443 0 0 0
378 1 1 0.5897 7.529038480918275 14.87148285701094 8.319921795203634 0 0 0
766 1 2 -1.1794 0.7486058137135826 13.539248643278729 10.754737131095775 0 0 0
382 1 2 -1.1794 2.811949834038671 17.49577647897388 9.966923901772446 0 0 0
455 1 1 0.5897 5.357659821865776 13.549932184291073 10.798808218920612 0 0 0
59 1 1 0.5897 8.959960900659523 14.199019250465472 10.08153888834785 0 0 0
655 1 2 -1.1794 0.5142123185662554 13.300967950045715 6.212859300653988 0 0 0
184 1 2 -1.1794 7.418824033583527 17.412545350917632 10.349793204638278 0 0 0
238 1 2 -1.1794 3.1524162707930463 17.389860966970424 5.777163649036149 0 0 0
638 1 1 0.5897 0.9413420814872064 12.53531181728735 13.721795270644412 0 0 0
232 1 2 -1.1794 3.315015481450074 14.818304256354406 13.628347599927205 0 0 0
234 1 1 0.5897 3.4321300253802542 14.767989242396169 14.57693198919873 0 0 0
606 1 1 0.5897 3.063032082340558 16.328914314345276 12.933305347901944 0 0 0
427 1 2 -1.1794 5.454647858515089 13.315396855983435 12.521651876198986 0 0 0
233 1 1 0.5897 3.885665657384348 14.133553606821486 13.279493907371815 0 0 0
639 1 1 0.5897 1.5731665484794142 13.907177257590762 13.617961196137218 0 0 0
429 1 1 0.5897 5.902100594371871 13.809502784815548 13.208519867511482 0 0 0
604 1 2 -1.1794 3.0431635965668336 17.26337272919303 12.726678331575334 0 0 0
297 1 1 0.5897 8.11455008942803 14.2071248518744 13.751925083503048 0 0 0
428 1 1 0.5897 5.416404334276677 12.419469052055655 12.856504271342152 0 0 0
295 1 2 -1.1794 7.312195160301054 14.617924801207117 14.073914265743834 0 0 0
270 1 1 0.5897 7.579816483561517 16.381022864495975 13.482047197975268 0 0 0
296 1 1 0.5897 7.429160148578904 14.661645463982527 15.022826418552134 0 0 0
637 1 2 -1.1794 0.7626301115539427 13.431405500068092 13.436586719104149 0 0 0
605 1 1 0.5897 3.0572519957171824 17.297997480549967 11.770307396247865 0 0 0
269 1 1 0.5897 7.609759943591379 17.17740323946588 12.195021249937874 0 0 0
767 1 1 0.5897 0.7160577816477682 13.504576511034106 11.710647479931254 0 0 0
268 1 2 -1.1794 7.7101469448342455 17.266506850096903 13.142656794350414 0 0 0
823 1 2 -1.1794 3.4320958281479834 14.823830835091218 16.494044329952303 0 0 0
316 1 2 -1.1794 7.265896367136306 14.828847677428765 21.988865558730673 0 0 0
583 1 2 -1.1794 3.4174041547824205 17.074881142420857 18.205595621958715 0 0 0
50 1 1 0.5897 7.438958391305253 15.418531660617628 17.222531208635672 0 0 0
664 1 2 -1.1794 2.8107622392450833 14.662358129048746 21.954944307460707 0 0 0
159 1 1 0.5897 7.921939327643616 16.931482564786812 19.834846720537755 0 0 0
51 1 1 0.5897 8.279195680595304 14.167992579468347 17.073648259947127 0 0 0
125 1 1 0.5897 5.310527465171899 13.541247250140037 18.996105430854804 0 0 0
362 1 1 0.5897 5.0952649940550545 11.952626480817166 21.27719424182756 0 0 0
684 1 1 0.5897 4.392299777152712 14.161258636091606 21.283592184907143 0 0 0
452 1 1 0.5897 0.515803475878414 12.57562982804297 20.952987704561302 0 0 0
666 1 1 0.5897 3.0918709216678906 15.508842437368935 21.607534946338 0 0 0
584 1 1 0.5897 3.5005026815182605 16.284371647105047 17.672280205279478 0 0 0
825 1 1 0.5897 2.7022942931579403 14.413792443966262 16.95821067368179 0 0 0
318 1 1 0.5897 7.397474689517489 15.685602924442238 21.582780136674458 0 0 0
665 1 1 0.5897 2.015820777845778 14.453589156567125 21.464386511062756 0 0 0
53 1 1 0.5897 1.0682424298953994 13.53718139616839 18.791455418734643 0 0 0
683 1 1 0.5897 5.902106541068473 14.057432659465414 21.32318706262261 0 0 0
126 1 1 0.5897 6.162375343645563 13.637172244611532 17.748427588005555 0 0 0
682 1 2 -1.1794 5.13893651998863 13.79943782641522 20.806301737238634 0 0 0
124 1 2 -1.1794 5.3352552108357765 13.282876894489341 18.074846595850367 0 0 0
52 1 2 -1.1794 1.1403614301747254 13.542323300603973 17.837099072822078 0 0 0
451 1 2 -1.1794 0.5211153928677889 13.441158797651413 20.544237795806957 0 0 0
157 1 2 -1.1794 7.818240719756193 17.122865792478464 20.766866574250507 0 0 0
824 1 1 0.5897 4.214591440349774 14.447972034628814 16.89734167704544 0 0 0
117 1 1 0.5897 8.704963821486874 14.0623547361333 21.198801612298908 0 0 0
54 1 1 0.5897 0.3127878243780083 13.917328216895497 17.535942933556193 0 0 0
49 1 2 -1.1794 7.423649823136978 14.53586824971946 16.852464770114885 0 0 0
715 1 2 -1.1794 3.518982661810318 17.228665486703214 21.01751831144447 0 0 0
610 1 2 -1.1794 7.791991225133331 17.056316636588406 18.003460069997665 0 0 0
716 1 1 0.5897 3.515936309019954 17.16305635186312 20.062683334218022 0 0 0
446 1 1 0.5897 1.0460616700298937 11.935557653591559 17.115833979964563 0 0 0
267 1 1 0.5897 6.112900213174629 21.163241171364746 2.433666703401209 0 0 0
696 1 1 0.5897 1.622060678917393 21.725372094613903 2.620685392576838 0 0 0
266 1 1 0.5897 4.651149987994258 21.532378800343267 2.570986170772342 0 0 0
265 1 2 -1.1794 5.3207079158299795 20.947464381652118 2.925652069682278 0 0 0
818 1 1 0.5897 8.219223937330149 22.03032238382889 1.9821735114218204 0 0 0
228 1 1 0.5897 5.341362945267574 19.354416146427248 2.157553040441858 0 0 0
345 1 1 0.5897 0.4639645308337433 18.97732980466313 1.115143168428909 0 0 0
694 1 2 -1.1794 0.799081885766658 21.523797146626315 3.0659408051761767 0 0 0
817 1 2 -1.1794 7.374800202189843 22.360873674564843 1.675767291088566 0 0 0
226 1 2 -1.1794 5.2695952619900766 18.42782310546808 1.9283128220483199 0 0 0
187 1 2 -1.1794 3.1854030160050293 22.343904645346754 1.5228947583471044 0 0 0
249 1 1 0.5897 5.020069422103344 21.04576819383317 4.730474165324489 0 0 0
450 1 1 0.5897 6.801607560350856 17.785372462411004 2.5636439417412795 0 0 0
695 1 1 0.5897 0.6191675176516016 20.61202652643962 2.8365940644795202 0 0 0
343 1 2 -1.1794 0.446612471781218 18.95540427376112 2.0718286024709203 0 0 0
189 1 1 0.5897 3.20687214762422 22.35590878113627 0.5661122315652473 0 0 0
227 1 1 0.5897 4.367502380386632 18.19533677864947 2.148265835979884 0 0 0
344 1 1 0.5897 1.2140641242722618 18.43711101391689 2.313938617164204 0 0 0
819 1 1 0.5897 7.330497499278939 23.255552784939816 2.0131792296075264 0 -1 0
413 1 1 0.5897 0.276031092362415 21.29994287014855 4.904067766930253 0 0 0
292 1 2 -1.1794 2.7505132000820365 17.685202265427222 2.7866822909162807 0 0 0
308 1 1 0.5897 7.670292897401932 17.627726335163672 4.433877358916664 0 0 0
321 1 1 0.5897 8.83867922253832 18.35015544509522 1.8834260650687438 0 0 0
188 1 1 0.5897 3.165444719277714 23.26737998204829 1.7740536931822501 0 0 0
294 1 1 0.5897 2.7874847056446614 17.789976615866827 3.7373106338739195 0 0 0
602 1 1 0.5897 5.610198026992098 18.58675018604886 0.07158326343958088 0 0 0
555 1 1 0.5897 5.0878905681864826 20.340352565314625 9.954256391825469 0 0 0
341 1 1 0.5897 1.648565589438953 18.13687722313616 6.10030557004814 0 0 0
87 1 1 0.5897 7.78510024993704 22.121870662180896 9.420171614334388 0 0 0
340 1 2 -1.1794 0.9026235391751264 18.64727134047041 6.415387811015548 0 0 0
553 1 2 -1.1794 4.853388725922175 21.233616781857364 10.205998682661034 0 0 0
309 1 1 0.5897 8.373918456551461 17.710360022207453 5.771618068654308 0 0 0
405 1 1 0.5897 0.21714805664348438 19.617257066298684 9.675564148123268 0 0 0
702 1 1 0.5897 2.24881506584773 22.10139570412329 5.980166481047449 0 0 0
39 1 1 0.5897 3.280846414588474 21.870785831232823 9.540700922536788 0 0 0
33 1 1 0.5897 6.525131174765457 21.988303348963967 6.137034205072061 0 0 0
701 1 1 0.5897 2.8355819394503694 22.56081375609766 7.297794822899261 0 0 0
403 1 2 -1.1794 0.4071896491720429 18.769282378814815 9.274210997868142 0 0 0
404 1 1 0.5897 1.2696480297844064 18.530768915186364 9.61405352240555 0 0 0
102 1 1 0.5897 5.156423495084725 18.691219322367793 8.53236169653803 0 0 0
85 1 2 -1.1794 7.100636120655768 22.677523790801658 9.04738289952396 0 0 0
385 1 2 -1.1794 5.429323039125682 18.717643191400924 6.733570854369734 0 0 0
101 1 1 0.5897 6.068875435768251 18.23073841032253 9.649052803655586 0 0 0
38 1 1 0.5897 1.7896888323843883 21.720792029784036 9.326736481981635 0 0 0
386 1 1 0.5897 6.133603731719163 18.28790829603996 6.24829783718077 0 0 0
31 1 2 -1.1794 7.285649561529537 22.539676482634412 6.32094896281291 0 0 0
37 1 2 -1.1794 2.538328153110984 22.26532135695139 9.083327387425324 0 0 0
32 1 1 0.5897 8.03036356967503 22.041311528102497 5.984441504564621 0 0 0
700 1 2 -1.1794 2.964453972387894 22.617591801006043 6.351119813809831 0 0 0
554 1 1 0.5897 5.465746602811536 21.78791893462048 9.722299712589413 0 0 0
86 1 1 0.5897 7.262596847304323 22.657577139087152 8.104299483438037 0 0 0
387 1 1 0.5897 5.483432397644077 19.636754382331098 6.471661198428424 0 0 0
94 1 2 -1.1794 0.3309745169021667 21.357201265611984 10.36419788203204 0 0 0
100 1 2 -1.1794 5.242491313186788 18.68525792432935 9.48556182818099 0 0 0
342 1 1 0.5897 0.9639702748962553 18.59802763341957 7.36924876319751 0 0 0
383 1 1 0.5897 3.6910118427903402 17.817085197788316 9.766349168034438 0 0 0
185 1 1 0.5897 8.178153979870341 17.91894731115415 10.061369793169426 0 0 0
247 1 2 -1.1794 5.007821350279339 21.175545151389272 5.678652003300273 0 0 0
248 1 1 0.5897 4.222601518328864 21.69892593212103 5.839104583868258 0 0 0
240 1 1 0.5897 3.972650192601029 17.77469693957906 6.085898220141238 0 0 0
414 1 1 0.5897 0.7855576474686897 20.39170013916408 6.002773880089051 0 0 0
412 1 2 -1.1794 0.5439260414059063 21.300294872201817 5.822908544610388 0 0 0
474 1 1 0.5897 5.367895200958015 18.755676214567536 15.877057176163408 0 0 0
88 1 2 -1.1794 5.2284452485327035 21.35661537067387 12.946219230934263 0 0 0
381 1 1 0.5897 1.3248205204283292 21.49588315291838 13.295461182414272 0 0 0
90 1 1 0.5897 5.1332996392283645 20.456678047015572 13.258179796721357 0 0 0
763 1 2 -1.1794 5.309995236341915 18.822903239938512 13.89030890947552 0 0 0
738 1 1 0.5897 3.6478213761246896 21.960845961457885 13.26258607389437 0 0 0
89 1 1 0.5897 5.142226151702831 21.291258334257073 11.995254357204747 0 0 0
788 1 1 0.5897 7.629185711912617 22.7589902079963 14.817997666157709 0 0 0
504 1 1 0.5897 1.3103936165463606 18.25959357171267 15.018536582212798 0 0 0
380 1 1 0.5897 0.799955810015438 20.076732556853678 13.345883093915528 0 0 0
503 1 1 0.5897 1.600201740751655 17.99899617720714 13.555821587209705 0 0 0
502 1 2 -1.1794 0.9854150662469976 18.44573253156802 14.137743860536544 0 0 0
765 1 1 0.5897 6.107715771870187 18.46313308964981 13.502505123356475 0 0 0
350 1 1 0.5897 2.7341721907963055 22.56364333870369 15.563617162156284 0 0 0
736 1 2 -1.1794 2.9081213277967475 22.419308367084078 13.661163352068243 0 0 0
787 1 2 -1.1794 7.576680260696323 22.77403823952794 13.862464793652155 0 0 0
789 1 1 0.5897 6.763926341905778 22.31095693158735 13.659477771325086 0 0 0
379 1 2 -1.1794 0.5519645205459973 20.967158463970705 13.097039842119807 0 0 0
764 1 1 0.5897 4.618192917911794 18.219287156647 13.619574871851256 0 0 0