LAMMPS data file via write_data, version 30 Jul 2021, timestep = 11000000

972 atoms
2 atom types
648 bonds
1 bond types
324 angles
1 angle types

-0.023115794023800262 20.023116794023803 xlo xhi
-0.000532175101598753 20.000533175110636 ylo yhi
-0.04530968915051581 20.74530768914643 zlo zhi

Masses

1 1.008
2 15.999

Pair Coeffs # lj/cut/tip4p/long/omp

1 0 0
2 0.21084 3.1668

Bond Coeffs # harmonic/omp

1 450 0.9572

Angle Coeffs # harmonic/omp

1 55 104.52

Atoms # full

33 11 1 0.5897 1.1838238866409558 2.472201408083385 1.3184195618072696 0 0 0
11 4 1 0.5897 0.8570069535789356 3.462712937545259 3.286953755039823 0 0 0
31 11 2 -1.1794 0.5120976001146069 2.317501270822604 1.9825919422527503 0 0 0
141 47 1 0.5897 1.2293830258487963 8.130068595056303 2.1420411194702833 0 0 0
24 8 1 0.5897 2.2273269726345886 1.401314609917717 4.542166543650217 0 0 0
10 4 2 -1.1794 1.1413696727987568 4.1215713856107286 3.920374790757806 0 0 0
20 7 1 0.5897 0.5739870395039013 5.896355399411013 3.0040455224098683 0 0 0
12 4 1 0.5897 2.0935855582031193 4.149347226904582 3.826701070295743 0 0 0
9 3 1 0.5897 4.846875586585349 4.655773369649905 5.1394677210709805 0 0 0
5 2 1 0.5897 3.5515470005495278 0.7501520515147914 2.5076269962064295 0 0 0
111 37 1 0.5897 2.370909765025403 8.83519520329686 0.24385040544768816 0 0 0
3 1 1 0.5897 3.4492420895685054 2.6845036117508574 0.22383093275644428 0 0 0
236 79 1 0.5897 0.4300221740695402 0.4534379867071297 1.7010126544979953 0 1 0
19 7 2 -1.1794 0.390303856390359 6.265042830009172 2.1400037945721055 0 0 0
14 5 1 0.5897 3.867870865961916 5.8723386288096275 0.6495618199566673 0 0 0
4 2 2 -1.1794 3.6996811991699556 1.366454892602069 3.2248543854962195 0 0 0
6 2 1 0.5897 4.516695636368947 1.0733237455072286 3.6283483975792272 0 0 0
113 38 1 0.5897 3.4775078443456016 7.828735619320263 3.7668278745009482 0 0 0
18 6 1 0.5897 3.8586204501875763 3.3048053523049155 3.1550641344893076 0 0 0
132 44 1 0.5897 1.0543342225840702 7.535208277473193 4.758327652239318 0 0 0
17 6 1 0.5897 3.9023862738221538 4.750666842860097 2.7087383068452477 0 0 0
112 38 2 -1.1794 4.214759069108261 8.034942001460209 3.1922238302572516 0 0 0
16 6 2 -1.1794 3.9254370091842627 4.1987683105933 3.4904607657330904 0 0 0
674 225 1 0.5897 1.1537174679547457 5.718546769384955 0.37060384540199137 0 0 1
15 5 1 0.5897 4.223192527541809 6.774779588587491 1.8119416551681258 0 0 0
126 42 1 0.5897 4.117737594894429 9.956347234778391 3.2549740903185618 0 0 0
140 47 1 0.5897 1.25065822181876 9.62679213692929 2.367810239295558 0 0 0
13 5 2 -1.1794 4.435714996422984 5.92871880348086 1.4180727620953775 0 0 0
139 47 2 -1.1794 1.2447582703874005 8.965737494364202 1.6755938545808753 0 0 0
130 44 2 -1.1794 1.9866276800667033 7.319457891039208 4.734636055233999 0 0 0
1 1 2 -1.1794 2.5197508390451144 2.652709480796649 -0.0027094227915540614 0 0 0
325 109 2 -1.1794 2.4021858627745574 3.044914971691097 6.991031386352671 0 0 0
326 109 1 0.5897 1.9410467963905234 2.536761713808543 6.3236974467926474 0 0 0
327 109 1 0.5897 3.2622187552761575 2.629932288789039 7.0570645762859625 0 0 0
356 119 1 0.5897 1.5407983993553598 2.5310163919362845 8.445825310744107 0 0 0
463 155 2 -1.1794 0.8482216371570228 8.782337721212551 8.950357944358213 0 0 0
25 9 2 -1.1794 2.498195815808051 5.7487174539771075 6.7863307618331 0 0 0
27 9 1 0.5897 2.611153705366669 4.806026817869873 6.6651332378370425 0 0 0
342 114 1 0.5897 3.9027614775025667 5.222963838194052 10.2094262324813 0 0 0
343 115 2 -1.1794 0.329952107939554 5.809570327137115 8.951424930128516 0 0 0
438 146 1 0.5897 4.343634361329436 8.932449015386979 9.744273111080668 0 0 0
468 156 1 0.5897 4.711246505057794 9.458775091105386 7.3305555476744 0 0 0
339 113 1 0.5897 3.977695702191311 5.963748939956023 7.852222933135907 0 0 0
131 44 1 0.5897 2.100422369123987 6.670273964651603 5.428751674377723 0 0 0
560 187 1 0.5897 0.7073174582562036 0.39343153901004996 8.879267067110835 0 1 0
437 146 1 0.5897 4.735431322980896 7.480399569741977 9.57206768112685 0 0 0
355 119 2 -1.1794 0.8632864512994561 2.1289090203277135 8.989454708547655 0 0 0
464 155 1 0.5897 1.6417245282210025 8.810682006273936 8.415726255350576 0 0 0
344 115 1 0.5897 0.6219020674054363 5.18848004298499 9.61865912269053 0 0 0
345 115 1 0.5897 0.44160325351476487 6.668753845945439 9.358144629673282 0 0 0
433 145 2 -1.1794 2.9104363865880405 9.137329800149175 7.1609620383697985 0 0 0
26 9 1 0.5897 1.6440255922492828 5.835628705314199 7.209555226434247 0 0 0
435 145 1 0.5897 2.783920311336696 8.581249281464318 6.392208026993645 0 0 0
337 113 2 -1.1794 4.581661717314748 5.963263637002166 8.594852669003881 0 0 0
554 185 1 0.5897 4.604929634640796 0.41045305025100165 8.918797048611147 0 1 0
465 155 1 0.5897 0.1332683671659396 8.902449760438348 8.325302784608875 0 0 0
23 8 1 0.5897 2.036689463317721 0.30725698660228096 5.570988426700158 0 0 0
328 110 2 -1.1794 3.758865381358386 1.848322901007355 9.840264691707555 0 0 0
22 8 2 -1.1794 1.6372928826539288 1.110694840266221 5.237624593606776 0 0 0
436 146 2 -1.1794 4.543735535871981 8.138558664952656 10.24010064002581 0 0 0
357 119 1 0.5897 0.043492997956378676 2.326412224352213 8.536471940017941 0 0 0
329 110 1 0.5897 2.9172263034735684 1.4439254839352291 10.050888501379077 0 0 0
335 112 1 0.5897 0.6480921400804464 3.392357338213528 10.279168801114276 0 0 0
341 114 1 0.5897 3.8162745337894477 3.7124711066885965 10.259449815429633 0 0 0
649 217 2 -1.1794 2.867985867208795 2.391353932839253 13.797191745399022 0 0 0
650 217 1 0.5897 2.722883881706587 1.6308506212894152 13.234396495679862 0 0 0
651 217 1 0.5897 2.2966995488619633 2.2445609125947104 14.551077394667768 0 0 0
347 116 1 0.5897 1.1204034397684552 0.9528063614338546 11.912949132065085 0 0 0
346 116 2 -1.1794 2.0577999950312487 0.7965185784104918 11.798292292274633 0 0 0
330 110 1 0.5897 4.306004599324613 1.6769037216444738 10.606725242255651 0 0 0
792 264 1 0.5897 4.301705330917285 9.31939939607792 14.341997902453231 0 0 0
336 112 1 0.5897 1.7878986531596843 4.163936621804938 10.909551903491597 0 0 0
456 152 1 0.5897 2.3794608097559244 6.585675693575892 12.006011649738445 0 0 0
350 117 1 0.5897 3.5054064502140903 5.263933025718962 14.054835325613407 0 0 0
351 117 1 0.5897 2.707571683938927 4.12090536643266 13.464369323718294 0 0 0
454 152 2 -1.1794 2.2909896862698838 7.484823901950001 11.690063164850026 0 0 0
349 117 2 -1.1794 2.739593238632897 5.07631083280573 13.512091010144632 0 0 0
661 221 2 -1.1794 4.6424889251032315 5.991043565066752 15.312441427813093 0 0 0
533 178 1 0.5897 0.22290179290401108 8.029054881571252 11.428870420403996 1 0 0
455 152 1 0.5897 3.0441426601590735 7.611643750892262 11.113045543225432 0 0 0
757 253 2 -1.1794 2.3294636708644734 8.821784060368985 13.98550794358724 0 0 0
759 253 1 0.5897 2.486311850757624 8.069793731492345 13.414542037159736 0 0 0
758 253 1 0.5897 2.446638604405853 9.583011916648172 13.417269152930789 0 0 0
334 112 2 -1.1794 0.8329130170599054 4.100085193313086 10.896502021295552 0 0 0
683 228 1 0.5897 4.654517040926174 2.3756439403426968 13.976386501491625 0 0 0
340 114 2 -1.1794 3.5074749987289797 4.50333457033672 10.701419061954827 0 0 0
668 223 1 0.5897 1.1263427085433924 5.9799095656179455 14.760003775071217 0 0 0
348 116 1 0.5897 2.232613416983866 0.003522539633865827 12.305000973192861 0 0 0
332 111 1 0.5897 4.910947432978159 4.6013164108904965 11.981474665164678 0 0 0
680 227 1 0.5897 -0.013548646799366829 2.470969605184392 15.384752975581376 0 0 0
664 222 2 -1.1794 3.930794293932827 3.828380424575513 17.366228439650982 0 0 0
671 224 1 0.5897 1.91554806347371 1.8733300249558125 19.230102566662268 0 0 0
681 227 1 0.5897 0.9030460169531075 2.60997965899506 16.581635708555645 0 0 0
652 218 2 -1.1794 4.334048134681633 1.0265740624314468 17.296549260366454 0 0 0
653 218 1 0.5897 3.4263760906028446 1.0336694196044638 17.60039617578648 0 0 0
666 222 1 0.5897 4.171407124558815 2.9170037062372014 17.20007011291294 0 0 0
665 222 1 0.5897 2.9754839600585807 3.8390972763925673 17.306783377147987 0 0 0
658 220 2 -1.1794 1.2119649161180133 4.214969467199412 17.73470096202631 0 0 0
670 224 2 -1.1794 1.7930895240382427 1.2237716274950041 18.53780631175141 0 0 0
787 263 2 -1.1794 0.6429781465293378 8.62666326264958 16.311487528794487 0 0 0
659 220 1 0.5897 0.4333122445884606 4.205643461882832 18.29137630998428 0 0 0
788 263 1 0.5897 0.8606133495752847 9.30890078674398 16.946601027628667 0 0 0
679 227 2 -1.1794 0.8871536560183643 2.3177105873980484 15.670273943207125 0 0 0
672 224 1 0.5897 0.9392792276645019 0.8330042420128353 18.723706212898627 0 0 0
654 218 1 0.5897 4.307113108272414 0.5423142902381973 16.471325810002554 0 0 0
660 220 1 0.5897 1.0081499696084946 4.849422037536391 17.047586622161916 0 0 0
779 260 1 0.5897 2.2486556080709654 8.000530847326612 18.99570064395474 0 0 0
885 295 1 0.5897 0.9974531711365076 0.5446456750387988 15.925096570169492 0 1 0
761 254 1 0.5897 3.8439974748771903 9.366339939688405 16.944176304055887 0 0 0
663 221 1 0.5897 4.491227433181323 6.844210538190489 15.719091913371532 0 0 0
675 225 1 0.5897 1.8954285766211403 5.883425881588349 19.851819651232027 0 0 0
780 260 1 0.5897 2.037554134933361 7.660074577069423 17.535748559731232 0 0 0
778 260 2 -1.1794 2.1120513623750012 7.261683862896839 18.402871767420713 0 0 0
760 254 2 -1.1794 4.0614118756665105 8.46729415581209 16.698074233206178 0 0 0
858 286 1 0.5897 0.3251845625023402 7.154645949580676 18.68110775441611 1 0 0
762 254 1 0.5897 4.62915086230614 8.156141073483884 17.40311067045861 0 0 0
662 221 1 0.5897 4.209678650911339 5.367324235353746 15.895378662247081 0 0 0
669 223 1 0.5897 0.5039491561879159 6.781897791539512 15.883058090264434 0 0 0
667 223 2 -1.1794 0.6423675711800247 5.884507883892052 15.580312308239556 0 0 0
656 219 1 0.5897 4.72611053936275 4.132800169061038 18.792292451614536 0 0 0
109 37 2 -1.1794 2.855069134934181 9.194585140065815 20.29108370772297 0 0 -1
673 225 2 -1.1794 1.8880812697773988 5.367140512733972 20.65779033573773 0 0 0
110 37 1 0.5897 3.75020087782718 9.296829904471592 20.614454192260553 0 0 -1
2 1 1 0.5897 2.321507993646556 3.5312623897203377 20.46389470930706 0 0 -1
789 263 1 0.5897 1.2631095311925178 8.75953001755144 15.594551246678058 0 0 0
220 74 2 -1.1794 4.5596403313803116 14.363802697831414 3.5138405037761067 0 0 0
120 40 1 0.5897 0.9213624050608041 11.293763235570793 3.2769186044777623 0 0 0
222 74 1 0.5897 4.664754179759601 13.706492858410192 2.8260263134531964 0 0 0
234 78 1 0.5897 3.9120873087684527 17.672125110427764 2.438331950593998 0 0 0
221 74 1 0.5897 4.325921678390466 15.165416414290732 3.0459202511556156 0 0 0
783 261 1 0.5897 2.1404834169389053 12.229212770598512 0.4489319073096513 0 0 1
119 40 1 0.5897 1.7974503960069044 10.763052196433609 4.391714612712299 0 0 0
123 41 1 0.5897 4.249651102200935 12.356844823821127 0.9154836233335946 0 0 0
249 83 1 0.5897 1.4106479303646777 15.557247303755842 1.7117206123908446 0 0 0
127 43 2 -1.1794 0.870837539509182 12.61845227194657 1.7860784314801184 0 0 0
235 79 2 -1.1794 0.5537470741194944 19.522218766442407 1.5231099151912633 0 0 0
233 78 1 0.5897 2.9032185325533604 17.227365203228814 3.4757917764854978 0 0 0
124 42 2 -1.1794 3.9329425111852463 10.813705747432083 3.638283139989143 0 0 0
227 76 1 0.5897 0.9129358661834522 18.591586110015136 3.1956137003085985 0 0 0
230 77 1 0.5897 3.7951658731950246 19.475537026408347 0.8082909028982079 0 0 0
219 73 1 0.5897 3.281035354357377 15.689918107948463 0.3353564695333967 0 0 0
121 41 2 -1.1794 4.800075620851027 12.381456963697254 1.6982370087736336 0 0 0
129 43 1 0.5897 0.8374104635492268 13.563536459131797 1.9337496367079217 0 0 0
240 80 1 0.5897 3.3100980876839587 14.355933212923002 4.596789427459626 0 0 0
226 76 2 -1.1794 1.12280435060016 17.763158628779287 3.6266667295429666 0 0 0
890 297 1 0.5897 1.5833949695044192 19.19566897013752 0.14244250014458046 0 0 1
247 83 2 -1.1794 0.7144693627458659 15.35037523294736 2.3352549741008217 0 0 0
248 83 1 0.5897 0.5430554157581327 16.176853138055407 2.786572043026879 0 0 0
232 78 2 -1.1794 3.761552731260136 17.00947166784122 3.112427173082818 0 0 0
118 40 2 -1.1794 0.9858632032621435 10.584629087664078 3.9165645547048817 0 0 0
228 76 1 0.5897 0.5791680637883508 17.758084630243253 4.414516385918007 0 0 0
125 42 1 0.5897 4.703634265830169 11.009486116281325 4.171174057754125 0 0 0
229 77 2 -1.1794 4.31261572679926 19.180810505958604 1.5576702654526364 0 0 0
122 41 1 0.5897 4.404999081205922 11.740894386120214 2.2896724183234345 0 0 0
217 73 2 -1.1794 2.4343169238369184 15.9439662478849 -0.03178637129490401 0 0 0
317 106 1 0.5897 0.21471566202948317 13.862906955475076 4.483478715911071 1 0 0
133 45 2 -1.1794 2.6600101662292275 11.777051963052514 6.6068740563137975 0 0 0
134 45 1 0.5897 1.8738359082220386 12.016821867139512 7.097496273371135 0 0 0
135 45 1 0.5897 3.371526269704513 12.234001379015792 7.055407236687432 0 0 0
453 151 1 0.5897 0.6852016055594835 12.168776579636129 9.041793263427838 0 0 0
238 80 2 -1.1794 2.569640180177634 14.152755368904304 5.16837130262636 0 0 0
448 150 2 -1.1794 4.021470520057802 10.907451210514802 10.169950059322073 0 0 0
434 145 1 0.5897 2.7008839863499303 10.019963435458013 6.855712815573182 0 0 0
571 191 2 -1.1794 0.8206095777057023 15.602755317808253 9.24297120968382 0 0 0
559 187 2 -1.1794 0.7823785192478698 19.453956593760495 8.718673064250257 0 0 0
576 192 1 0.5897 4.518407809435855 15.865248608077357 7.332217617764121 0 0 0
543 181 1 0.5897 2.7075562576040824 15.666215808934442 6.3636910623020775 0 0 0
542 181 1 0.5897 2.5195080557411798 17.058522059139 6.927416395573355 0 0 0
445 149 2 -1.1794 4.760828675750856 12.81796467097206 8.190145881460042 0 0 0
572 191 1 0.5897 1.558729509366015 15.780303493767743 8.659944034805605 0 0 0
561 187 1 0.5897 1.1490356914537438 19.100656039455657 9.529217482824775 0 0 0
243 81 1 0.5897 3.4594964714422436 19.051680228584708 7.004930146899015 0 0 0
242 81 1 0.5897 1.992947671348206 19.239589461203003 7.330435762454842 0 0 0
541 181 2 -1.1794 2.6732621657629156 16.150616028031415 7.188561133686891 0 0 0
241 81 2 -1.1794 2.581934650212991 18.928537697768036 6.642984907302882 0 0 0
450 150 1 0.5897 4.137970265450432 11.656758198821638 9.585909503138165 0 0 0
446 149 1 0.5897 4.64685493224653 13.554250099919832 8.79102263789515 0 0 0
451 151 2 -1.1794 0.6425621805483664 12.78018244678894 8.306587984262885 0 0 0
239 80 1 0.5897 2.697009776412761 13.235161321067311 5.409040031641628 0 0 0
573 191 1 0.5897 0.8255399668686416 14.65205548194143 9.353665302060213 0 0 0
553 185 2 -1.1794 4.632609277580832 19.579684061770685 8.44611089800623 0 0 0
558 186 1 0.5897 4.213796264250503 18.323233544127362 10.000651548664253 0 0 0
544 182 2 -1.1794 4.382103296705017 14.731240953339368 10.231790343883915 0 0 0
443 148 1 0.5897 1.03943294907854 10.064048698810561 9.99334177939259 0 0 0
557 186 1 0.5897 4.3180504663093044 16.83193880711955 10.238949660939454 0 0 0
457 153 2 -1.1794 2.6684633544141514 11.818612794152843 13.344205573291358 0 0 0
458 153 1 0.5897 1.888659970416334 12.000928818625326 13.86855550687122 0 0 0
459 153 1 0.5897 3.3994694339117437 12.09380801712746 13.897516019303007 0 0 0
563 188 1 0.5897 2.2897453786100272 13.232728223553076 12.155259258531641 0 0 0
562 188 2 -1.1794 2.0621877936697715 14.122989823453237 11.887340406900792 0 0 0
567 189 1 0.5897 1.8294673270196287 18.985424807148142 14.578148413007057 0 0 0
879 293 1 0.5897 4.048323151122963 19.300614455649416 14.598763938139221 0 0 0
442 148 2 -1.1794 1.1593640134458096 10.766184390609986 10.632720188320647 0 0 0
565 189 2 -1.1794 2.286491480413864 18.76380885867995 13.766810249270499 0 0 0
551 184 1 0.5897 2.2805576188415375 17.48803273879942 11.042968176805863 0 0 0
449 150 1 0.5897 4.549676840678688 11.118754143602867 10.939763106090604 0 0 0
545 182 1 0.5897 3.5607875171901413 14.529304193433546 10.680046811593916 0 0 0
867 289 1 0.5897 2.399947643622356 15.727344315431951 14.80040220706332 0 0 0
564 188 1 0.5897 2.3207419913804643 14.670196937207969 12.628912377521734 0 0 0
641 214 1 0.5897 0.35367049921080956 14.078927846208506 11.965394549198562 1 0 0
877 293 2 -1.1794 4.735125014800617 19.171895764865596 15.252973773967799 0 0 0
865 289 2 -1.1794 2.8253704962046515 15.738287075343619 13.942982230825361 0 0 0
566 189 1 0.5897 2.165676433018593 17.818903202222344 13.673774395545752 0 0 0
866 289 1 0.5897 3.7353301833441446 15.969515992057826 14.129488700924421 0 0 0
621 207 1 0.5897 0.011209302936958869 17.779078274219245 12.216586243404011 1 0 0
769 257 2 -1.1794 4.725122346160543 12.58913572269063 15.077374580059091 0 0 0
444 148 1 0.5897 2.108377846008062 10.83804019426139 10.735070893913912 0 0 0
556 186 2 -1.1794 4.188012402292193 17.663884410868178 10.694040941944616 0 0 0
552 184 1 0.5897 1.0281781816466262 16.73841843178552 10.64115473280628 0 0 0
550 184 2 -1.1794 1.326039674017344 17.519406690246363 11.10748765877077 0 0 0
775 259 2 -1.1794 0.8412972287184717 12.473519230161289 15.453206138899644 0 0 0
888 296 1 0.5897 2.5432450179477337 13.389251538630539 19.28960571284891 0 0 0
773 258 1 0.5897 3.0506158947505657 11.211142693546755 17.573631763989226 0 0 0
886 296 2 -1.1794 2.2595324432858934 14.124973267397158 18.74702060193259 0 0 0
768 256 1 0.5897 0.9111504670629177 11.370173871613693 17.043584194168005 0 0 0
766 256 2 -1.1794 1.1521272271357939 10.84434787768762 17.806251812890494 0 0 0
772 258 2 -1.1794 3.9582197564528006 11.034518204162307 17.32599804977353 0 0 0
965 322 1 0.5897 0.35592049551170923 13.7781988721814 18.958330436503154 1 0 0
771 257 1 0.5897 4.594035509021574 13.3559693552981 15.634998432722885 0 0 0
891 297 1 0.5897 2.17143131911287 19.854432123545386 19.703361579836816 0 0 0
895 299 2 -1.1794 0.6385288802372902 15.10933184892608 16.155091525551008 0 0 0
875 292 1 0.5897 0.7709428928340119 17.286240506988158 18.31298964852865 0 0 0
868 290 2 -1.1794 4.2038289737281405 14.49988498141372 16.87301635798333 0 0 0
869 290 1 0.5897 3.329446138803924 14.38570519688192 17.24541614024416 0 0 0
774 258 1 0.5897 4.046789698150918 11.414413744646602 16.45189199304143 0 0 0
887 296 1 0.5897 2.2858902848482834 14.880350060952088 19.33428515204983 0 0 0
777 259 1 0.5897 0.9638724489847579 13.410173372132437 15.607356754676395 0 0 0
897 299 1 0.5897 0.9452502184083186 15.819342430602962 16.718924010888223 0 0 0
767 256 1 0.5897 0.4840719640215908 11.049861401301209 18.46025579152333 0 0 0
881 294 1 0.5897 3.386208998303663 17.293995697418126 17.534801464031176 0 0 0
874 292 2 -1.1794 1.5157964750884034 17.394766355471283 17.72170722171741 0 0 0
876 292 1 0.5897 1.2526336639026374 18.10064760183451 17.131236543005173 0 0 0
880 294 2 -1.1794 4.326483625128284 17.298399023037916 17.355487548034674 0 0 0
882 294 1 0.5897 4.545439418885436 16.379715345873187 17.19990223593758 0 0 0
878 293 1 0.5897 4.52015526809007 18.33521516387662 15.665152396150456 0 0 0
781 261 2 -1.1794 2.7297184740384792 11.995148125558574 20.52243604135691 0 0 0
870 290 1 0.5897 4.798722128578343 14.204634851253331 17.56235211882897 0 0 0
889 297 2 -1.1794 2.3352792373677014 19.160289607843893 20.341714695181686 0 0 0
782 261 1 0.5897 2.6343860651816136 11.046949862756478 20.433313440516216 0 0 0
883 295 2 -1.1794 0.8647995662942184 19.601587577592618 15.84060442098622 0 0 0
218 73 1 0.5897 2.5667785754545958 16.839157772683564 20.447118656327305 0 0 -1
28 10 2 -1.1794 6.013319515110964 0.5108497166015435 4.903884377276581 0 0 0
58 20 2 -1.1794 8.877245884956219 0.6349531790426466 5.094090361246774 0 0 0
46 16 2 -1.1794 7.828047963304647 4.083292578518338 4.101139783879556 0 0 0
67 23 2 -1.1794 7.538794788755341 1.9250983202464214 2.214551000662927 0 0 0
143 48 1 0.5897 6.110261120785686 8.861075712684245 0.6862755313733303 0 0 0
57 19 1 0.5897 7.628587571023284 5.424802735962596 2.5884832106891444 0 0 0
48 16 1 0.5897 7.0364022443144885 4.135283451961864 4.6367465871437075 0 0 0
47 16 1 0.5897 7.745084171379601 3.254211224054026 3.63011113637162 0 0 0
68 23 1 0.5897 8.144529917821298 1.972073849787535 1.4748594950257765 0 0 0
69 23 1 0.5897 6.710457531877978 2.256647535770839 1.8678687422533145 0 0 0
175 59 2 -1.1794 7.558298085821574 8.61512583638333 1.8591096657091897 0 0 0
56 19 1 0.5897 6.424155108751195 5.606833637539412 1.6894789866219952 0 0 0
53 18 1 0.5897 9.569852148935892 4.552850763299901 3.9373493539242825 0 0 0
176 59 1 0.5897 7.405706021462515 7.671813032412287 1.9136092794541653 0 0 0
711 237 1 0.5897 8.559049789678532 5.336473502473921 0.2767024472513227 0 0 1
55 19 2 -1.1794 7.377730501927544 5.689230034055857 1.703394240917028 0 0 0
177 59 1 0.5897 8.006432999221513 8.737782541389302 1.0222233957757747 0 0 0
29 10 1 0.5897 6.964484231006982 0.5865289176730172 4.827456025878017 0 0 0
34 12 2 -1.1794 5.213255029108278 2.5051563348366717 0.7918571702307647 0 0 0
273 91 1 0.5897 7.313107588687968 0.1877723090032941 2.479481525058403 0 1 0
136 46 2 -1.1794 6.200885474652901 7.5217624673209365 5.134799533875268 0 0 0
37 13 2 -1.1794 9.261585605755872 2.3673865476780147 0.12750413196932908 0 0 0
36 12 1 0.5897 5.254355594752232 3.3055012350422546 0.26853770697764257 0 0 0
35 12 1 0.5897 5.347498038208092 1.7984558207055392 0.16040059312203792 0 0 0
114 38 1 0.5897 4.9903297031452505 7.872148011650558 3.729115737222425 0 0 0
155 52 1 0.5897 8.131962997046871 9.985175913053608 3.03451380415921 0 0 0
166 56 2 -1.1794 8.901721624481734 7.948168608495582 5.135658929764838 0 0 0
138 46 1 0.5897 7.105823603909927 7.5336828094875115 4.822984944101669 0 0 0
142 48 2 -1.1794 5.4372677460572625 8.86679746685406 0.005594492331297829 0 0 0
393 131 1 0.5897 7.1251218791725295 1.205949522053852 9.10997428057181 0 0 0
360 120 1 0.5897 5.563260704791946 1.6473592705100901 5.9882124815191995 0 0 0
361 121 2 -1.1794 9.1980269596815 2.6651879112848933 7.144952146696041 0 0 0
362 121 1 0.5897 9.294511422928222 3.512484779556268 6.710317104235755 0 0 0
391 131 2 -1.1794 7.073164627015988 2.09413616764889 8.757099345862708 0 0 0
470 157 1 0.5897 8.544532110682306 9.170933520797007 8.001435173890933 0 0 0
8 3 1 0.5897 5.673623382417806 4.086973641927096 6.272939833986676 0 0 0
471 157 1 0.5897 9.950480283233134 9.042038573196665 7.454955940957143 0 0 0
500 167 1 0.5897 7.614316645733425 9.3958128503854 9.997974945616448 0 0 0
392 131 1 0.5897 7.828228851058342 2.1648999123071833 8.17305285726921 0 0 0
167 56 1 0.5897 9.233810702266787 7.105124826918471 5.444101179883273 0 0 0
359 120 1 0.5897 5.782694613258468 2.1619132726714763 7.394969885035419 0 0 0
467 156 1 0.5897 5.859416617191139 8.738115205946592 6.656740241306348 0 0 0
469 157 2 -1.1794 9.106496461035192 9.459190328907876 7.2821565520707745 0 0 0
62 21 1 0.5897 8.57444831575095 5.5876565296867025 7.242347127768698 0 0 0
501 167 1 0.5897 6.623299913049936 9.123189562283986 8.886478122819073 0 0 0
61 21 2 -1.1794 9.339403498322682 5.379762379035754 6.705794339962982 0 0 0
59 20 1 0.5897 8.920944782805773 1.3383436529629402 5.741779066418568 0 0 0
379 127 2 -1.1794 7.456637208639208 5.967304708875626 8.760274669304511 0 0 0
466 156 2 -1.1794 5.667199988473153 9.423978098396109 7.29607160811957 0 0 0
499 167 2 -1.1794 7.319318258904546 8.710864719134884 9.398016579217405 0 0 0
380 127 1 0.5897 7.380679795288852 6.811091146416626 9.20568016582806 0 0 0
338 113 1 0.5897 5.441477372772565 5.805518840083222 8.204832878323844 0 0 0
381 127 1 0.5897 7.4755486521973165 5.323248212517185 9.468067956854984 0 0 0
358 120 2 -1.1794 5.391777113640943 2.3998914992975395 6.554250260848602 0 0 0
168 56 1 0.5897 8.820157116420008 8.478452420773905 5.928342848050405 0 0 0
7 3 2 -1.1794 5.475414845960236 4.904888512481187 5.817033026210811 0 0 0
371 124 1 0.5897 7.461860896434956 3.3152174570234014 10.287100169682153 0 0 0
377 126 1 0.5897 9.633491847623823 4.096094264251971 10.303602110075108 0 0 0
137 46 1 0.5897 6.024627616537731 6.6003772185880045 5.324803393409611 0 0 0
382 128 2 -1.1794 8.232399016101162 0.8608514042856766 11.661226114853978 0 0 0
682 228 2 -1.1794 5.582268110576115 2.5353996652515303 14.149651632994031 0 0 0
684 228 1 0.5897 5.788612852595854 3.3221735176613314 13.64511112109269 0 0 0
331 111 2 -1.1794 5.745149018178085 4.712284340345087 12.437617283905132 0 0 0
354 118 1 0.5897 5.497746891762607 1.5686620537930862 12.676293809463598 0 0 0
387 129 1 0.5897 9.25031777527855 6.100319943491593 13.369088233549345 0 0 0
491 164 1 0.5897 9.240824958431276 7.772802906792026 11.018380603264541 0 0 0
372 124 1 0.5897 7.187286437328012 4.343575669288924 11.363614616653114 0 0 0
386 129 1 0.5897 9.150858027111791 4.610571908475712 13.618830798029434 0 0 0
383 128 1 0.5897 8.444207623814465 1.3926281692711666 12.428409806273118 0 0 0
686 229 1 0.5897 8.460499545087531 2.5469430988591055 14.646222519795119 0 0 0
352 118 2 -1.1794 5.509916709723016 1.062858184292301 11.863743595444975 0 0 0
333 111 1 0.5897 5.835920745424596 5.659053019239775 12.544884184079056 0 0 0
353 118 1 0.5897 6.43373878416486 1.0301755412016926 11.61521121067912 0 0 0
791 264 1 0.5897 5.762726531846808 9.415569552051835 14.726829389373965 0 0 0
685 229 2 -1.1794 9.011020419242142 2.6232953869333095 13.866891580340209 0 0 0
794 265 1 0.5897 9.444929457553334 8.604566678132572 13.316425665411975 0 0 0
705 235 1 0.5897 7.96205988514836 5.921609204023664 15.284978181952951 0 0 0
370 124 2 -1.1794 7.873482080588925 4.028099498354227 10.775512918646063 0 0 0
824 275 1 0.5897 8.281055315262167 8.892557227651015 15.305023503261756 0 0 0
385 129 2 -1.1794 9.132605475482553 5.456055048088566 14.067131424092695 0 0 0
461 154 1 0.5897 6.145242382850351 8.21183137221365 12.923852813624324 0 0 0
460 154 2 -1.1794 6.261693751419502 7.4976983467818545 12.297249855009143 0 0 0
492 164 1 0.5897 8.065012519450853 7.379245426223522 11.887016917284004 0 0 0
490 164 2 -1.1794 9.021913319846028 7.398203323585734 11.871580520497512 0 0 0
384 128 1 0.5897 8.974479773978633 0.9865212379059154 11.069786545747757 0 0 0
793 265 2 -1.1794 9.49899876940233 9.15583258122436 14.0970540129896 0 0 0
462 154 1 0.5897 5.7005083944344594 7.7328445554262375 11.558314015633961 0 0 0
790 264 2 -1.1794 5.17821202280931 9.412626510366804 13.968804257911783 0 0 0
717 239 1 0.5897 6.801933207134521 2.4705426067126557 15.54544452196138 0 0 0
687 229 1 0.5897 9.901342828675897 2.477346165032659 14.18673550293906 0 0 0
696 232 1 0.5897 7.7506776772361015 4.872599128737172 17.876456091061648 0 0 0
144 48 1 0.5897 5.711901549489631 8.186454862188235 20.181473230759153 0 0 -1
710 237 1 0.5897 9.333152400362684 4.234047929904906 20.37651303497367 0 0 0
815 272 1 0.5897 8.942894976172736 6.511008032354356 19.198434130892018 0 0 0
38 13 1 0.5897 9.154255655855255 1.927797476835177 20.074646601586572 0 0 -1
707 236 1 0.5897 8.903861874792746 0.10124915712202615 19.338238476381605 0 0 0
657 219 1 0.5897 6.191889401126408 4.140984165298593 19.171049721125428 0 0 0
825 275 1 0.5897 7.422326921624236 7.831780875669353 15.960112618521089 0 0 0
695 232 1 0.5897 7.552397773751252 3.4240814047314716 17.483947636946446 0 0 0
694 232 2 -1.1794 7.639760291343743 3.9966639397158024 18.245990027442815 0 0 0
823 275 2 -1.1794 7.538625345063911 8.77982977206424 15.898622604073084 0 0 0
715 239 2 -1.1794 7.53210638851479 2.2412250995102814 16.120344357858755 0 0 0
814 272 2 -1.1794 8.487605521594933 7.128498738050476 18.626047517136897 0 0 0
655 219 2 -1.1794 5.327782537761189 4.409160681499794 19.48357821336206 0 0 0
676 226 2 -1.1794 6.060707890091417 0.7847369698692775 19.50625833064356 0 0 0
708 236 1 0.5897 7.948785261036369 1.2034385207060379 18.932313480589357 0 0 0
677 226 1 0.5897 5.546659641766391 0.6321250080584555 18.71334414958205 0 0 0
785 262 1 0.5897 5.162586482571748 6.19893362832128 18.768810385076968 0 0 0
716 239 1 0.5897 7.713638048174647 1.3224447569516118 15.922836340921235 0 0 0
706 236 2 -1.1794 8.83230216917683 0.8710015251957219 18.77385589168744 0 0 0
816 272 1 0.5897 8.478483609616573 7.949576655918423 19.117880768775237 0 0 0
784 262 2 -1.1794 5.628783369882136 7.012255842618427 18.57562465792757 0 0 0
786 262 1 0.5897 6.5511520995125245 6.7583715605003 18.543294885119145 0 0 0
703 235 2 -1.1794 7.3194497892527295 5.955454240327073 15.993618441715151 0 0 0
702 234 1 0.5897 9.424904270791501 3.8300467987403692 18.13239783909622 0 0 0
145 49 2 -1.1794 8.880147837392983 9.19350865639955 20.2438582374714 0 0 -1
704 235 1 0.5897 6.480238150753246 5.787821916309909 15.564798710697213 0 0 0
709 237 2 -1.1794 9.32374386551609 5.1813823550561455 20.5128247637073 0 0 0
147 49 1 0.5897 9.823938838881103 9.043423315235064 20.298760641973495 0 0 -1
925 309 2 -1.1794 8.671672456655617 19.017539681635824 0.055756117609764025 0 0 1
156 52 1 0.5897 9.146832132543928 11.063211309840536 3.350206168171316 0 0 0
165 55 1 0.5897 7.728502596662324 12.03450215208406 2.3453819810129373 0 0 0
262 88 2 -1.1794 8.055785738304948 16.472008535996288 4.717566514519565 0 0 0
285 95 1 0.5897 7.626443262094767 14.487527156028642 2.1269620144268813 0 0 0
264 88 1 0.5897 8.782401012193434 16.875846150533974 4.243014259022696 0 0 0
163 55 2 -1.1794 7.435493008192568 12.728216877269274 1.754554487468386 0 0 0
164 55 1 0.5897 6.481799011071105 12.647226982604247 1.743521034772595 0 0 0
231 77 1 0.5897 5.212109728995998 19.424366636407242 1.3389044067232336 0 0 0
245 82 1 0.5897 5.906818179221136 14.1617864055736 4.702096652129043 0 0 0
154 52 2 -1.1794 8.221957450849375 10.84006606250178 3.4554540828317086 0 0 0
283 95 2 -1.1794 7.4548843750828935 15.420382348906314 1.9986239857569266 0 0 0
819 273 1 0.5897 8.437943841907243 12.473169996144012 0.1838202892036164 0 0 1
116 39 1 0.5897 6.925170848758457 11.059256037692073 4.8190287653136235 0 0 0
284 95 1 0.5897 7.4901703468421195 15.794203738622418 2.8791085799889515 0 0 0
251 84 1 0.5897 5.827688069116561 15.274011018803385 1.1067101047181171 0 0 0
272 91 1 0.5897 6.813026464676022 18.940523668531576 3.1746832506896343 0 0 0