LAMMPS (30 Jul 2021)
  using 1 OpenMP thread(s) per MPI task
package omp 0
using multi-threaded neighbor list subroutines
echo both

include		in.partitions
variable        pid world 0
include		in.temp
variable        temperature equal 251.67
variable	tempDamp equal 100.0
include		in.pressure
variable        pressure equal 5625.0
variable        pressureDamp equal 1000.0 # This is 1 ps
include		in.seed
variable        seed world 745823

units		real
atom_style	full
read_restart	restart.lmp.${pid}
read_restart	restart.lmp.0
Reading restart file ...
  restart file = 30 Jul 2021, LAMMPS = 30 Jul 2021
  restoring atom style full from restart
  orthogonal box = (0.48602272 1.6640018 0.59294658) to (17.721550 21.965176 21.620249)
  4 by 4 by 4 MPI processor grid
  restoring pair style lj/cut/tip4p/long/omp from restart
  restoring bond style harmonic/omp from restart
  restoring angle style harmonic/omp from restart
  864 atoms
  576 bonds
  288 angles
Finding 1-2 1-3 1-4 neighbors ...
  special bond factors lj:    0        0        0       
  special bond factors coul:  0        0        0       
     2 = max # of 1-2 neighbors
     1 = max # of 1-3 neighbors
     1 = max # of 1-4 neighbors
     2 = max # of special neighbors
  special bonds CPU = 1.303 seconds
  read_restart CPU = 1.609 seconds
include 	in.setup
variable	out_freq equal 1000
variable	out_freq2 equal 10000
variable	out_freq3 equal 1000

timestep	2.0

neigh_modify    delay 7 every 1

include		in.tip4p
# This is TIP4P/Ice

# create groups ###
group ox type 2
288 atoms in group ox
group hy type 1
576 atoms in group hy

# set charges - beside manually ###
set group ox charge -1.1794
Setting atom values ...
  288 settings made for charge
set group hy charge 0.5897
Setting atom values ...
  576 settings made for charge

# ### TIP3P Potential Parameters ###
pair_style lj/cut/tip4p/long/omp 2 1 1 1 0.1577 8.5
pair_coeff 1 1*2 0.000 0.000
pair_coeff 2 2 0.21084 3.1668
bond_style  harmonic
bond_coeff  1 450 0.9572
angle_style harmonic
angle_coeff 1 55 104.52
kspace_style pppm/tip4p/omp 1.0e-5
pair_modify tail yes

thermo          ${out_freq}
thermo          1000
thermo_style    custom step temp pe etotal epair emol press lx ly lz vol pxx pyy pzz pxy pxz pyz enthalpy

restart 	${out_freq3} restart.lmp.${pid} restart2.lmp.${pid}
restart 	1000 restart.lmp.${pid} restart2.lmp.${pid}
restart 	1000 restart.lmp.0 restart2.lmp.${pid}
restart 	1000 restart.lmp.0 restart2.lmp.0


include         in.dump
dump            myDump all atom ${out_freq2} dump.water.${pid}
dump            myDump all atom 10000 dump.water.${pid}
dump            myDump all atom 10000 dump.water.0
dump            myDump2 all dcd ${out_freq2} dump.dcd
dump            myDump2 all dcd 10000 dump.dcd
dump_modify     myDump append yes
dump_modify     myDump2 append yes


variable natoms 	equal  "count(all)"                        # NUMBER ATOMS
variable H      	equal  "enthalpy/v_natoms"                 # ENTHALPY-per-atom
variable Vol      	equal  "vol/v_natoms"                 # volume-per-atom
fix AVG all 		ave/time ${out_freq} 1 ${out_freq} v_Vol v_H file vol_enthalpy.dat
fix AVG all 		ave/time 1000 1 ${out_freq} v_Vol v_H file vol_enthalpy.dat
fix AVG all 		ave/time 1000 1 1000 v_Vol v_H file vol_enthalpy.dat


timer           timeout 23:50:00 every 1000
New timer settings: style=normal  mode=nosync  timeout=23:50:00

fix 		1 all shake 1e-6 200 0 b 1 a 1
       0 = # of size 2 clusters
       0 = # of size 3 clusters
       0 = # of size 4 clusters
     288 = # of frozen angles
  find clusters CPU = 0.090 seconds
fix             2 all nph iso ${pressure} ${pressure} ${pressureDamp}
fix             2 all nph iso 5625 ${pressure} ${pressureDamp}
fix             2 all nph iso 5625 5625 ${pressureDamp}
fix             2 all nph iso 5625 5625 1000
fix             3 all temp/csvr ${temperature} ${temperature} ${tempDamp} ${seed}
fix             3 all temp/csvr 251.67 ${temperature} ${tempDamp} ${seed}
fix             3 all temp/csvr 251.67 251.67 ${tempDamp} ${seed}
fix             3 all temp/csvr 251.67 251.67 100 ${seed}
fix             3 all temp/csvr 251.67 251.67 100 745823

run             250000
PPPM initialization ...
  extracting TIP4P info from pair style
  using 12-bit tables for long-range coulomb (../kspace.cpp:340)
  G vector (1/distance) = 0.37456653
  grid = 24 24 25
  stencil order = 5
  estimated absolute RMS force accuracy = 0.0030382372
  estimated relative force accuracy = 9.1495611e-06
  using double precision FFTW3
  3d grid and FFT values/proc = 2730 288
Last active /omp style is kspace_style pppm/tip4p/omp
Neighbor list info ...
  update every 1 steps, delay 7 steps, check yes
  max neighbors/atom: 2000, page size: 100000
  master list distance cutoff = 10.8154
  ghost atom cutoff = 10.8154
  binsize = 5.4077, bins = 4 4 4
  1 neighbor lists, perpetual/occasional/extra = 1 0 0
  (1) pair lj/cut/tip4p/long/omp, perpetual
      attributes: half, newton on, omp
      pair build: half/bin/newton/omp
      stencil: half/bin/3d
      bin: standard
Per MPI rank memory allocation (min/avg/max) = 9.239 | 9.244 | 9.250 Mbytes
Step Temp PotEng TotEng E_pair E_mol Press Lx Ly Lz Volume Pxx Pyy Pzz Pxy Pxz Pyz Enthalpy 
 5500000    259.32063   -3876.8993   -3432.4326   -3876.8993            0     4718.005    17.235527    20.301174    21.027303    7357.4833    5863.6418    4634.7989    3655.5742     641.9336    349.25215    394.15899   -2926.1843 
 5501000     259.0192   -3911.5278   -3467.5778   -3911.5278            0    4635.2391    17.220362    20.283311    21.008801     7338.079    3879.5977    4196.6974    5829.4222   -112.71417   -667.00462   -518.61861   -2971.5221 
 5502000     259.9461   -3924.0847    -3478.546   -3924.0847            0    3458.4863    17.234319    20.299751    21.025829    7355.9362    2070.8671     4115.449    4189.1428    -431.7274   -1483.2091   -1956.6866   -3107.5238 
 5503000     255.7268   -3938.6339   -3500.3269   -3938.6339            0    4418.9774    17.245136    20.312492    21.039025    7369.7957    3829.9796     6279.629    3147.3235    526.01514   -2005.0157   -437.55934   -3025.3712 
 5504000    240.89406   -3930.4179   -3517.5337   -3930.4179            0    4320.1336    17.209605    20.270642    20.995678    7324.3372    3702.4428    4734.5314    4523.4267   -1493.0512   -101.38795    927.33029   -3056.0659 
 5505000    255.81568   -3907.2486   -3468.7893   -3907.2486            0    5940.1609    17.168158    20.221822    20.945113     7271.545    5591.8372    6843.9633    5384.6822    1463.3001   -299.53647    43.920954    -2838.847 
 5506000    246.59937    -3901.485   -3478.8221    -3901.485            0    5194.3906    17.163368    20.216181    20.939269    7265.4607    4749.9962    5164.4857    5668.6901   -1083.5929   -527.15638      934.211   -2928.4282 
 5507000    259.43343   -3924.1057   -3479.4457   -3924.1057            0    6428.2167    17.119372    20.164359    20.885594    7209.7311    7459.7907      5704.94    6119.9195   -69.268569    461.70362   -323.57345    -2803.541 
 5508000    252.22672    -3911.404   -3479.0961    -3911.404            0    5556.4551    17.155308    20.206687    20.929436    7255.2292    7186.9513    3938.0995    5544.3146   -783.77693     265.1432    904.66341   -2891.1671 
 5509000    253.60428   -3901.3652   -3466.6962   -3901.3652            0    5659.4278    17.191208    20.248972    20.973233    7300.8725     5561.383    6133.8329    5283.0675    2048.6083    222.55301    1260.5935   -2864.1044 
 5510000    259.18039    -3929.096   -3484.8697    -3929.096            0    6238.8661    17.144791    20.194299    20.916605    7241.8941    6389.1353    6039.6692    6287.7937   -272.35429    365.50157    251.31023   -2825.9481 
 5511000    259.11158   -3928.9163   -3484.8079   -3928.9163            0    5672.4885    17.186287    20.243176     20.96723    7294.6046    5747.9171    6011.1503    5258.3981    -175.6007   -889.17925     27.29977    -2881.344 
 5512000    260.86701   -3887.9257   -3440.8085   -3887.9257            0    6647.4124    17.191068    20.248808    20.973063    7300.6947    8765.8109     4803.943    6372.4834   -1093.0933   -317.36808   -48.039445   -2733.0377 
 5513000    261.48612   -3880.4278   -3432.2496   -3880.4278            0    6223.2389     17.10574    20.148302    20.868962    7192.5213    6535.4988    5235.9137    6898.3042    212.74141    -1573.662   -302.94251   -2779.4595 
 5514000    246.83153   -3903.0505   -3479.9897   -3903.0505            0    4297.1942    17.152587    20.203481    20.926115    7251.7771     5761.503    2282.2038     4847.876   -549.47758    1674.0935    580.87329   -3025.5196 
 5515000    255.96835   -3895.5675   -3456.8465   -3895.5675            0    4904.0734    17.083735    20.122384    20.842117    7164.8006    5014.3267    4879.6529    4818.2405     1423.108    1829.7093    1116.4621   -2944.4136 
 5516000    251.44397   -3867.8257   -3436.8594   -3867.8257            0    5577.1921    17.161769    20.214297    20.937318    7263.4297    7638.5812    4584.9396    4508.0555    1140.3035   -652.66834   -1528.8563   -2846.0693 
 5517000    263.40667   -3888.7173   -3437.2473   -3888.7173            0    5920.6905    17.133705    20.181241     20.90308     7227.855    6851.2291    4685.0109    6225.8314   -270.93221     124.1396    573.64477   -2813.1423 
 5518000    239.66286   -3903.0927   -3492.3187   -3903.0927            0    5393.1376    17.208167    20.268948    20.993923    7322.5006    3887.4664    5349.8827    6942.0637    1112.0197   -1146.4371   -1222.5751   -2916.3793 
 5519000    252.93259   -3886.4758    -3452.958   -3886.4758            0    5765.2108    17.202331    20.262073    20.986803    7315.0529    6348.1715    5677.0458    5270.4149   -310.85441   -1601.1263    967.01559   -2837.9106 
 5520000    240.46568   -3880.1467   -3467.9968   -3880.1467            0    5127.3707     17.19324    20.251366    20.975713    7303.4625     4903.377    5192.4352    5286.2999    1426.5078    1298.6656   -379.52015   -2921.8626 
 5521000    259.28565   -3926.3858   -3481.9791   -3926.3858            0    5648.0516    17.192957    20.251033    20.975368    7303.1015    5367.5598    5245.2796    6331.3155   -144.10193    616.39059    649.95797    -2880.415 
 5522000    250.35829   -3856.9783   -3427.8728   -3856.9783            0    6069.7653    17.192481    20.250471    20.974786     7302.494    4069.5162    6563.4737    7576.3059    1617.2242   -230.05516   -1147.8815   -2781.4465 
 5523000    240.71988   -3889.2101   -3476.6245   -3889.2101            0    6279.1326    17.125933    20.172087    20.893598    7218.0236    5951.8383    6133.3203    6752.2391   -249.85715   -8.5002409    53.599943   -2815.6361 
 5524000    264.49834   -3883.3866   -3430.0455   -3883.3866            0    4584.4138    17.243639    20.310729    21.037199    7367.8767    5209.5447    5228.6838     3315.013   -595.75786    377.54319    320.05965   -2937.4369 
 5525000    240.55545   -3877.7207   -3465.4169   -3877.7207            0     4580.736    17.213641    20.275396    21.000602    7329.4914    4417.0791    4031.0997    5294.0292   -532.93286    808.81147   -1045.3931   -2975.7677 
 5526000    258.48905   -3884.4689   -3441.4276   -3884.4689            0    6666.4802    17.127889    20.174391    20.895985    7220.4972    8229.6455    6080.0412    5689.7539    -1657.175   -319.26246    20.889772   -2739.4236 
 5527000     251.4558   -3893.9653   -3462.9787   -3893.9653            0    5123.0683    17.182302    20.238482    20.962368    7289.5318    5215.7409    4415.7032    5737.7609    1733.5422    375.45709   -763.77554   -2918.3435 
 5528000    259.81452   -3932.0355   -3486.7223   -3932.0355            0     3497.524    17.149624    20.199992    20.922502    7248.0206    4503.1743     2683.445    3305.9526    730.24413   -279.91362    212.47528   -3117.0167 
 5529000    244.98837    -3923.279   -3503.3774    -3923.279            0    6323.9484    17.069227    20.105295    20.824417    7146.5616    6135.2603     6634.525      6202.06   -756.27581   -1115.2022    1955.4365   -2844.2621 
 5530000    261.84188   -3917.1559   -3468.3679   -3917.1559            0    5655.2537    17.147056    20.196967    20.919369    7244.7651    7665.1795    4234.1967    5066.3849    248.40085    899.82641   -691.50282   -2870.8481 
 5531000    261.47757   -3891.4152   -3443.2516   -3891.4152            0    6012.1711    17.061557    20.096261     20.81506    7136.9323    7040.9566     6404.836    4590.7206   -711.75184    1054.2004    207.64669   -2817.4758 
 5532000     253.7234   -3906.2821   -3471.4089   -3906.2821            0    4343.0129    17.223929    20.287513    21.013153    7342.6402    4781.8855    5013.2641     3233.889    -840.2912    720.31527    -565.1535   -3006.3379 
 5533000    256.30885   -3909.7594   -3470.4548   -3909.7594            0    5349.8099    17.144515    20.193974    20.916268    7241.5444    5602.7971    6346.5278    4100.1049   -298.45662   -904.43684    957.84761   -2905.4587 
 5534000    240.46315   -3910.7697   -3498.6241   -3910.7697            0    5059.6352    17.141551    20.190483    20.912653    7237.7896    4393.0281    7142.1944    3643.6831   -671.40474    1111.1475   -1049.2682   -2964.5506 
 5535000    237.10067   -3918.8078   -3512.4254   -3918.8078            0    5480.4048     17.13156    20.178715    20.900463    7225.1407     5032.036    6917.8567    4491.3216    84.594917   -342.43631   -1162.2942   -2934.9482 
 5536000    251.60089   -3915.9809   -3484.7456   -3915.9809            0    7648.6728    17.008147     20.03335    20.749899    7070.1165    7952.0109    8001.1235    6992.8839    413.20788   -189.03585   -2071.7629   -2696.0879 
 5537000    258.92095   -3903.2504   -3459.4687   -3903.2504            0    6590.0395    17.101879    20.143755    20.864253    7187.6529    6489.4905    6292.7301     6987.898    1532.2953   -901.98051    815.39958   -2768.6708 
 5538000    255.63134   -3932.7034     -3494.56   -3932.7034            0    6184.8973    17.130673     20.17767    20.899381    7224.0187    5822.0215    5408.0213     7324.649   -1150.5998   -868.28492    440.12494   -2842.9508 
 5539000    248.88738   -3913.9644   -3487.3799   -3913.9644            0    5421.4055    17.170573    20.224667    20.948059    7274.6141    6416.7798     3084.424    6763.0128   -2167.6194   -749.07953    99.479505   -2912.2079 
 5540000    243.74625   -3936.0278    -3518.255   -3936.0278            0    6333.2534    17.162434    20.215081     20.93813    7264.2748    6086.9381    7102.5225    5810.2995    3.5891873     857.3369   -156.05591   -2847.2975 
 5541000     254.4886   -3929.8793   -3493.6945   -3929.8793            0    5339.7044    17.207439    20.268091    20.993036     7321.572     5632.148    4787.5745    5599.3907   -1062.1827   -128.98536   -356.88602   -2923.5336 
 5542000     247.8543   -3906.4705   -3481.6567   -3906.4705            0    5553.3782    17.126956    20.173292    20.894846    7219.3172    6215.4903    3947.0225    6497.6218   -588.06169   -1525.8417    1787.7838   -2896.9619 
 5543000    251.03757   -3889.8874   -3459.6176   -3889.8874            0    3274.6541    17.233538    20.298832    21.024877     7354.937    4051.8097    3133.4539    2638.6987    1106.5812    -1145.324   -961.75589   -3108.3644 
 5544000    253.42377   -3902.5868   -3468.2271   -3902.5868            0    6530.6414    17.077115    20.114585     20.83404    7156.4736    5995.9601    6982.5916    6613.3725    478.64579    7.8965071   -1473.6253   -2786.6252 
 5545000    245.88471   -3960.9181   -3539.4802   -3960.9181            0    5986.3396    17.106307     20.14897    20.869655    7193.2371    6505.7058     6048.239    5405.0741   -868.28831   -228.11236    234.41084   -2911.4773 
 5546000    253.02822   -3901.8368   -3468.1551   -3901.8368            0    6415.3686    17.123281    20.168964    20.890363    7214.6718    5667.7798    5481.8249     8096.501   -744.81211   -581.21074    2048.8164    -2793.139 
 5547000    241.24424   -3915.4235   -3501.9391   -3915.4235            0    5215.6274    17.125747    20.171868    20.893372    7217.7891     5465.557    5231.9884    4949.3367    158.83445   -954.81851   -146.84436   -2952.9211 
 5548000    252.31485   -3882.1824   -3449.7234   -3882.1824            0    7694.7529    17.048657    20.081066    20.799322    7120.7565    8047.1091    8339.3534    6697.7962    314.94146   -2293.1302    419.13594   -2650.6316 
 5549000    256.71823   -3884.6247   -3444.6184   -3884.6247            0    7417.1168     17.13122    20.178314    20.900048    7224.7104    9083.2808    7930.0578    5238.0118    1010.2325    1865.8314   -1428.2849    -2663.114 
 5550000    243.33398   -3881.2614   -3464.1952   -3881.2614            0    6268.4767    17.131973    20.179201    20.900966    7225.6629    5614.1079     7828.756     5362.566   -1283.5316    2370.4781    1473.9484   -2803.6302 
 5551000    258.57628   -3892.1314   -3448.9405   -3892.1314            0    5296.0751     17.15581    20.207279    20.930049    7255.8668    7429.4791     5338.318    3120.4281   -120.57426    670.19054   -468.53056   -2888.5131 
 5552000    254.96616   -3907.1865   -3470.1833   -3907.1865            0    7425.2735    17.140644    20.189414    20.911545    7236.6402    10294.919    6551.8997    5429.0021   -1659.5059    294.44861    616.22224   -2686.5275 
 5553000    244.50843   -3912.1541    -3493.075   -3912.1541            0    6726.9731    17.113071    20.156937    20.877906    7201.7727    7005.4592    5985.4405    7190.0198   -366.46201    -1368.364    152.61581   -2786.5379 
 5554000    267.39931   -3914.0548   -3455.7416   -3914.0548            0    5825.5534    17.151367    20.202045    20.924627    7250.2301     5136.806    6411.6716    5928.1827    1044.3192    1283.9938    232.80937    -2839.764 
 5555000    261.17688   -3919.1339   -3471.4857   -3919.1339            0    6828.8734    17.206925    20.267485    20.992408    7320.9154    5545.2766    8885.9745    6055.3692   -1032.4879   -926.47638    112.69441   -2742.3802 
 5556000    250.85066   -3876.3378   -3446.3883   -3876.3378            0     6861.567    17.231663    20.296623    21.022589    7352.5366    6282.9362    6741.7023    7560.0625    663.92667      527.534     -753.233    -2710.628 
 5557000    261.45082   -3924.3526   -3476.2349   -3924.3526            0    6798.7973    17.205113    20.265351    20.990198    7318.6031    5271.6498    7327.3855    7797.3565    176.33817   -1533.5789   -1182.7597   -2750.5699 
 5558000    252.48526   -3902.0175   -3469.2664   -3902.0175            0     6602.173    17.155367    20.206757    20.929508    7255.3046    6326.3549    7200.1174    6280.0466    665.98683   -2355.4854   -857.33786   -2770.6827 
 5559000    263.00859   -3904.9398    -3454.152   -3904.9398            0    6653.0864    17.159549    20.211682     20.93461    7260.6116    7450.7395    6885.4884    5623.0313   -666.19786     473.1275    2151.3744   -2749.6662 
 5560000    252.55876   -3925.6674   -3492.7904   -3925.6674            0    6169.7031     17.09564    20.136406    20.856641    7179.7887     6470.547    6451.6653     5586.897   -256.31409   -1529.9795    95.972552   -2846.7616 
 5561000    244.77374    -3886.649   -3467.1152    -3886.649            0     4274.872    17.171502    20.225762    20.949193    7275.7952    3181.5257    6096.6206    3546.4697   -261.85702   -792.82944    47.641148   -3013.5085 
 5562000    263.52459   -3890.5059   -3438.8337   -3890.5059            0    5537.3559    17.247336    20.315084     21.04171    7372.6168    6835.8698    5159.1713    4617.0266   -1356.2008    945.88607    300.14368   -2843.4459 
 5563000    263.80756   -3864.4929   -3412.3358   -3864.4929            0    4007.3872      17.2427    20.309623    21.036053     7366.673    3129.6055    5425.3514    3467.2048   -105.14854   -945.23412    335.50237   -2981.8007 
 5564000     262.4986   -3920.1738   -3470.2602   -3920.1738            0    7267.6812    17.108934    20.152064    20.872859    7196.5515    8761.6934    7796.6025    5244.7477    1344.1977    394.96742    420.20852   -2707.4856 
 5565000    244.75314   -3928.5858   -3509.0873   -3928.5858            0    5197.5229    17.161448    20.213919    20.936927    7263.0228    5308.4139    6461.4142    3822.7407   -123.68818   -604.07329    1485.9236   -2958.5463 
 5566000    261.34318    -3882.425   -3434.4918    -3882.425            0    4179.4081    17.200079    20.259421    20.984056    7312.1807    4355.2748    3674.2345    4508.7151     509.5066    282.07385   -376.98234   -2988.7969 
 5567000    247.87827   -3936.6321   -3511.7772   -3936.6321            0    5147.8587    17.093615    20.134021    20.854171    7177.2381    5594.6475    7118.5515    2730.3772    256.64802   -582.40211   -775.70496   -2972.9372 
 5568000    256.39771   -3911.3258   -3471.8688   -3911.3258            0    5656.5316     17.11284    20.156665    20.877625    7201.4816    4274.5341    6314.2086    6380.8521    280.96997   -1429.4168    106.70574   -2877.7847 
 5569000    236.27615   -3921.8985   -3516.9293   -3921.8985            0    4778.7374    17.169677    20.223612    20.946966    7273.4756    5193.4659     4256.073    4886.6733    1469.1697    404.86632     -996.989    -3010.019 
 5570000    251.94642   -3885.6589   -3453.8313   -3885.6589            0    3961.2398    17.226085    20.290052    21.015783    7345.3978    4379.9211    3755.5821    3748.2162      16.7371    108.36811    -317.3261   -3029.4832 
 5571000    248.63166   -3889.7459   -3463.5997   -3889.7459            0    4064.3778     17.22777    20.292037    21.017839    7347.5534    3432.7162    3835.5189    4924.8985    925.54724    -1837.745    833.01419   -3028.0751 
 5572000    251.36361   -3838.2505   -3407.4219   -3838.2505            0    3595.6525    17.251125    20.319547    21.046332     7377.477    4819.9358    2728.7515    3238.2702    -561.8189    776.00261    84.871847   -3020.5551 
 5573000    236.65737   -3875.3219   -3469.6992   -3875.3219            0    5597.2913    17.224936    20.288699    21.014381    7343.9279    7253.9712    3115.0491    6422.8535    1193.7369    710.44727   -492.34266   -2870.2089 
 5574000    252.32505   -3894.8332   -3462.3567   -3894.8332            0    6054.4101    17.203207    20.263106    20.987873     7316.171    5845.7544     6765.352    5552.1237   -54.261605    792.91695   -201.21658   -2816.3581 
 5575000    251.61571   -3888.3857    -3457.125   -3888.3857            0    7486.2241    17.083051    20.121578    20.841283    7163.9399    8330.0381    6578.0224    7550.6118   -823.19357    880.09722    586.96775   -2674.9739 
 5576000    249.92546   -3890.5841   -3462.2204   -3890.5841            0    5827.7466    17.127622    20.174076    20.895659    7220.1593     4053.716    7412.3123    6017.2114    393.99908    -1824.513   -585.06184   -2848.5668 
 5577000    244.08323   -3897.6361   -3479.2858   -3897.6361            0    4398.5186    17.126333    20.172558    20.894086    7218.5294    5330.3947    4422.4086    3442.7523     518.4254    179.76698    288.25388   -3016.2324 
 5578000    263.83955   -3868.7599   -3416.5479   -3868.7599            0    6164.0528    17.096553    20.137481    20.857755    7180.9394    7216.0585    6698.5066    4577.5934   -72.798069   -433.06049   -565.92806   -2771.0074 
 5579000    250.54532   -3898.4863   -3469.0602   -3898.4863            0     4361.095    17.119317    20.164294    20.885526    7209.6612     6019.255    2187.9567    4876.0734   -149.12461   -600.18778   -230.24403   -3010.5106 
 5580000    258.32482   -3877.5807   -3434.8207   -3877.5807            0    4978.9615    17.192522     20.25052    20.974837    7302.5468    4247.4477    5821.1369       4868.3   -155.01554    539.55929    878.98842   -2904.5606 
 5581000    253.89359   -3901.8399    -3466.675   -3901.8399            0     4573.769    17.207978    20.268725    20.993693    7322.2594    4936.1587    4931.4703    3853.6781   -1486.7767   -698.32528     2125.858    -2978.253 
 5582000    250.45511   -3935.5037   -3506.2322   -3935.5037            0    5620.6711    17.153665    20.204752    20.927432    7253.1455    6967.7564    4906.6709     4987.586    87.002685   -1085.8483   -1831.9019   -2911.6793 
 5583000    237.85987   -3887.9478   -3480.2641   -3887.9478            0    5727.5998    17.110124    20.153466    20.874311    7198.0534    4093.5638    5219.1847    7870.0509   -448.76895   -1185.6505   -380.56611   -2879.0023 
 5584000     274.6873   -3902.3964   -3431.5918   -3902.3964            0     4547.117    17.291381    20.366963    21.095445    7429.2444    4364.9016    4126.9501    5149.4992   -253.83432    678.96547    133.42537   -2938.9212 
 5585000    247.51962   -3873.7249   -3449.4847   -3873.7249            0    7342.0459    17.152119    20.202931    20.925546    7251.1846    6377.5629    7435.8309    8212.7439   -1002.2188   -176.11967   -14.981241   -2673.0554 
 5586000    254.76816   -3893.9973   -3457.3334   -3893.9973            0    6115.9449    17.233555    20.298851    21.024897     7354.958    6827.8716    6274.6084    5245.3549     144.3138   -793.89899   -458.82382   -2801.3095 
 5587000    250.62748   -3895.5183   -3465.9514   -3895.5183            0    4865.7811    17.176007    20.231068    20.954689    7281.5232    4132.0319    5293.4802    5171.8312    -1265.949    209.84839   -183.34162   -2949.2368 
 5588000    275.83832   -3907.9874     -3435.21   -3907.9874            0     3956.094    17.219741    20.282581    21.008044    7337.2863    3508.1406    6154.2375    2205.9038   -842.59734    1166.3775    156.00262   -3011.8811 
 5589000    251.66633    -3936.221   -3504.8736    -3936.221            0    4614.2576    17.106108    20.148735    20.869411    7192.9857    3405.3893     3999.789    6437.5944    137.47471    156.82668   -610.92433   -3020.8273 
 5590000    242.55113   -3893.1215   -3477.3972   -3893.1215            0    6386.9979     17.15481    20.206101    20.928829    7254.5981    6348.7712     5248.034    7564.1884    1133.9577    956.33776    1041.3881   -2801.6472 
 5591000    246.20987   -3926.1278   -3504.1325   -3926.1278            0    4600.3999    17.178739    20.234285    20.958021    7284.9979    5081.6039    4522.7132    4196.8826   -132.68275   -44.019527    1188.6061   -3015.3666 
 5592000    266.97573   -3918.4998   -3460.9125   -3918.4998            0    6606.0164    17.087529    20.126852    20.846746    7169.5747    7466.7733    6905.9933    5445.2826   -414.29243   -747.13272    1202.5494   -2770.1816 
 5593000    244.90951   -3925.1716   -3505.4051   -3925.1716            0    6208.8255    17.133972    20.181556    20.903406    7228.1929    5805.3698    7987.9708    4833.1358   -650.62897   -3.4630742    377.31246   -2850.8969 
 5594000     264.4704   -3943.5189   -3490.2256   -3943.5189            0    5811.6257    17.107931    20.150882    20.871635    7195.2854    4980.5856     6444.255    6010.0366    31.530543   -173.25767    1576.7839   -2880.3777 
 5595000     255.2193   -3942.9242   -3505.4871   -3942.9242            0      4115.43    17.133438    20.180926    20.902754    7227.5167    3854.2128    3462.1297    5029.9475    668.78437    1299.4706    262.72609   -3071.6964 
 5596000    255.86199   -3894.2823   -3455.7436   -3894.2823            0    5293.1216    17.204935    20.265141    20.989981    7318.3762    6473.5028     4077.276    5328.5861    82.684312    581.97232   -333.76536   -2890.8034 
 5597000    264.90239   -3937.2346   -3483.2009   -3937.2346            0    6344.0187    17.147468    20.197453    20.919871    7245.2874    5772.1532    6056.0407    7203.8622     134.9691    1928.2479   -1824.1719   -2812.8597 
 5598000     252.2836   -3938.1722   -3505.7668   -3938.1722            0    4826.1814    17.141015    20.189852    20.911998    7237.1106    4842.4822    3920.1018    5715.9601   -627.07097   -86.552516   -246.09922   -2996.3834 
 5599000    253.38645   -3909.3146   -3475.0189   -3909.3146            0    4216.5455    17.164166    20.217121    20.940243     7266.474    4450.3545     4726.756    3472.5261    531.75499    1103.2564   -922.97139   -3028.1744 
 5600000    255.30243   -3932.4528   -3494.8731   -3932.4528            0    4867.1926    17.130363    20.177304    20.899002    7223.6261    6281.3846    3560.8514    4759.3418    1275.2182   -443.05677    257.93364   -2982.1184 
 5601000    250.19936   -3947.7655   -3518.9324   -3947.7655            0    6159.4887    17.180411    20.236255    20.960061    7287.1251    6788.5482    4876.4657    6813.4522    1369.1558    233.28852   -1294.2437   -2864.3312 
 5602000     253.3408   -3879.8403   -3445.6228   -3879.8403            0     6321.522    17.138232    20.186573    20.908602    7233.5853    8156.9377    6299.2629    4508.3655    2200.6463    507.30668   -384.15051   -2778.7375 
 5603000    251.27259   -3904.3682   -3473.6955   -3904.3682            0    4931.8973    17.241686    20.308429    21.034817    7365.3736    3835.5789    5801.6366    5158.4764     289.3426    192.54351    1284.3619   -2943.9288 
 5604000    252.49927   -3897.5345   -3464.7594   -3897.5345            0    5426.6357    17.242847    20.309796    21.036233    7366.8619    5658.5837    5491.5354    5129.7881    50.620163    422.78625    591.52725   -2881.7319 
 5605000    265.63429   -3910.6392   -3455.3512   -3910.6392            0    7013.5099    17.198074    20.257059     20.98161    7309.6237    6892.4294    5916.6109    8231.4893   -611.65572     1143.976    470.91582   -2707.6874 
 5606000    244.01767   -3907.8144   -3489.5764   -3907.8144            0    4008.6211    17.164692     20.21774    20.940884    7267.1417    3903.6548     4941.335    3180.8734    275.67444   -248.37739    1673.4527   -3064.7275 
 5607000    259.15758   -3927.5717   -3483.3845   -3927.5717            0    5246.8849    17.210872    20.272133    20.997223    7325.9541    4114.7249     4935.497    6690.4329     8.863209   -275.25446    774.51957   -2922.7993 
 5608000    238.44363   -3863.1184   -3454.4342   -3863.1184            0    5769.0017    17.183285     20.23964    20.963568    7290.7829    5541.1413    7363.7113    4402.1525     1821.275   -1473.2055   -399.60824   -2841.0244 
 5609000    240.60034   -3855.7725   -3443.3917   -3855.7725            0    7019.0223      17.1254     20.17146    20.892948    7217.3503    9381.6322    5727.4731    5947.9615     295.7836   -747.26152   -561.10721   -2704.5859 
 5610000    247.37369   -3912.1701   -3488.1801   -3912.1701            0    6468.2205     17.25791    20.327538     21.05461     7386.185    5798.5986    6872.9249     6733.138   -749.48636   -213.03321   -44.314132   -2791.4238 
 5611000    257.72289   -3896.5359   -3454.8077   -3896.5359            0    5280.7437    17.214736    20.276685    21.001937    7330.8895    5298.3671    6942.6458    3601.2182    -387.2519    1126.9017   -475.36768   -2890.2249 
 5612000     257.4399   -3909.6704   -3468.4273   -3909.6704            0    4209.2809    17.299436     20.37645    21.105271     7439.631    4322.4499    4365.5185    3939.8743    1707.1864    1925.0507    617.79331   -3011.7229 
 5613000     246.4701   -3900.1856   -3477.7443   -3900.1856            0    3975.5951    17.223797    20.287358    21.012992    7342.4719    4511.8137     4061.633    3353.3386    -1054.978    1864.4397   -756.10103    -3052.028 
 5614000    251.09919   -3874.8401   -3444.4647   -3874.8401            0    5263.3979    17.284359    20.358691    21.086877    7420.1963    4272.1052     5673.005    5845.0834   -497.30314    1165.9971   -334.77217   -2874.8811 
 5615000    253.14621   -3864.8947   -3431.0107   -3864.8947            0    4516.0616    17.226843    20.290946    21.016709    7346.3684    4695.5924      6107.19    2745.4024    1923.4468    2270.5564     821.0472   -2947.1633 
 5616000    244.08689   -3914.4529   -3496.0963   -3914.4529            0    5761.6639    17.207369    20.268008    20.992951    7321.4827    5391.0542    6249.2823    5644.6551    988.85046   -391.01777   -18.863115   -2880.8871 
 5617000    245.70597    -3942.425   -3521.2933    -3942.425            0    3467.4318    17.213675    20.275435    21.000643    7329.5345     3200.424    4044.7411    3157.1302    814.13142   -1870.4068    383.98691   -3150.6466 
 5618000     248.3542   -3942.5604   -3516.8898   -3942.5604            0    3479.7564     17.24716    20.314876    21.041495    7372.3908    2498.9392    4784.8102    3155.5197    475.14989    1100.1974    240.38775   -3142.7507 
 5619000     247.1084    -3888.751   -3465.2157    -3888.751            0    7116.3245    17.205868    20.266239    20.991118     7319.566    8269.5938    6289.4201    6789.9596    69.877878    537.03542   -621.93825   -2705.5597 
 5620000      237.055   -3895.7028   -3489.3986   -3895.7028            0      4391.48     17.25444    20.323451    21.050377    7381.7308    3454.1194    3790.5546    5929.7659   -1265.5502   -188.08697   -11.403641   -3016.6339 
 5621000    245.71165   -3920.1516   -3499.0102   -3920.1516            0    6364.6045    17.199938    20.259255    20.983885    7312.0013    7884.9504    6061.5447    5147.3185    280.83108    570.43849    523.49876   -2820.3012 
 5622000    268.95824   -3911.0404   -3450.0551   -3911.0404            0    5255.0517    17.211114    20.272419    20.997519    7326.2632    4362.9762    5669.6642    5732.5147    55.744404   -370.29826   -873.86399   -2888.5737 
 5623000    241.71626   -3917.7662   -3503.4728   -3917.7662            0    7029.8178    17.164043    20.216976    20.940093     7266.318    7840.3316    7405.6759    5843.4458   -1621.0412   -1186.7885   -322.48073   -2758.5104 
 5624000    253.07971   -3877.8679   -3444.0979   -3877.8679            0    6437.7572    17.233647     20.29896    21.025009    7355.0763     7966.111     5348.112    5999.0487   -639.34407    660.63782    748.20277   -2753.5439 
 5625000    253.45755   -3855.8769   -3421.4593   -3855.8769            0    5795.9457    17.207076    20.267662    20.992592    7321.1075    4410.6411    7534.9108    5442.2852   -150.86133    688.83529   -1241.0467   -2802.6213 
 5626000    252.67634   -3895.2493   -3462.1707   -3895.2493            0    3447.6007    17.189612    20.247092    20.971286    7298.8392    4027.6013    3520.5746    2794.6263    -792.2258    334.67551    1209.9696   -3095.1871 
 5627000    249.16797   -3879.7857   -3452.7204   -3879.7857            0    5454.9108    17.156885    20.208544    20.931359    7257.2301    7159.9182    4255.5779    4949.2361    439.13813    259.55803    82.996524   -2875.3767 
 5628000    246.11277   -3887.7629   -3465.9341   -3887.7629            0    6581.6304    17.161089    20.213497    20.936489     7262.567    7692.6288    7018.7278    5033.5346    1686.7706    -551.2046   -445.49754   -2768.8269 
 5629000    250.30224   -3890.4154    -3461.406   -3890.4154            0    6088.0272    17.231197    20.296074     21.02202    7351.9394     6773.133    4511.0599    6979.8886     886.2673    1062.1525   -593.92565   -2808.6447 
 5630000    251.99583   -3935.6763   -3503.7641   -3935.6763            0    5869.1903    17.127344    20.173749     20.89532    7219.8085    6384.2988     6926.037     4297.235   -400.12614    496.69956    249.15115   -2885.7765 
 5631000    243.75648   -3937.3572    -3519.567   -3937.3572            0    4481.1286    17.220849    20.283885    21.009396    7338.7022    3653.6075    4524.8676    5264.9107    251.85486    760.43459     219.6671   -3039.9632 
 5632000    267.31064   -3900.6157   -3442.4544   -3900.6157            0    6533.5919    17.203667    20.263648    20.988434    7316.7579    7319.1259    7078.0492    5203.6007    1793.5348    487.27544   -715.58883   -2745.2718 
 5633000     233.8719   -3877.9304    -3477.082   -3877.9304            0    5083.8007    17.182887    20.239172    20.963082    7290.2767    3682.4287    5397.9843    6170.9892    571.70169   -137.95895   -24.402767   -2936.5662 
 5634000    228.35426   -3889.5025   -3498.1111   -3889.5025            0    4392.2775    17.181189    20.237172    20.961011    7288.1157    5714.2903    3988.9519    3473.5904    1042.1889    1455.3386    133.92236   -3031.2573 
 5635000    241.99442    -3901.826   -3487.0559    -3901.826            0    6449.5675    17.112368    20.156109    20.877049     7200.886    5586.2436    7038.6846    6723.7743    491.39626    94.549805   -816.53893   -2809.7382 
 5636000     241.4664   -3868.9408   -3455.0757   -3868.9408            0    5367.3832    17.226769    20.290858    21.016617    7346.2727    5893.3862    4638.4669    5570.2963    26.210029    946.87849    1134.9099   -2880.0258 
 5637000    252.35383   -3896.2068    -3463.681   -3896.2068            0    6079.0291    17.236542    20.302369    21.028541     7358.783    4768.9998    6741.9796     6726.108   -278.72031   -522.70167    629.45841   -2811.2777 
 5638000    253.50074   -3895.2083   -3460.7167   -3895.2083            0    5392.3331    17.165438    20.218618    20.941794    7268.0891    6543.5946    6195.6292    3437.7753    -538.7629    1276.4205   -917.49941   -2889.1422 
 5639000    238.05022   -3905.8996   -3497.8896   -3905.8996            0    4292.6329    17.140519    20.189267    20.911393    7236.4816    4574.3542    3508.2225    4795.3219   -571.39019    73.267069    1746.6502   -3044.8595 
 5640000    255.63616   -3895.7914   -3457.6398   -3895.7914            0     6010.153    17.200948    20.260445    20.985117    7313.2895    7031.1136     6747.717    4251.6285    657.62738   -701.01423   -394.37573   -2816.6159 
 5641000    243.15842   -3895.2521   -3478.4869   -3895.2521            0    6484.0088    17.164919    20.218007     20.94116    7267.4295    7251.9715    5426.8893    6773.1657   -912.20557    2036.2777    184.23302   -2791.2597 
 5642000    252.05037   -3912.6113   -3480.6056   -3912.6113            0    6417.0189    17.155623    20.207058     20.92982    7255.6289    7325.3983    6958.5192    4967.1393    686.80713     2836.936    1295.8791    -2801.583 
 5643000     240.8931   -3889.6496    -3476.767   -3889.6496            0    5166.4834    17.176313    20.231428    20.955062    7281.9126    4518.6683    5471.2079    5509.5739    119.97635    434.32549   -200.40006   -2928.0905 
 5644000    239.18523   -3879.9755   -3470.0202   -3879.9755            0    5839.0637    17.127928    20.174437    20.896032    7220.5465    6288.3337    5774.1392    5454.7182    944.31181   -759.28118    226.69647   -2855.1418 
 5645000    258.54221   -3902.2661   -3459.1336   -3902.2661            0    4843.4475    17.204829    20.265016    20.989851    7318.2406    4770.7476    4712.8918     5046.703   -641.22896    -600.4612   -367.95434   -2942.1972 
 5646000    251.51507   -3925.7802    -3494.692   -3925.7802            0     5404.141    17.134653    20.182358    20.904236    7229.0547    5632.9046    5400.4319    5179.0866   -565.17923    -960.1272    628.74126   -2924.9423 
 5647000    238.11255   -3907.6635   -3499.5468   -3907.6635            0    5769.9954     17.20329    20.263203    20.987974    7316.2767     6032.067    6693.6852     4584.234   -1663.3646   -865.49169   -945.64162    -2883.886 
 5648000    241.18325   -3914.2045   -3500.8247   -3914.2045            0    4508.7264    17.210943    20.272218    20.997311    7326.0455    4456.4275    7348.6251    1721.1265    2101.1146   -252.60585    496.13556   -3019.0994 
 5649000    258.46387    -3867.023   -3424.0247    -3867.023            0    4243.0086    17.259266    20.329136    21.056264    7387.9266    4534.2423    4365.3512    3829.4325   -474.51736   -523.94452    497.30329   -2966.8604 
 5650000    241.55971   -3891.4347   -3477.4097   -3891.4347            0    6556.9286    17.173715    20.228368    20.951892    7278.6081    5350.7791    6636.3231    7683.6837    1488.5539   -189.71286   -485.41653   -2781.3849 
 5651000    260.92781   -3903.2522   -3456.0309   -3903.2522            0    5804.7267    17.239991    20.306432    21.032748    7363.2011    6708.6924    5114.1219    5591.3657    938.22572    227.19713   -875.47927   -2832.6918 
 5652000     238.8522   -3933.0303   -3523.6458   -3933.0303            0    5394.6423    17.175124    20.230028    20.953612    7280.4003    5485.7176    5047.8124    5650.3969   -104.20744   -33.412879    421.69751    -2950.858 
 5653000    256.97446   -3916.7124    -3476.267   -3916.7124            0    6263.3443    17.209026     20.26996    20.994972    7323.5976    6121.3492    7214.0747     5454.609   -271.85047   -705.79801    1053.8444    -2807.297 
 5654000    228.53717   -3901.3061   -3509.6012   -3901.3061            0    3456.4289    17.203299    20.263214    20.987984    7316.2879    4069.0141    2563.4403    3736.8323    -56.65723   -193.94232    52.658352   -3140.7983 
 5655000    255.93865   -3939.0898   -3500.4197   -3939.0898            0    3975.5301     17.16662    20.220011    20.943236     7269.591    3277.4415    2990.1504    5658.9985    2157.7384      868.249   -221.10175   -3078.9359 
 5656000    238.55593   -3957.2661   -3548.3894   -3957.2661            0    5032.2279    17.228053    20.292371    21.018184    7347.9161    5700.1061     5394.618    4001.9595    1.6221907    1287.3833   -167.37627   -3009.1267 
 5657000    235.76037   -3903.3381   -3499.2529   -3903.3381            0    4800.9742    17.248029      20.3159    21.042555    7373.5055    5427.1097    5047.2845    3928.5285    370.61561   -226.07237    711.86656   -2982.9801 
 5658000    257.05677   -3939.8339   -3499.2474   -3939.8339            0    6197.5013    17.205227    20.265485    20.990336     7318.748      6166.93    5204.7492    7220.8248    246.57454   -388.33054   -148.80273   -2837.7482 
 5659000    260.56573   -3960.4642   -3513.8635   -3960.4642            0    6197.9213    17.221541    20.284701     21.01024     7339.587    8075.9837    4157.5042     6360.276   -1098.2502   -1160.0569    68.287373   -2850.4358 
 5660000    268.37197    -3916.592   -3456.6116    -3916.592            0    5168.4863    17.222129    20.285393    21.010957    7340.3381    5559.3798    5740.9601     4205.119   -21.242912   -982.41956     1425.059   -2903.3185 
 5661000    249.70327     -3952.25   -3524.2671     -3952.25            0    4525.5282    17.222308    20.285604    21.011176    7340.5677    3688.7651    4723.5173    5164.3022    1201.9787   -1575.0682     463.0056   -3039.7883 
 5662000    241.61494   -3923.2706   -3509.1508   -3923.2706            0    6582.0217    17.166737    20.220148    20.943379    7269.7392    6342.5328    7065.2777    6338.2546    120.70138    108.45048   -341.86243   -2811.3138 
 5663000    250.94787   -3914.9456   -3484.8296   -3914.9456            0    6401.3177    17.270189    20.342002     21.06959    7401.9624    7914.3115    5504.7802    5784.8614   -217.43985     412.4392   -316.80186   -2793.8071 
 5664000    252.15948   -3918.1657    -3485.973   -3918.1657            0    6369.9597    17.222146    20.285413    21.010978    7340.3607    5199.1199    5542.9357    8367.8234    1308.5424   -1062.2205   -10.128564   -2804.0584 
 5665000    241.87872   -3898.1434   -3483.5715   -3898.1434            0    6794.9376    17.167531    20.221084    20.944348    7270.7487    8076.1011    4218.9467    8089.7649    63.395699     295.3798    447.99719   -2763.0607 
 5666000    251.54035   -3890.0417   -3458.9101   -3890.0417            0    5475.9332    17.215266     20.27731    21.002585    7331.5672    4604.7649    6933.5722    4889.4624   -678.86863    238.56654   -648.44271   -2873.4048 
 5667000    237.56876    -3910.437   -3503.2522    -3910.437            0    4609.4886    17.210829    20.272084    20.997172    7325.8999    2414.8936      6450.01    4963.5621    751.29562    625.25518    44.962023   -3010.7711 
 5668000    264.46194   -3901.7782   -3448.4995   -3901.7782            0    5125.3144    17.271059    20.343027    21.070652    7403.0815    5686.9933    5375.4059    4313.5438    442.17602    584.64172    1038.1774    -2895.138 
 5669000     258.3706   -3898.8775   -3456.0392   -3898.8775            0    3402.0927    17.272215    20.344387    21.072061    7404.5669    1462.3427    2832.0808    5911.8546    799.51712   -1041.1629     577.4333   -3088.6539 
 5670000    245.91178   -3872.1215   -3450.6371   -3872.1215            0     5598.588    17.198772    20.257882    20.982462    7310.5142    4684.3403    6357.0277     5754.396   -769.27172    1528.3782   -1121.8836   -2853.7361 
 5671000    250.32492   -3896.4042   -3467.3559   -3896.4042            0    5847.1017    17.177151    20.232415    20.956084    7282.9776    7323.5708    5371.3877    4846.3466   -120.88949    319.71238    1085.3297   -2846.3074 
 5672000    242.78627   -3880.3815   -3464.2541   -3880.3815            0    6575.0078    17.189343    20.246776    20.970958    7298.4969    5138.5405    7137.5224    7448.9605   -198.75467   -850.68535   -1922.3745   -2764.4031 
 5673000    248.04795   -3891.1232   -3465.9775   -3891.1232            0    4824.2402    17.170941      20.2251    20.948508    7275.0814    4060.1372    5949.0958    4463.4877    804.33462   -517.30392   -411.10165   -2954.1276 
 5674000    238.86016   -3887.4984   -3478.1003   -3887.4984            0    5135.5786     17.17773    20.233097     20.95679     7283.714    4689.8428    5339.0453    5377.8478   -83.664895     865.5046   -318.46597   -2932.5709 
 5675000    266.07947   -3905.0623   -3449.0112   -3905.0623            0    5091.2307    17.193349    20.251494    20.975846     7303.601    5837.9896    6462.0594    2973.6431    1322.9501    542.95846    1364.7845   -2906.7161 
 5676000    255.50767    -3912.117   -3474.1856    -3912.117            0    7126.8434    17.133821    20.181378    20.903222    7228.0023    6918.5441    6622.0829    7839.9033    538.13584    7.0567403    771.01329   -2722.9237 
 5677000    253.88098     -3880.97   -3445.8267     -3880.97            0    6431.7522    17.212607    20.274178    20.999341    7328.1708    6555.8997    5387.4295    7351.9273    384.25137   -526.32686   -124.73498   -2758.4406 
 5678000    266.28427   -3914.0727   -3457.6706   -3914.0727            0    6655.8498    17.146059    20.195793    20.918152    7243.5016    5967.8392    9288.4609    4711.2493   -1342.0151    720.24453   -629.72531    -2754.553 
 5679000    246.40862   -3903.9098   -3481.5739   -3903.9098            0    4986.5387    17.208205    20.268992    20.993969    7322.5487    3191.6699    5804.4914    5963.4548    259.83508   -386.91756    1526.9008   -2949.0521 
 5680000    243.41989   -3886.2618   -3469.0485   -3886.2618            0    5688.4269    17.202381    20.262133    20.986865    7315.1169    5105.1503    7089.4498    4870.6805   -528.26953    158.55259   -794.74233   -2862.1873 
 5681000    260.07406   -3896.7302   -3450.9722   -3896.7302            0    5393.8739    17.146513    20.196327    20.918706    7244.0763    6344.7328    4163.1569     5673.732    1259.5159   -840.96663    328.61702   -2881.1233 
 5682000    269.47346    -3896.776   -3434.9077    -3896.776            0    7034.8141    17.116499    20.160975    20.882089    7206.1022    6742.7093    7533.8378    6827.8951   -80.993396    508.35687   -132.85956   -2695.5937 
 5683000    253.59803   -3920.6194   -3485.9611   -3920.6194            0    4815.0511    17.148852    20.199082    20.921559    7247.0411    3519.0236    5443.3183    5482.8113    223.49634   -154.72801    518.52569   -2977.0551 
 5684000    257.48378   -3940.2135   -3498.8951   -3940.2135            0    5553.9397    17.085676     20.12467    20.844485    7167.2428    3570.3253    6053.6337      7037.86    1916.4155   -167.15354    -1520.943   -2918.3591 
 5685000    257.85477   -3887.7188   -3445.7646   -3887.7188            0    7935.6839    17.087527    20.126849    20.846743    7169.5717    7602.7363    8675.7428    7528.5726    429.57699    592.63578    92.046692   -2616.0027 
 5686000    255.76738   -3891.1497   -3452.7731   -3891.1497            0    6064.6405    17.135242    20.183051    20.904955    7229.8002    6489.8096    4994.7719      6709.34    1035.3508    1875.0189    200.09759   -2813.3222 
 5687000     239.9568   -3915.4314   -3504.1536   -3915.4314            0     6122.508    17.133881    20.181448    20.903294    7228.0775    4846.8712    6789.2228    6731.4301   -216.25169    526.35539   -534.99085    -2858.755 
 5688000    263.17478   -3901.5201   -3450.4475   -3901.5201            0     6093.083    17.080788    20.118912    20.838521    7161.0923    6376.9194    6731.4636    5170.8659   -28.151631    64.740434    377.30203   -2814.1031 
 5689000    249.12939    -3922.738   -3495.7388    -3922.738            0    6495.0171    17.088126    20.127555    20.847473    7170.3256    7245.9514    5675.8738    6563.2261    164.16325    290.15039   -999.23214   -2816.5428 
 5690000    256.87184   -3863.3381   -3423.0685   -3863.3381            0     6332.162    17.167025    20.220488    20.943731     7270.106     5304.054    6733.5997    6958.8322   -988.46136   -1233.0648    269.01714   -2751.6882 
 5691000    247.97238   -3902.4315   -3477.4153   -3902.4315            0    6072.4843    17.150013     20.20045    20.922976    7248.5136    6975.0682    6074.6744    5167.7105    1894.7993    400.52629   -24.720402     -2835.48 
 5692000    249.64905   -3933.0248   -3505.1348   -3933.0248            0    5524.7371     17.18921    20.246618    20.970795    7298.3268    6971.1191    6359.1706    3243.9217    831.55326     661.7729   -166.89916   -2917.0895 
 5693000    247.77468   -3920.3547   -3495.6774   -3920.3547            0    7390.0457    17.165434    20.218614    20.941789    7268.0843    7507.3432    9505.4988    5157.2951    1169.8188   -483.24946    1071.2069   -2712.3506 
 5694000    256.15619    -3911.856   -3472.8131    -3911.856            0    5096.8482    17.196748    20.255498    20.979993    7307.9335    5302.3545    4642.3769    5345.8134   -587.99101   -301.72906   -161.54432   -2929.5976 
 5695000    255.87673   -3922.1207   -3483.5568   -3922.1207            0    6806.4696     17.14642    20.196218    20.918592    7243.9586     6815.562    5630.2975    7973.5494   -711.30958    652.63145    1043.0233   -2764.4825 
 5696000    256.53428   -3924.9668   -3485.2759   -3924.9668            0    4045.1045    17.201116    20.260643    20.985322    7313.5037    2558.4425    5439.6663    4137.2048     1103.711   -818.56759    1122.6018   -3053.8252 
 5697000    246.39805   -3889.8288    -3467.511   -3889.8288            0     6550.001    17.143788    20.193117    20.915381    7240.6227    6037.6994    5885.5017    7726.8019   -1798.1292   -116.05621    470.72186   -2775.8501 
 5698000    251.15571   -3873.7336   -3443.2613   -3873.7336            0     4196.103    17.181447    20.237475    20.961326     7288.444    3357.6979    5373.7416    3856.8696   -2424.7068   -885.57351     967.0677   -2997.2388 
 5699000    263.96028     -3895.81   -3443.3911     -3895.81            0    5504.9048    17.100551    20.142191    20.862633    7185.9788    5553.5845    5026.3068     5934.823    -125.8939   -76.222129   -831.47541   -2866.4764 
 5700000     256.1204   -3899.2711   -3460.2895   -3899.2711            0    9761.0442    17.054311    20.087726     20.80622    7127.8436    10088.638    7877.0911    11317.404    1937.1268    956.11734    174.07511   -2445.6067 
 5701000    262.98089   -3925.9992   -3475.2589   -3925.9992            0    4747.3972    17.190571    20.248222    20.972456     7300.061    4137.7254    5447.8089    4656.6574    263.97677    935.55478    848.79128   -2969.8325 
 5702000    252.73329   -3904.0068   -3470.8306   -3904.0068            0    4406.4106    17.245568    20.313002    21.039553    7370.3502    3625.8913    4636.2915    4957.0489   -735.65686   -765.98079    956.86414   -2997.1899 
 5703000    251.22886   -3940.1748   -3509.5771   -3940.1748            0    5836.5717    17.190251    20.247845    20.972066     7299.653    6289.2477    4652.9179    6567.5496    527.32921     742.5255    680.59063   -2888.2277 
 5704000    240.29402   -3904.4975   -3492.6418   -3904.4975            0    6551.7731    17.156997    20.208676    20.931496    7257.3722    8108.2811      5603.84    5943.1983    742.58097   -592.25341    1834.6622   -2799.1934 
 5705000    239.03559   -3916.2474   -3506.5486   -3916.2474            0    4226.9783    17.207938    20.268678    20.993645    7322.2088    5387.9431    3472.3045    3820.6874    644.37117    1034.6296   -709.86058   -3055.1627 
 5706000    251.17615   -3938.8914   -3508.3841   -3938.8914            0    5627.3867     17.14285    20.192013    20.914237    7239.4348    6845.6378    5425.9726    4610.5497   -3.3416806   -456.95418   -1174.3131   -2914.2461 
 5707000    243.75275   -3893.1966   -3475.4128   -3893.1966            0     5134.938    17.250212    20.318471    21.045218    7376.3057    4480.3676    6242.3969    4682.0494    544.25278    -161.7079   -284.87685   -2923.0175 
 5708000    255.39926   -3900.3033   -3462.5577   -3900.3033            0    5700.9875    17.170607    20.224707    20.948101    7274.6577    6179.2338    5372.4394    5551.2893   -1212.6055   -1224.2182   -157.61672   -2857.7204 
 5709000    260.89679   -3934.5312   -3487.3631   -3934.5312            0    5469.9504    17.191861    20.249741     20.97403    7301.7043    5832.7563    5707.5779    4869.5169     267.8541    1045.1594    -136.7889   -2904.8797 
 5710000    257.01374   -3913.1635   -3472.6507   -3913.1635            0    6149.6658     17.11951    20.164522    20.885762    7209.9058    5605.7503    4427.7065    8415.5407   -295.78218    -200.3779   -1153.8425    -2826.019 
 5711000    246.26305     -3927.71   -3505.6236     -3927.71            0    6864.7667    17.133318    20.180786    20.902608    7227.3659    7155.2572    7109.8735    6329.1695    104.88094   -597.97059   -318.84881   -2782.0517 
 5712000    266.33688   -3944.1507   -3487.6584   -3944.1507            0    5215.1413    17.154312    20.205514    20.928221    7253.9661    5578.4475    5045.4375     5021.539    816.81893   -1451.0576   -1060.0021     -2935.94 
 5713000    253.43796   -3882.8773   -3448.4933   -3882.8773            0    6022.1127    17.186412    20.243323    20.967383    7294.7641    5621.1275    7218.7414    5226.4693    -473.5561    464.93587    636.78374   -2807.8209 
 5714000     253.3426     -3923.62   -3489.3995     -3923.62            0    4756.7662     17.19439     20.25272    20.977116    7304.9276    5025.0451    6158.1103    3087.1431      1436.27   -299.42926   -256.21083    -2982.638 
 5715000    239.83792   -3954.1095   -3543.0355   -3954.1095            0    5175.9279    17.160169    20.212413    20.935367     7261.399    5984.1488    4245.0118    5298.6232    298.91938    950.58107   -886.83619   -2994.9045 
 5716000    244.66135   -3900.5852    -3481.244   -3900.5852            0    4364.3491    17.205056    20.265283    20.990128    7318.5302     6607.968    3495.8608    2989.2186    442.03034   -2190.9993   -1345.9212   -3015.4228 
 5717000    260.98338   -3951.7394   -3504.4228   -3951.7394            0    3878.4431     17.17993    20.235688    20.959475    7286.5135    3030.2029    4693.8704     3911.256    1123.6642    798.72305   -1039.7492   -3092.2749 
 5718000    245.15536   -3895.6946   -3475.5067   -3895.6946            0    5568.7878    17.213132    20.274795     20.99998    7328.8403    4761.8712    6293.9755    5650.5168   -1130.6632    341.91369    1647.0574   -2880.2945 
 5719000     255.8099   -3889.4544    -3451.005   -3889.4544            0    4617.1322    17.192479    20.250469    20.974784    7302.4917    5923.7931    3494.8642    4432.7394    144.65436   -858.92659    707.21008   -2959.2834 
 5720000    244.50425   -3916.2436   -3497.1717   -3916.2436            0    5690.3301    17.117261    20.161872    20.883018    7207.0643    6725.4892    5887.2584    4458.2426    934.93461    514.48782   -403.24425   -2899.0745 
 5721000    251.07416   -3910.7389   -3480.4063   -3910.7389            0    3992.4962    17.163334    20.216141    20.939228    7265.4176    2154.6331    3960.2001    5862.6555    -650.1607   -1109.4301   -411.44735   -3057.3668 
 5722000    247.00633   -3947.2922   -3523.9318   -3947.2922            0     5789.148    17.137339    20.185521    20.907513    7232.4546    6010.5054    5514.6222    5842.3163     206.2717   -281.31091    225.28176   -2913.3044 
 5723000    242.60863    -3908.412   -3492.5891    -3908.412            0    7469.0764    17.127453    20.173877    20.895452    7219.9453    9261.7497     5837.122    7308.3573   -443.34675   -119.87339    1024.0475    -2706.129 
 5724000    243.46796   -3899.0854   -3481.7896   -3899.0854            0    4504.9418    17.206398    20.266864    20.991765    7320.2427    4401.7263    3281.7257    5831.3734    1031.4894   -1648.3052   -1098.8031     -3000.85 
 5725000    262.00171   -3955.8724   -3506.8104   -3955.8724            0    7525.2512    17.120288    20.165437    20.886711    7210.8882    6122.4621    7631.2577    8822.0338    1486.5966   -88.197549    273.09285   -2715.4294 
 5726000    250.48672   -3931.4036   -3502.0779   -3931.4036            0    4069.3799    17.273519    20.345923    21.073652    7406.2441    6235.1425    2275.9434    3697.0538    352.23994     255.8162    903.22991   -3062.5342 
 5727000    267.75026   -3898.8712   -3439.9564   -3898.8712            0    6688.2094    17.209974    20.271076    20.996128    7324.8073    6697.4797    6679.9443    6687.2042   -1707.6563    1124.3831    1970.8887   -2725.4898 
 5728000    257.23749   -3894.2534   -3453.3571   -3894.2534            0    8055.0717    17.166724    20.220133    20.943363    7269.7228    7920.4034    8888.4707    7356.3411   -431.31167    525.71449    576.35538   -2599.3467 
 5729000    259.87788   -3940.2288    -3494.807   -3940.2288            0    5929.3592    17.205148    20.265391     20.99024    7318.6471    4909.4566    6759.4009      6119.22   -545.42917   -515.95067   -314.74543   -2861.9371 
 5730000    258.45144   -3893.4796   -3450.5027   -3893.4796            0    4798.1675    17.227944    20.292242    21.018051    7347.7761    6426.6673    4117.5873    3850.2478   -611.27578    1077.9368   -382.74376   -2936.3321 
 5731000    258.99903   -3932.9365    -3489.021   -3932.9365            0    4821.9394    17.275413    20.348155    21.075964    7408.6814    4469.7302    6778.2205    3217.8676    706.24713   -1362.7862     3008.514     -2968.02 
 5732000      247.487   -3908.9628   -3484.7785   -3908.9628            0    5791.8193    17.183241    20.239588    20.963513    7290.7264    3178.0051    5483.4084    8714.0444   -1772.3906   -63.133356   -903.50726   -2868.9473 
 5733000    244.51202   -3910.6983   -3491.6131   -3910.6983            0    4856.4723    17.147853    20.197905     20.92034    7245.7744    3868.3813    4882.2391    5818.7964   -186.75868   -748.92159   -674.81379    -2978.419 
 5734000    252.83607   -3888.0337   -3454.6814   -3888.0337            0    7426.3604    17.127946    20.174458    20.896054    7220.5697    8338.7659    5078.5648    8861.7505    1365.4904    1176.1753   -165.04779   -2672.6514 
 5735000    244.26292   -3936.2036   -3517.5453   -3936.2036            0    5031.2861     17.20054    20.259964    20.984619    7312.7689    4426.5162     4863.694    5803.6481    -1245.279    1026.7635    774.70855   -2980.9625 
 5736000    249.10068   -3914.9534   -3488.0034   -3914.9534            0    5895.9456    17.128825    20.175494    20.897127    7221.6815    6312.4293    6465.2084    4910.1991   -572.73744    87.987205    271.11791   -2867.0376 
 5737000    245.19026   -3906.0958   -3485.8481   -3906.0958            0    3474.0732    17.186912    20.243912    20.967993    7295.4007    2677.7526    4268.7567    3475.7104   -99.434144    1031.3301   -131.56438   -3116.2208 
 5738000    244.93662   -3876.5832   -3456.7702   -3876.5832            0    4764.8552    17.189928    20.247465    20.971672    7299.2419     3877.364      5110.39    5306.8117   -763.27534   -962.57188    306.49162    -2949.542 
 5739000    245.18085   -3905.1702   -3484.9386   -3905.1702            0    4839.5948    17.189146    20.246544    20.970718    7298.2464    6161.0659     3738.842    4618.8767    -145.2344   -1060.1386   -181.56479   -2969.8246 
 5740000    259.33281   -3919.2253   -3474.7377   -3919.2253            0    4729.2041    17.163109    20.215876    20.938953    7265.1319    5172.1777    3143.9963    5871.4383   -407.38823   -507.90798   -1092.2076   -2973.6573 
 5741000    239.37757   -3903.0619   -3492.7769   -3903.0619            0    6039.0084    17.100742    20.142415    20.862865    7186.2187     5636.512    6156.1537    6324.3594   -2142.3956   -468.45906   -119.29958   -2859.8669 
 5742000    259.56521   -3893.0827   -3448.1968   -3893.0827            0     4049.362    17.235769    20.301459    21.027598    7357.7934    3090.8745     4450.382    4606.8295    13.855104    412.39905   -757.04302   -3013.6765 
 5743000    262.02643   -3876.2157   -3427.1114   -3876.2157            0    5332.0236    17.297512    20.374184    21.102924    7437.1489    7414.7193    4881.5681    3699.7833    814.19338   -53.866421    162.78589   -2848.7831 
 5744000     263.2103   -3917.6629   -3466.5295   -3917.6629            0    6749.8174    17.303097    20.380763    21.109738    7444.3556    5619.1447    7544.5289    7085.7785   -1488.8081    735.81959    294.62718   -2733.7134 
 5745000    260.37078   -3892.7939   -3446.5273   -3892.7939            0    7163.1715    17.214649    20.276582    21.001831    7330.7784    7691.2031    5902.1195    7896.1918    -100.5235    1175.3478   -998.49862   -2680.6991 
 5746000    254.79096   -3909.1535   -3472.4505   -3909.1535            0    5234.4908    17.176962    20.232192    20.955853    7282.7369    4422.8552    5296.4265    5984.1906     1371.462    -58.11151    2061.3195   -2916.4887 
 5747000    245.01273   -3906.5355   -3486.5921   -3906.5355            0     4795.928     17.17288    20.227385    20.950874    7277.5471     4073.152    4371.4712    5943.1607    -795.4326   -1150.9813   -766.29057   -2977.5736 
 5748000    251.00757   -3883.1007   -3452.8823   -3883.1007            0    6340.9946    17.210737    20.271975    20.997059    7325.7817    6237.7439    6292.5388    6492.7012    165.24515   -351.81531   -864.13644   -2775.4167 
 5749000    247.97205   -3928.1564   -3503.1407   -3928.1564            0    3964.6913     17.21155    20.272933    20.998051    7326.8205    4581.2509    3650.0488    3662.7741    373.86812    -909.7297   -325.33267    -3079.497 
 5750000    255.79902   -3888.7273   -3450.2966   -3888.7273            0    7744.8245    17.236428    20.302236    21.028402    7358.6376    8391.4357     5547.144    9295.8939     609.2215    -1010.179    268.94057   -2619.1361 
Loop time of 543.462 on 64 procs for 250000 steps with 864 atoms

Performance: 79.490 ns/day, 0.302 hours/ns, 460.014 timesteps/s
99.2% CPU use with 64 MPI tasks x 1 OpenMP threads

MPI task timing breakdown:
Section |  min time  |  avg time  |  max time  |%varavg| %total
---------------------------------------------------------------
Pair    | 21.026     | 25.837     | 30.61      |  44.9 |  4.75
Bond    | 0.28683    | 0.29644    | 0.31191    |   1.2 |  0.05
Kspace  | 229.32     | 244.54     | 259.96     |  42.5 | 45.00
Neigh   | 4.6832     | 5.9002     | 7.7123     |  31.2 |  1.09
Comm    | 119.63     | 135.96     | 149.86     |  61.3 | 25.02
Output  | 1.3291     | 1.33       | 1.3353     |   0.1 |  0.24
Modify  | 120.3      | 123.35     | 127.85     |  14.1 | 22.70
Other   |            | 6.244      |            |       |  1.15

Nlocal:        13.5000 ave          20 max           7 min
Histogram: 1 2 2 16 8 13 19 2 0 1
Nghost:        2175.17 ave        2216 max        2138 min
Histogram: 4 8 6 12 6 7 6 7 2 6
Neighs:        4198.17 ave        6631 max        2046 min
Histogram: 1 3 6 11 17 11 9 5 0 1

Total # of neighbors = 268683
Ave neighs/atom = 310.97569
Ave special neighs/atom = 2.0000000
Neighbor list builds = 13106
Dangerous builds = 0

unfix		3
unfix		2
unfix		1

write_data	data.final.${pid}
write_data	data.final.0
System init for write_data ...
PPPM initialization ...
  extracting TIP4P info from pair style
  using 12-bit tables for long-range coulomb (../kspace.cpp:340)
  G vector (1/distance) = 0.37456223
  grid = 24 24 25
  stencil order = 5
  estimated absolute RMS force accuracy = 0.0030387088
  estimated relative force accuracy = 9.1509813e-06
  using double precision FFTW3
  3d grid and FFT values/proc = 2730 288
Last active /omp style is kspace_style pppm/tip4p/omp
WARNING: Not all mixed pair coeffs generated from mixing. Use write_data with 'pair ij' option to store all pair coeffs. (../write_data.cpp:312)

write_restart   restart.lmp.${pid}
write_restart   restart.lmp.0
System init for write_restart ...
PPPM initialization ...
  extracting TIP4P info from pair style
  using 12-bit tables for long-range coulomb (../kspace.cpp:340)
  G vector (1/distance) = 0.37456223
  grid = 24 24 25
  stencil order = 5
  estimated absolute RMS force accuracy = 0.0030387088
  estimated relative force accuracy = 9.1509813e-06
  using double precision FFTW3
  3d grid and FFT values/proc = 2730 288
Last active /omp style is kspace_style pppm/tip4p/omp
Total wall time: 0:09:07
