LAMMPS data file via write_data, version 30 Jul 2021, timestep = 8000000

864 atoms
2 atom types
576 bonds
1 bond types
288 angles
1 angle types

0.12056855702978098 18.087003842972923 xlo xhi
0.06790418511840457 23.561273614881742 ylo yhi
0.15571332844951336 22.05748247154625 zlo zhi

Masses

1 1.00794
2 15.9994

Atoms # full

707 1 1 0.5897 2.97055705631811 1.5092583186756083 3.9869357200667164 0 0 0
706 1 2 -1.1794 3.136791386761619 1.6225995523619803 3.0511441985715906 0 0 0
30 1 1 0.5897 5.089273296498 3.939986195575705 2.654203664742677 0 0 0
708 1 1 0.5897 2.349776247965698 2.0537097237019566 2.718085573093683 0 0 0
29 1 1 0.5897 4.4145832437676615 2.5878608210821974 2.562846201526729 0 0 0
28 1 2 -1.1794 5.203918812498649 3.0594454156756665 2.2968675620225265 0 0 0
846 1 1 0.5897 7.348328847317168 1.6420906341039134 4.71194569015534 0 0 0
597 1 1 0.5897 0.67099579568032 5.679437361715286 4.111791341773722 0 0 0
495 1 1 0.5897 8.255490508762477 2.294448773346533 2.7499796677854307 0 0 0
494 1 1 0.5897 6.743413891796856 2.359148976085001 2.785311451183026 0 0 0
493 1 2 -1.1794 7.484486452202057 1.8183107359562651 3.0582647165670576 0 0 0
3 1 1 0.5897 0.7206468610648328 3.9815117305780556 2.524785746368685 0 0 0
136 1 2 -1.1794 5.08253141916112 5.623059967741062 3.20054663184569 0 0 0
1 1 2 -1.1794 0.7962042850326184 3.100441739850906 2.158471772009918 0 0 0
137 1 1 0.5897 5.117230134087282 5.681753588115501 4.155279895457342 0 0 0
20 1 1 0.5897 0.9005863104894704 2.97575036539359 0.34765433652082767 0 0 0
595 1 2 -1.1794 0.4781615244997884 5.697474375918216 3.174427265906275 0 0 0
668 1 1 0.5897 5.31837121360692 3.0966355320102386 0.415598368632227 0 0 0
138 1 1 0.5897 4.202765437785629 5.9240909629726834 2.9734160303810193 0 0 0
83 1 1 0.5897 4.135445109839288 2.5452733366708093 6.302605460687388 0 0 0
34 1 2 -1.1794 0.9986622859855118 2.982114418304943 9.186618677465217 0 0 0
356 1 1 0.5897 7.469402150548796 1.1628154886072746 9.726943721919863 0 0 0
784 1 2 -1.1794 0.4989000078606948 2.932598818218489 6.54748548354514 0 0 0
488 1 1 0.5897 1.9657090221508386 2.0756377409458144 5.9551607167652865 0 0 0
35 1 1 0.5897 1.2095754885414436 3.885463174119432 9.422560888886784 0 0 0
82 1 2 -1.1794 4.946209074599021 3.027469987686271 6.464846168573991 0 0 0
844 1 2 -1.1794 7.275272448574574 1.6353472039049086 5.666308156877172 0 0 0
357 1 1 0.5897 7.551526793419397 2.0401438739545257 10.957921805510614 0 0 0
489 1 1 0.5897 2.8302897026393192 0.8462965984426073 6.136772504852397 0 0 0
355 1 2 -1.1794 7.310684641119763 2.0561950325373832 10.031688505887184 0 0 0
274 1 2 -1.1794 4.970453672806641 3.2519804734741964 9.162419043782881 0 0 0
678 1 1 0.5897 5.415386797906281 4.964791546799514 9.686479608785948 0 0 0
419 1 1 0.5897 8.766913952013063 2.495659358781424 6.141021643042868 0 0 0
36 1 1 0.5897 1.7131317358263003 2.4641884239647105 9.55740062175654 0 0 0
686 1 1 0.5897 5.607394202488111 4.639243493222566 6.144627979486837 0 0 0
674 1 1 0.5897 3.71032565510313 2.2515610316219874 10.133225359216155 0 0 0
673 1 2 -1.1794 3.0371500253342183 1.715390047187129 10.552210629095882 0 0 0
276 1 1 0.5897 5.769975785566412 2.801543097682682 9.434562880853438 0 0 0
675 1 1 0.5897 3.2501425026758897 0.818413414130624 10.294755312843938 0 0 0
275 1 1 0.5897 4.991997770384965 3.2222817567738833 8.205958874161212 0 0 0
84 1 1 0.5897 5.6395449850970945 2.437575222450676 6.169057731526843 0 0 0
183 1 1 0.5897 1.0041591476432523 4.659567057350182 6.0117435886945385 0 0 0
785 1 1 0.5897 0.5575325664180706 2.9293906950456243 7.5028460521974125 0 0 0
845 1 1 0.5897 7.268558585584788 0.707142463776933 5.899926398613286 0 0 0
181 1 2 -1.1794 1.0908657179595185 5.592306941425295 5.815121653715962 0 0 0
676 1 2 -1.1794 5.599892667104081 5.771408806584973 10.16766449967174 0 0 0
112 1 2 -1.1794 1.1198408623509466 5.680530686789711 10.46737015996025 0 0 0
685 1 2 -1.1794 5.694254421093884 5.568658375529445 5.932918121534895 0 0 0
487 1 2 -1.1794 2.79602908918914 1.686868167061272 5.680190359785528 0 0 0
166 1 2 -1.1794 3.0644678466378057 2.1277963626347054 13.398859247142061 0 0 0
167 1 1 0.5897 2.8617077194801404 1.8847156537918623 12.495541026441273 0 0 0
457 1 2 -1.1794 5.484356317440746 3.317900460435734 14.049356671445112 0 0 0
458 1 1 0.5897 6.244958452350541 2.805248061950846 13.775772686255838 0 0 0
459 1 1 0.5897 4.73203592526094 2.82259821405563 13.725525781046825 0 0 0
762 1 1 0.5897 5.5020221958159485 4.993586334558045 13.322163105017973 0 0 0
594 1 1 0.5897 8.48473914149833 2.4108679545052754 13.284614995998206 0 0 0
168 1 1 0.5897 2.231300689013709 2.432794509184511 13.758053444260833 0 0 0
468 1 1 0.5897 0.593804957335061 3.1208478675092226 15.177278165127841 0 0 0
592 1 2 -1.1794 7.740493406587509 1.9709831768031116 12.873794170855057 0 0 0
365 1 1 0.5897 0.8937208687004916 5.136958323873467 13.871769342472918 0 0 0
71 1 1 0.5897 5.185409807200374 3.303243710942219 15.920687484737362 0 0 0
593 1 1 0.5897 7.763654727232916 1.081089668005189 13.22556003128393 0 0 0
466 1 2 -1.1794 0.5884038423034944 3.290437321078997 14.235258839935852 0 0 0
737 1 1 0.5897 2.864569203014682 0.3219524569267122 13.784110084540124 0 1 0
364 1 2 -1.1794 0.8701156895196116 5.8706363548590055 13.257488568319644 0 0 0
760 1 2 -1.1794 5.5248278086527165 5.914957079675715 13.06382593272727 0 0 0
761 1 1 0.5897 5.532879671159166 5.895746163226878 12.106889033957057 0 0 0
113 1 1 0.5897 1.030924507982352 5.68742889242817 11.420376398301247 0 0 0
291 1 1 0.5897 2.0374227810763537 2.1986174366080817 17.51028770184734 0 0 0
40 1 2 -1.1794 7.697752858867568 1.620537727272327 20.3403226419816 0 0 0
571 1 2 -1.1794 0.6812638371898151 5.658997787578309 17.740926514006645 0 0 0
755 1 1 0.5897 7.318939469957998 2.030052170588063 18.551560793240824 0 0 0
754 1 2 -1.1794 7.218228704668804 1.9588111584334986 17.602365081694984 0 0 0
667 1 2 -1.1794 5.4002322515885135 3.118508311065283 21.36395823523489 0 0 0
289 1 2 -1.1794 2.912836169920477 1.8143686230888973 17.557018628235554 0 0 0
756 1 1 0.5897 6.359073584955242 2.340735243398406 17.42285315145734 0 0 0
143 1 1 0.5897 5.233068106254289 4.871018653007545 20.657481179470615 0 0 0
569 1 1 0.5897 2.559645469785998 2.215149481130803 20.682365695029738 0 0 0
134 1 1 0.5897 0.4645216905974374 3.89999582796664 17.275889070532934 0 0 0
570 1 1 0.5897 3.429028460614936 1.802470308286203 19.513776377020044 0 0 0
278 1 1 0.5897 5.024097965870044 4.9714137879195475 17.339945729506468 0 0 0
669 1 1 0.5897 4.689898773881469 2.5594505521705884 21.049220750226837 0 0 0
277 1 2 -1.1794 5.145568286838558 5.87297809460835 17.637631644308605 0 0 0
290 1 1 0.5897 2.782378866046511 0.8923958375250682 17.33537748495941 0 0 0
568 1 2 -1.1794 3.3217806808821817 1.6816370133703265 20.457212092435398 0 0 0
41 1 1 0.5897 7.04919628390894 2.2002155761708857 20.73975038793727 0 0 0
21 1 1 0.5897 0.6011627302082743 3.658394183946023 20.931821868542983 0 0 0
133 1 2 -1.1794 0.5485765458944922 2.969160002991824 17.069276867477818 0 0 0
42 1 1 0.5897 7.57929110603266 0.7830279641546648 20.788346714956788 0 0 0
648 1 1 0.5897 0.22650869001924429 5.615586983058424 19.45903303817677 0 0 0
144 1 1 0.5897 5.145142523790154 5.628906888114996 19.34996003324872 0 0 0
19 1 2 -1.1794 0.8956565405235152 2.827114657803487 21.303879665495195 0 0 0
323 1 1 0.5897 7.489009852491003 0.323767474528419 16.861959842007522 0 1 0
72 1 1 0.5897 4.178573004555801 3.0156537471663842 17.013999410909456 0 0 0
142 1 2 -1.1794 5.234231162679095 5.7566559048267845 20.294376489969423 0 0 0
70 1 2 -1.1794 5.0501553495821225 3.382143144015012 16.86496079412713 0 0 0
599 1 1 0.5897 8.864155196572751 2.755364364169777 17.19639712240258 0 0 0
647 1 1 0.5897 0.9035032821514335 5.8072259000969755 20.799446825785786 0 0 0
255 1 1 0.5897 1.8441703519014978 6.575608683372407 2.484095226793809 0 0 0
123 1 1 0.5897 3.2971919126028353 8.64347973849659 2.735954113034293 0 0 0
121 1 2 -1.1794 3.4335379935716017 9.537998439488428 3.0480828641373683 0 0 0
122 1 1 0.5897 3.5739840635849025 9.444608607292619 3.990270857771469 0 0 0
44 1 1 0.5897 1.8041351754099093 10.248650404623667 2.613579536896188 0 0 0
218 1 1 0.5897 6.182280301946283 10.523198629703876 2.4361612087825404 0 0 0
773 1 1 0.5897 8.936691978531139 10.637190685248967 2.067329740648812 0 0 0
219 1 1 0.5897 4.671236567308324 10.613999630319377 2.4521409605955107 0 0 0
416 1 1 0.5897 6.4804861837218235 6.673487282003679 2.437264248418257 0 0 0
217 1 2 -1.1794 5.455126775030497 11.088049320617118 2.1746881808775123 0 0 0
254 1 1 0.5897 2.7769244190685805 6.883007858798867 1.3320461048141445 0 0 0
415 1 2 -1.1794 7.257522716435645 7.149921923815481 2.145029054347895 0 0 0
417 1 1 0.5897 7.991363669778138 6.588546507249379 2.3950528555739696 0 0 0
66 1 1 0.5897 7.628236732096726 9.606820644328343 3.925409030140262 0 0 0
65 1 1 0.5897 7.638417858692997 8.820347557696486 2.6319306716322757 0 0 0
64 1 2 -1.1794 7.703291195880628 9.710843015128068 2.976876435878234 0 0 0
253 1 2 -1.1794 2.730423528685754 6.879431587155122 2.2880731947977284 0 0 0
43 1 2 -1.1794 0.9809305229094957 10.488607314222069 2.1882187299200213 0 0 0
162 1 1 0.5897 7.318890124110366 7.1659245715725595 0.3201558770465599 0 0 1
396 1 1 0.5897 1.435411685142078 10.508637206378122 0.39968566082302603 0 0 0
45 1 1 0.5897 0.8679922978889845 11.417285476494925 2.3906636545423123 0 0 0
363 1 1 0.5897 5.272360403634789 10.719946326308785 0.2601191649862405 0 0 1
550 1 2 -1.1794 0.7997576789087263 10.95395210204792 6.4804941756446395 0 0 0
687 1 1 0.5897 4.919418537459228 5.976327396936448 6.319713520340054 0 0 0
10 1 2 -1.1794 3.31082126835907 6.8171185986512155 6.673764407983043 0 0 0
526 1 2 -1.1794 7.768610940941796 6.890425790131788 9.06202227607064 0 0 0
145 1 2 -1.1794 7.9882235809439335 6.985092855310243 6.366291100217838 0 0 0
580 1 2 -1.1794 5.588923418419159 11.161280460237846 9.683557515104276 0 0 0
146 1 1 0.5897 7.2425029991654 6.455925307151523 6.083314117198873 0 0 0
822 1 1 0.5897 8.501288550900078 9.886470391208139 9.88581241978267 0 0 0
114 1 1 0.5897 1.8721901238190302 6.24581759683721 10.292439670808792 0 0 0
258 1 1 0.5897 4.152190165981695 10.209449943488535 10.116363372292327 0 0 0
650 1 1 0.5897 3.293523903104673 6.858048661237445 8.670379151188873 0 0 0
795 1 1 0.5897 3.935483067357161 9.702757905539414 6.361211155049936 0 0 0
527 1 1 0.5897 7.84002791126693 7.797265725493993 9.359886676532298 0 0 0
15 1 1 0.5897 1.8668189378458293 10.78905390556793 9.50108252868781 0 0 0
794 1 1 0.5897 2.4253738398890974 9.807720069595826 6.379570233099642 0 0 0
581 1 1 0.5897 6.283450158477497 10.545876216197438 9.918317015584305 0 0 0
147 1 1 0.5897 8.017269792853785 6.870294369818838 7.316114376446886 0 0 0
713 1 1 0.5897 8.44888309108618 9.887118101648353 5.974596939333177 0 0 0
649 1 2 -1.1794 3.2407530020546393 7.158391377485704 9.57768555437478 0 0 0
577 1 2 -1.1794 5.45514533614825 10.515834943165816 7.036388105169667 0 0 0
793 1 2 -1.1794 3.147251414056879 9.35197129937078 5.946704529599976 0 0 0
528 1 1 0.5897 8.408383566662993 6.413201617329628 9.590340154709866 0 0 0
578 1 1 0.5897 6.164957964451504 9.962046212847234 6.711323523360174 0 0 0
257 1 1 0.5897 3.3314307895432256 8.938327286076555 10.067294002320793 0 0 0
13 1 2 -1.1794 0.9969666279879359 11.088436344684903 9.236682780313172 0 0 0
820 1 2 -1.1794 7.7266507346468325 9.40728805430047 10.179930364829985 0 0 0
11 1 1 0.5897 2.5977288184503142 6.465552428421119 6.140773988873039 0 0 0
256 1 2 -1.1794 3.2674449332589233 9.87369494629972 10.260145964561579 0 0 0
12 1 1 0.5897 3.2817929640949584 7.761516880452212 6.520638255354535 0 0 0
582 1 1 0.5897 5.5963878799086455 11.177844069063738 8.726556408146228 0 0 0
677 1 1 0.5897 6.318367716549589 6.179864392583636 9.684827991465275 0 0 0
651 1 1 0.5897 4.000167071389463 6.7631983474073225 10.005835310488422 0 0 0
551 1 1 0.5897 0.7455643233529603 11.05252927737841 7.431024169160249 0 0 0
712 1 2 -1.1794 7.60600583447674 9.516186321196875 5.713548805499226 0 0 0
714 1 1 0.5897 7.7024345245269314 8.57512606969239 5.859446501968726 0 0 0
579 1 1 0.5897 5.560602828857734 11.342340967418883 6.565276902099992 0 0 0
182 1 1 0.5897 0.30374643704466336 5.990146669128425 6.18706337280337 1 0 0
828 1 1 0.5897 7.843034945605537 7.031360837287737 15.032264242793941 0 0 0
827 1 1 0.5897 7.0790684033707265 6.635037826407011 13.786847221162729 0 0 0
332 1 1 0.5897 3.3397907944608516 8.098225838977747 13.785669041520462 0 0 0
797 1 1 0.5897 3.0129953283567676 9.770353398188227 12.044062846665732 0 0 0
796 1 2 -1.1794 3.035500396610688 9.675872817820123 12.996291434529153 0 0 0
798 1 1 0.5897 2.2636523685233882 10.15166199113112 13.302966062001513 0 0 0
722 1 1 0.5897 4.860652162220006 10.330637176777222 13.396528329755826 0 0 0
225 1 1 0.5897 2.8481000109428276 7.087042610426184 15.7653799802423 0 0 0
259 1 2 -1.1794 0.7796864689014646 11.225496465777795 13.878840353657315 0 0 0
261 1 1 0.5897 0.6712761950614806 11.126986343433359 14.82473134330305 0 0 0
723 1 1 0.5897 5.515702202533406 10.842820110715158 14.66157310971516 0 0 0
331 1 2 -1.1794 3.316590597572769 7.2030091497576585 14.123666142250457 0 0 0
333 1 1 0.5897 4.169188074066272 6.836061041449566 13.889907504749 0 0 0
826 1 2 -1.1794 7.886205386898697 7.060264061872023 14.076497353394691 0 0 0
475 1 2 -1.1794 8.078421087324436 9.611511527713086 13.031667518577077 0 0 0
476 1 1 0.5897 7.3077264533092565 10.169075918613848 13.138114685532782 0 0 0
477 1 1 0.5897 7.857881124914754 8.805563602902236 13.498561497053135 0 0 0
721 1 2 -1.1794 5.619685094516059 10.822181327596718 13.710297579725973 0 0 0
366 1 1 0.5897 1.6994957228948817 6.327610098203369 13.397428216852605 0 0 0
260 1 1 0.5897 0.14937824197577262 10.61284589199114 13.49995054286153 0 0 0
821 1 1 0.5897 7.8067656955932785 9.38373516937477 11.133495761055443 0 0 0
679 1 2 -1.1794 5.269930786610402 11.057067169336074 16.28706653087586 0 0 0
160 1 2 -1.1794 7.3744932711345035 7.215132704541367 21.26764066647266 0 0 0
224 1 1 0.5897 2.863208390369499 7.9875999282075965 16.982143227441277 0 0 0
7 1 2 -1.1794 7.342965359392621 9.611614605950113 17.382024539449112 0 0 0
139 1 2 -1.1794 7.595684098782873 9.825093598680878 20.128352185336787 0 0 0
223 1 2 -1.1794 2.836688435025874 7.066757185639644 16.722261118302292 0 0 0
9 1 1 0.5897 6.586027248045362 10.02393936613873 16.96584227358607 0 0 0
141 1 1 0.5897 7.636544637421805 8.949368181172845 20.51255514599979 0 0 0
521 1 1 0.5897 6.555404525088632 6.5893848962991175 16.946322208765906 0 0 0
572 1 1 0.5897 1.449086867062989 6.110336926970455 17.39030334989998 0 0 0
161 1 1 0.5897 6.592111609810428 6.758986947124809 20.95782542017176 0 0 0
690 1 1 0.5897 2.509790848641997 9.602965350495468 20.75745048423545 0 0 0
625 1 2 -1.1794 3.1517548208240047 9.597131202786377 17.728068772747207 0 0 0
688 1 2 -1.1794 3.129728688837654 8.920863338643743 20.499393412533188 0 0 0
140 1 1 0.5897 6.788025849155998 10.202575122486554 20.476765220166804 0 0 0
394 1 2 -1.1794 1.29805315102154 10.564379323204973 21.355832626031805 0 0 0
689 1 1 0.5897 3.9909676334092743 9.303583043537659 20.666641685062032 0 0 0
4 1 2 -1.1794 2.698232911749954 6.46841247697932 21.321216483928268 0 0 0
626 1 1 0.5897 2.986878640497221 9.350224672481412 18.638023482124346 0 0 0
680 1 1 0.5897 4.452618156800731 10.679483836477921 16.61205967550933 0 0 0
6 1 1 0.5897 2.7657064432874328 7.392187693359135 21.079814145246544 0 0 0
627 1 1 0.5897 2.296888782310338 9.869617490970173 17.394685551686564 0 0 0
8 1 1 0.5897 7.212448437717771 9.760212166474581 18.31853848993198 0 0 0
361 1 2 -1.1794 5.232271321136065 10.72560603551936 21.20558048553795 0 0 0
520 1 2 -1.1794 7.426987325363178 6.942210949720826 16.767259709619545 0 0 0
5 1 1 0.5897 3.5192800270443434 6.080654477252849 21.018378489985608 0 0 0
462 1 1 0.5897 8.94144699839712 6.287161399126214 20.93627793101797 0 0 0
445 1 2 -1.1794 0.7524988430752559 11.091559924420554 16.69319751196435 0 0 0
279 1 1 0.5897 4.334088853384939 6.3178344480827064 17.39312962522944 0 0 0
522 1 1 0.5897 7.353403922568531 7.875690240806828 16.96573932309318 0 0 0
362 1 1 0.5897 5.1517532899899035 11.65090467703726 20.97424144333445 0 0 0
711 1 1 0.5897 8.8655146074065 6.283413721109683 17.709454244475367 0 0 0
246 1 1 0.5897 8.953252096261345 10.329597043679195 17.117748942918546 0 0 0
395 1 1 0.5897 0.4949396448709251 10.0673935392879 21.200289912843083 0 0 0
373 1 2 -1.1794 0.6140620866764988 13.227614513688517 2.8912248063979926 0 0 0
173 1 1 0.5897 4.379884121851015 13.97885705641203 2.9183437098950096 0 0 0
172 1 2 -1.1794 5.209937823690973 13.599826879981466 3.207341941202059 0 0 0
293 1 1 0.5897 2.7191654006629955 16.795577779039416 2.563962475112102 0 0 0
558 1 1 0.5897 2.9770220946528227 14.936550562459022 1.1293267340459046 0 0 0
556 1 2 -1.1794 2.904086124955305 14.974594881936829 2.08294900068533 0 0 0
557 1 1 0.5897 2.219986388509006 14.34019151308458 2.2968116642002125 0 0 0
478 1 2 -1.1794 7.312759666762065 14.795743605963066 1.8674780763776215 0 0 0
200 1 1 0.5897 5.282427822419467 13.513588792062796 5.132889285021547 0 0 0
174 1 1 0.5897 5.153751692717582 12.678258133952486 2.954873685077004 0 0 0
479 1 1 0.5897 8.042142283362402 14.486506753504063 2.4046433054289977 0 0 0
449 1 1 0.5897 7.319429363386027 16.49812926939084 2.4748045400178174 0 0 0
480 1 1 0.5897 6.540939887063197 14.373943121708603 2.2450371058598257 0 0 0
374 1 1 0.5897 0.6845165294722553 13.452378778894234 3.8189537026696305 0 0 0
308 1 1 0.5897 6.9373180559229635 17.24241885824026 4.453082500551229 0 0 0
294 1 1 0.5897 2.8047432260531506 17.58305639780631 3.854040538952606 0 0 0
292 1 2 -1.1794 2.649113076110387 17.683321268128974 2.9149484371791337 0 0 0
448 1 2 -1.1794 7.40318293574241 17.371467269329685 2.857483649414926 0 0 0
307 1 2 -1.1794 6.82267091147959 17.235739565879722 5.403351825919239 0 0 0
199 1 2 -1.1794 5.351381395699238 13.37493451757304 6.077453014565442 0 0 0
186 1 1 0.5897 7.604158012036197 16.69351651602482 10.13203786178867 0 0 0
766 1 2 -1.1794 0.6955823607519571 13.61853280403559 10.386210463985927 0 0 0
519 1 1 0.5897 8.254413819169374 14.588784023276569 6.706467435273848 0 0 0
811 1 2 -1.1794 3.0181841453061433 15.009544350382638 9.507620752601607 0 0 0
454 1 2 -1.1794 5.234619160836365 13.818606299626214 10.460689972474038 0 0 0
813 1 1 0.5897 2.3213537561978805 14.431974211978112 9.819092045622481 0 0 0
17 1 1 0.5897 3.0973091336431615 14.862417221425394 7.726203203345901 0 0 0
384 1 1 0.5897 2.9400161129685967 16.934248832994243 9.874727048856087 0 0 0
377 1 1 0.5897 6.860528770764911 14.445567316720693 10.004069620057118 0 0 0
376 1 2 -1.1794 7.608511069510288 14.9628760178893 9.705580240141776 0 0 0
238 1 2 -1.1794 2.9279080008363745 17.331111305017348 5.650520431044999 0 0 0
456 1 1 0.5897 5.340737957558891 12.900161277639603 10.212938104340068 0 0 0
812 1 1 0.5897 3.8280630632663692 14.567249896786484 9.761874395152532 0 0 0
14 1 1 0.5897 0.9512130209893132 11.99388605650923 9.543692064974156 0 0 0
656 1 1 0.5897 1.5072008713825908 14.107728373226077 6.189308902185746 0 0 0
16 1 2 -1.1794 3.0997233168718337 14.805090758030543 6.7707556978009285 0 0 0
517 1 2 -1.1794 7.406293886264904 14.966266262693342 6.9397010859650985 0 0 0
18 1 1 0.5897 3.9640378621315793 14.455912616244909 6.5534816773158715 0 0 0
378 1 1 0.5897 7.530514060221256 14.96923254355562 8.751616548538058 0 0 0
518 1 1 0.5897 7.214328627191076 15.581012082121777 6.231598107945289 0 0 0
201 1 1 0.5897 6.1822300922754705 13.783675784505256 6.319972139797461 0 0 0
552 1 1 0.5897 0.8627113828703461 11.849875553264729 6.149518526876092 0 0 0
184 1 2 -1.1794 7.582234706428094 17.526440901682502 10.603133535959163 0 0 0
239 1 1 0.5897 2.968597722049338 16.464277643684202 6.054409461460267 0 0 0
655 1 2 -1.1794 0.785048150073249 13.730820294884962 5.686709095689141 0 0 0
429 1 1 0.5897 5.965035756135254 14.016512512670042 13.615754266345311 0 0 0
232 1 2 -1.1794 3.0822884772455708 15.258943622448935 13.974897949188556 0 0 0
234 1 1 0.5897 3.263811671888768 15.216329123276477 14.913725648360922 0 0 0
606 1 1 0.5897 3.0815356932194837 16.974979888196906 13.42695098852209 0 0 0
427 1 2 -1.1794 5.1775973617111735 13.551551744446213 13.333032270910278 0 0 0
233 1 1 0.5897 3.715025576423496 14.658618408311572 13.580649944917138 0 0 0
639 1 1 0.5897 1.6377651447234198 14.42913925223734 13.436067392714842 0 0 0
428 1 1 0.5897 5.329099103970566 12.642888618360884 13.592971651406595 0 0 0
637 1 2 -1.1794 0.834760214671023 14.004162765856302 13.134745752101812 0 0 0
297 1 1 0.5897 8.151374000653774 14.662336821355037 13.568617111594886 0 0 0
296 1 1 0.5897 7.507499161720005 15.068220988876348 14.877219153048067 0 0 0
295 1 2 -1.1794 7.377836050792968 15.095637572026146 13.929266449712546 0 0 0
270 1 1 0.5897 7.534225239087526 16.87836539268705 13.685342057833541 0 0 0
767 1 1 0.5897 0.7657658730328826 13.733584189759224 11.333856830261382 0 0 0
638 1 1 0.5897 0.899942196758638 13.107530460489878 13.463441259928612 0 0 0
455 1 1 0.5897 5.082284476648628 13.79624725333878 11.405405109337895 0 0 0
824 1 1 0.5897 3.8299569228893375 14.46327119105548 16.94510796967755 0 0 0
157 1 2 -1.1794 7.499575860861325 17.49798265844096 20.426185714024143 0 0 0
126 1 1 0.5897 6.045216336905211 13.991493473339423 17.32752751578643 0 0 0
51 1 1 0.5897 8.222859316249544 14.74083278598346 16.94773604644768 0 0 0
665 1 1 0.5897 2.4997756569047858 14.049415326101531 20.89133797625474 0 0 0
316 1 2 -1.1794 7.561326886048491 14.759898812657436 21.00992376868355 0 0 0
125 1 1 0.5897 5.374013535070737 13.644104668797201 18.639222898399026 0 0 0
584 1 1 0.5897 2.8373415345417263 16.733347458472856 17.214369705665682 0 0 0
684 1 1 0.5897 4.55135608084807 13.895087032691585 20.81820060678544 0 0 0
446 1 1 0.5897 0.8656948115839875 11.92657713552675 17.147212953383317 0 0 0
666 1 1 0.5897 2.843196635364661 15.521190735245746 20.80356674929419 0 0 0
318 1 1 0.5897 7.584834748614569 15.716311850933232 20.97926517489247 0 0 0
50 1 1 0.5897 7.31155738995733 15.906526302367578 17.267904095242663 0 0 0
52 1 2 -1.1794 0.9568214593683886 13.628141454873163 17.619670150623207 0 0 0
610 1 2 -1.1794 7.217573248842582 17.65231310516436 17.736838260727815 0 0 0
664 1 2 -1.1794 3.08152264484975 14.714219004678753 21.25982716356711 0 0 0
683 1 1 0.5897 6.0475150698007765 13.762556032815079 20.629059411489116 0 0 0
452 1 1 0.5897 0.7658787649060611 12.179578558980866 20.767802934668744 0 0 0
682 1 2 -1.1794 5.2212455256863155 13.30573094311971 20.471633721012715 0 0 0
124 1 2 -1.1794 5.327620580383373 13.477535088982798 17.697783902357195 0 0 0
451 1 2 -1.1794 0.8348489384508222 13.009007267171983 20.295068402159487 0 0 0
49 1 2 -1.1794 7.346539002890833 15.08578337285925 16.776635255459922 0 0 0
53 1 1 0.5897 1.0337674843865663 13.41290457595227 18.54914302818281 0 0 0
715 1 2 -1.1794 2.6844209461554436 17.230570939697017 19.9121256863734 0 0 0
823 1 2 -1.1794 3.0791655948148136 14.968434308538818 16.63317329838 0 0 0
825 1 1 0.5897 2.3186711597777276 14.524687701396857 17.00856946180425 0 0 0
159 1 1 0.5897 7.5531044053506 17.566113028262958 19.472841459298863 0 0 0
317 1 1 0.5897 7.503974933576375 14.551010594723953 21.942257372559887 0 0 -1
716 1 1 0.5897 2.708757759596825 17.54539033565473 19.00852821400887 0 0 0
453 1 1 0.5897 0.15444470790093945 13.56165496357473 20.679527403791546 0 0 0
583 1 2 -1.1794 2.6378302228187436 17.66672299209787 17.286364583615203 0 0 0
717 1 1 0.5897 3.5030730066340157 17.543076444240747 20.297251788936556 0 0 0
681 1 1 0.5897 5.366794872588326 11.875202270356457 16.774408289615472 0 0 0
267 1 1 0.5897 5.650702861322382 22.026836086954734 2.86081856574701 0 0 0
696 1 1 0.5897 0.7479594191948599 21.87518923985889 2.962103795717831 0 0 0
266 1 1 0.5897 4.138708781693069 21.9847687410058 2.7987308253740264 0 0 0
265 1 2 -1.1794 4.9001119932218575 21.46812342852302 3.062402272783145 0 0 0
188 1 1 0.5897 2.68015366138905 23.438994911551863 2.3581165828402653 0 0 0
228 1 1 0.5897 5.119564197376638 19.799607655785195 2.2737391450021773 0 0 0
344 1 1 0.5897 1.2008170548567856 18.532521713210944 2.1425337810531104 0 0 0
819 1 1 0.5897 7.370704192524403 23.510271121625347 2.708448925931555 0 -1 0
249 1 1 0.5897 5.150817148472844 21.34612278025398 4.879746290383447 0 0 0
226 1 2 -1.1794 4.96959759053366 18.892400563320813 2.00790485332793 0 0 0
695 1 1 0.5897 0.18973201077613244 20.497719393154995 2.6744800719447883 0 0 0
817 1 2 -1.1794 7.276860965398502 22.589623281542952 2.4638697342546965 0 0 0
450 1 1 0.5897 6.734430947445681 17.893053711790262 2.4137588578173954 0 0 0
189 1 1 0.5897 2.690863248339381 22.328006682858163 1.3298455114564762 0 0 0
343 1 2 -1.1794 0.4366683506677065 19.025876504832045 1.844422335413434 0 0 0
345 1 1 0.5897 0.4365124098174139 18.91662879515456 0.8935089342005654 0 0 0
818 1 1 0.5897 8.139795629749823 22.20887728922037 2.626861922032259 0 0 0
187 1 2 -1.1794 2.4034488320697758 22.533238221570045 2.2194757585098217 0 0 0
227 1 1 0.5897 4.1041284342600655 18.67992312745146 2.357176960002645 0 0 0
413 1 1 0.5897 0.6216290411529757 21.063671802684627 4.822932134639053 0 0 0
498 1 1 0.5897 7.247104389280676 22.552027398186873 0.7054962393582807 0 0 0
602 1 1 0.5897 4.869791977909212 18.541088397197868 0.18097669130297334 0 0 0
342 1 1 0.5897 0.6208095273098364 18.640213933824906 7.4454355173564695 0 0 0
248 1 1 0.5897 4.489601262760734 21.880030384847693 6.132532235885905 0 0 0
386 1 1 0.5897 5.673458152528425 18.33410976199835 6.521443104253602 0 0 0
701 1 1 0.5897 2.7503314866793755 22.56534778015555 7.51682030515685 0 0 0
247 1 2 -1.1794 5.246336826435004 21.377053493408546 5.831635468359577 0 0 0
414 1 1 0.5897 0.8180007526034307 20.31080113544952 6.121533517975571 0 0 0
32 1 1 0.5897 8.061282636020305 21.973477817218743 6.3962828200981185 0 0 0
85 1 2 -1.1794 7.581372212839731 22.811231600355914 9.435967113907946 0 0 0
39 1 1 0.5897 3.6601672695603216 22.37158694516071 9.663816334449653 0 0 0
37 1 2 -1.1794 2.837246822961975 22.682573280733152 9.286517046899116 0 0 0
86 1 1 0.5897 7.6568105623254725 22.72310559152423 8.485859265112332 0 0 0
385 1 2 -1.1794 4.990487502812782 18.804629442902513 6.999296614819624 0 0 0
100 1 2 -1.1794 5.412941987951152 18.7736914712429 9.684044103528173 0 0 0
102 1 1 0.5897 5.333956959677928 18.70732122482509 8.732439396137277 0 0 0
33 1 1 0.5897 6.56828629138554 22.220014481065203 6.440293885965967 0 0 0
555 1 1 0.5897 5.35653634077493 20.5881268101422 9.917219784608665 0 0 0
101 1 1 0.5897 6.26577818017202 18.38659500269265 9.881679048236546 0 0 0
38 1 1 0.5897 2.1589518648742754 22.20160693070163 9.760667719273272 0 0 0
553 1 2 -1.1794 5.258142398349628 21.507250104424337 10.165649673351531 0 0 0
94 1 2 -1.1794 0.578148344509133 21.549866693370248 10.234095796145533 0 0 0
31 1 2 -1.1794 7.40958547573373 22.631698610547176 6.637551870399381 0 0 0
404 1 1 0.5897 1.4589585081965863 18.534505445048733 9.522766570473946 0 0 0
383 1 1 0.5897 3.7756687546782226 18.182550085593522 10.06237954269385 0 0 0
554 1 1 0.5897 6.082424259348381 21.916523824512847 9.902509552158328 0 0 0
341 1 1 0.5897 1.3601629345203217 18.17966353181099 6.207297954620276 0 0 0
700 1 2 -1.1794 2.8944351139803093 22.625661840662072 6.572487462964925 0 0 0
403 1 2 -1.1794 0.6128389737453899 18.87384019395446 9.231019859119147 0 0 0
87 1 1 0.5897 8.21857730077232 22.188652952119384 9.786063777347598 0 0 0
387 1 1 0.5897 4.903367765947447 19.637416102156042 6.5355203481743604 0 0 0
702 1 1 0.5897 2.192154102592921 22.100703882451047 6.1885515247472815 0 0 0
340 1 2 -1.1794 0.5280049507604568 18.55373157949394 6.496715438818098 0 0 0
405 1 1 0.5897 0.570598864301805 19.75819820190348 9.594765099442759 0 0 0
185 1 1 0.5897 8.269117682606131 18.052133863927477 10.193242137051662 0 0 0
309 1 1 0.5897 7.5728494759154295 17.726400336490137 5.73901578071205 0 0 0
412 1 2 -1.1794 0.9660168001633199 21.162467185067225 5.710515211133765 0 0 0
301 1 2 -1.1794 8.973813244194282 18.40782965010436 6.712180685979289 0 0 0
240 1 1 0.5897 3.709932535860018 17.78147055930847 5.969583607754918 0 0 0
302 1 1 0.5897 9.095929186238932 19.309709386676232 6.415713962596495 0 0 0
382 1 2 -1.1794 2.930789822999254 17.795666007906583 10.291922292000017 0 0 0
379 1 2 -1.1794 0.6895792187859466 21.612892913268247 12.934797317525867 0 0 0
88 1 2 -1.1794 5.246735683509145 21.957393815462634 12.903787114532298 0 0 0
381 1 1 0.5897 1.482290887827794 21.971264305327754 13.334004258382596 0 0 0
90 1 1 0.5897 5.491330007905543 21.09830589388485 13.24784727221779 0 0 0
763 1 2 -1.1794 5.382756089358515 19.396488638550835 13.870239169305735 0 0 0
738 1 1 0.5897 3.7756527459405365 22.618054084134506 13.615891145833846 0 0 0
89 1 1 0.5897 5.15119385549378 21.82008609481601 11.961346413672851 0 0 0
736 1 2 -1.1794 2.9098451788921045 22.87134434218858 13.935947409903434 0 0 0
789 1 1 0.5897 6.714873212082263 22.58399309488621 13.550047745713059 0 0 0
502 1 2 -1.1794 0.4718925429316851 18.89054874523737 13.366607006896373 0 0 0
504 1 1 0.5897 0.51469528384447 18.98560490396346 14.318090657640361 0 0 0
765 1 1 0.5897 6.086279284227923 18.80074785763382 13.612679539778352 0 0 0
787 1 2 -1.1794 7.570399928011612 22.90787449091761 13.831756672602355 0 0 0
474 1 1 0.5897 5.0962089816691725 19.07737620190706 15.55984587377489 0 0 0
503 1 1 0.5897 1.32587768355179 18.53380801287141 13.122397129098822 0 0 0
788 1 1 0.5897 7.574086079848002 22.782055031466566 14.780610423379368 0 0 0
764 1 1 0.5897 4.591306000858739 19.008948754494337 13.496610874393669 0 0 0
350 1 1 0.5897 2.460671991623911 22.557685931037017 15.821496327114234 0 0 0
380 1 1 0.5897 0.6990785980712589 20.685808410613777 13.17277082483206 0 0 0
96 1 1 0.5897 0.5162789018966336 21.591986429049104 11.188329684800916 0 0 0
604 1 2 -1.1794 3.034148995067709 17.84937197648056 13.040459060912811 0 0 0