LAMMPS data file via write_data, version 30 Jul 2021, timestep = 13000000

972 atoms
2 atom types
648 bonds
1 bond types
324 angles
1 angle types

-0.15971676308390137 20.15971776307427 xlo xhi
-0.11553481124728826 20.115535811241564 ylo yhi
-0.15592101141170822 20.855919011413476 zlo zhi

Masses

1 1.008
2 15.999

Pair Coeffs # lj/cut/tip4p/long/omp

1 0 0
2 0.21084 3.1668

Bond Coeffs # harmonic/omp

1 450 0.9572

Angle Coeffs # harmonic/omp

1 55 104.52

Atoms # full

31 11 2 -1.1794 0.5837243790684223 1.5927328613576306 1.7818632837627812 0 0 0
16 6 2 -1.1794 4.053294994015368 3.9143874475826124 3.6730438096608236 0 0 0
33 11 1 0.5897 1.1204022321070148 1.832607351829765 1.026363916409202 0 0 0
22 8 2 -1.1794 1.9410144198880013 0.7218776612152362 5.00417024785312 0 0 0
4 2 2 -1.1794 4.2608468597479465 1.3228324340358237 3.301577818324215 0 0 0
23 8 1 0.5897 2.6714242666994146 0.7289672346328746 4.385431091097881 0 0 0
10 4 2 -1.1794 1.1637561429380403 3.712515319395478 3.4589436889762633 0 0 0
11 4 1 0.5897 1.0339455506538793 3.0015794574364576 2.831230937396501 0 0 0
12 4 1 0.5897 2.103855763894453 3.7047444463547605 3.639319850007766 0 0 0
18 6 1 0.5897 4.113483755766789 2.978043024543084 3.483445760143559 0 0 0
5 2 1 0.5897 4.195737779420606 0.5644244308567585 2.721161435507167 0 0 0
34 12 2 -1.1794 4.919368648269147 2.2733082812421297 0.1317488855034747 0 0 0
17 6 1 0.5897 4.157202353630653 4.338866247317809 2.8213617067728856 0 0 0
27 9 1 0.5897 2.709349462200425 4.021777096774494 6.995266798147309 0 0 0
356 119 1 0.5897 1.6140112870724566 1.980124501373298 8.544640509086436 0 0 0
355 119 2 -1.1794 0.7963492292288835 1.7932887215439652 9.006060902693637 0 0 0
325 109 2 -1.1794 2.708078759420323 2.441033124203617 7.216820433662491 0 0 0
326 109 1 0.5897 2.4930981690286913 2.0301549599761692 6.379381677221539 0 0 0
327 109 1 0.5897 3.6587433652350825 2.355148868496688 7.289271513159294 0 0 0
330 110 1 0.5897 4.128309469398915 0.7860250570455005 9.007464282628701 0 0 0
342 114 1 0.5897 3.987569686993175 4.563410277897479 9.708341998740933 0 0 0
24 8 1 0.5897 2.0949581907230073 -0.05044647912016004 5.548356964580662 0 0 0
357 119 1 0.5897 0.11598856553699366 1.8982008607279317 8.34086618780204 0 0 0
335 112 1 0.5897 0.7806096785615992 3.2786566945642215 10.053328661382123 0 0 0
328 110 2 -1.1794 4.036088915428693 1.4197784492213927 9.718930535919416 0 0 0
341 114 1 0.5897 3.7011944356810935 3.1459476803037947 10.156577196387415 0 0 0
102 34 1 0.5897 0.02096404657406431 0.7569665847681024 5.113915447640058 1 0 0
348 116 1 0.5897 2.828728433816552 0.7600052923593913 10.967704587449926 0 0 0
651 217 1 0.5897 1.6879093400433138 2.1634104037088084 14.522449978195734 0 0 0
650 217 1 0.5897 2.1324711669654737 1.739534173844544 13.13865627717111 0 0 0
683 228 1 0.5897 4.14018457695344 2.4393739891843014 14.138679515451441 0 0 0
347 116 1 0.5897 1.3554891237825546 0.5048334185895488 11.205921476830767 0 0 0
649 217 2 -1.1794 2.129215404585933 2.4867765547847602 13.736925331684109 0 0 0
346 116 2 -1.1794 2.1946151139697103 0.5766594006843397 11.661000308763136 0 0 0
350 117 1 0.5897 2.1417249862703 4.4596037754085796 13.332520052890777 0 0 0
334 112 2 -1.1794 0.8471335233549131 4.135214780173391 10.47547758762786 0 0 0
336 112 1 0.5897 1.7809832296471169 4.241283441898454 10.657331991087029 0 0 0
340 114 2 -1.1794 3.632184747172459 4.057848435437087 10.439412815951014 0 0 0
332 111 1 0.5897 4.8438537403772575 4.390937821045736 11.666996956942636 0 0 0
329 110 1 0.5897 4.66209203564286 1.128868319632593 10.382151176643177 0 0 0
681 227 1 0.5897 0.5349679951615104 2.5057140426985596 16.662827704799582 0 0 0
653 218 1 0.5897 3.381063029704895 0.44220627742657104 17.48192847427113 0 0 0
658 220 2 -1.1794 0.9504891666369897 3.924562314675371 17.723040392260273 0 0 0
665 222 1 0.5897 2.8890699556046706 3.8175837872869303 17.725886856290437 0 0 0
652 218 2 -1.1794 4.086356367701552 0.9391486323463814 17.067225684389165 0 0 0
666 222 1 0.5897 3.934965612967016 2.7868241452245863 17.357442724582633 0 0 0
664 222 2 -1.1794 3.8121247106547487 3.7269805891620584 17.488948178063858 0 0 0
659 220 1 0.5897 0.342539353088432 4.194373289153734 18.411485984699077 0 0 0
672 224 1 0.5897 0.9393939301515053 0.2063910904278543 18.756095318518646 0 0 0
670 224 2 -1.1794 1.8718294275869782 0.36439109898232913 18.904406150235253 0 0 0
671 224 1 0.5897 1.9106796448453958 1.2498651524938578 19.265944384254425 0 0 0
654 218 1 0.5897 4.436919401242786 0.3479707658952114 16.400969311990195 0 0 0
679 227 2 -1.1794 0.5020305157669263 1.8490983713246798 15.967044477360718 0 0 0
660 220 1 0.5897 0.8936355637943185 4.61918913567429 17.066902667221626 0 0 0
656 219 1 0.5897 4.822202214410583 4.301726455882576 18.932132811202493 0 0 0
2 1 1 0.5897 2.195024587824366 3.493889302451683 20.83615790996744 0 0 -1
662 221 1 0.5897 4.140954219746985 4.773069852891756 15.75916099302902 0 0 0
1 1 2 -1.1794 2.264795807687311 2.557082615875004 20.65226189762877 0 0 -1
3 1 1 0.5897 3.1766397715671366 2.34134770924259 20.84809444250069 0 0 -1
884 295 1 0.5897 0.5741827952961692 -0.008380701165301735 15.746825553185785 0 1 0
674 225 1 0.5897 1.6523025030924396 5.745154196598994 0.050883553582091845 0 0 1
140 47 1 0.5897 0.7668402779341099 9.021768304521855 2.495753966016143 0 0 0
113 38 1 0.5897 4.629496511136429 8.10184017703537 3.8253251848266823 0 0 0
14 5 1 0.5897 3.8962821542283903 5.767104345369578 0.8131279520024348 0 0 0
141 47 1 0.5897 0.6132875467971933 7.602170404519765 1.99253060865228 0 0 0
114 38 1 0.5897 3.125458514687728 7.931243091375251 3.792662110381323 0 0 0
19 7 2 -1.1794 0.36675585591628557 5.647843951089367 1.4773565486409985 0 0 0
110 37 1 0.5897 1.623752464600287 8.564612395045915 0.048659727389060076 0 0 0
139 47 2 -1.1794 0.42369292249388535 8.511682977088638 1.761990800190495 0 0 0
15 5 1 0.5897 3.9927409382358974 6.655180771433571 2.0354961730286294 0 0 0
112 38 2 -1.1794 3.85747467462384 8.291744174498108 3.2921275075477374 0 0 0
13 5 2 -1.1794 4.213803015111035 5.780309319765587 1.716106793098183 0 0 0
142 48 2 -1.1794 4.887069005386001 9.284677970920605 0.09597599012305907 0 0 0
20 7 1 0.5897 0.5684954868905983 5.116935527928282 2.2479238679246603 0 0 0
345 115 1 0.5897 0.4923761817174317 6.717060110018928 8.71255897314079 0 0 0
433 145 2 -1.1794 2.8359768745150737 9.098140549914461 7.173452707210866 0 0 0
463 155 2 -1.1794 0.7287481165979004 8.410386033232598 8.743590843930502 0 0 0
435 145 1 0.5897 2.3710749186808093 8.613605342600971 6.491257954367126 0 0 0
339 113 1 0.5897 4.078651238078702 5.640569522149836 7.6446240233210085 0 0 0
131 44 1 0.5897 2.197209965565426 6.466747317997534 5.358956688046962 0 0 0
337 113 2 -1.1794 4.526127422829702 6.078345376565878 8.368786319318415 0 0 0
344 115 1 0.5897 0.6247264231915759 5.326722641994847 9.296999455634907 0 0 0
464 155 1 0.5897 1.3683084506375989 8.656239505909413 8.075104544174858 0 0 0
437 146 1 0.5897 4.196007675964221 7.392390424780965 9.519431486383423 0 0 0
468 156 1 0.5897 4.660045299241818 8.941217043891095 7.12536711996482 0 0 0
26 9 1 0.5897 2.0274120727651113 5.28880585946754 7.466152669315717 0 0 0
343 115 2 -1.1794 0.39966851654800395 5.790570336266275 8.490433490796299 0 0 0
25 9 2 -1.1794 2.6454230720433967 4.959430200435799 6.81352047569268 0 0 0
438 146 1 0.5897 3.9799697383649804 8.788055276797182 10.064922575779502 0 0 0
130 44 2 -1.1794 1.9126204400806541 7.374342572356624 5.2512446741210415 0 0 0
465 155 1 0.5897 -0.1210416740293128 8.548713086578777 8.325153928513545 0 0 0
443 148 1 0.5897 0.8322831058315313 9.512239325770686 10.051354324901046 0 0 0
132 44 1 0.5897 0.9567793171978569 7.325468310222392 5.231777576148794 0 0 0
436 146 2 -1.1794 4.029962680112067 7.870217842685435 10.33211792422113 0 0 0
792 264 1 0.5897 4.435985935359484 9.370059197989308 13.989751750538508 0 0 0
661 221 2 -1.1794 4.520990171115922 5.434165742571708 15.180488361189886 0 0 0
454 152 2 -1.1794 1.9113269949522675 7.567834958950609 11.986581902550782 0 0 0
455 152 1 0.5897 2.726456890381624 7.6864695835945 11.498852923179623 0 0 0
456 152 1 0.5897 2.1088865667600727 6.877928557019306 12.620009600528013 0 0 0
759 253 1 0.5897 2.424927775924282 8.845514763468975 13.274100961148894 0 0 0
757 253 2 -1.1794 2.5784897456386746 9.284532473477666 14.110777883017505 0 0 0
533 178 1 0.5897 -0.06709876229952351 7.291480670438585 11.735393384193419 1 0 0
351 117 1 0.5897 3.014749600651103 5.450599961253717 14.07268672445832 0 0 0
668 223 1 0.5897 0.727693259096761 5.568150755777248 14.69941788326803 0 0 0
789 263 1 0.5897 1.1381673507213756 8.797004083417725 15.194077959204987 0 0 0
349 117 2 -1.1794 2.2356385781784076 5.393693612711699 13.519417277788838 0 0 0
667 223 2 -1.1794 0.2594544196606259 5.743033858451375 15.515837099523264 0 0 0
663 221 1 0.5897 4.3204156116292385 6.268420332974172 15.60488532756986 0 0 0
780 260 1 0.5897 2.8489282836618584 7.354082155498754 17.858897848178806 0 0 0
778 260 2 -1.1794 2.121487866492762 7.13654961874985 18.44181219384088 0 0 0
669 223 1 0.5897 0.4299466744031414 6.667385950547054 15.697013547905879 0 0 0
779 260 1 0.5897 2.1044665905186553 7.8491363590030625 19.080656698456195 0 0 0
788 263 1 0.5897 0.3736780775854637 9.348527543226403 16.37881758467354 0 0 0
675 225 1 0.5897 2.3033626024375073 5.970440927116507 19.714572457905305 0 0 0
761 254 1 0.5897 4.225465096348212 8.75752023412931 16.97942188321973 0 0 0
760 254 2 -1.1794 4.425426431636241 7.838958787302041 16.799077244067114 0 0 0
787 263 2 -1.1794 0.3836930022606091 8.621277844295566 15.756460738869999 0 0 0
858 286 1 0.5897 -0.04106899940060542 7.355741072388371 18.646556791470957 1 0 0
109 37 2 -1.1794 2.1490141583278946 9.006555555163851 20.39331106416234 0 0 -1
673 225 2 -1.1794 2.4258892962542467 5.5154355900760645 20.547800013905125 0 0 0
111 37 1 0.5897 3.025179757237852 9.061393050512512 20.775038684280325 0 0 -1
240 80 1 0.5897 2.3039745356987957 14.246483094593007 4.3336910539489635 0 0 0
124 42 2 -1.1794 3.880619797959775 10.937925502197539 3.8285493529863976 0 0 0
120 40 1 0.5897 0.6884878545890307 11.102783195877667 2.9173109420670063 0 0 0
122 41 1 0.5897 3.6031980871665077 12.209004997151398 0.8144503434190253 0 0 0
119 40 1 0.5897 2.0130282162165445 10.827819087043755 3.5972101579780396 0 0 0
127 43 2 -1.1794 0.5226160470313812 12.338301643441696 1.6472776051031983 0 0 0
118 40 2 -1.1794 1.1018165979994645 10.535860920857656 3.568543879888055 0 0 0
121 41 2 -1.1794 4.031764503484117 12.573733914096964 1.5888227965213988 0 0 0
129 43 1 0.5897 0.7864334743297764 13.235227726363691 1.8527475524673145 0 0 0
125 42 1 0.5897 4.470401454247326 11.01335199909179 4.5787805079856865 0 0 0
222 74 1 0.5897 4.118046683053805 14.019411660683636 2.871300277036409 0 0 0
783 261 1 0.5897 1.724855907328083 11.712365323527177 0.37860892083104647 0 0 1
123 41 1 0.5897 3.776182415994525 11.9890203876729 2.3023465070561353 0 0 0
220 74 2 -1.1794 4.359718371346642 14.615865822243661 3.5799210059515336 0 0 0
126 42 1 0.5897 3.9088326132656483 10.010459518048409 3.593392024551211 0 0 0
247 83 2 -1.1794 1.072733393452235 15.025693920568106 2.14884491746972 0 0 0
317 106 1 0.5897 0.10885375313378048 13.915890023336912 5.0703223706348695 1 0 0
133 45 2 -1.1794 2.6505668508098346 11.730455876309536 6.931313431756877 0 0 0
134 45 1 0.5897 1.9474507235501215 11.960062087342953 7.539001561407995 0 0 0
135 45 1 0.5897 3.444476869701965 12.072448088476147 7.342562800476323 0 0 0
445 149 2 -1.1794 4.581144194782317 12.703402725927116 8.540089774041864 0 0 0
451 151 2 -1.1794 0.6081341431557791 12.482494144911492 9.007270677557745 0 0 0
453 151 1 0.5897 0.7548353079591258 11.680058392499944 9.508149145306982 0 0 0
572 191 1 0.5897 0.6199248724983054 14.440195455529537 9.151515867069214 0 0 0
446 149 1 0.5897 4.340653183547346 13.500872922091824 9.011808411672313 0 0 0
450 150 1 0.5897 3.9401952127735624 11.250483121918393 9.736253146327474 0 0 0
434 145 1 0.5897 2.724506015542662 10.017923446374999 6.932854574667429 0 0 0
239 80 1 0.5897 2.353365578855388 13.273469288075699 5.492550040844778 0 0 0
238 80 2 -1.1794 1.8217341271428644 13.973996178537258 5.114424893709053 0 0 0
563 188 1 0.5897 2.140959163796074 13.26931905411188 12.296013995007195 0 0 0
442 148 2 -1.1794 0.9265839807326806 10.286045120012211 10.606915392044673 0 0 0
769 257 2 -1.1794 4.579316821226286 12.611924994910577 15.449367562456931 0 0 0
444 148 1 0.5897 1.8698330686942373 10.365685465404269 10.749410220079415 0 0 0
457 153 2 -1.1794 2.486897815628729 12.029488165953802 13.561492263906493 0 0 0
458 153 1 0.5897 1.7412970920145205 12.243454948531971 14.122338966429128 0 0 0
459 153 1 0.5897 3.254885868717631 12.214508417957893 14.102184977720235 0 0 0
449 150 1 0.5897 4.417183715859571 10.887387423936627 11.126528945530032 0 0 0
562 188 2 -1.1794 1.8309824898854024 14.028319185314293 11.801893144440978 0 0 0
642 214 1 0.5897 0.11492420324378805 13.797364904757748 11.943139652339308 1 0 0
544 182 2 -1.1794 3.9600747530492812 14.805719545926191 10.417884474069018 0 0 0
545 182 1 0.5897 3.2131209349301537 14.4600309805634 10.906699689532568 0 0 0
564 188 1 0.5897 2.045151452601081 14.779054051929434 12.35581484787267 0 0 0
758 253 1 0.5897 2.379004036887586 10.204872905314913 13.939046297834551 0 0 0
775 259 2 -1.1794 0.54391365634864 12.808426183335767 15.360924527395607 0 0 0
546 182 1 0.5897 4.720463336849045 14.592361729417464 10.958877130456926 0 0 0
448 150 2 -1.1794 3.798030288270075 10.623747205824145 10.445708631031358 0 0 0
512 171 1 0.5897 -0.03754507664270079 10.827024479612252 12.317914762886561 1 0 0
766 256 2 -1.1794 0.9499324696736169 10.786017022942866 17.227796200051372 0 0 0
771 257 1 0.5897 4.262222063915708 13.432516804027388 15.826729697204547 0 0 0
768 256 1 0.5897 0.8557225571009837 11.44989462480577 16.544628426850373 0 0 0
774 258 1 0.5897 3.9076149631375845 11.16310369608287 16.511532730616985 0 0 0
781 261 2 -1.1794 2.3802360790880366 11.736108202327822 20.693154636276176 0 0 0
767 256 1 0.5897 0.39361673701409994 11.096283835852635 17.94235912748799 0 0 0
886 296 2 -1.1794 2.297888003164466 14.185336663020992 19.278780658167484 0 0 0
888 296 1 0.5897 2.4459469545993753 13.254883451308917 19.448029985179687 0 0 0
773 258 1 0.5897 2.8639040801627824 10.409889517081906 17.308748400344975 0 0 0
772 258 2 -1.1794 3.809682959193925 10.487996027076292 17.18307726087503 0 0 0
965 322 1 0.5897 0.45220709156248307 14.17650529892773 18.981173285765173 1 0 0
869 290 1 0.5897 3.361080114028427 14.64257020691826 17.769152069944518 0 0 0
887 296 1 0.5897 2.5672807219355525 14.622103191658901 20.086851803960357 0 0 0
868 290 2 -1.1794 4.181310780154366 14.817165323653153 17.307504245897313 0 0 0
782 261 1 0.5897 2.3322108178241567 10.869716369040752 20.288975978650818 0 0 0
777 259 1 0.5897 0.6238621992032184 13.69691233328613 15.708058532723777 0 0 0
870 290 1 0.5897 4.86113143546208 14.475400752973622 17.888376434734205 0 0 0
227 76 1 0.5897 0.4202008756565706 17.997887375399387 3.3248840450447714 0 0 0
234 78 1 0.5897 2.6707595765442385 17.290990848900506 3.589564550703625 0 0 0
229 77 2 -1.1794 4.283968496863265 19.171909392223093 1.7973517511301342 0 0 0
233 78 1 0.5897 3.8963063218868816 17.935666063807744 2.9774471418426898 0 0 0
226 76 2 -1.1794 0.7533685403880679 17.276773879143917 3.8589963261728775 0 0 0
890 297 1 0.5897 1.5651455393494722 18.59775607188225 0.7008099923137907 0 0 1
232 78 2 -1.1794 3.622720085162678 17.34183961701114 3.6766389830670363 0 0 0
249 83 1 0.5897 1.784512392976543 15.415780636503149 1.6413349644933508 0 0 0
235 79 2 -1.1794 0.4885536599120871 19.133454839656707 1.94821520175601 0 0 0
221 74 1 0.5897 4.334723350918186 15.485472156253504 3.180639719929565 0 0 0
230 77 1 0.5897 3.6312878290877832 18.92762408093408 1.141079418493562 0 0 0
248 83 1 0.5897 0.8232778850197805 15.705871884930708 2.774513871774049 0 0 0
228 76 1 0.5897 0.4007779000772306 17.442816870691026 4.733287248561131 0 0 0
236 79 1 0.5897 0.6031313270800409 20.051838411388935 2.1926613090020104 0 0 0
217 73 2 -1.1794 2.9768136939884147 15.780730033894645 0.3352157908988748 0 0 0
219 73 1 0.5897 3.9278392330139242 15.801706580809553 0.2281307033261069 0 0 0
218 73 1 0.5897 2.7147037408800574 16.70132123487243 0.3326679651533703 0 0 0
889 297 2 -1.1794 2.315556486095854 18.298290824677835 0.1874284581620379 0 0 1
224 75 1 0.5897 4.739208029632549 17.781515999760423 5.0933198536773805 0 0 0
241 81 2 -1.1794 2.5562915522875906 18.685039276268732 6.358682317570955 0 0 0
573 191 1 0.5897 0.7158917671232162 15.878766224035216 9.613481510600371 0 0 0
243 81 1 0.5897 1.7056997769402629 18.77160477999344 6.789243324258072 0 0 0
571 191 2 -1.1794 0.6294219182409324 15.340554122811104 8.826589669703663 0 0 0
551 184 1 0.5897 0.8156859852146209 17.833030885849553 9.69685123878124 0 0 0
559 187 2 -1.1794 0.27908028759267534 19.20692211846312 8.445806929470765 0 0 0
553 185 2 -1.1794 4.3070239918208815 19.01674350418918 8.572200316343334 0 0 0
542 181 1 0.5897 1.9462526326759289 15.765394118130521 7.609725448273592 0 0 0
541 181 2 -1.1794 2.589852908951581 15.854851856558803 6.906761988808972 0 0 0
576 192 1 0.5897 4.2840082663389545 15.792752069177684 7.698860435198591 0 0 0
242 81 1 0.5897 2.740240449786589 17.745824787138616 6.377328816893402 0 0 0
558 186 1 0.5897 3.6433193401351205 18.047448218412576 9.985319823755205 0 0 0
555 185 1 0.5897 3.934300546807985 18.998612753639023 7.690657259347266 0 0 0
543 181 1 0.5897 2.342590896091416 15.185754335952542 6.268402691273669 0 0 0
561 187 1 0.5897 0.4553117655065667 20.093715954807802 8.760067566341743 0 0 0
879 293 1 0.5897 4.080143848476634 18.775651762210998 14.858819416620623 0 0 0
865 289 2 -1.1794 2.524287570039462 15.928751310658553 13.689789774111208 0 0 0
885 295 1 0.5897 1.102643080482887 19.259118593355417 14.705507551057693 0 0 0
565 189 2 -1.1794 2.777699404909045 18.72129814262003 13.590868713166126 0 0 0
566 189 1 0.5897 2.498809278723882 17.883375296335593 13.221523687184037 0 0 0
866 289 1 0.5897 3.463042145836711 15.949846461452937 13.876013802763973 0 0 0
567 189 1 0.5897 2.644417359366437 19.3518091244555 12.883032485715795 0 0 0
867 289 1 0.5897 2.108503901497382 15.928194335304502 14.552037003222344 0 0 0
552 184 1 0.5897 1.9124800878525519 17.313973849726118 10.602315296451831 0 0 0
556 186 2 -1.1794 3.560334609381206 17.523989540486156 10.782473465829986 0 0 0
896 299 1 0.5897 0.2598910539826331 15.633584854927882 15.32510157096283 0 0 0
550 184 2 -1.1794 0.9608319721154452 17.333494105828166 10.50042735523178 0 0 0
883 295 2 -1.1794 0.47269941406473126 19.327618834505543 15.423004768751538 0 0 0
557 186 1 0.5897 3.8024092651944326 16.63767553712305 10.513840560403063 0 0 0
877 293 2 -1.1794 4.671633017641688 18.900540479145874 15.601050004260124 0 0 0
895 299 2 -1.1794 0.9730283974210612 15.476896024411861 15.94417222460782 0 0 0
876 292 1 0.5897 0.8357781696578794 18.494344057562706 17.100004741989785 0 0 0
874 292 2 -1.1794 1.0845416404188983 17.776918905028182 17.68286052676462 0 0 0
891 297 1 0.5897 2.2976219970386556 18.83944589041692 20.409862879118194 0 0 0
880 294 2 -1.1794 3.744878311978238 17.370477430940277 17.795246868099674 0 0 0
881 294 1 0.5897 2.808936406079697 17.545745758172636 17.893595232572864 0 0 0
882 294 1 0.5897 3.786508115659599 16.48582731784807 17.43198030401141 0 0 0
897 299 1 0.5897 0.92856225011568 16.21414406594014 16.55312531557113 0 0 0
875 292 1 0.5897 0.43133141197150404 17.79843665833156 18.382310063569953 0 0 0
878 293 1 0.5897 4.28793629603573 18.37680085438666 16.30446917260344 0 0 0
68 23 1 0.5897 7.600944450626257 1.8121470758555929 1.3078036460173148 0 0 0
69 23 1 0.5897 6.10118285084439 1.7792009569690046 1.5124182342843098 0 0 0
67 23 2 -1.1794 6.927495712623289 1.5325223379325281 1.9279940673794802 0 0 0
48 16 1 0.5897 7.3692723984906685 4.149092630651088 3.9372642490537615 0 0 0
47 16 1 0.5897 7.371365914131212 3.0785000136021847 2.8667623818785963 0 0 0
37 13 2 -1.1794 9.191836210096275 2.253298785459157 0.16023269646988625 0 0 0
53 18 1 0.5897 9.661714708152978 3.847141595288427 3.512687020037769 0 0 0
46 16 2 -1.1794 7.829028035264191 3.8720027589433825 3.144669353811514 0 0 0
59 20 1 0.5897 9.427265097988762 1.0620229210791612 4.320495771892877 0 0 0
58 20 2 -1.1794 8.833769420387352 0.9283544515426678 5.059594847333939 0 0 0
6 2 1 0.5897 4.967599734391504 1.1010361414216505 3.907949848175579 0 0 0
9 3 1 0.5897 5.496105771227551 4.446717878744533 4.615371293282812 0 0 0
29 10 1 0.5897 7.060372703434087 0.499452498814126 5.057671406197052 0 0 0
710 237 1 0.5897 9.16678300559148 4.431045462270001 -0.043278295638685904 0 0 1
391 131 2 -1.1794 7.34359621122649 1.7833407322078136 9.02205249377048 0 0 0
362 121 1 0.5897 9.199879069108544 3.670841243296781 6.643044933416697 0 0 0
360 120 1 0.5897 6.255810993805286 2.3612315036835247 7.650101876763064 0 0 0
392 131 1 0.5897 8.113860795407112 1.9035939481424382 8.466582584479758 0 0 0
361 121 2 -1.1794 9.333483030894534 2.777064767089605 6.958686254548748 0 0 0
358 120 2 -1.1794 5.598847327048399 2.427560984030305 6.957010196581778 0 0 0
393 131 1 0.5897 7.14247218756527 0.8498980707579143 8.95468404229578 0 0 0
359 120 1 0.5897 5.8629127772243175 1.77098899869481 6.3123966770125675 0 0 0
8 3 1 0.5897 6.126860916078322 3.8675907635217865 5.863946862876373 0 0 0
60 20 1 0.5897 9.018380985950367 1.6583152013487434 5.650702754307744 0 0 0
7 3 2 -1.1794 6.200263616370862 4.595451352442092 5.246568550288139 0 0 0
28 10 2 -1.1794 6.114418737907247 0.4413168872879991 5.192391847234908 0 0 0
371 124 1 0.5897 7.456557812378196 3.220483978000144 10.126063783276201 0 0 0
354 118 1 0.5897 5.435490188762352 0.9043538695971642 12.895389227145696 0 0 0
686 229 1 0.5897 8.767373828676094 2.944335968077871 14.552137897899176 0 0 0
353 118 1 0.5897 6.514088402003923 0.9024569385241599 11.832923082622113 0 0 0
382 128 2 -1.1794 8.31900112125577 0.8287802430503197 11.970876555093637 0 0 0
386 129 1 0.5897 9.389860817633153 4.69680099006005 13.84792161943448 0 0 0
384 128 1 0.5897 8.864962336009368 1.0326771376716735 11.211468144747045 0 0 0
685 229 2 -1.1794 9.333048568445438 2.9160491623743003 13.780399616553028 0 0 0
372 124 1 0.5897 6.97841484509454 3.916039903682452 11.382958672622824 0 0 0
370 124 2 -1.1794 7.607116179096816 3.996720939045212 10.665600551071764 0 0 0
383 128 1 0.5897 8.641449017075141 1.4085791045595628 12.66093667908532 0 0 0
352 118 2 -1.1794 5.621976915028861 0.6018437239308291 12.006546255893817 0 0 0
717 239 1 0.5897 6.641433709455328 2.527053754993774 15.347928782121096 0 0 0
684 228 1 0.5897 5.405621764463094 3.1130398703133335 13.651737417098389 0 0 0
682 228 2 -1.1794 5.090036920617674 2.3273464417614456 14.098311827596746 0 0 0
331 111 2 -1.1794 5.4864047836483305 4.4469663167090365 12.374366295885567 0 0 0
377 126 1 0.5897 9.487626475111606 4.34853269232068 10.966139733006212 0 0 0
696 232 1 0.5897 7.718717485952108 4.821802546121042 17.248750367271086 0 0 0
694 232 2 -1.1794 7.821932270665072 4.035165119576151 17.78427228641818 0 0 0
657 219 1 0.5897 6.332305322612047 4.276051155943981 19.038124122166955 0 0 0
702 234 1 0.5897 9.56267614941486 3.8088198242178493 17.540028609019856 0 0 0
677 226 1 0.5897 5.34090186481081 0.5129261797720387 18.23552679071654 0 0 0
715 239 2 -1.1794 7.472391131029802 2.344873770681148 15.78691136600008 0 0 0
716 239 1 0.5897 7.533708845289031 1.3896673195472657 15.797802287652084 0 0 0
38 13 1 0.5897 9.210792965782382 1.7197105778846336 20.377546607815574 0 0 -1
708 236 1 0.5897 7.849815465112423 0.564543993953113 18.416763652200054 0 0 0
695 232 1 0.5897 7.483577426142996 3.3262629255044707 17.23718051386456 0 0 0
706 236 2 -1.1794 8.792632383585254 0.667151719705016 18.54681388042205 0 0 0
676 226 2 -1.1794 5.997769751132956 0.4780619963478977 18.931004295081337 0 0 0
655 219 2 -1.1794 5.538572919284762 4.390782745180989 19.56081426081792 0 0 0
35 12 1 0.5897 5.101452999301882 1.7287260072935617 20.377687027795872 0 0 -1
36 12 1 0.5897 5.0749125288833925 3.168938136568206 20.843656854555576 0 0 -1
707 236 1 0.5897 9.003780600418606 0.06330587433276236 19.258933100366903 0 0 0
55 19 2 -1.1794 7.180918087234615 6.29552360746263 1.7781757244448289 0 0 0
57 19 1 0.5897 7.503358760882681 5.598201280834227 2.349172059258039 0 0 0
177 59 1 0.5897 7.987431424713236 9.3568823935727 1.1011124089314461 0 0 0
175 59 2 -1.1794 7.251405305383239 9.160839481924699 1.6809281696749048 0 0 0
166 56 2 -1.1794 8.783294676725646 7.623566504137222 4.837066559296186 0 0 0
176 59 1 0.5897 7.273160107485657 8.209316527630639 1.782999941803756 0 0 0
56 19 1 0.5897 6.228133201268065 6.250713209972642 1.8591715498653643 0 0 0
143 48 1 0.5897 5.424938420002966 9.307180724382226 0.8875337409027795 0 0 0
709 237 2 -1.1794 9.254465405120492 5.384253801060215 -0.041777922879239426 0 0 1
711 237 1 0.5897 8.471594913273137 5.696554799896168 0.4120559112376747 0 0 1
137 46 1 0.5897 5.8773125837171225 6.416660453278421 4.80320119017462 0 0 0
145 49 2 -1.1794 9.541445348874573 9.567323414227042 0.17300863351217105 0 0 0
136 46 2 -1.1794 5.998282094276198 7.349607774979351 4.626368635727641 0 0 0
138 46 1 0.5897 6.946237435362389 7.478978689299423 4.65824516670929 0 0 0
501 167 1 0.5897 6.593098416831661 8.752935888961634 8.612331635260286 0 0 0
62 21 1 0.5897 8.378292850097852 5.4259992407397615 7.087028286142222 0 0 0
380 127 1 0.5897 7.343710733483115 6.6500661470539955 8.840730416823531 0 0 0
500 167 1 0.5897 7.484420190482501 9.123019568932564 9.778875545343983 0 0 0
499 167 2 -1.1794 7.344875578232275 8.444403247180315 9.118317959927548 0 0 0
63 21 1 0.5897 9.882303920709477 5.576667151152249 7.000072917557255 0 0 0
467 156 1 0.5897 5.53655415710536 8.311170358153534 6.063774870233088 0 0 0
471 157 1 0.5897 8.477356169127022 9.305038532178255 7.617637437916368 0 0 0
469 157 2 -1.1794 9.094877940992573 9.571036030706692 6.936254134109578 0 0 0
338 113 1 0.5897 5.439043211495192 5.80145641335666 8.289372417514489 0 0 0
379 127 2 -1.1794 7.235199522548739 5.74872789359418 8.537202048700781 0 0 0
470 157 1 0.5897 9.933917003589224 9.205295343259971 7.216662175465179 0 0 0
61 21 2 -1.1794 9.113421566063337 5.344178977827312 6.479360808728577 0 0 0
168 56 1 0.5897 8.837782378206635 8.431958415348504 5.346821444234943 0 0 0
381 127 1 0.5897 7.4816792290275025 5.2107958220432975 9.289677669546316 0 0 0
466 156 2 -1.1794 5.576021482402896 8.792653607535176 6.890179162933292 0 0 0
167 56 1 0.5897 8.846141785829923 6.924624681056322 5.4881186326518945 0 0 0
491 164 1 0.5897 9.280411524836666 7.860395605252329 11.66695478686245 0 0 0
460 154 2 -1.1794 6.116918941849769 7.300359452592686 12.224647741995756 0 0 0
790 264 2 -1.1794 5.3823288397828914 9.391783367696718 13.847062672560975 0 0 0
791 264 1 0.5897 5.7558035153930485 9.467256472975912 14.72523225588427 0 0 0
387 129 1 0.5897 9.135227724556984 6.143762223608002 13.482442173331785 0 0 0
462 154 1 0.5897 5.933820288359594 7.9059403280602645 12.943023778959004 0 0 0
490 164 2 -1.1794 8.82037500336146 7.580650872099933 12.458443354576913 0 0 0
461 154 1 0.5897 5.436895213611271 7.484241972381869 11.576533486043878 0 0 0
492 164 1 0.5897 7.9139099712751015 7.455038057607451 12.17748310807888 0 0 0
793 265 2 -1.1794 9.328877778202804 9.463628613486943 14.582628152043034 0 0 0
385 129 2 -1.1794 9.410452044631262 5.583446083976608 14.208138747003458 0 0 0
794 265 1 0.5897 9.218364408984561 8.733918367108627 13.97300655427768 0 0 0
333 111 1 0.5897 5.444381239801356 5.3580043600139025 12.66516743394748 0 0 0
705 235 1 0.5897 7.850108019633556 5.930397766857274 15.549242188428012 0 0 0
815 272 1 0.5897 8.91473995415281 6.726650936587272 19.63739394623404 0 0 0
785 262 1 0.5897 5.790142103653364 6.425136214791796 19.194626446159354 0 0 0
816 272 1 0.5897 8.88357646756012 8.203688348594092 19.968249831902376 0 0 0
784 262 2 -1.1794 5.912677403503635 7.370351889742365 19.10597739012365 0 0 0
703 235 2 -1.1794 7.210051348836479 6.135504855431414 16.230884378863195 0 0 0
786 262 1 0.5897 6.859726509632359 7.482913109285528 19.023427262795487 0 0 0
814 272 2 -1.1794 8.706457420143368 7.582231616142602 19.262024435758093 0 0 0
823 275 2 -1.1794 7.4296088855869336 8.862155352298855 16.351908145163037 0 0 0
824 275 1 0.5897 7.433754370765047 7.907545116747238 16.422743456502012 0 0 0
144 48 1 0.5897 5.275878888472967 8.592445889084159 20.573065457660107 0 0 -1
762 254 1 0.5897 5.081928219070544 7.603081892357031 17.454617250167296 0 0 0
825 275 1 0.5897 8.131611378494567 9.059853832636353 15.731836167887044 0 0 0
704 235 1 0.5897 6.368402416954808 5.876178504165511 15.855702011942059 0 0 0
164 55 1 0.5897 6.035198897473389 12.464145379177895 1.536483012058037 0 0 0
156 52 1 0.5897 9.000550615059336 11.030004454305224 3.6604531985705835 0 0 0
154 52 2 -1.1794 8.054696648940817 10.932040295768884 3.770725485712387 0 0 0
165 55 1 0.5897 7.304694726398487 12.168931523175413 2.306855304033688 0 0 0
285 95 1 0.5897 7.762147349822056 14.705242292818722 2.3732724618586416 0 0 0
163 55 2 -1.1794 6.969138135408076 12.672264952084193 1.5649580960620062 0 0 0
155 52 1 0.5897 7.8253968896811 10.182357248567067 3.2214257516773377 0 0 0
819 273 1 0.5897 8.265577839458096 12.264205128033403 0.164621170523634 0 0 1
246 82 1 0.5897 5.237569351951682 14.000168009807739 5.051205366408788 0 0 0
116 39 1 0.5897 6.543801297442531 10.93170432328608 4.914620015259853 0 0 0
258 86 1 0.5897 9.978095377857452 14.688967616410881 3.795978319612837 0 0 0
171 57 1 0.5897 9.296372515187143 11.358313049115017 6.718703875152288 0 0 0
487 163 2 -1.1794 7.386191465750283 12.884330205257397 8.417642578815261 0 0 0
447 149 1 0.5897 5.529473207305603 12.768320780291436 8.42676935487617 0 0 0
276 92 1 0.5897 9.107871927779335 13.746768863480597 5.567164774475312 0 0 0
245 82 1 0.5897 5.858647781498232 12.952369717190201 5.95036606372945 0 0 0