LAMMPS data file via write_data, version 30 Jul 2021, timestep = 9000000

864 atoms
2 atom types
576 bonds
1 bond types
288 angles
1 angle types

0.7097741782626112 17.497798221744837 xlo xhi
1.9275514984933526 21.701626301510935 ylo yhi
0.865922839642538 21.347272960369658 zlo zhi

Masses

1 1.00794
2 15.9994

Pair Coeffs # lj/cut/tip4p/long/omp

1 0 0
2 0.21084 3.1668

Bond Coeffs # harmonic/omp

1 450 0.9572

Angle Coeffs # harmonic/omp

1 55 104.52

Atoms # full

460 1 2 -1.1794 4.455110791254437 2.575817979268783 3.2361648504564133 0 2 -2
74 1 1 0.5897 2.7670740362365485 4.346013423211218 2.8573676294191643 6 1 4
117 1 1 0.5897 6.765133660678437 3.788044588213247 1.3389467869025906 -5 0 4
75 1 1 0.5897 2.735695071955145 5.201471205536416 1.6087191571227222 6 1 4
182 1 1 0.5897 7.8823434706966955 5.923907823950735 4.747017876202947 0 7 -4
588 1 1 0.5897 1.092719000243731 2.1706983509678244 2.6011573652846516 -5 2 3
298 1 2 -1.1794 8.075763268153844 6.152393959271144 3.1277120944610535 1 -2 7
39 1 1 0.5897 5.856101784218006 4.605801401670227 5.153828169998245 0 2 -5
37 1 2 -1.1794 4.956446411750828 4.708350186490163 4.843440232850137 0 2 -5
721 1 2 -1.1794 5.678200986638053 5.702745611634942 1.901232280634044 2 1 0
587 1 1 0.5897 1.288915563010412 2.1877535219942614 4.102197476982034 -5 2 3
73 1 2 -1.1794 3.0879610556037376 5.1732640075925485 2.4982991310897313 6 1 4
77 1 1 0.5897 4.411450598436295 2.174255802933886 1.092212867318326 0 -6 -7
299 1 1 0.5897 7.199525230204178 5.878999101319984 2.856237264617591 1 -2 7
443 1 1 0.5897 8.284656299471944 3.3726698316584853 3.4927615408360992 8 5 -7
444 1 1 0.5897 7.203769589351691 2.799144854317952 4.384229209087545 8 5 -7
586 1 2 -1.1794 1.352735544274084 2.7416162796908163 3.3241291219762763 -5 2 3
723 1 1 0.5897 4.858824064083231 5.373795768051667 2.2708884542717986 2 1 0
181 1 2 -1.1794 7.740389904315778 5.773602789879927 5.681627796147217 -1 7 -4
442 1 2 -1.1794 7.52327626049915 2.7926603035741904 3.481909074741962 8 5 -7
38 1 1 0.5897 4.8024795160894564 3.938835453403701 4.295371731839802 0 2 -5
462 1 1 0.5897 5.3570735638382025 2.3852772104991753 2.978507246156318 0 2 -2
192 1 1 0.5897 1.052065823920192 6.609245039038068 5.150366789217642 1 5 -7
722 1 1 0.5897 5.557897784949873 6.651339450292747 1.8572731362572137 2 1 0
279 1 1 0.5897 3.8962360399070755 6.504833023963257 4.184205397024959 -2 0 5
69 1 1 0.5897 3.329003555436521 5.000957273923785 5.863915509783403 6 -2 -4
300 1 1 0.5897 8.31395305299992 6.8431931729575695 2.5094138523518783 1 -2 7
267 1 1 0.5897 1.6539319566133717 3.011948841510767 8.427337243834579 2 -4 1
311 1 1 0.5897 6.766184294275823 4.71049558402324 8.921316078062542 -3 2 0
96 1 1 0.5897 8.740476144411213 3.328302865958701 7.170735419807685 -1 3 3
124 1 2 -1.1794 4.874827774498996 5.228172573034419 8.964767594305114 0 -1 5
312 1 1 0.5897 7.226188200612175 4.424198906513091 7.507696877071526 -3 2 0
65 1 1 0.5897 1.9386975221706855 6.302016434288711 7.45101542200489 2 0 -2
66 1 1 0.5897 1.9064887104827393 6.238931955320331 8.96325428116819 2 0 -2
310 1 2 -1.1794 7.524689439322228 4.416062871302047 8.417125095166709 -3 2 0
125 1 1 0.5897 4.343390715641288 4.444162218629064 8.826443548336872 0 -1 5
10 1 2 -1.1794 1.9348679011344687 5.4880302970302814 10.541171951887334 -2 0 7
126 1 1 0.5897 4.555702141260736 5.591771535367556 9.790714769201212 0 -1 5
265 1 2 -1.1794 2.541688305530019 3.3617901382117843 8.503064520911598 2 -4 1
64 1 2 -1.1794 1.649096260763979 6.788375289650417 8.22291651039709 2 0 -2
11 1 1 0.5897 2.360778578342655 4.640540305621044 10.412187591731135 -2 0 7
67 1 2 -1.1794 2.419602641221098 5.038823577464817 6.160325296962374 6 -2 -4
266 1 1 0.5897 3.079204375039551 2.6043093617597783 8.734516238466563 2 -4 1
68 1 1 0.5897 2.3905163879722684 4.4577603013545755 6.920433785683786 6 -2 -4
786 1 1 0.5897 4.55312075241943 6.411209405908451 7.62960341911347 2 3 -3
437 1 1 0.5897 6.91454539567071 2.214939556297346 6.971860940279863 -4 5 0
436 1 2 -1.1794 6.615173855424986 2.7512108142008724 6.237668742519426 -4 5 0
438 1 1 0.5897 5.682922562365953 2.549381128744226 6.157461723705766 -4 5 0
688 1 2 -1.1794 7.353147956799642 6.7218532129895845 10.536719493876648 0 1 5
183 1 1 0.5897 8.612063361682754 5.8433391525815495 6.071000311018084 -1 7 -4
497 1 1 0.5897 7.49162523267098 2.3022718867352068 14.163704856085607 -2 0 4
205 1 2 -1.1794 2.1121084850232448 2.853652118744198 11.70575636512039 -4 2 -5
496 1 2 -1.1794 8.273547086445461 2.601057572906047 14.627997254701874 -2 0 4
440 1 1 0.5897 3.4175608990881305 5.76212061148655 14.658291424006931 0 1 -4
254 1 1 0.5897 5.5639298845912135 5.719178741701217 15.612460502447497 5 12 -9
439 1 2 -1.1794 2.5515636297640825 6.004882092002618 14.33062916370637 0 1 -4
728 1 1 0.5897 5.148921250989638 2.6078514773049983 13.281998843235833 -2 3 -1
213 1 1 0.5897 5.978056175084944 6.2516475537135605 11.470825415831039 -3 0 -1
329 1 1 0.5897 8.240069955089783 5.6511973436783 15.158451609580975 4 7 1
330 1 1 0.5897 9.028794537938639 5.469227506646314 13.879110984052158 4 7 1
328 1 2 -1.1794 8.134371324294897 5.523180101649665 14.215755508583856 4 7 1
729 1 1 0.5897 5.036910331808167 3.425123191237466 14.551409828594236 -2 3 -1
12 1 1 0.5897 2.153811039003493 5.7322930039899855 11.440423568007118 -2 0 7
498 1 1 0.5897 8.21868246765176 3.5562875415433206 14.60045818580484 -2 0 3
253 1 2 -1.1794 4.906880306731508 5.039806192096295 15.460855836610254 5 12 -9
123 1 1 0.5897 2.088270079607322 3.2311817096890905 15.616762693349262 5 0 0
206 1 1 0.5897 1.888586583394233 2.6779840214335846 12.619769704448721 -4 2 -5
207 1 1 0.5897 3.0378766738435474 2.620566905549445 11.636031943733585 -4 2 -5
563 1 1 0.5897 5.1609310845193335 4.347202194141174 11.71159653241275 1 2 4
562 1 2 -1.1794 4.85633549029556 3.451809001354221 11.564059750749097 1 2 4
830 1 1 0.5897 7.820419273434372 4.742978178905147 12.785899729439963 6 5 3
121 1 2 -1.1794 1.6993372999934062 2.9344171874674654 14.794014673648652 5 0 0
212 1 1 0.5897 5.217974449188965 6.611375288769637 12.729696562229302 -3 0 -1
727 1 2 -1.1794 5.263116802422946 2.552063920632266 14.230730595143312 -2 3 -1
211 1 2 -1.1794 5.113832283908093 6.18826120244702 11.877430677212345 -3 0 -1
122 1 1 0.5897 0.7560381216199319 3.027870544046868 14.927040909594242 5 0 0
829 1 2 -1.1794 7.736178963219087 4.338770659103855 11.922323163060433 6 5 3
833 1 1 0.5897 1.0333499430566946 6.2540107769142494 15.884653254118886 8 -1 -3
89 1 1 0.5897 1.1224936004016532 5.1640633794583835 13.447673455670705 5 1 3
764 1 1 0.5897 7.379825148172555 2.788943972626252 11.183209976655903 -7 5 -2
564 1 1 0.5897 5.650029050989848 2.959955067570548 11.353407580904152 1 2 4
831 1 1 0.5897 7.902760779981456 5.052118078222568 11.30618977742301 6 5 3
255 1 1 0.5897 4.29350555357011 5.132239106950275 16.189874356849153 5 12 -9
116 1 1 0.5897 7.688504127137322 4.116979935181937 20.66657001221411 -5 0 3
472 1 2 -1.1794 2.369870862176791 5.438966267908938 20.417773367826968 0 1 -1
161 1 1 0.5897 1.559413591975924 2.378373030979209 20.851300412953144 2 9 1
457 1 2 -1.1794 7.328046073627738 3.039451110331525 18.47859773347851 1 1 -3
730 1 2 -1.1794 4.37519312195314 4.193437016951458 19.254267784565222 5 1 -6
732 1 1 0.5897 3.7188869734362062 4.788987192970232 19.615944327186078 5 1 -6
160 1 2 -1.1794 1.189233513652473 3.202925919002939 20.536158914443824 2 9 1
685 1 2 -1.1794 8.186695800027012 5.185200847002084 17.114099078265248 4 -10 -5
686 1 1 0.5897 7.738016978729641 4.464404101263886 17.55615118818705 4 -10 -5
458 1 1 0.5897 8.195390743425222 2.6383087932572495 18.533725726728072 1 1 -3
55 1 2 -1.1794 8.700886158485238 5.430332154811894 20.080555822044147 -1 -3 3
115 1 2 -1.1794 7.273562407971178 3.3820786898951565 21.1182111252892 -5 0 3
407 1 1 0.5897 5.203296658336664 6.645895127081609 20.218965291569198 -6 -3 4
474 1 1 0.5897 1.822450301401888 4.654227881640157 20.390416545539203 0 1 -1
114 1 1 0.5897 5.712573997549395 2.38113818622661 17.277990702168182 -3 -1 2
459 1 1 0.5897 7.0660371013774865 3.1707862884327005 19.389828676498148 1 1 -3
731 1 1 0.5897 4.183024127838667 3.348709201665208 19.66138286087837 5 1 -6
508 1 2 -1.1794 2.5183616786613863 3.2806114096576797 17.4779325407604 -1 0 2
509 1 1 0.5897 2.645258717704488 2.3330040494271893 17.524620852554015 -1 0 2
418 1 2 -1.1794 3.261331622767985 6.625347750433677 17.448715070210703 -8 3 6
420 1 1 0.5897 2.3376885232954345 6.614551738415539 17.69971246259572 -8 3 6
57 1 1 0.5897 8.811714719708826 5.894907256067812 19.25102671597086 -1 -3 3
473 1 1 0.5897 1.8642469465663905 6.100856652153638 19.94609781995993 0 1 -1
510 1 1 0.5897 3.25394020402647 3.6457631258932155 17.96969329658537 -1 0 2
795 1 1 0.5897 6.979490266288714 6.769299909350537 17.062101450598078 -6 1 3
629 1 1 0.5897 6.34363527852784 11.304505359873238 3.4571445100606737 1 -2 3
388 1 2 -1.1794 0.9145783946509126 10.16801710988114 3.6095995068020534 3 5 4
837 1 1 0.5897 5.630176225657838 8.470448708866378 2.7931751522989274 -4 3 0
82 1 2 -1.1794 2.363816448115204 8.31144146108301 2.1339179229915795 -2 -1 -6
446 1 1 0.5897 3.4881045602642495 11.46909011136251 2.3617280495589004 2 2 0
611 1 1 0.5897 5.265668986980988 11.380414241322535 1.0821898840800404 0 3 0
861 1 1 0.5897 3.520218490303335 9.14714378890211 5.118302942058782 -2 -4 1
859 1 2 -1.1794 3.3347904616048165 10.08561251236479 5.084311874055408 -2 -4 1
808 1 2 -1.1794 8.355528160955707 7.907224837082062 0.9044059861532797 3 0 -2
711 1 1 0.5897 7.636271038459821 8.821759213181302 4.459827365287303 -6 -8 -1
445 1 2 -1.1794 4.320527770264054 11.128455527489146 2.6892907926575567 2 2 0
447 1 1 0.5897 4.10635488789697 10.751138127330943 3.5425307952988008 3 2 0
83 1 1 0.5897 1.4768058439256118 8.052098543128327 1.884514888696645 -2 -1 -6
835 1 2 -1.1794 5.602567747612448 8.590085033639177 1.8438815569894156 -4 3 0
84 1 1 0.5897 2.4310284726615983 8.077032867877005 3.0595628077862367 -2 -1 -6
836 1 1 0.5897 4.959317164954724 9.285851149299358 1.7082788614270135 -4 3 0
278 1 1 0.5897 3.8252468071048145 7.243977961322416 5.503506472108623 -2 0 5
390 1 1 0.5897 1.442074554894477 9.755019928621948 2.925913177379986 3 5 4
628 1 2 -1.1794 7.156610645132625 11.616473883218191 3.854605592214817 1 -2 3
277 1 2 -1.1794 3.6469913276178696 7.345323871716747 4.56851985700437 -2 0 5
710 1 1 0.5897 6.908014715360052 7.765155275500063 5.263032517473057 -6 -8 -1
860 1 1 0.5897 2.495762598358157 10.180921869311938 5.5350665857138015 -2 -4 1
709 1 2 -1.1794 6.76263736418052 8.56094072905153 4.751347299184852 -6 -8 -1
177 1 1 0.5897 8.610506478451969 10.438003510513639 3.648059502727015 -7 0 6
809 1 1 0.5897 7.489372410681067 8.275443884476417 1.0788838398826783 3 0 -2
752 1 1 0.5897 3.674312135630021 8.615366693211074 10.879930326131799 3 6 -1
40 1 2 -1.1794 5.847332907614643 10.381613128184325 6.812568144777997 -2 0 5
530 1 1 0.5897 7.4425403648085 8.709180686040721 8.144675949357135 -4 0 -5
200 1 1 0.5897 1.358431618396013 8.02439011795154 9.48247495791361 -1 -4 4
249 1 1 0.5897 8.532023142785 10.557935551571035 7.335029298061181 -1 4 -8
751 1 2 -1.1794 4.509657104096905 8.455272864619532 10.440845435026253 3 6 -1
529 1 2 -1.1794 7.310790357801147 7.788763354065411 7.91726699606135 -4 0 -5
42 1 1 0.5897 4.914348130737768 10.331203573311342 6.604628293511208 -2 0 5
664 1 2 -1.1794 3.1743613373267623 9.512138319295097 8.059465382280052 5 0 1
785 1 1 0.5897 5.640123478023428 7.33133668803709 7.116104935759678 2 3 -3
753 1 1 0.5897 4.83330426494719 7.642677783344225 10.829684504042397 3 6 -1
733 1 2 -1.1794 7.704861318857885 10.050708568001054 9.254792045141913 -5 4 -3
269 1 1 0.5897 3.3515941664253255 11.0897499589725 8.646383722051826 0 2 6
666 1 1 0.5897 3.900482157564905 8.938639908541397 8.304624621613417 5 0 1
734 1 1 0.5897 6.9723399122972 10.666019927749575 9.287468433816391 -5 4 -3
665 1 1 0.5897 2.4864909038283813 8.915516253387821 7.764275408584196 5 0 1
689 1 1 0.5897 7.314445224298185 7.044389655745256 9.636326989761805 0 1 5
531 1 1 0.5897 8.030218141655842 7.583756691796407 7.320076493743827 -4 0 -5
199 1 2 -1.1794 1.1826658614990366 8.665038550666212 10.171620302942037 -1 -4 4
735 1 1 0.5897 8.36921196665212 10.437991613870238 9.824780888517658 -5 4 -3
365 1 1 0.5897 2.501703726584445 11.26404799741239 10.736243184413244 6 3 0
690 1 1 0.5897 7.869109442090332 7.378300407190618 11.004838818736626 0 1 5
784 1 2 -1.1794 4.698286613699662 7.168979319673962 7.0630781716950946 2 3 -3
366 1 1 0.5897 1.7431053910588232 9.995195303373572 11.062478402470543 6 3 0
41 1 1 0.5897 6.273068416466471 9.857370051885061 6.134218848575172 -2 0 5
236 1 1 0.5897 1.1535034229294716 11.782516645418367 8.38746576977502 2 -4 -3
843 1 1 0.5897 7.26722500504736 9.307058514963458 11.054169791528675 -3 0 2
842 1 1 0.5897 7.561176851422107 9.809749862689957 12.451598752576867 -3 0 2
101 1 1 0.5897 7.939591577484992 11.429870396087042 14.377483152114209 10 -8 -2
805 1 2 -1.1794 5.8709299647803075 7.905861663421177 13.97533528664507 6 -3 -3
806 1 1 0.5897 6.489015456014778 8.491833180593247 13.538483832712044 6 -3 -3
608 1 1 0.5897 2.738570671077701 11.369193042298706 14.454406665363026 7 0 5
184 1 2 -1.1794 3.260938617154459 8.483969791039819 13.428676434436625 1 5 -3
185 1 1 0.5897 4.214241288669767 8.411628563486715 13.476470678160295 1 5 -3
186 1 1 0.5897 3.0003635214973516 8.797988449432147 14.294546621347182 1 5 -3
344 1 1 0.5897 4.795618254648148 10.309057738803903 12.180066904465164 -1 -1 1
100 1 2 -1.1794 8.327879103917848 11.067705553855445 13.581048287521007 10 -8 -2
802 1 2 -1.1794 2.979188678331929 9.24508371054593 16.019701276410576 6 2 -5
807 1 1 0.5897 6.326447397016907 7.625048681386871 14.768987672264924 6 -3 -3
841 1 2 -1.1794 7.345262427842489 9.01570659841635 11.962610212126513 -3 0 2
609 1 1 0.5897 1.835327107484121 10.969541464465314 13.307098904147717 7 0 5
343 1 2 -1.1794 5.240924930067025 11.14651775048298 12.308951256464011 -1 -1 1
441 1 1 0.5897 2.6467329825293966 6.915988589615399 14.0530210353336 0 1 -4
345 1 1 0.5897 4.919655341964995 11.461600988668257 13.153792368889155 -1 -1 1
607 1 2 -1.1794 1.8266865018663005 11.168821248296666 14.24329198998785 7 0 5
364 1 2 -1.1794 1.9935510379982697 10.842982780000881 11.429577876480804 6 3 0
740 1 1 0.5897 6.725088946804141 9.964324096946616 18.68763236665736 -2 -1 2
578 1 1 0.5897 8.051928847746732 8.316352487832955 18.89307691858499 3 -3 -2
336 1 1 0.5897 5.842245285161946 9.298045151681482 16.668925773151532 4 1 3
804 1 1 0.5897 2.3309484881416047 9.71289796007088 16.546167802207236 6 2 -5
335 1 1 0.5897 5.019461188254693 10.564434183612452 16.563223660228296 4 1 3
426 1 1 0.5897 0.91116583443814 10.348481116820452 18.98546733108126 6 -6 -2
47 1 1 0.5897 1.1740019718098678 10.723239355558142 20.91384347455177 3 -6 -2
424 1 2 -1.1794 1.3549488422614404 10.620843265231372 18.18227843531958 6 -5 -2
803 1 1 0.5897 2.989538640410498 8.359559171994963 16.382980531432978 6 2 -5
739 1 2 -1.1794 6.6850824106324875 9.535235634586702 19.54233152900074 -2 -1 2
741 1 1 0.5897 5.985568905599288 8.887934307151607 19.45338896958281 -2 -1 2
334 1 2 -1.1794 5.88374572813756 10.24246329778967 16.81933667991098 4 1 3
612 1 1 0.5897 6.285987308246075 10.77503397564664 20.623134240240304 0 3 -1
514 1 2 -1.1794 3.3787995089548963 9.27850132303323 20.35697084544436 -3 -4 -5
515 1 1 0.5897 3.1449116035782625 8.83068848681405 21.169991201086845 -3 -4 -5
163 1 2 -1.1794 8.294722476299917 11.267136694793486 17.953015054305695 -4 2 -3
810 1 1 0.5897 8.191363216214295 7.183878770245692 20.780732935184425 3 0 -3
693 1 1 0.5897 4.178288539017398 11.526575710592471 19.106667010470744 3 2 1
408 1 1 0.5897 4.496731074631013 7.95347310268563 19.93100547839054 -6 -3 4
516 1 1 0.5897 2.5890712805315403 9.226426434395718 19.81856201207757 -3 -4 -5
164 1 1 0.5897 8.68871486839284 10.739906125280214 18.648051017835904 -4 2 -3
577 1 2 -1.1794 8.717476261439451 7.793055765740264 18.446492146943292 3 -3 -2
406 1 2 -1.1794 4.983290773483734 7.246583036046078 19.50691656023075 -6 -3 4
794 1 1 0.5897 5.491453242331037 6.952932757187149 17.27176838539141 -6 1 3
346 1 2 -1.1794 1.1085787249446 7.590369987908531 19.216535010089643 0 2 -4
793 1 2 -1.1794 6.2211439907521955 7.2476381266206555 16.726835923031935 -6 1 3
610 1 2 -1.1794 5.955851962995269 11.614619944264264 20.94303036637045 0 3 -1
692 1 1 0.5897 3.0142423808253596 11.59798976282259 18.141377781693528 3 2 1
419 1 1 0.5897 3.7234936573933193 6.885876820996183 18.2454341935821 -8 3 6
347 1 1 0.5897 0.7577582843642148 8.12638670391561 19.927805078995398 0 2 -4
811 1 2 -1.1794 7.752904671269399 15.956569311168014 3.904535469820072 0 4 -3
855 1 1 0.5897 4.451451592502594 13.998243827181252 4.198936784609138 -2 0 3
633 1 1 0.5897 6.06906464922394 13.32262457493087 1.8697812741610396 8 7 6
675 1 1 0.5897 3.7370137815585496 14.772235418455239 1.727480875462521 -1 -2 -1
353 1 1 0.5897 1.217643074324375 15.566185956076469 5.061528800343738 2 3 -4
747 1 1 0.5897 2.3881521703994126 12.957469003382327 3.924046236519004 6 6 -7
631 1 2 -1.1794 5.55285541807262 14.063481173494365 2.1874410389849333 8 7 6
632 1 1 0.5897 5.745927224842261 14.771572257837178 1.5729634626345765 8 7 6
770 1 1 0.5897 8.203603859136965 14.58418380274532 2.7962431637277874 2 0 5
673 1 2 -1.1794 2.91527602401647 14.966172212134142 1.2764119867467898 -1 -2 -1
745 1 2 -1.1794 1.4377931774765345 12.928226914990384 3.813430942115046 6 6 -7
813 1 1 0.5897 8.208896054078965 16.72489931894159 3.561056775400068 0 4 -3
352 1 2 -1.1794 2.0584054116181454 16.016124434836787 4.978414901059348 2 3 -4
771 1 1 0.5897 7.882951722124093 13.131969990182252 3.079339786715482 2 0 5
853 1 2 -1.1794 3.770182709533677 13.7931456357106 4.83929145689711 -2 0 3
769 1 2 -1.1794 8.410347098079619 13.693958309972857 2.51166705556245 2 0 5
141 1 1 0.5897 8.142171999810046 13.082043867465007 5.740495977579841 0 -6 -3
822 1 1 0.5897 5.958930641751767 16.322595779978244 3.9623206891458653 1 5 3
812 1 1 0.5897 7.963269670345246 15.95020633075024 4.838323247000414 0 4 -3
746 1 1 0.5897 1.2423674204389275 12.003838454383308 3.6598886206285997 6 6 -7
354 1 1 0.5897 2.711653369010138 15.321581008761772 5.062731890439031 2 3 -4
854 1 1 0.5897 4.2343379920478625 13.351252663368369 5.5503004533922295 -2 0 3
674 1 1 0.5897 2.5960590338490808 15.766689180447594 1.692980543842352 -1 -2 -1
227 1 1 0.5897 2.392484590730348 13.202043311322493 0.9194950343848299 4 -1 3
820 1 2 -1.1794 5.087228559025054 16.671102467933274 4.149177267860777 1 5 3
630 1 1 0.5897 6.873036023010353 12.240167214922023 4.523050684411546 1 -2 3
139 1 2 -1.1794 9.097729095264384 13.130036589594843 5.769530340170738 0 -6 -3
415 1 2 -1.1794 6.395263463448969 13.052355765666771 5.961343785879145 -2 4 0
24 1 1 0.5897 5.142780937688816 12.144266610059356 9.429240916399394 -9 6 5
615 1 1 0.5897 7.9537369191920115 12.994990329565232 8.573782868280745 -2 2 4
417 1 1 0.5897 6.264157152204061 12.195153899087883 6.366649866090319 -2 4 0
332 1 1 0.5897 1.8993832343090447 13.985650732276023 7.289050406153839 -1 -4 -2
638 1 1 0.5897 2.3053605923919482 15.603417954400376 8.82295378365341 -2 -9 3
644 1 1 0.5897 6.943708570302268 15.425964163881426 7.229412709437457 5 -4 -1
34 1 2 -1.1794 5.8268066509144845 15.972802817841787 10.21149747809617 -2 5 1
23 1 1 0.5897 6.32712844744325 12.314905137028267 10.356745362231097 -9 6 5
416 1 1 0.5897 6.321792826922254 13.673988047757213 6.685504895564383 -2 4 0
637 1 2 -1.1794 1.4892568363104903 15.423433752763545 8.356210620685617 -2 -9 3
331 1 2 -1.1794 1.9600114984671047 13.041590380265138 7.1429408427402725 -1 -4 -2
98 1 1 0.5897 7.91476969193838 15.603267431938363 10.265654140704292 3 -5 3
268 1 2 -1.1794 3.3495595422130693 11.906355412109773 9.145780908819514 0 2 6
319 1 2 -1.1794 3.426253463875832 14.640106138050927 10.071780075544602 3 2 2
643 1 2 -1.1794 6.061398349525391 15.31374462452133 7.583209240968014 5 -4 -1
645 1 1 0.5897 5.626448710089179 16.14922256064711 7.412793989781985 5 -4 -1
320 1 1 0.5897 3.778422517967715 13.849961808773495 9.662040609775424 3 2 2
22 1 2 -1.1794 6.09338932380976 12.256740584653684 9.430320171139265 -9 6 5
35 1 1 0.5897 5.080754250980395 15.45092847515612 10.507021879870418 -2 5 1
36 1 1 0.5897 5.8945911732372736 15.785855999276281 9.275164928031284 -2 5 1
246 1 1 0.5897 8.364146071449703 16.729386544230547 7.202660936547928 -2 6 -2
321 1 1 0.5897 2.9947532806334216 14.326387429528932 10.866527708383856 3 2 2
270 1 1 0.5897 2.954833661927268 12.547902055197335 8.555143675154316 0 2 6
244 1 2 -1.1794 8.438893801312005 16.005582893569517 6.580770355500956 -2 6 -2
333 1 1 0.5897 1.8501228727629775 12.937495370974746 6.197777065369931 -1 -4 -2
613 1 2 -1.1794 8.908351086273322 13.023319573924974 8.509313606376757 -2 2 4
97 1 2 -1.1794 8.851778498099693 15.786308046853302 10.334991937701249 3 -5 3
99 1 1 0.5897 8.897817477718105 16.703740978269906 10.604250665234371 3 -5 3
639 1 1 0.5897 0.9107920639506571 15.048207665640067 9.020156915522797 -2 -9 3
45 1 1 0.5897 6.618443005463555 16.10044086620792 15.733341575371213 1 6 0
32 1 1 0.5897 7.507083506955116 13.353296659764473 15.876737511482613 -3 6 1
377 1 1 0.5897 7.69437073679891 15.906085393751162 13.089893321888438 8 4 6
378 1 1 0.5897 6.793887459786669 16.564921313838333 12.066677713696489 8 4 6
466 1 2 -1.1794 2.557942662471895 13.308643595232876 12.442189924398443 6 -2 1
480 1 1 0.5897 5.606866720198112 14.761377496828722 13.912751593692079 -1 0 -4
239 1 1 0.5897 8.704908722591707 15.03247989960426 15.459197620662144 -6 0 -1
468 1 1 0.5897 1.7483381670626974 13.81919835972711 12.454467497944478 6 -2 1
478 1 2 -1.1794 5.231240053569421 14.577073390702555 13.051835646765078 -1 0 -4
372 1 1 0.5897 0.920690678506353 12.139494854511325 15.819560207488967 10 6 -2
479 1 1 0.5897 4.485141945684507 14.00542886343676 13.232921414305144 -1 0 -4
652 1 2 -1.1794 0.8458661540964247 15.125554163203462 13.856818628106758 -1 1 -2
736 1 2 -1.1794 7.646782611122752 13.095084470771987 11.656508957854188 4 -1 0
467 1 1 0.5897 2.320207785698731 12.492260362172889 12.002544000930524 6 -2 1
495 1 1 0.5897 4.2371751144458685 16.14033476842671 12.620191002408093 -4 -4 -1
737 1 1 0.5897 6.933990595763161 13.629486894865426 12.006619589287762 4 -1 0
281 1 1 0.5897 5.334691311282016 12.323669126525163 14.995712580432658 -6 1 4
43 1 2 -1.1794 5.901637880552248 15.503804522369057 15.517818079157015 1 6 0
282 1 1 0.5897 4.002237638755234 12.855817858291138 15.478727975216076 -6 1 4
31 1 2 -1.1794 7.269418883912466 12.496242602443955 15.522845754859818 -3 6 1
738 1 1 0.5897 7.773079125146073 12.406213773916903 12.30900823035648 4 -1 0
280 1 2 -1.1794 4.391781416848428 12.249946158811193 14.848319248617301 -6 1 4
654 1 1 0.5897 1.4287367045861248 14.53863717394628 14.338546130239882 -1 1 -2
600 1 1 0.5897 4.972754418289922 14.656372203517668 17.877780063554432 2 -5 -7
276 1 1 0.5897 6.897690124871812 13.893931421864524 19.073987183902453 -2 4 -4
715 1 2 -1.1794 2.453685895645732 13.937613255974766 16.414132598550374 4 -4 -5
526 1 2 -1.1794 6.010359905369763 16.185436245977698 20.98476486026634 -9 -4 3
528 1 1 0.5897 5.608588717852891 16.052523246206388 20.1261761092076 -9 -4 3
814 1 2 -1.1794 1.262948515076642 14.121414457631852 19.002863269709003 -4 4 -3
680 1 1 0.5897 7.786154168806949 16.211705428035636 18.92167477218272 -8 -4 1
681 1 1 0.5897 7.832404056065879 15.857064447952745 17.450575935743586 -8 -4 1
599 1 1 0.5897 5.11602259804741 13.14969096370859 17.84116476541383 2 -5 -7
672 1 1 0.5897 3.6257712435045426 15.261365914658304 20.086890148102263 5 3 0
527 1 1 0.5897 6.950258579959336 16.097899023873985 20.82605504374829 -9 -4 3
274 1 2 -1.1794 7.53032539660899 13.468298857209321 19.652644683098643 -2 4 -4
670 1 2 -1.1794 3.757495411238304 15.532596760741153 19.178423732298555 5 3 0
556 1 2 -1.1794 2.9214204701928757 16.630574158588423 16.706417492422894 4 0 -1
598 1 2 -1.1794 5.617607754267372 13.96012490557784 17.752541532676496 2 -5 -7
238 1 2 -1.1794 8.622938518380614 14.827952599444043 16.3906964283834 -6 0 -1
275 1 1 0.5897 7.016379050850888 12.820899801326862 20.135313253919115 -2 4 -4
165 1 1 0.5897 8.023637435540373 12.075034841426438 18.389000317434046 -4 2 -3
816 1 1 0.5897 2.0423601050011393 14.563303858773224 18.6659834501896 -4 4 -3
717 1 1 0.5897 1.8698791005324327 13.763027588486887 17.152351760379638 4 -4 -5
671 1 1 0.5897 3.381630246986329 16.411770912198048 19.13355019550331 5 3 0
226 1 2 -1.1794 2.1049740805396153 12.343331977499219 21.09071093133298 4 -1 2
691 1 2 -1.1794 3.9319121213757886 11.851471600173294 18.240658843106864 3 2 1
716 1 1 0.5897 2.759742909890969 14.833286501258575 16.556886268266034 4 -4 -5
228 1 1 0.5897 1.7187819631486265 12.515290049499809 20.23192159066327 4 -1 2
394 1 2 -1.1794 8.718632884004842 16.391864317935834 20.624151458172193 -1 -1 4
679 1 2 -1.1794 7.374769000323399 16.41312584368513 18.081159027460295 -8 -4 1
33 1 1 0.5897 7.332824741950788 11.901916454251332 16.270498104599987 -3 6 1
44 1 1 0.5897 5.882081418378331 14.88007689533052 16.24366640255019 1 6 0
815 1 1 0.5897 0.7356513918276093 14.822952181600302 19.38501262718581 -4 4 -3
863 1 1 0.5897 2.671361513987156 17.551127011317334 5.668304678436649 -4 4 1
188 1 1 0.5897 8.569766228439706 18.916191156573852 3.4344193107265886 -2 0 6
222 1 1 0.5897 1.1912109117859906 16.85168087760656 2.2498951254667157 0 -3 6
540 1 1 0.5897 5.366877470176081 18.82331415621197 1.583622665928425 -1 -6 3
305 1 1 0.5897 4.876356685166582 20.584033398614373 5.705076378336696 8 -3 -7
219 1 1 0.5897 3.655833602367857 18.929159432727296 3.087039362630976 6 -3 0
187 1 2 -1.1794 8.849884505824575 18.12303644062999 2.9775862632691905 -2 0 6
220 1 2 -1.1794 1.9193667581749632 17.28505979270722 2.6950990010209344 0 -3 6
144 1 1 0.5897 7.1971603804535285 20.944180596105213 2.533595479921045 -3 1 5
695 1 1 0.5897 6.779611649846992 19.53118384883424 4.55635885162039 -2 -2 1
696 1 1 0.5897 5.841040366403821 18.397974195743494 4.91254262501595 -2 -2 1
218 1 1 0.5897 3.4003149269981408 19.685736788267988 4.373234692894073 6 -3 0
538 1 2 -1.1794 4.693141570906707 18.144753288249653 1.540419438521417 -1 -6 3
143 1 1 0.5897 7.442730819053209 19.639393945967022 1.8061875242489798 -3 1 5
142 1 2 -1.1794 6.795028347864761 20.096842015207358 2.3423423947774307 -3 1 5
217 1 2 -1.1794 3.432188407426132 19.7971005725608 3.4230362116915773 6 -3 0
293 1 1 0.5897 2.253149361371786 20.044590013514707 1.8552318693912748 -2 5 1
694 1 2 -1.1794 6.1635405175413975 19.241703302491224 5.229343390979473 -2 -2 1
221 1 1 0.5897 1.9096749885473034 16.921732313822304 3.5806103910140505 0 -3 6
461 1 1 0.5897 4.041831685577673 21.49027150219861 3.316678290736958 0 1 -2
821 1 1 0.5897 4.812535703802449 17.082527197815473 3.3297239803933274 1 5 3
430 1 2 -1.1794 1.3343385727912729 20.744714376465872 5.476786016620857 -9 -4 -3
380 1 1 0.5897 0.8150125794070462 19.833991398792605 3.9296947802801556 11 2 -2
539 1 1 0.5897 5.153434327071391 17.36969518439598 1.2184819674175522 -1 -6 3
381 1 1 0.5897 0.7849726394096783 18.652698547795488 2.983367103033074 11 2 -2
292 1 2 -1.1794 1.9967827310503512 20.529556273840605 1.0707738364291048 -2 5 1
432 1 1 0.5897 2.289863081652058 20.75734076989859 5.533198052960763 -9 -4 -3
862 1 2 -1.1794 2.9804920842032177 18.409874222082586 5.956799498548502 -4 4 1
520 1 2 -1.1794 7.489956158088376 18.183790455195584 8.199076160348888 -1 -1 -5
864 1 1 0.5897 2.275651961383892 18.74491552092026 6.511045308864815 -4 4 1
109 1 2 -1.1794 4.785204719465528 17.661379145672264 7.8897280617974115 3 -2 -6
179 1 1 0.5897 6.543923886042434 19.121229880442613 11.076704670508763 -5 3 -3
339 1 1 0.5897 5.526491361483724 21.251461913783352 9.11873804584464 -5 0 0
243 1 1 0.5897 1.354765263186616 20.293499182064707 9.01797604646453 2 -2 1
524 1 1 0.5897 1.867092527566567 17.59454410370742 10.429019129041242 -2 3 2
242 1 1 0.5897 2.265811715979316 19.089564066896656 8.906519438166871 2 -2 1
178 1 2 -1.1794 5.758120470366486 18.85410944005524 10.599812072936714 -5 3 -3
523 1 2 -1.1794 2.669045152308861 17.54562626795552 9.908707259749352 -2 3 2
532 1 2 -1.1794 8.684370245960823 18.496086075168307 10.88383868244568 -6 -4 -3
521 1 1 0.5897 7.754627960972668 18.193272081281904 9.118927751410773 -1 -1 -5
180 1 1 0.5897 5.798096084325282 17.897778659841684 10.587868904185344 -5 3 -3
303 1 1 0.5897 8.836297124523204 18.768470233802887 7.045138670967843 0 -5 9
304 1 2 -1.1794 4.261238154869609 21.10361851484452 6.22266198113174 8 -3 -7
779 1 1 0.5897 7.4163094535000775 19.908851358008214 8.129306836956989 0 2 -2
337 1 2 -1.1794 4.580662683622441 21.34345810955712 9.003965269256167 -5 0 0
522 1 1 0.5897 6.535699056072193 18.113162284703122 8.224631882739045 -1 -1 -5
780 1 1 0.5897 8.479191058698234 20.945190564704028 8.426311163424183 0 2 -2
338 1 1 0.5897 4.2033870445060035 20.93111012374704 9.78105806735019 -5 0 0
110 1 1 0.5897 4.227681593611667 17.976810433323628 7.178454974271798 3 -2 -6
778 1 2 -1.1794 7.532570509628016 20.836413407107592 8.33512646638883 0 2 -2
241 1 2 -1.1794 1.6825904726603618 19.647680434226565 8.392136086466838 2 -2 1
111 1 1 0.5897 4.206320471560025 17.62720215018365 8.651278482522546 3 -2 -6
306 1 1 0.5897 4.328157768252061 20.743868066320104 7.107155560952685 8 -3 -7
431 1 1 0.5897 1.0396156536716215 20.79221960945918 6.386246672574865 -9 -4 -3
765 1 1 0.5897 7.35620827483413 21.57457229937289 10.03677572361733 -7 4 -2
525 1 1 0.5897 3.3705826134452734 17.47045166750545 10.555565164755793 -2 3 2
763 1 2 -1.1794 7.196357752422555 21.646294080960836 10.977813829722963 -7 4 -2
683 1 1 0.5897 1.0079090301483036 21.392164636550802 10.738724091634278 7 0 -6
323 1 1 0.5897 4.224100283143486 19.53257724420505 10.99294162946644 7 -1 -2
324 1 1 0.5897 3.2656245363790215 19.87898511546532 12.112417961674383 7 -1 -2
231 1 1 0.5897 3.1575825263961934 20.983779895386768 14.429108568317776 4 6 0