LAMMPS data file via write_data, version 30 Jul 2021, timestep = 32000000

864 atoms
2 atom types
576 bonds
1 bond types
288 angles
1 angle types

0.10166646617937758 18.10590593381925 xlo xhi
0.2209650259803393 23.40821277403579 ylo yhi
0.13206380072926827 22.081131999263178 zlo zhi

Masses

1 1.00794
2 15.9994

Atoms # full

707 1 1 0.5897 3.1027154041636846 1.9844573122816747 4.26117886515241 0 0 0
706 1 2 -1.1794 3.060637754358074 1.807548772858372 3.321444916990898 0 0 0
30 1 1 0.5897 5.406148193317341 3.9754888958068637 2.520974129492815 0 0 0
708 1 1 0.5897 2.297276361765596 2.2991772722799686 3.018668453555816 0 0 0
29 1 1 0.5897 4.603854997415767 2.6918129690666497 2.54072436429816 0 0 0
28 1 2 -1.1794 5.408808354107485 3.0759925038276585 2.1935572926430997 0 0 0
3 1 1 0.5897 0.9857501430072672 4.000934319082939 2.5325715506279205 0 0 0
2 1 1 0.5897 0.12798131592815665 2.754815568413427 2.4750320670841375 0 0 0
495 1 1 0.5897 8.312630212066935 2.319356907324031 2.9355803760305057 0 0 0
494 1 1 0.5897 6.805323000944863 2.1875620780878045 2.9797780422427707 0 0 0
493 1 2 -1.1794 7.610116646090566 1.7853175427549934 3.3062479900483694 0 0 0
1 1 2 -1.1794 0.975235510869213 3.1038882764224205 2.1986547168080195 0 0 0
846 1 1 0.5897 7.583619142821378 1.9123771838477768 5.204687418769405 0 0 0
136 1 2 -1.1794 5.457678995891408 5.730516545256346 3.028216105814141 0 0 0
20 1 1 0.5897 0.8809768795025976 2.945197721080252 0.43864386166683544 0 0 0
597 1 1 0.5897 0.8220828283073947 5.7339923140181 3.9813614260266785 0 0 0
595 1 2 -1.1794 0.8290058462597042 5.692086855833027 3.025139258275604 0 0 0
137 1 1 0.5897 5.416130871628093 5.82349861337242 3.9799499742526083 0 0 0
668 1 1 0.5897 5.246701386608142 3.1928505325858447 0.40454762294887037 0 0 0
83 1 1 0.5897 4.729515291528444 2.987353410230107 6.726526353314552 0 0 0
488 1 1 0.5897 2.3972427528479145 2.6398104247770977 6.308850767293917 0 0 0
82 1 2 -1.1794 5.422178574841812 3.5136672428761284 7.125694973148869 0 0 0
785 1 1 0.5897 0.894288280327487 3.262979886874014 7.9073978716184135 0 0 0
674 1 1 0.5897 3.858566444049153 2.4380434095272854 10.408015737670189 0 0 0
356 1 1 0.5897 7.680451102055029 1.3011236551082663 10.319263691087377 0 0 0
489 1 1 0.5897 3.160338401803334 1.3337692572656865 6.24658753311219 0 0 0
845 1 1 0.5897 7.5017585299176615 1.2248076024543129 6.550929074457604 0 0 0
686 1 1 0.5897 5.354484374152374 5.117929892972644 6.3502143856341515 0 0 0
673 1 2 -1.1794 3.051792776482545 1.9981636390760604 10.675784635248796 0 0 0
34 1 2 -1.1794 0.840658607877996 3.2430035645264432 9.634712043849337 0 0 0
274 1 2 -1.1794 5.3461257956043085 3.2854504687354056 9.811473533965962 0 0 0
678 1 1 0.5897 5.043025407492672 4.966681253285022 10.395144966881315 0 0 0
35 1 1 0.5897 0.8210439537855434 4.130681296447787 9.992402207156445 0 0 0
36 1 1 0.5897 1.608152071176811 2.8383178149839594 10.03876849408452 0 0 0
355 1 2 -1.1794 7.759883661512227 2.229665572515352 10.53796527925035 0 0 0
181 1 2 -1.1794 0.8781577853374666 5.912409955037647 5.708380282403424 0 0 0
84 1 1 0.5897 6.234757737388494 3.132619140776648 6.7931592687906 0 0 0
276 1 1 0.5897 6.203356193593955 2.9434956130109877 10.064980854110452 0 0 0
675 1 1 0.5897 3.084743965334621 1.148163849729134 10.236792885248363 0 0 0
275 1 1 0.5897 5.382660688906372 3.340904753393509 8.85661672765242 0 0 0
844 1 2 -1.1794 7.497486031706395 2.0899583452726294 6.141285623286972 0 0 0
784 1 2 -1.1794 0.884511884191956 3.3697888009746766 6.956260947375349 0 0 0
183 1 1 0.5897 0.8368085495325326 5.0530386051260745 6.127978582140786 0 0 0
487 1 2 -1.1794 3.230497662627582 2.262776947401086 6.026721621876074 0 0 0
685 1 2 -1.1794 5.38124840650103 5.9233570193336025 5.833635581361479 0 0 0
786 1 1 0.5897 0.1521786582082214 2.8285465642229726 6.6615245805548495 0 0 0
419 1 1 0.5897 9.072180863233443 2.701531528346975 6.656442599222763 0 0 0
112 1 2 -1.1794 0.7571873090775058 5.923296351491331 10.468443902014844 0 0 0
676 1 2 -1.1794 5.057370448071981 5.916060339488738 10.516774209915617 0 0 0
166 1 2 -1.1794 3.085868712001635 1.9200753690038064 13.377538907627683 0 0 0
167 1 1 0.5897 3.0416509078409275 1.9886006137391918 12.423840823849808 0 0 0
457 1 2 -1.1794 5.08213995938865 3.569332475114374 14.156343136364589 0 0 0
458 1 1 0.5897 5.918003899458429 3.199226311723579 13.872764914514095 0 0 0
459 1 1 0.5897 4.427293201030944 2.9365997025015123 13.861426614426977 0 0 0
762 1 1 0.5897 5.33693228933406 5.273163479133458 13.671566578434671 0 0 0
594 1 1 0.5897 8.259049457762977 2.5418651520331212 13.55422732761317 0 0 0
168 1 1 0.5897 2.29489072835197 2.3614478725054475 13.686773325500578 0 0 0
468 1 1 0.5897 0.6464628358855417 3.3313188360936814 14.917367445570433 0 0 0
466 1 2 -1.1794 0.7608090370974406 3.2582624689001767 13.969872010095749 0 0 0
593 1 1 0.5897 7.316392718310503 1.3575243906009111 13.578547685607674 0 0 0
592 1 2 -1.1794 7.391107498164115 2.2593266591578107 13.266304425298875 0 0 0
365 1 1 0.5897 0.8246775981208729 4.9916516154681965 13.252925730193708 0 0 0
71 1 1 0.5897 5.1085431987868395 3.3445627038035073 15.841709041413509 0 0 0
357 1 1 0.5897 7.655611312560569 2.2619933233379212 11.488885934362221 0 0 0
761 1 1 0.5897 5.375708910111337 5.999543655446043 12.34390604042809 0 0 0
364 1 2 -1.1794 0.797864990803056 5.945929430534136 13.182502574273883 0 0 0
754 1 2 -1.1794 7.5673348797295565 2.135582873060646 17.720572907913898 0 0 0
21 1 1 0.5897 0.7651049916612747 3.8247358486626415 21.16098736915763 0 0 0
648 1 1 0.5897 0.747570353413338 5.5189998597986945 19.637479139668997 0 0 0
755 1 1 0.5897 7.466082050776357 2.0829050994925327 18.670908294150905 0 0 0
290 1 1 0.5897 2.966991681961447 1.2700749114566563 17.209098964008653 0 0 0
42 1 1 0.5897 7.430880141429706 1.019829186381009 20.81751356854444 0 0 0
289 1 2 -1.1794 2.975467772051779 2.144567430039346 17.598320131960868 0 0 0
41 1 1 0.5897 6.713168729802165 2.352591529759007 20.841306205683537 0 0 0
143 1 1 0.5897 5.3384650251252985 4.898349009375879 20.84144146273662 0 0 0
569 1 1 0.5897 2.352951566995082 2.41084692794201 20.782240828970657 0 0 0
291 1 1 0.5897 2.1651939019324913 2.551541924873071 17.291883101123368 0 0 0
570 1 1 0.5897 3.1088160743038022 2.144302759389844 19.498008385038077 0 0 0
40 1 2 -1.1794 7.434393080961333 1.8888020654952733 20.41605700288227 0 0 0
646 1 2 -1.1794 0.6963304636100978 5.536273233168416 20.593117019664035 0 0 0
667 1 2 -1.1794 5.339662445863508 3.2280258458875855 21.40162806498582 0 0 0
134 1 1 0.5897 0.7306508686182422 4.224113228054276 17.096962981066582 0 0 0
568 1 2 -1.1794 3.0991973388378393 1.9260038741573793 20.429902215783798 0 0 0
756 1 1 0.5897 6.750033225737141 2.5277487269923666 17.413504913090165 0 0 0
669 1 1 0.5897 4.565368041640191 2.7749978699105533 21.067985261960075 0 0 0
278 1 1 0.5897 5.415158641329002 4.822262415631856 17.456351423308476 0 0 0
19 1 2 -1.1794 0.8823020134058038 2.9138926035412127 21.431051423456687 0 0 0
70 1 2 -1.1794 5.2595908085032 3.2282291107281105 16.77969531582361 0 0 0
72 1 1 0.5897 4.448528385280184 2.839490243949177 17.107010210301297 0 0 0
142 1 2 -1.1794 5.301725720300109 5.810107637835415 20.552208708852795 0 0 0
277 1 2 -1.1794 5.479419973258713 5.695363850691098 17.843467939410026 0 0 0
571 1 2 -1.1794 0.8097258000368496 5.800529037441798 17.824156385284603 0 0 0
81 1 1 0.5897 2.9857722848030805 0.2864886874906129 21.05444284118302 0 1 0
144 1 1 0.5897 5.30510524966721 5.7589646643864985 19.5964177147714 0 0 0
599 1 1 0.5897 9.077189034750862 2.8198227211106905 17.020710156849475 0 0 0
323 1 1 0.5897 7.4832907493068115 0.40426195406778465 17.1816156596538 0 1 0
647 1 1 0.5897 1.4994442200892044 5.978105978841065 20.868561318430345 0 0 0
133 1 2 -1.1794 0.7555337085086303 3.3752541163345926 16.65524944275971 0 0 0
253 1 2 -1.1794 3.2170295315178006 6.84325661198288 2.0662940278721504 0 0 0
123 1 1 0.5897 2.9976121684298143 8.579500307748658 2.5599609541753323 0 0 0
121 1 2 -1.1794 3.025991859516901 9.518848742532638 2.7420052475838435 0 0 0
122 1 1 0.5897 3.0416015249987627 9.57779421128314 3.6972270845275683 0 0 0
44 1 1 0.5897 1.2644422627354888 10.419435893557267 2.2128201433704264 0 0 0
218 1 1 0.5897 5.892353816284106 10.610452544055596 2.3228444218848194 0 0 0
255 1 1 0.5897 2.409105691102228 6.455271202005674 2.402137219348535 0 0 0
219 1 1 0.5897 4.396816969045179 10.593018805867143 2.089663510220203 0 0 0
43 1 2 -1.1794 0.48298883329755193 10.90001113575469 1.9399364416362517 0 0 0
415 1 2 -1.1794 7.759110824671931 7.129881988402832 2.138248507365772 0 0 0
417 1 1 0.5897 8.561935209444187 6.667074659213888 2.377744722608892 0 0 0
254 1 1 0.5897 3.099126562320565 6.858738859858663 1.1165466612391886 0 0 0
217 1 2 -1.1794 5.1931321487791 11.071667269961099 1.8597216691504108 0 0 0
66 1 1 0.5897 7.352085325789935 9.567953971046158 4.001694063445198 0 0 0
65 1 1 0.5897 7.453400628209321 8.839889558680433 2.678260731327922 0 0 0
64 1 2 -1.1794 7.282754774403198 9.702473507480446 3.056566217941656 0 0 0
416 1 1 0.5897 7.055562278519123 6.597403472537011 2.5092028473898007 0 0 0
773 1 1 0.5897 8.76027797268308 10.646006372074677 2.5470588745695726 0 0 0
45 1 1 0.5897 0.6200442975674573 11.788195692764594 2.2695437501035984 0 0 0
793 1 2 -1.1794 2.916476516259962 9.44020458463781 5.514094165492224 0 0 0
138 1 1 0.5897 4.683376385052412 6.193040685663773 2.7078832279368767 0 0 0
162 1 1 0.5897 7.530620834906521 7.327669072753419 0.3240408523982302 0 0 1
256 1 2 -1.1794 2.8008469103213662 9.830725117834268 10.167506049937117 0 0 0
12 1 1 0.5897 2.9440473838267573 7.891395685277235 6.3267232724843065 0 0 0
10 1 2 -1.1794 2.993209673965309 7.040843466649956 6.763144588817519 0 0 0
677 1 1 0.5897 5.869133305640375 6.199641276437689 10.096441502926304 0 0 0
526 1 2 -1.1794 7.49991023147084 6.872189620117067 9.48818700020803 0 0 0
577 1 2 -1.1794 4.994512575281566 10.88461926578089 6.727570213673035 0 0 0
145 1 2 -1.1794 7.649614758014094 7.1654873603581315 6.762203553211694 0 0 0
551 1 1 0.5897 0.6694266980003822 10.949522677326257 7.409133015054649 0 0 0
713 1 1 0.5897 8.042040364286528 10.117972753261801 6.214591797257713 0 0 0
580 1 2 -1.1794 5.198475654009865 10.938310912907191 9.451846963698713 0 0 0
650 1 1 0.5897 3.0075467092836368 7.096388776668051 8.591237095338455 0 0 0
822 1 1 0.5897 8.298431525888256 10.07068476947917 9.931412692406042 0 0 0
527 1 1 0.5897 7.529785247357967 7.749358532282458 9.870261612235028 0 0 0
15 1 1 0.5897 1.2800156778918772 10.629121541880474 9.514495210317142 0 0 0
582 1 1 0.5897 5.064516179169036 10.827261216147079 8.510627806011707 0 0 0
820 1 2 -1.1794 7.51412181374343 9.63509117105628 10.264873310996832 0 0 0
581 1 1 0.5897 5.996844816708842 10.445214240285742 9.64041232041642 0 0 0
147 1 1 0.5897 7.495328073952999 7.129979972826488 7.706180982600266 0 0 0
649 1 2 -1.1794 2.9636378072370047 7.249523660536137 9.535053114528539 0 0 0
528 1 1 0.5897 8.274883577720626 6.431920380521297 9.836988639112795 0 0 0
13 1 2 -1.1794 0.4801944579042439 11.083073379645409 9.249370199580634 0 0 0
258 1 1 0.5897 3.615344514764232 10.235966222438826 9.87012149348469 0 0 0
687 1 1 0.5897 4.57811598396109 6.387096756496081 6.070283552835242 0 0 0
257 1 1 0.5897 2.919450906581852 8.897073027911496 9.992747521757853 0 0 0
146 1 1 0.5897 6.905900599999144 6.699922085310425 6.379786965762822 0 0 0
578 1 1 0.5897 5.815460978404488 10.490489651761555 6.432993843838436 0 0 0
550 1 2 -1.1794 0.8081113504213947 10.907419573659489 6.463002240445716 0 0 0
714 1 1 0.5897 7.358081238874183 8.767595040008034 6.189412775237723 0 0 0
651 1 1 0.5897 3.712153751457681 6.770788504086799 9.890917416739372 0 0 0
11 1 1 0.5897 2.262673727614308 6.541361628572797 6.3985193623719985 0 0 0
794 1 1 0.5897 2.1282623790070754 9.879674918962696 5.832941804559446 0 0 0
795 1 1 0.5897 3.638559400327555 9.91178204807268 5.929222543259966 0 0 0
114 1 1 0.5897 1.4477432232985663 6.5294758280831555 10.2004111351429 0 0 0
182 1 1 0.5897 0.11419869721778397 6.380759309615474 6.044699523611743 1 0 0
552 1 1 0.5897 0.7119221736527466 11.812272684529344 6.165857198345487 0 0 0
165 1 1 0.5897 9.066870473946539 6.240285612326373 6.2121573530914365 0 0 0
579 1 1 0.5897 4.95087226225989 11.72188157860246 6.265646060961015 0 0 0
712 1 2 -1.1794 7.250635121532398 9.675991511773029 5.907322934782726 0 0 0
826 1 2 -1.1794 7.752987876530958 7.278929739246769 14.280453289083301 0 0 0
827 1 1 0.5897 6.899783315512114 6.976585590572557 13.969530578049616 0 0 0
332 1 1 0.5897 3.0923252503851653 8.180520086787013 13.816488445681061 0 0 0
797 1 1 0.5897 3.06208183343727 9.851019633107255 12.070602153407096 0 0 0
796 1 2 -1.1794 3.144374508535434 9.90753557414172 13.022548088313865 0 0 0
798 1 1 0.5897 2.3035565622950447 10.258436294740918 13.315709620853283 0 0 0
722 1 1 0.5897 4.6585849299116795 10.836756070147922 13.463562551373851 0 0 0
261 1 1 0.5897 0.9117568928088029 10.973303547634703 14.885751216528499 0 0 0
723 1 1 0.5897 5.422357023390892 11.117603985859352 14.740043357529183 0 0 0
828 1 1 0.5897 7.695320913036957 7.220648342511853 15.234116475833304 0 0 0
259 1 2 -1.1794 0.8467142814219755 10.98410591459875 13.930853629284965 0 0 0
331 1 2 -1.1794 3.0904100054214596 7.292206247203497 14.173132808654412 0 0 0
225 1 1 0.5897 3.188230571074347 7.12755896708897 16.078264022970743 0 0 0
721 1 2 -1.1794 5.490632723088197 11.181489270069589 13.787454872330018 0 0 0
475 1 2 -1.1794 7.728340068403824 9.685993355976608 13.034211459828976 0 0 0
476 1 1 0.5897 6.970764450481448 10.192739993098957 13.326439682912556 0 0 0
477 1 1 0.5897 7.650937298079829 8.850826806977537 13.495504555462183 0 0 0
333 1 1 0.5897 3.935292170934435 6.926614359839756 13.911278900539873 0 0 0
366 1 1 0.5897 1.6951577434742715 6.225284698232087 13.363805292380425 0 0 0
760 1 2 -1.1794 5.474821078106351 6.138283169882625 13.28576114911227 0 0 0
679 1 2 -1.1794 5.427305209547876 10.945742854650982 16.45186974203107 0 0 0
113 1 1 0.5897 0.6353185860270589 6.096033391224858 11.40197164746439 0 0 0
445 1 2 -1.1794 1.0560309343822953 11.06772944833535 16.577777848080046 0 0 0
821 1 1 0.5897 7.598352205201273 9.684988683086427 11.21701739611122 0 0 0
521 1 1 0.5897 6.87045436861626 6.63005744835207 17.294903717099842 0 0 0
141 1 1 0.5897 7.592139956559833 8.956701828274264 20.59243385244885 0 0 0
361 1 2 -1.1794 5.240940609422945 10.934040853267708 21.12192477243204 0 0 0
9 1 1 0.5897 6.838231996065745 10.179686148277625 17.28521829278295 0 0 0
4 1 2 -1.1794 2.8909296240032147 6.943873908024153 21.269637000655074 0 0 0
627 1 1 0.5897 2.497507878757032 10.220271413827891 17.300460451853603 0 0 0
394 1 2 -1.1794 0.7114437850622732 10.978336508890683 21.086637093484768 0 0 0
520 1 2 -1.1794 7.632153709905252 7.11312927290115 16.974671290737106 0 0 0
140 1 1 0.5897 6.790540320073149 10.239875411230477 20.645370414637576 0 0 0
161 1 1 0.5897 6.769030432210314 6.7132314974016 21.118065810257363 0 0 0
690 1 1 0.5897 2.226681029639668 9.959304503858483 20.651363566563923 0 0 0
625 1 2 -1.1794 3.3017249459741453 9.837460973103456 17.6508276702762 0 0 0
688 1 2 -1.1794 2.986474956207083 9.449918004128069 20.369673587629705 0 0 0
447 1 1 0.5897 0.3073181217025853 10.61918288199599 16.970620914048745 1 0 0
223 1 2 -1.1794 3.232504580033244 7.117406503457041 17.034350025556556 0 0 0
689 1 1 0.5897 3.7402437044551675 9.975328157634232 20.637786255604915 0 0 0
572 1 1 0.5897 1.5798167226596218 6.340015700695531 17.64519369384135 0 0 0
626 1 1 0.5897 3.12941654195361 9.731618082294563 18.586383829947586 0 0 0
139 1 2 -1.1794 7.641384411113218 9.889298857070772 20.38229606266843 0 0 0
6 1 1 0.5897 2.8580690090013587 7.868390823900512 21.023669427164563 0 0 0
522 1 1 0.5897 7.4908470415756705 8.010893779549317 17.275257375351956 0 0 0
8 1 1 0.5897 7.484444380441044 9.835604242718961 18.610246310713457 0 0 0
7 1 2 -1.1794 7.592400889029849 9.729166096542638 17.665162325597045 0 0 0
160 1 2 -1.1794 7.459524830017323 7.344964089239446 21.318746655238343 0 0 0
5 1 1 0.5897 3.698775322669874 6.618475236094717 20.872695380540357 0 0 0
462 1 1 0.5897 9.071027122148411 6.328057029005081 20.81702496121661 0 0 0
287 1 1 0.5897 9.076228327536679 10.679144051079042 21.16995461594866 0 0 0
246 1 1 0.5897 9.021036275002494 10.5786961806789 17.012303135305338 0 0 0
680 1 1 0.5897 4.670426572039323 10.504059906637833 16.836762834353806 0 0 0
279 1 1 0.5897 4.657096100215291 6.12405543004568 17.6066622699475 0 0 0
224 1 1 0.5897 3.2679973235934536 8.041171875493848 17.28276136176411 0 0 0
363 1 1 0.5897 5.227105425523498 10.978892426534456 22.07793847562428 0 0 0
396 1 1 0.5897 0.5532319589581234 10.936175314407148 22.02969016412373 0 0 -1
200 1 1 0.5897 5.062829972340808 13.653450832927442 4.814068351424696 0 0 0
173 1 1 0.5897 4.279605179633569 14.032312138551452 2.632300051737386 0 0 0
172 1 2 -1.1794 5.099100958650156 13.672923928240031 2.971894012565903 0 0 0
374 1 1 0.5897 0.4988935214434112 13.36697132897887 3.785537438526413 0 0 0
558 1 1 0.5897 2.8776094530052667 14.855149074357682 1.2378067946066995 0 0 0
556 1 2 -1.1794 2.841612058517729 14.896502687771953 2.1933996067474935 0 0 0
557 1 1 0.5897 2.033101524754738 14.438637968908521 2.4231151092740073 0 0 0
478 1 2 -1.1794 7.272038287521522 14.985357064242093 1.8097452528250142 0 0 0
174 1 1 0.5897 5.165855053443804 12.806517336446133 2.570418968910128 0 0 0
293 1 1 0.5897 2.7732149792561747 16.600661147465274 2.761955754250273 0 0 0
479 1 1 0.5897 8.006148427194027 14.610717599723506 2.2963878583203994 0 0 0
449 1 1 0.5897 7.366240847981309 16.565551127114013 2.6781743905102755 0 0 0
480 1 1 0.5897 6.498935016528817 14.55087945251865 2.169775144370086 0 0 0
373 1 2 -1.1794 0.689237348240446 13.445897084299812 2.8508193455033926 0 0 0
294 1 1 0.5897 2.803428954416364 17.53305769617974 3.954267496307873 0 0 0
308 1 1 0.5897 7.2593721733318315 17.52201166906991 4.764946861396018 0 0 0
448 1 2 -1.1794 7.335273872649424 17.451349218342926 3.0397137446770635 0 0 0
292 1 2 -1.1794 2.7737182117971164 17.528453035130447 2.997569800613285 0 0 0
655 1 2 -1.1794 0.536810846515449 13.410057136386765 5.611115383354021 0 0 0
384 1 1 0.5897 2.847175358582162 16.626729223553276 10.20012567875376 0 0 0
239 1 1 0.5897 2.6762800950463865 16.340898413685345 6.042204721866692 0 0 0
454 1 2 -1.1794 5.081178410258961 13.67786411360122 10.203261944771917 0 0 0
184 1 2 -1.1794 7.403489275228001 17.518751211334546 10.36892123077017 0 0 0
811 1 2 -1.1794 2.8106805948558424 14.997582193639104 9.391400184154847 0 0 0
456 1 1 0.5897 5.145067747251147 12.78558062401206 9.862598158356992 0 0 0
813 1 1 0.5897 2.071822442569422 14.448847843171473 9.654249942341314 0 0 0
17 1 1 0.5897 2.910324593416109 14.69959651983815 7.661388916972317 0 0 0
766 1 2 -1.1794 0.7184634743880328 13.600096571610527 10.251596414146926 0 0 0
656 1 1 0.5897 1.2665203014641289 13.844276498062833 6.052794279935327 0 0 0
377 1 1 0.5897 6.751445134687251 14.450278935119968 9.763077312974364 0 0 0
14 1 1 0.5897 0.53457958310253 11.936404332684726 9.679713348487699 0 0 0
519 1 1 0.5897 8.006817076978706 14.567603342874458 6.3861711441885625 0 0 0
812 1 1 0.5897 3.58300620636002 14.523517149139606 9.69940139800667 0 0 0
18 1 1 0.5897 3.677141897076063 14.357391246707314 6.401819896433853 0 0 0
376 1 2 -1.1794 7.573414660547522 14.820824273798191 9.441955076774008 0 0 0
16 1 2 -1.1794 2.823838423085568 14.663435327884267 6.708826536746035 0 0 0
517 1 2 -1.1794 7.239754530217009 14.992652620825066 6.7696187042073905 0 0 0
186 1 1 0.5897 7.496090242273521 16.598136276313767 10.123553089811965 0 0 0
378 1 1 0.5897 7.428017239352235 14.9512890000726 8.504936908425552 0 0 0
518 1 1 0.5897 7.236505961927607 15.870877817129482 6.388819948388474 0 0 0
201 1 1 0.5897 5.77836401097534 13.991492703385497 6.104566121596871 0 0 0
307 1 2 -1.1794 7.176352800045582 17.542481266917108 5.718283112812698 0 0 0
238 1 2 -1.1794 2.6903165809678558 17.230723794702108 5.689606960806175 0 0 0
382 1 2 -1.1794 2.8722333550139774 17.474762331611643 10.643409913916914 0 0 0
199 1 2 -1.1794 5.04357394491185 13.486561649958517 5.756381169477769 0 0 0
296 1 1 0.5897 7.257191601483946 14.952063187524342 14.74545697483842 0 0 0
232 1 2 -1.1794 2.63984666524047 14.753660569681776 14.097468160053324 0 0 0
234 1 1 0.5897 2.69580458165332 14.774686506359894 15.05276868604191 0 0 0
606 1 1 0.5897 3.053641764607972 16.434893935919114 13.606030463558112 0 0 0
427 1 2 -1.1794 4.955116418939087 13.706282256824414 12.950353773168143 0 0 0
233 1 1 0.5897 3.4419478202976053 14.311395332342554 13.819755904380079 0 0 0
639 1 1 0.5897 1.2255770682602276 13.998307360361787 13.451646610844598 0 0 0
429 1 1 0.5897 5.700090905244422 14.235199961062682 13.235625889335058 0 0 0
428 1 1 0.5897 5.177106873888951 12.814555097841575 13.218372175737507 0 0 0
637 1 2 -1.1794 0.4296045700508879 13.585978306250835 13.116234805157633 0 0 0
638 1 1 0.5897 0.4643906672557204 12.689663835943373 13.450484239640264 0 0 0
295 1 2 -1.1794 7.209890828200666 15.013633172072591 13.79144697475 0 0 0
270 1 1 0.5897 7.465567082856117 16.780856099448307 13.307069306300042 0 0 0
297 1 1 0.5897 8.001581210889569 14.573002902810863 13.482982665916635 0 0 0
767 1 1 0.5897 0.6630008324420361 13.463952228796147 11.197407484870556 0 0 0
604 1 2 -1.1794 3.1347304180746485 17.356958552358165 13.362027608463439 0 0 0
605 1 1 0.5897 3.122455490388849 17.353885382387425 12.404945264675792 0 0 0
269 1 1 0.5897 7.677774897784302 17.596866911909316 12.04971520132647 0 0 0
49 1 2 -1.1794 7.373812149443492 14.75244057341163 16.454131587121644 0 0 0
455 1 1 0.5897 5.020938734269435 13.56863546419475 11.152264527435493 0 0 0
825 1 1 0.5897 2.19244912257413 14.501657390203905 17.261538239284377 0 0 0
664 1 2 -1.1794 2.9415369106044196 14.718953839784444 21.375195717882917 0 0 0
446 1 1 0.5897 1.0371422625212992 11.945514195644268 16.95914082531778 0 0 0
610 1 2 -1.1794 7.446253680431359 17.407193482355474 17.582854027639982 0 0 0
51 1 1 0.5897 8.216977388243018 14.390738571981496 16.726755411480035 0 0 0
452 1 1 0.5897 0.5844407258872314 12.702428301376216 20.653389030083545 0 0 0
125 1 1 0.5897 5.214265135415743 13.500135066158702 18.429920840514214 0 0 0
124 1 2 -1.1794 5.194358243488163 13.48491827100007 17.47308403527969 0 0 0
684 1 1 0.5897 4.359416804720239 13.959546274884312 20.59972841973535 0 0 0
715 1 2 -1.1794 3.08097508489138 17.297577951630913 20.34545507875483 0 0 0
666 1 1 0.5897 2.9429025073576294 15.61319778200766 21.03368115285992 0 0 0
316 1 2 -1.1794 7.313326205810502 14.823900909527275 21.05610035428038 0 0 0
52 1 2 -1.1794 0.829849891215961 13.55542848082964 17.700040128715088 0 0 0
318 1 1 0.5897 7.361711667640345 15.722559144474923 20.729916704422685 0 0 0
665 1 1 0.5897 2.123852304050883 14.3401381564005 21.05276531034717 0 0 0
584 1 1 0.5897 2.9311891693703447 16.663613877887045 17.22708002165058 0 0 0
683 1 1 0.5897 5.871536928028414 13.902209607267036 20.560749114651472 0 0 0
126 1 1 0.5897 5.9819921101902755 13.960331012239312 17.209075806760872 0 0 0
682 1 2 -1.1794 5.088796022349813 13.484325015583448 20.20188926397544 0 0 0
824 1 1 0.5897 3.6964114738747216 14.52169935659997 17.091110877994844 0 0 0
53 1 1 0.5897 0.7002214776861367 13.568383058940473 18.648299973424486 0 0 0
451 1 2 -1.1794 0.622190484590872 13.632971814314521 20.432078889802703 0 0 0
50 1 1 0.5897 7.380824596338227 15.651532842046292 16.782610983915937 0 0 0
159 1 1 0.5897 7.191027789494262 17.46539462470112 19.421390478225334 0 0 0
157 1 2 -1.1794 7.273593258816052 17.4770084010571 20.37491780586312 0 0 0
716 1 1 0.5897 3.0814638091274795 17.35441987288177 19.38997316469679 0 0 0
362 1 1 0.5897 5.213710807274654 11.847923348744278 20.83839146283843 0 0 0
823 1 2 -1.1794 2.8999164093314804 14.989120985450274 16.839658679220626 0 0 0
117 1 1 0.5897 8.889346919113578 14.001929888429835 20.425421469884483 0 0 0
583 1 2 -1.1794 3.005689140546473 17.573966576710788 17.513477142969364 0 0 0
681 1 1 0.5897 5.381305162123972 11.839909493051346 16.790503446075668 0 0 0
317 1 1 0.5897 7.322561881215761 14.91370343954808 22.009006047883606 0 0 -1
267 1 1 0.5897 6.006636397202062 21.518119827516685 2.895184294787714 0 0 0
696 1 1 0.5897 1.415067611206663 21.597087265106644 2.8298829151505873 0 0 0
266 1 1 0.5897 4.50292684083083 21.685030191022975 2.943320124301807 0 0 0
265 1 2 -1.1794 5.219940664973439 21.17281450569807 3.3170146694692666 0 0 0
344 1 1 0.5897 1.1557984269976642 18.272215023429027 2.353208469282802 0 0 0
228 1 1 0.5897 5.097346133441559 19.491186162339737 2.538469430570244 0 0 0
343 1 2 -1.1794 0.39164523093400083 18.684279536142384 1.9502659963020514 0 0 0
817 1 2 -1.1794 7.527708124848576 22.285066781932592 2.330097564728153 0 0 0
249 1 1 0.5897 5.162614754938887 21.332583429509604 5.116488213846898 0 0 0
226 1 2 -1.1794 5.116199869086102 18.63730928654357 2.1062338855823706 0 0 0
187 1 2 -1.1794 2.931925668796662 22.439102856487402 2.34177981867444 0 0 0
695 1 1 0.5897 0.5394914773204621 20.386422403903254 2.585968240877843 0 0 0
694 1 2 -1.1794 0.5672231816999009 21.21742441911175 3.0602556849747606 0 0 0
818 1 1 0.5897 8.318127630783737 21.8776800863442 2.684168124328813 0 0 0
450 1 1 0.5897 6.537194694294362 17.83225906034044 2.6735922363145455 0 0 0
189 1 1 0.5897 3.068526314766263 22.56458117225292 1.4027554308955543 0 0 0
413 1 1 0.5897 0.7363985256972467 21.145620395643007 4.873454709268253 0 0 0
227 1 1 0.5897 4.3031169576256225 18.21227899188701 2.3788398443410887 0 0 0
345 1 1 0.5897 0.5541629621641853 18.62273698946317 1.0089901483583983 0 0 0
602 1 1 0.5897 5.160660172004881 18.843837889245904 0.38352489649716837 0 0 0
498 1 1 0.5897 7.434448549249089 22.503193057850645 0.5004214164457219 0 0 0
321 1 1 0.5897 8.644154222549574 18.379139256505923 2.3821166571266983 0 0 0
188 1 1 0.5897 2.871863994682103 23.326287510727184 2.6961775590056436 0 0 0
819 1 1 0.5897 7.528416452530726 23.16925954365198 2.6968854440817935 0 -1 0
555 1 1 0.5897 5.2584362157669435 20.590400875202434 10.1147610487336 0 0 0
342 1 1 0.5897 0.591657798324532 18.56997056141156 7.544081038883436 0 0 0
87 1 1 0.5897 8.234109692032483 22.338844553059317 9.886841581971265 0 0 0
37 1 2 -1.1794 2.987139494890922 22.73744768999073 9.380289124836562 0 0 0
86 1 1 0.5897 7.4794300430424085 22.810289362542647 8.662141417146309 0 0 0
414 1 1 0.5897 0.844822871840714 20.299209899881077 6.123932965696568 0 0 0
32 1 1 0.5897 8.336840324099024 22.127342781536854 6.665755881774165 0 0 0
404 1 1 0.5897 1.3636654986961276 18.094901338693376 9.770291481454974 0 0 0
39 1 1 0.5897 3.7802150849800458 22.269037316328188 9.640501270948143 0 0 0
553 1 2 -1.1794 5.176658470329018 21.51312481534653 10.356017786506474 0 0 0
701 1 1 0.5897 2.9168402097029547 22.882446264783745 7.571787656082473 0 0 0
240 1 1 0.5897 3.391800175954081 17.66879727789322 6.17140364114705 0 0 0
387 1 1 0.5897 4.898335774441568 19.534308745094158 6.605382986149419 0 0 0
102 1 1 0.5897 5.060558694759683 18.76635822433861 8.638853687259667 0 0 0
700 1 2 -1.1794 2.9734982065046234 22.85081756368139 6.616823846171048 0 0 0
385 1 2 -1.1794 4.846816452581021 18.621008119295425 6.887403169022027 0 0 0
702 1 1 0.5897 2.223464036384842 22.31975201146038 6.349375339894173 0 0 0
38 1 1 0.5897 2.270922561709434 22.21659842374148 9.743420587237695 0 0 0
101 1 1 0.5897 5.865448033746841 18.345662132809345 9.849969942325538 0 0 0
341 1 1 0.5897 1.3487124368563586 18.150754625858667 6.301996732116921 0 0 0
33 1 1 0.5897 6.824890422047938 22.167182553270116 6.726721460776674 0 0 0
309 1 1 0.5897 7.960638750312934 18.002217462232736 6.0176658983906925 0 0 0
85 1 2 -1.1794 7.456161766316628 22.827818445084198 9.618869201595299 0 0 0
554 1 1 0.5897 6.0008642360749755 21.90911247379306 10.073262590496979 0 0 0
340 1 2 -1.1794 0.5560784631008093 18.60452776427541 6.5882026002300424 0 0 0
386 1 1 0.5897 5.605907472064726 18.201574914396303 6.482507265463176 0 0 0
31 1 2 -1.1794 7.60549274925346 22.66539475112816 6.968658308809772 0 0 0
100 1 2 -1.1794 5.051375318858888 18.78016328568812 9.59587762722475 0 0 0
185 1 1 0.5897 8.20135374422009 17.93534705288438 10.043434027490232 0 0 0
403 1 2 -1.1794 0.5675078122368764 18.477580981138274 9.40182318645787 0 0 0
94 1 2 -1.1794 0.8593302406589122 21.100224697269134 10.272182281095965 0 0 0
405 1 1 0.5897 0.5395613707047384 19.364808439152263 9.760088624739796 0 0 0
248 1 1 0.5897 4.437932706904421 21.912371825598093 6.312475659373616 0 0 0
383 1 1 0.5897 3.5979419993276096 17.941054623755825 10.228659196313862 0 0 0
247 1 2 -1.1794 5.161768234426229 21.33344921973209 6.073657798857779 0 0 0
412 1 2 -1.1794 0.8685160302280089 21.20644211003667 5.819507531094211 0 0 0
95 1 1 0.5897 0.14110866857312487 21.623386459356894 9.916404875115859 1 0 0
380 1 1 0.5897 0.5679910703550074 20.087816300793918 13.30416101995159 0 0 0
88 1 2 -1.1794 5.221503970457013 21.43839131732223 13.064899458357148 0 0 0
381 1 1 0.5897 1.3794050667322366 21.365208260988886 13.26203360510513 0 0 0
90 1 1 0.5897 5.275845760614921 20.494598876958655 13.215398325363388 0 0 0
763 1 2 -1.1794 5.35432527954789 18.804466858429834 13.788699377309483 0 0 0
738 1 1 0.5897 3.553018378884357 21.97542220540622 13.713684028482238 0 0 0
89 1 1 0.5897 5.165576866005257 21.526849160082826 12.113471949838667 0 0 0
764 1 1 0.5897 4.647082838918554 18.204554050976647 13.551945581652276 0 0 0
474 1 1 0.5897 5.291352311892564 18.947330860625392 15.610910184183734 0 0 0
765 1 1 0.5897 6.143494034886057 18.397951317888904 13.43088213468464 0 0 0
350 1 1 0.5897 2.5973925352971357 22.498044873692606 15.714108587268274 0 0 0
736 1 2 -1.1794 2.7266795163859494 22.36347718484837 14.00116065873502 0 0 0
787 1 2 -1.1794 7.3148739197528005 22.74733570389521 14.12983929359366 0 0 0
503 1 1 0.5897 1.4350327414723691 18.076159738718616 13.644176732676893 0 0 0
504 1 1 0.5897 0.6188389837896104 18.667386786587315 14.773752402540918 0 0 0