LAMMPS data file via write_data, version 30 Jul 2021, timestep = 30000000

1296 atoms
2 atom types
864 bonds
1 bond types
432 angles
1 angle types

-10.668816077870158 12.648816077870158 xlo xhi
-9.087785961960043 12.077783961960042 ylo yhi
0.056123762642224406 21.80387523735493 zlo zhi
-9.172539284339374 1.7513845189786472 2.9035041463056337 xy xz yz

Masses

1 1.008
2 15.999

Pair Coeffs # lj/cut/tip4p/long/omp

1 0 0
2 0.21084 3.1668

Bond Coeffs # harmonic/omp

1 450 0.9572

Angle Coeffs # harmonic/omp

1 55 104.52

Atoms # full

280 94 2 -1.1794 -9.484641563044912 -4.507522446009424 1.495340768846329 1 1 0
270 90 1 0.5897 -8.47643776238941 -7.398058676313692 2.087413790537168 1 1 0
269 90 1 0.5897 -9.084007652623814 -6.039306610885483 2.3646551334849657 1 1 0
268 90 2 -1.1794 -8.960075208620378 -6.906236022421364 2.7511464676342476 1 1 0
314 105 1 0.5897 -8.879301647433028 -6.73457053858058 4.489248650594072 1 1 0
299 100 1 0.5897 -6.496645038699271 -7.962096044198623 4.104016573490397 1 1 0
163 55 2 -1.1794 -7.192812900815658 -7.886978102079787 0.7695683422327797 1 1 0
164 55 1 0.5897 -6.445914469987942 -8.349766505506702 1.149447294909206 1 1 0
298 100 2 -1.1794 -5.91422914857397 -7.203107065877887 4.136229251219321 1 1 0
73 25 2 -1.1794 -8.3846814248625 -3.7417123942332893 4.926039013694195 1 0 0
324 108 1 0.5897 -7.092564879579003 -4.333175652837429 3.6938447006594255 1 1 0
243 81 1 0.5897 -0.8694542829785341 -5.287341376017929 5.142652361786022 0 1 0
282 94 1 0.5897 -10.362644764814286 -4.161630568991749 1.6561286510352322 1 1 0
84 28 1 0.5897 -8.132200696138948 -0.4820972850963088 3.906208518670791 1 0 0
75 25 1 0.5897 -9.16342544991754 -3.322767347974091 4.559455377836424 1 0 0
281 94 1 0.5897 -8.934677947016286 -3.7301846761346997 1.3973879042299397 1 1 0
301 101 2 -1.1794 -7.855608823872626 -2.2495974841529733 1.3623053437056223 1 1 0
53 18 1 0.5897 -12.375814797715002 0.9753091270415553 2.166799851195976 1 0 0
59 20 1 0.5897 -13.638326000528057 -0.7838899092162652 3.3677869367390594 1 0 0
260 87 1 0.5897 -6.864757934689371 -6.210019006881749 0.43728640074805936 1 1 0
322 108 2 -1.1794 -6.406627831446305 -4.714096325106631 3.145440379676547 1 1 0
300 100 1 0.5897 -5.036305482354776 -7.5695697384128895 4.0297466575006275 1 1 0
307 103 2 -1.1794 -2.516427628771309 -0.7978372329738779 0.7369065034643374 1 1 0
256 86 2 -1.1794 -12.108830528219023 -3.424549050611332 1.8691183079629237 1 1 0
258 86 1 0.5897 -12.488031248172993 -2.899574319771089 1.1642277333915927 1 1 0
199 67 2 -1.1794 0.6170328931612037 -8.10252201024977 0.7990022152577687 1 1 0
90 30 1 0.5897 -3.885682328424643 -0.23742700142120832 1.807006899437527 1 0 0
69 23 1 0.5897 -11.121315727017459 -2.6327825136162675 3.259914802203399 1 0 0
272 91 1 0.5897 -9.383686878635235 -1.3829569838315674 1.174403615221049 1 1 0
83 28 1 0.5897 -9.616805287419687 -0.7545922468224653 4.0241048485515165 1 0 0
82 28 2 -1.1794 -8.972833779438627 -0.04676099416047741 4.048356818626768 1 0 0
271 91 2 -1.1794 -10.23941160537811 -0.9747489695171474 1.042232853782527 1 1 0
98 33 1 0.5897 -12.20428825499528 0.5622307866716767 4.564324391400916 1 0 0
54 18 1 0.5897 -11.493532014009475 -0.2550624676248283 2.1649072325663776 1 0 0
67 23 2 -1.1794 -10.711225934164528 -2.396525988222285 4.091933366529167 1 0 0
68 23 1 0.5897 -11.398608865706889 -2.5298504412387484 4.744650120036995 1 0 0
52 18 2 -1.1794 -12.24443169455995 0.1373461713143147 2.6104837866912223 1 0 0
261 87 1 0.5897 -6.782539494050583 -4.95529125429691 1.2804848613456559 1 1 0
323 108 1 0.5897 -6.328963710942027 -5.617826621304845 3.4513039463899897 1 1 0
313 105 2 -1.1794 -8.82093095900168 -6.456180553501958 5.403217278565934 1 1 0
3 1 1 0.5897 -1.284911227251742 -3.1769444369545896 4.226100700377268 0 0 0
103 35 2 -1.1794 -2.867064640498163 -2.1773063050715775 4.058394234837869 1 0 0
89 30 1 0.5897 -4.773847644442454 0.9241566385478297 2.19961462774662 1 0 0
273 91 1 0.5897 -10.604094476270697 -1.4234924274598209 0.27941392157816647 1 1 0
99 33 1 0.5897 -12.071042411796615 1.8350651088061287 5.373168659414697 1 0 0
88 30 2 -1.1794 -4.534263160495881 0.03375341666629694 2.456731813630556 1 0 0
302 101 1 0.5897 -7.441983327037919 -2.0604205971214853 2.204548521360802 1 1 0
107 36 1 0.5897 -9.383852006518188 1.552806147592337 3.3405496061506352 1 0 0
306 102 1 0.5897 -0.638560529892203 -7.461553173391202 1.978033142319673 1 1 0
304 102 2 -1.1794 -1.302406830593025 -7.03146824544393 2.5171964835929868 1 1 0
318 106 1 0.5897 -2.7024617304302394 -4.3226836562697875 1.5102536790024392 1 1 0
242 81 1 0.5897 -1.0393939933584342 -6.505366461238715 4.259702062908771 0 1 0
305 102 1 0.5897 -1.4433836383369538 -6.184440787517077 2.0941474343118287 1 1 0
316 106 2 -1.1794 -1.7913654858416148 -4.574253083806633 1.358627217374854 1 1 0
311 104 1 0.5897 -2.892931454892185 -7.862596549719338 3.17922007342854 1 1 0
293 98 1 0.5897 -4.907283909070331 -3.7829870752135264 2.408374961757553 1 1 0
303 101 1 0.5897 -7.128162545970162 -2.289871746284563 0.7413914201827322 1 1 0
294 98 1 0.5897 -4.694196654430822 -2.9093350087830867 1.1904785271758085 1 1 0
315 105 1 0.5897 -8.639211321230542 -5.5174779524173925 5.357064566116415 1 1 0
96 32 1 0.5897 -6.095604838232116 -1.9698525574822803 4.294804762085992 1 0 0
95 32 1 0.5897 -5.870419759109369 -0.9278672839538125 3.2198474538730264 1 0 0
105 35 1 0.5897 -3.301339010685438 -2.3978351045883413 3.234366327030327 1 0 0
94 32 2 -1.1794 -6.55897915014432 -1.4343266950891085 3.6507683956002044 1 0 0
104 35 1 0.5897 -3.5229280281907895 -2.359267271844092 4.7314742284449025 1 0 0
26 9 1 0.5897 -4.155796000048792 0.3012326037584181 4.344376641239153 0 0 0
292 98 2 -1.1794 -4.229446168010948 -3.3109330710600275 1.9246355080407307 1 1 0
259 87 2 -1.1794 -6.768512123485325 -5.259789540186552 0.37310620965580105 1 1 0
25 9 2 -1.1794 -4.095841492834286 0.6361263989876189 5.2390860041745215 0 0 0
310 104 2 -1.1794 -3.5407718505515655 -8.42762436492331 3.600345718878065 1 1 0
27 9 1 0.5897 -3.9765299988926675 1.5801315933716875 5.1345429395349305 0 0 0
165 55 1 0.5897 -7.495299963569863 -8.4583056904639 0.06362629860008436 1 1 0
275 92 1 0.5897 -10.491766264883987 -7.768417978010845 3.4209527071800863 1 1 0
241 81 2 -1.1794 -1.0214827188039894 -6.231817582669412 5.17681575196839 0 1 0
44 15 1 0.5897 -9.891424617021295 0.8523557455528028 0.47889133026437597 1 0 0
97 33 2 -1.1794 -12.238362232713072 0.8966208162543055 5.460584556528023 1 0 0
1226 409 1 0.5897 -9.734974061280685 -5.652523275436431 0.1930131999743113 0 0 1
317 106 1 0.5897 -1.3000744840843286 -3.7566601452617627 1.4391146255154053 1 1 0
1046 349 1 0.5897 -4.864144096443914 1.3204392965412897 0.16154038986474978 0 -1 1
201 67 1 0.5897 0.4532841367800682 -8.699029624857495 0.06849294433171231 1 1 0
309 103 1 0.5897 -2.8412712468771053 -1.423569919055704 0.08944382583490808 1 1 0
420 140 1 0.5897 -9.300582182181245 -6.223470275908993 10.119174657690953 1 0 0
618 206 1 0.5897 -7.860970937142642 -7.514914828612143 6.553457840778021 1 1 0
413 138 1 0.5897 -7.683446266909417 -3.6701755098478896 7.967980117345193 1 0 0
419 140 1 0.5897 -8.881054472284617 -5.295893564689399 8.99865394640037 1 0 0
418 140 2 -1.1794 -9.644693012239415 -5.7386598446660155 9.368969750305626 1 0 0
414 138 1 0.5897 -6.8499557626931455 -4.905145326046965 7.698992780188166 1 0 0
350 117 1 0.5897 -7.035425026100936 -4.059203460966781 9.990321197334975 0 0 0
412 138 2 -1.1794 -7.47723598416472 -4.535848861883538 8.320661564266453 1 0 0
429 143 1 0.5897 -6.547184347303008 -7.249887336181619 8.660601516925523 1 0 0
427 143 2 -1.1794 -6.166702749389815 -6.991777133522256 9.500162181835247 1 0 0
428 143 1 0.5897 -6.878142810894399 -7.104066453003918 10.130687998434528 1 0 0
627 209 1 0.5897 -10.258932493788201 -6.686835892930929 6.425031800704433 1 1 0
442 148 2 -1.1794 -7.5200737530671375 2.380368039656064 9.496800427792824 0 0 0
330 110 1 0.5897 -3.0691342472367076 -0.36477928655697234 6.403562779074535 0 0 0
435 145 1 0.5897 -7.505411388363174 -0.823867756064832 9.898899551845348 0 0 0
425 142 1 0.5897 -7.44485678053338 -1.3275839963532148 7.0505104563899605 1 0 0
400 134 2 -1.1794 -10.65010928528554 -0.6496553648963737 7.205125821307981 1 0 0
536 179 1 0.5897 -9.818362891751066 -0.11083315531479698 10.149379385989082 1 0 0
402 134 1 0.5897 -11.12652150858316 -0.08004011548447387 6.601093089825671 1 0 0
526 176 2 -1.1794 -12.70861704355013 1.4257132815677362 9.310986163078628 1 0 0
405 135 1 0.5897 -5.14719176018366 -2.44933738453068 6.41624660185472 1 0 0
537 179 1 0.5897 -9.444002277831842 -0.0835469813105938 8.682732898515429 1 0 0
426 142 1 0.5897 -8.931404374819712 -1.6138017763259684 7.029258108815472 1 0 0
401 134 1 0.5897 -11.334418167085587 -1.1141764612829306 7.687046839491001 1 0 0
527 176 1 0.5897 -12.019856217666185 1.83123734869128 8.784240436259264 1 0 0
535 179 2 -1.1794 -9.084720166612005 0.059017639506175 9.558422973352318 1 0 0
424 142 2 -1.1794 -8.078503497706992 -2.0438567815221145 7.092435781106121 1 0 0
528 176 1 0.5897 -12.242368639650309 0.8322190629925821 9.89977485775956 1 0 0
458 153 1 0.5897 -10.300316212643816 2.8008937466728145 9.838786088792824 0 0 0
337 113 2 -1.1794 -6.297830922115638 0.2503108841296662 6.9499569999070685 0 0 0
626 209 1 0.5897 -10.446273598436584 -6.4160392681517555 7.902704921969503 1 1 0
631 211 2 -1.1794 -5.67001141282943 -5.603508044746171 6.4578147532500205 1 1 0
415 139 2 -1.1794 -8.578839806591407 1.7234297532017813 6.213722203718916 1 0 0
329 110 1 0.5897 -3.4539939146793532 -1.2768239966253967 7.5489986088144425 0 0 0
454 152 2 -1.1794 -5.009791269066386 1.3330917350032987 9.197631899937695 0 0 0
335 112 1 0.5897 -5.095434716658309 -5.4412047567584985 9.546910802597175 0 0 0
433 145 2 -1.1794 -6.666188083981481 -1.1748002156011488 10.197065027136558 0 0 0
544 182 2 -1.1794 0.238271094425496 -7.682058402871181 7.151665967538406 0 1 0
404 135 1 0.5897 -5.285230777697715 -3.7456364059294582 5.646409940378148 1 0 0
555 185 1 0.5897 -2.597083752765851 -6.3825134997609165 6.2417237092377205 0 1 0
416 139 1 0.5897 -7.7346933847701695 1.391586781880445 6.51974434840168 1 0 0
347 116 1 0.5897 -1.0335694123467931 -5.236045403237815 8.677283510426822 0 0 0
348 116 1 0.5897 -1.2790336750861417 -6.348209183405738 9.674694277697519 0 0 0
336 112 1 0.5897 -3.611945593715385 -5.193469802550911 9.373439571034295 0 0 0
359 120 1 0.5897 -4.71313595147305 -3.117559603350549 8.580698694180255 0 0 0
346 116 2 -1.1794 -1.7324984087492332 -5.6893152445417705 9.14882978870718 0 0 0
632 211 1 0.5897 -4.845520147033158 -5.956140270169334 6.792796098638525 1 1 0
546 182 1 0.5897 -0.22342726665735313 -7.149283721551793 6.504153889787178 0 1 0
553 185 2 -1.1794 -3.1857735303929777 -6.750526209133358 6.90073732132427 0 1 0
554 185 1 0.5897 -2.7038304694587234 -6.67137473175451 7.7239710841198175 0 1 0
334 112 2 -1.1794 -4.45295554997201 -4.740424081048863 9.435382996379028 0 0 0
356 119 1 0.5897 1.1329820200377405 -6.911191533397226 10.039048647137145 0 0 0
338 113 1 0.5897 -5.8326875942244 0.5854328204376511 7.716496560036067 0 0 0
522 174 1 0.5897 -9.91214597774398 2.1617279119802557 7.466634518006152 1 0 0
456 152 1 0.5897 -4.520911432043639 0.7311036208748476 9.75879809407348 0 0 0
360 120 1 0.5897 -5.505401287654356 -1.8419767486255907 8.774200092011457 0 0 0
328 110 2 -1.1794 -2.694953974331999 -0.9064640702281892 7.0984294056341195 0 0 0
339 113 1 0.5897 -5.661179739777047 0.31052829477540733 6.237666021529456 0 0 0
455 152 1 0.5897 -4.337768093669594 1.7829887897943806 8.685500150331587 0 0 0
411 137 1 0.5897 -13.587341273752 0.5268588929414584 6.4767339791741785 1 0 0
444 148 1 0.5897 -6.639325963174252 2.005896107461316 9.51764249082347 0 0 0
358 120 2 -1.1794 -4.859573544262699 -2.252093736930152 8.198819525949146 0 0 0
443 148 1 0.5897 -8.103936267639405 1.6233855522643008 9.545704356924398 0 0 0
351 117 1 0.5897 -6.822056693268042 -2.852973870613149 10.88001245374476 0 0 0
464 155 1 0.5897 -1.957762806097076 0.1511484928577591 9.852140241597029 0 0 0
616 206 2 -1.1794 -7.409378209244267 -8.023136323198768 7.227293832039389 1 1 0
417 139 1 0.5897 -8.85341621233689 1.098385422836035 5.542753507553188 1 0 0
669 223 1 0.5897 -4.2266081934258635 -3.5464045339493744 10.917825346755018 0 0 0
434 145 1 0.5897 -6.4089314259875945 -0.6009693418192921 10.918737278352797 0 0 0
326 109 1 0.5897 -3.5289548063779526 -7.638296322378514 10.725548207662618 0 0 0
74 25 1 0.5897 -8.122818573336414 -3.171018302806295 5.648541065399029 1 0 0
403 135 2 -1.1794 -5.125963498959131 -2.8090129238067654 5.5294312751581245 1 0 0
633 211 1 0.5897 -5.889907732968727 -6.169341739666633 5.7177121736976755 1 1 0
357 119 1 0.5897 1.1693866394019619 -7.167954622867526 8.547517214979502 0 0 0
465 155 1 0.5897 -1.7725933950424224 -0.18365011556614164 8.387365681908456 0 0 0
349 117 2 -1.1794 -7.067220814895958 -3.777957414967502 10.904724861822178 0 0 0
652 218 2 -1.1794 -5.758627236460078 -5.395975484141795 12.725858935589088 0 0 0
780 260 1 0.5897 -7.481652492653836 -3.840538396570942 15.412860510118382 0 0 0
779 260 1 0.5897 -7.36826035679205 -2.839778398975363 14.282560589910405 0 0 0
778 260 2 -1.1794 -7.999107453127146 -3.392881796644321 14.74343923394065 0 0 0
768 256 1 0.5897 -9.71707161363869 -2.734693446542714 15.06055273600858 0 0 0
654 218 1 0.5897 -6.121554228942863 -4.850851488066466 12.027721345698508 0 0 0
653 218 1 0.5897 -6.509310122802476 -5.605100873515186 13.281795558320043 0 0 0
662 221 1 0.5897 -8.777559846381731 -4.131413647664855 13.34938988127275 0 0 0
661 221 2 -1.1794 -9.295294394600278 -4.389955601682589 12.58691805143046 0 0 0
663 221 1 0.5897 -8.708741288041743 -4.256805422245312 11.84225514001243 0 0 0
684 228 1 0.5897 -8.481815805831987 -6.134888852660545 14.580050233105034 0 0 0
682 228 2 -1.1794 -7.854962383628929 -6.588187510159863 14.016195539336767 0 0 0
888 296 1 0.5897 -10.73795462985721 3.164870211661258 15.3517371234546 0 0 0
739 247 2 -1.1794 -11.585970696770946 -3.000457832055787 11.940117810995408 1 0 0
902 301 1 0.5897 -5.086668301684174 1.841520441683949 16.228899375825527 0 0 0
865 289 2 -1.1794 -12.827110099365235 1.2665577247021673 15.600460381689404 0 0 0
766 256 2 -1.1794 -10.582872266012233 -2.3267796971965335 15.080029973538032 0 0 0
806 269 1 0.5897 -4.261636790954734 3.019974479387587 13.248608530817268 0 0 0
835 279 2 -1.1794 -11.420324660389051 -0.35327494100976686 10.951393893673597 1 0 0
790 264 2 -1.1794 -11.028603227033859 0.18767442595054362 13.731427400644915 0 0 0
762 254 1 0.5897 -9.32362881343345 2.1157399089729676 11.900683066926016 0 0 0
761 254 1 0.5897 -9.579017339558373 1.1675723878737436 13.052947641729645 0 0 0
655 219 2 -1.1794 -0.27199218614545373 -7.306832334096547 11.020138981034359 0 0 0
792 264 1 0.5897 -11.640864068378892 0.6222897518241979 14.325218059054606 0 0 0
807 269 1 0.5897 -4.003501126051234 2.9881235073093837 11.757204332607444 0 0 0
760 254 2 -1.1794 -8.88005266591847 1.6459464348789368 12.606946154819553 0 0 0
837 279 1 0.5897 -11.305919252352677 -0.12455677090087036 11.873803189633087 1 0 0
791 264 1 0.5897 -10.784363945927064 -0.6184099465657056 14.186266028839853 0 0 0
769 257 2 -1.1794 -12.494964641147515 2.737773793698345 12.44441973249662 0 0 0
788 263 1 0.5897 -5.032163742536951 -4.47285672722864 15.540600245624999 0 0 0
805 269 2 -1.1794 -4.694438427733591 2.8672718123498093 12.40860116570915 0 0 0
896 299 1 0.5897 -8.086553184498756 2.5511726407243085 15.551694791637233 0 0 0
819 273 1 0.5897 -5.481818252714376 -0.3562153358553086 16.26526761611437 0 0 0
771 257 1 0.5897 -11.809765427555341 2.8540766894280623 11.786172447156476 0 0 0
924 308 1 0.5897 -2.8684842660778793 3.125303332329503 15.436930487486029 0 0 0
897 299 1 0.5897 -7.952007431761583 2.4765303312410705 14.045626042755973 0 0 0
678 226 1 0.5897 -4.090822450652228 -6.152044841901123 12.344120349126946 0 0 0
802 268 2 -1.1794 -2.7277195839821724 -2.166000876838055 14.90492861794568 0 0 0
816 272 1 0.5897 0.07066689253212566 -3.697732721764634 15.142945159056525 0 0 0
727 243 2 -1.1794 -8.248903833661156 -7.360840497962414 11.272518067817511 1 0 0
667 223 2 -1.1794 -3.939250272941459 -3.012358056254488 11.658421136365774 0 0 0
789 263 1 0.5897 -4.836112654017996 -4.7743877843711555 14.070023406434201 0 0 0
676 226 2 -1.1794 -3.2687411204338765 -6.642484245217463 12.349887426520402 0 0 0
814 272 2 -1.1794 -0.27818332393916023 -3.2323214697853 14.38271065851313 0 0 0
785 262 1 0.5897 -5.821208288024604 1.3503198173258184 12.456148058194962 0 0 0
657 219 1 0.5897 -0.3702309793256138 -6.920566268394221 11.890435479991964 0 0 0
803 268 1 0.5897 -3.2900946336554417 -2.932979698018084 14.796383973605709 0 0 0
795 265 1 0.5897 -2.8945961807637497 -5.227269037554999 15.255680062348516 0 0 0
720 240 1 0.5897 -0.877922291482875 -6.256229320811613 14.262778817361706 0 0 0
804 268 1 0.5897 -1.837214304926949 -2.5081833069682986 14.825585143341819 0 0 0
698 233 1 0.5897 -1.2498973238744 -4.157398022516392 13.03595692554982 0 0 0
699 233 1 0.5897 -0.9368822564136732 -4.184478958208927 11.555000789093775 0 0 0
697 233 2 -1.1794 -1.5959846524569645 -4.454634234595497 12.194456844655555 0 0 0
718 240 2 -1.1794 -0.17075400637255456 -6.690475122241088 13.785587322316141 0 0 0
677 226 1 0.5897 -2.591567714721716 -5.977327287502492 12.226133459180321 0 0 0
668 223 1 0.5897 -3.0850183905600383 -3.372599169495735 11.896888406561054 0 0 0
793 265 2 -1.1794 -2.079550912376728 -5.549374095191368 15.64075650976762 0 0 0
773 258 1 0.5897 -5.914691816034485 -1.0223643326263119 13.279570733099801 0 0 0
774 258 1 0.5897 -5.239380256886455 -2.347207732730422 12.99501408369644 0 0 0
818 273 1 0.5897 -5.451383059444118 -1.6022047572222462 15.40580262223951 0 0 0
787 263 2 -1.1794 -4.3870584387841145 -4.416069119654451 14.835670350651055 0 0 0
901 301 2 -1.1794 -5.337914839032053 1.3047475484300453 15.477221110301645 0 0 0
772 258 2 -1.1794 -5.828063846984427 -1.915109115715893 13.613954961164797 0 0 0
827 276 1 0.5897 -3.1048243163627482 -0.612700222044495 14.07069650396597 0 0 0
765 255 1 0.5897 -3.259764180344993 0.09867364165224579 11.839081469227368 0 0 0
784 262 2 -1.1794 -6.389946633343326 0.5900881893513521 12.334105893449092 0 0 0
828 276 1 0.5897 -4.00213772049962 0.5761726150650404 14.342090063240825 0 0 0
826 276 2 -1.1794 -3.34220053066547 0.2498853111118784 13.730236661088316 0 0 0
740 247 1 0.5897 -10.708714174880253 -3.241792240994398 12.237650985747853 1 0 0
895 299 2 -1.1794 -7.471304480837606 2.7175955207316616 14.837501870410545 0 0 0
903 301 1 0.5897 -6.128761916554261 1.7233294643538972 15.137076681237504 0 0 0
786 262 1 0.5897 -7.2758292433729 0.9526319577416249 12.32162814977824 0 0 0
836 279 1 0.5897 -11.593014740900845 -1.294794493959551 10.957196002530438 1 0 0
729 243 1 0.5897 -7.933409362445333 -7.012807427718689 12.106527428736916 1 0 0
767 256 1 0.5897 -11.194837370518904 -3.0587557849837257 15.002439391731569 0 0 0
770 257 1 0.5897 -12.08427439488403 3.002261974639639 13.267599547847182 0 0 0
763 255 2 -1.1794 -3.3448194942531293 -0.34995659036910887 10.997801687413068 0 0 0
797 266 1 0.5897 -2.02259303428996 1.3517918826781141 13.113309098282983 0 0 0
689 230 1 0.5897 1.2541910947338817 -5.843707162370022 13.07580692693365 0 0 0
1137 379 1 0.5897 -2.5916101263771374 -1.0796448976646413 16.33387790792529 0 0 0
757 253 2 -1.1794 -9.910347307553998 -5.686475091699039 15.723534449703962 0 0 0
794 265 1 0.5897 -1.899663424550404 -4.9456624255919515 16.361482818217326 0 0 0
817 273 2 -1.1794 -5.551578539392064 -1.3097840984968823 16.311733504131276 0 0 0
758 253 1 0.5897 -9.673467667701349 -4.958452027288198 16.298131187486725 0 0 0
764 255 1 0.5897 -3.5707195027207685 -1.251187454425871 11.228135714216698 0 0 0
1150 384 2 -1.1794 -6.2280597632048424 -4.255782893429487 19.343895910626195 0 0 0
1152 384 1 0.5897 -6.853048254637914 -3.8130833057969014 19.91814405609548 0 0 0
1227 409 1 0.5897 -9.104715911678676 -2.898908382173868 20.934481781022278 0 0 0
1109 370 1 0.5897 -8.840558918555535 -3.2403065275114704 17.991357932034816 0 0 0
1089 363 1 0.5897 -6.393934340286854 -4.461230056839726 17.53710331771439 0 0 0
1151 384 1 0.5897 -6.195531924541325 -5.154458052124371 19.671964887034534 0 0 0
1108 370 2 -1.1794 -9.462649955147285 -3.957864806521197 17.871265599233055 0 0 0
1225 409 2 -1.1794 -8.266700932445719 -3.280243868252689 21.196513458307983 0 0 0
1125 375 1 0.5897 1.1776672869685179 -4.490523988709828 17.32683507201007 0 0 0
1218 406 1 0.5897 -13.36696516659876 3.2878687794488517 17.85140318694485 0 0 0
1253 418 1 0.5897 -4.157739698936917 3.5470791524525804 17.74263870470535 0 0 0
1250 417 1 0.5897 -11.654494583873394 0.7472001795750334 20.74178980429592 0 0 0
1130 377 1 0.5897 -7.3175482791425885 -1.4528108972311689 18.722348479914515 0 0 0
1248 416 1 0.5897 -5.893030596959486 -1.3941824332698012 20.735441820724574 0 0 0
1195 399 2 -1.1794 -9.628097371131243 2.302145007250429 16.567103467694373 0 0 0
1129 377 2 -1.1794 -7.772127975197647 -1.7219510562914468 17.924116927099305 0 0 0
1143 381 1 0.5897 -8.463715500460824 -5.052693703726249 21.596991048253614 0 0 0
1131 377 1 0.5897 -7.103373352601864 -1.677812607511716 17.240643478156336 0 0 0
1123 375 2 -1.1794 1.0641173411218556 -4.740038222366378 16.40972986629773 0 0 0
1246 416 2 -1.1794 -6.260851089567185 -0.8578157358634151 20.03309666241104 0 0 0
1010 337 1 0.5897 -10.965150176213113 4.312171411455219 21.570977443905683 0 -1 0
1285 429 2 -1.1794 -3.796550795074502 0.8985123556133026 21.56454935219824 0 0 0
1047 349 1 0.5897 -4.221723398632793 3.9889589294342134 20.905794480881795 0 -1 0
1121 374 1 0.5897 -4.898704273835852 -3.392959844484455 18.708279765037965 0 0 0
1219 407 2 -1.1794 -10.436588253576762 -1.9868935636987555 20.309428015310587 0 0 0
1099 367 2 -1.1794 -9.931796941816222 -0.3831751216715755 17.051996054400632 0 0 0
1236 412 1 0.5897 -7.9646031167306575 -0.09051911423553172 20.381346480073418 0 0 0
1009 337 2 -1.1794 -11.262721169322576 3.679181359510366 20.917483475593215 0 -1 0
1100 367 1 0.5897 -9.13456844604352 -0.7841039614106755 17.39844798175855 0 0 0
1234 412 2 -1.1794 -8.857223695648775 0.20560353130482056 20.56001917505482 0 0 0
1259 420 1 0.5897 -9.087755420613158 1.794731992901264 19.75445485660365 0 0 0
1258 420 2 -1.1794 -9.187994737118359 2.61987256720726 19.279703946408027 0 0 0
1260 420 1 0.5897 -9.995062758629647 3.000025104433824 19.62683379736275 0 0 0
1216 406 2 -1.1794 -12.468105438106361 2.9619222085735295 17.804653055348474 0 0 0
1197 399 1 0.5897 -9.478609441089981 2.633207092333036 17.452711259817526 0 0 0
1206 402 1 0.5897 -11.176697984015355 0.15531025772095397 18.469173376726587 0 0 0
1235 412 1 0.5897 -9.389021590414762 -0.5884182970072995 20.505030596649156 0 0 0
1196 399 1 0.5897 -9.757197407692821 1.3605642647971248 16.68144743884254 0 0 0
1294 432 2 -1.1794 -1.5003236535069657 2.6188890931048423 19.22281519478826 0 0 0
1295 432 1 0.5897 -1.3043722232274213 1.7498253655049876 19.573024362001014 0 0 0
1165 389 2 -1.1794 -0.16187548057785506 -1.7321558570835034 17.953549929077013 0 0 0
1142 381 1 0.5897 -8.755176306640076 -6.249540548904092 20.716838435109985 0 0 0
1187 396 1 0.5897 1.674591352335387 -5.161146633741791 19.44076306890748 0 0 0
1011 337 1 0.5897 -12.152569505452803 3.957968069555962 20.701140595843242 0 -1 0
1045 349 2 -1.1794 -3.3733928857720006 3.648554632098465 21.190075871959387 0 -1 0
1217 406 1 0.5897 -11.925826577236355 3.750633946619155 17.817755400411606 0 0 0
1251 417 1 0.5897 -11.536376751378842 2.006938526685836 21.573170588925706 0 0 0
1287 429 1 0.5897 -3.709262676645391 1.8515996177044354 21.582431130840597 0 0 0
1087 363 2 -1.1794 -6.485432314000499 -4.737136294256388 16.625098914817734 0 0 0
1252 418 2 -1.1794 -4.824939436592802 2.860727696775191 17.751486178788284 0 0 0
1240 414 2 -1.1794 -4.146391699535731 0.513750675630618 18.887320348888466 0 0 0
1088 363 1 0.5897 -6.685020431822585 -5.671955624020967 16.676011763961903 0 0 0
1178 393 1 0.5897 -0.9799226238663294 -6.3132190683051075 20.674237934265037 0 0 0
1247 416 1 0.5897 -5.498176327740407 -0.47853409379081846 19.596299887242346 0 0 0
1177 393 2 -1.1794 -1.0132971750758415 -5.925794905642251 21.548910495722623 0 0 0
1145 382 1 0.5897 -1.21049065619248 -3.220585438252934 17.911038688508015 0 0 0
1122 374 1 0.5897 -4.60069828395179 -2.410404490649812 17.595747422838436 0 0 0
1242 414 1 0.5897 -3.542202976611752 0.1311483140743519 18.25099184958482 0 0 0
1270 424 2 -1.1794 -1.064066788106766 0.29744564151338615 20.440451503289907 0 0 0
1271 424 1 0.5897 -1.6625455144517005 -0.44957311563334024 20.43066229304395 0 0 0
1144 382 2 -1.1794 -1.7978263883738652 -3.975608698763631 17.94691643978677 0 0 0
1263 421 1 0.5897 -1.3735037530209286 -2.9219052508919834 20.59707133834133 0 0 0
1133 378 1 0.5897 -1.4299338559961967 -5.702663122954113 18.58373315333825 0 0 0
1188 396 1 0.5897 0.7317587891398389 -3.994881521498195 19.648469023505086 0 0 0
1257 419 1 0.5897 -3.2921008494120265 -2.214631933393692 19.674761636579312 0 0 0
1255 419 2 -1.1794 -2.7941064943092826 -1.8378635613031307 20.400227129166254 0 0 0
1261 421 2 -1.1794 -0.5729023350366269 -3.3106237027000383 20.949602407284388 0 0 0
1256 419 1 0.5897 -3.4168838848853325 -1.8031735612398068 21.126341103344018 0 0 0
1120 374 2 -1.1794 -4.181836596206954 -2.910794857555647 18.29605302039075 0 0 0
1146 382 1 0.5897 -2.6721836516399318 -3.595618694043388 18.03346991002209 0 0 0
1205 402 1 0.5897 -11.967673448056795 1.4226770074036494 18.714901276585678 0 0 0
1231 411 2 -1.1794 -1.7632972613740403 2.0679221498425253 16.51268515351323 0 0 0
1296 432 1 0.5897 -2.1653604365495447 2.9716366771042253 19.81412369125396 0 0 0
1254 418 1 0.5897 -5.649588335647388 3.3292915853855707 17.881054876317897 0 0 0
1135 379 2 -1.1794 -2.3797891383531855 -0.5087670185528328 17.072459532074326 0 0 0
1286 429 1 0.5897 -3.742417657715908 0.6698936929902644 20.63662227314473 0 0 0
1136 379 1 0.5897 -1.558527770584993 -0.8585007636726019 17.41823553692778 0 0 0
1233 411 1 0.5897 -1.6653122337037143 2.3617034053812116 17.418410378831226 0 0 0
1241 414 1 0.5897 -4.4554477517715805 1.3184828025850628 18.471152924177595 0 0 0
1232 411 1 0.5897 -1.9528544325678716 1.1322752705735812 16.583012430646647 0 0 0
1272 424 1 0.5897 -0.19551636860472854 -0.08939125051841756 20.329254928348355 0 0 0
1097 366 1 0.5897 -9.20702466878804 -5.59468065846392 18.666337358914674 0 0 0
1229 410 1 0.5897 -7.910383346608333 3.628660524981914 18.636948907073837 0 0 0
1262 421 1 0.5897 -0.3251340314923663 -2.7350092222557354 21.67316642387064 0 0 0
1124 375 1 0.5897 0.8422028248464404 -5.670714607457855 16.439895420687904 0 0 0
1186 396 2 -1.1794 1.4697393062606423 -4.285580009947704 19.112531140658533 0 0 0
1141 381 2 -1.1794 -8.686077974599076 -5.983030480185098 21.63359670262537 0 0 0
1249 417 2 -1.1794 -11.606815132681067 1.0551373020642263 21.64686023226713 0 0 0
1204 402 2 -1.1794 -11.86786859987269 0.5212689299279596 19.021184828283538 0 0 0
1166 389 1 0.5897 0.30071576671603495 -1.6292938563974193 18.785220400338105 0 0 0
1179 393 1 0.5897 -0.8837544176296515 -4.988880681657122 21.401542698420727 0 0 0
1096 366 2 -1.1794 -9.00702998645556 -6.475186788120137 18.98418870880335 0 0 0
1110 370 1 0.5897 -10.314637169840163 -3.527375152419779 17.79935771622094 0 0 0
1101 367 1 0.5897 -10.285128736795386 -1.0355185803280111 16.447112551719634 0 0 0
866 289 1 0.5897 -12.579697755055678 1.7372425482788802 16.396388768131693 0 0 0
40 14 2 -1.1794 -15.155802142563282 3.7142001835043015 1.8234377577880307 1 0 0
177 59 1 0.5897 -14.148244178124287 4.541005217444946 3.2791399268276518 1 0 0
56 19 1 0.5897 -12.627259107808094 5.963457600738673 1.1729185252671026 1 0 0
66 22 1 0.5897 -13.616422572934997 2.7889404103496283 1.479347594427921 1 0 0
65 22 1 0.5897 -12.189519961549301 3.2949797536270022 1.4853880390550815 1 0 0
64 22 2 -1.1794 -12.712543510506748 2.5067905174441645 1.3387175320640832 1 0 0
191 64 1 0.5897 -12.613136006157962 6.324807615302335 3.986564835243495 1 0 0
183 61 1 0.5897 -12.193498583562983 3.970161453227032 4.4312471938207505 1 0 0
175 59 2 -1.1794 -13.77893476839239 4.918544039663761 4.077469297997158 1 0 0
176 59 1 0.5897 -14.435569737997701 4.743631597042732 4.751666174205343 1 0 0
181 61 2 -1.1794 -11.449577005158197 3.4744496058457965 4.773586983588442 1 0 0
55 19 2 -1.1794 -13.501705092617135 6.247400764840844 0.9063155304812002 1 0 0
42 14 1 0.5897 -15.61979147049652 4.144434567177891 1.105191118108369 1 0 0
108 36 1 0.5897 -10.097990748683582 2.865629399641241 3.5828588532163352 1 0 0
215 72 1 0.5897 -12.415268495401143 8.660184121539872 3.4318598469168284 1 0 0
190 64 2 -1.1794 -12.025693642455732 7.076663917568743 4.063597635891597 1 0 0
194 65 1 0.5897 -13.698925990426385 11.989790014282393 2.298596677984307 1 0 0
153 51 1 0.5897 -13.005386317252086 9.276780819235155 1.1697215614607712 1 0 0
216 72 1 0.5897 -13.117646029530448 9.973401441537563 3.7045414291009298 1 0 0
162 54 1 0.5897 -14.668114102663335 6.871374522674865 2.1136294404012017 1 0 0
151 51 2 -1.1794 -12.932151056080148 8.875303490384338 0.303856537656348 1 0 0
148 50 2 -1.1794 -18.10313412529894 10.92706368985021 2.041258903686738 1 0 0
174 58 1 0.5897 -16.65592107255457 9.994371860352961 1.5827902215584102 1 0 0
214 72 2 -1.1794 -12.501847202216924 9.5549303607616 3.1028613977477764 1 0 0
109 37 2 -1.1794 -3.882356416236105 3.2958907730129123 4.642522343381159 0 0 0
206 69 1 0.5897 -15.001527478104407 7.283965355884957 4.6593820462730715 1 0 0
160 54 2 -1.1794 -15.280012535815427 7.261020289994017 2.7382122180136186 1 0 0
173 58 1 0.5897 -15.185312133375437 10.341243855194572 1.4870229473053176 1 0 0
85 29 2 -1.1794 -11.110208415267246 4.8732479754102105 1.6165258689649298 1 0 0
219 73 1 0.5897 -7.485661371581517 10.709534022262096 4.207976669560913 0 0 0
291 97 1 0.5897 -15.209048306181897 10.781817128880105 4.75515750631626 1 0 0