LAMMPS data file via write_data, version 30 Jul 2021, timestep = 26000000

972 atoms
2 atom types
648 bonds
1 bond types
324 angles
1 angle types

0.23199687430449245 19.76800412569267 xlo xhi
0.05839072332737061 19.941610276671668 ylo yhi
0.13829462366524403 20.56170337634675 zlo zhi

Masses

1 1.008
2 15.999

Pair Coeffs # lj/cut/tip4p/long/omp

1 0 0
2 0.21084 3.1668

Bond Coeffs # harmonic/omp

1 450 0.9572

Angle Coeffs # harmonic/omp

1 55 104.52

Atoms # full

4 2 2 -1.1794 4.430675132261372 1.1932687587886515 3.1797250291110943 0 0 0
5 2 1 0.5897 4.697774640671882 0.473859657251365 2.6076128385541257 0 0 0
236 79 1 0.5897 1.252241560567027 0.16652660128461394 2.2253312724915943 0 1 0
10 4 2 -1.1794 1.6433804024461858 4.0821455009763365 4.093495717415729 0 0 0
11 4 1 0.5897 1.374241252650417 3.3171555244415636 3.585027662422277 0 0 0
12 4 1 0.5897 2.5995485131590588 4.076556899154476 4.047654052178498 0 0 0
16 6 2 -1.1794 4.398840348441679 3.8735997283757087 3.5479932728060075 0 0 0
18 6 1 0.5897 4.406956883777164 2.9455042105986213 3.3139912988185416 0 0 0
23 8 1 0.5897 2.901401838303794 0.8133360675074451 4.234632987295068 0 0 0
31 11 2 -1.1794 1.1188262231356303 1.9724640432421197 2.433203472544114 0 0 0
33 11 1 0.5897 1.680924020669169 2.210812626256186 1.6959868268800136 0 0 0
22 8 2 -1.1794 2.414998070277894 0.8663586352114891 5.05732941988173 0 0 0
17 6 1 0.5897 4.53566356664056 4.331413707111692 2.718634142198577 0 0 0
3 1 1 0.5897 3.467347088540654 2.7281830601281043 0.4362168326216169 0 0 0
6 2 1 0.5897 5.019477015812324 1.1328659744094702 3.932003603484012 0 0 0
356 119 1 0.5897 1.654394432220275 2.579857468481651 8.382612727807883 0 0 0
27 9 1 0.5897 2.776314814199636 4.675051007714503 6.693339994708318 0 0 0
325 109 2 -1.1794 2.7831647233363936 2.8129755188715597 6.895647510149847 0 0 0
326 109 1 0.5897 2.629555345084615 2.1349256458516805 6.237753833126758 0 0 0
327 109 1 0.5897 3.6933599266767723 2.6857305717908373 7.163456939480789 0 0 0
342 114 1 0.5897 4.800711183662013 4.503227299446672 9.814408937526252 0 0 0
355 119 2 -1.1794 1.0443538207677958 2.4106260324324613 9.100571630689352 0 0 0
341 114 1 0.5897 4.726337067857669 3.025130322889639 10.13304685308605 0 0 0
24 8 1 0.5897 2.7257315873364374 0.11905418495262993 5.568373594288971 0 0 0
328 110 2 -1.1794 4.235452666244987 1.1543252539756559 10.01609787532701 0 0 0
561 187 1 0.5897 0.9577858593766714 0.6751418156671619 8.869113739015878 0 1 0
335 112 1 0.5897 1.448861849522828 3.6987972400837084 10.30929120694199 0 0 0
330 110 1 0.5897 4.612295683568774 0.587471377319734 9.343128036536381 0 0 0
102 34 1 0.5897 0.7560138021103813 0.8233657072154816 5.265701952076492 1 0 0
336 112 1 0.5897 2.68265049022879 4.299209451395734 10.949112695019148 0 0 0
350 117 1 0.5897 2.7099234597674546 4.771597730121387 13.958129110957033 0 0 0
346 116 2 -1.1794 2.066042334149789 0.9720478307938261 11.917541040453065 0 0 0
347 116 1 0.5897 1.1222887546316043 0.8688909675378925 11.794927225200883 0 0 0
348 116 1 0.5897 2.427637019402081 0.9443870315474098 11.031712611959131 0 0 0
334 112 2 -1.1794 1.7382723600853172 4.427159218021265 10.858779357797507 0 0 0
649 217 2 -1.1794 2.8747939641804736 2.94601406898666 13.856811325902754 0 0 0
650 217 1 0.5897 2.7683563222158383 2.42010650716386 13.064183216446361 0 0 0
651 217 1 0.5897 2.344158565073797 2.4976416046546372 14.515317754010479 0 0 0
683 228 1 0.5897 4.564895565151147 2.8860765178391765 14.294319736226088 0 0 0
329 110 1 0.5897 4.780690533823268 1.004914612175201 10.788520489453562 0 0 0
405 135 1 0.5897 0.5708081801262326 4.512695223362798 12.052508415622329 1 0 0
340 114 2 -1.1794 4.704867635624662 3.8898412329597685 10.542944992420608 0 0 0
652 218 2 -1.1794 4.258849483692494 1.302715193624523 17.18062715302422 0 0 0
653 218 1 0.5897 3.3358304350633046 1.158446050106156 17.389415138085297 0 0 0
654 218 1 0.5897 4.484012651458092 0.5897324506544328 16.58299614352076 0 0 0
658 220 2 -1.1794 1.705858828907734 4.43482680257035 17.409684261900296 0 0 0
659 220 1 0.5897 1.0429102618741872 4.294646987366445 18.08577795833549 0 0 0
664 222 2 -1.1794 4.249436141544677 4.012501834797961 17.155823013467128 0 0 0
665 222 1 0.5897 3.3155725036842725 4.145269804860414 17.31901700617953 0 0 0
666 222 1 0.5897 4.339510169833854 3.0675952452006148 17.0323702763594 0 0 0
670 224 2 -1.1794 1.9570330058318857 1.0660437232125628 18.579108228550872 0 0 0
671 224 1 0.5897 2.1683866818191473 1.7203465453382831 19.245002031511568 0 0 0
672 224 1 0.5897 1.0086757167731055 0.953780171596198 18.645406279468865 0 0 0
681 227 1 0.5897 0.9450178570579305 2.882086653036606 16.426456366756533 0 0 0
679 227 2 -1.1794 0.9065825464677006 2.257886554914064 15.701834560813095 0 0 0
2 1 1 0.5897 2.5655669358885373 3.7509562124445748 20.20182197322034 0 0 -1
884 295 1 0.5897 0.9016312973225862 0.4732852548691971 15.52779716997996 0 1 0
1 1 2 -1.1794 2.5777335813781255 2.8512400697411526 20.528260216648842 0 0 -1
110 37 1 0.5897 2.010237099581027 9.213860091478352 0.8862620446091387 0 0 0
141 47 1 0.5897 1.161357468427728 7.841935643291853 2.6616978590963942 0 0 0
139 47 2 -1.1794 0.9017758133512784 8.70771872286952 2.3467022515494564 0 0 0
114 38 1 0.5897 3.5238769523140925 7.505940930259508 3.7546792382414855 0 0 0
15 5 1 0.5897 4.6609477327651065 6.41039439613242 2.1865676565553627 0 0 0
14 5 1 0.5897 4.406523104068219 5.76323374570835 0.8418689304083763 0 0 0
130 44 2 -1.1794 2.0768049196864986 7.46598705876373 4.874890316326869 0 0 0
19 7 2 -1.1794 1.409865811052566 5.9561981083858155 2.1339539726242185 0 0 0
674 225 1 0.5897 2.4617638281264136 5.743250152456189 0.6575941009236272 0 0 1
112 38 2 -1.1794 4.376918435795116 7.702135519993738 3.367203804527051 0 0 0
140 47 1 0.5897 1.30155213150345 9.318257055037577 2.9660875744697885 0 0 0
21 7 1 0.5897 0.48237606165727415 5.813499324390969 1.9448182038175168 0 0 0
126 42 1 0.5897 4.504389448466812 9.540504847272485 3.4111229071190117 0 0 0
20 7 1 0.5897 1.5865603752935944 5.406159553610093 2.897126371015198 0 0 0
113 38 1 0.5897 5.011233532908595 7.365705768668254 4.000210506034506 0 0 0
13 5 2 -1.1794 5.032014074533326 5.782993866455521 1.5661873576508458 0 0 0
132 44 1 0.5897 1.1441680605447648 7.544634796533174 5.07578538087755 0 0 0
111 37 1 0.5897 3.4484032487829714 9.156423551904687 0.41657014691877947 0 0 0
339 113 1 0.5897 4.382588072956038 5.743873342453483 7.852559751123426 0 0 0
464 155 1 0.5897 1.5431195814142118 9.11053883848131 8.332367687557406 0 0 0
131 44 1 0.5897 2.369307922061734 6.710617219232211 5.384859383897508 0 0 0
437 146 1 0.5897 4.3555654524275305 7.273082957796392 9.566892310171243 0 0 0
337 113 2 -1.1794 4.94565310909982 5.864439082150173 8.61719773653318 0 0 0
435 145 1 0.5897 2.4827771260570226 8.886605998099958 5.926468987708318 0 0 0
433 145 2 -1.1794 2.6478655454296014 9.27392865098505 6.786072212653372 0 0 0
463 155 2 -1.1794 0.8723334117512284 9.029403790852447 9.01040854440193 0 0 0
345 115 1 0.5897 1.2509635815144353 7.21787972144671 9.03374542475564 0 0 0
25 9 2 -1.1794 2.98871455172781 5.604136544154843 6.782229527024128 0 0 0
343 115 2 -1.1794 1.3264126479148972 6.276524902916782 8.877668202852353 0 0 0
468 156 1 0.5897 4.416973011170282 9.099660175735123 7.0706180933346845 0 0 0
26 9 1 0.5897 2.332956859125951 5.94294562246454 7.391708579853362 0 0 0
344 115 1 0.5897 1.4916119394939533 5.902265942710074 9.743009899608586 0 0 0
438 146 1 0.5897 4.284051467345667 8.691274649913012 10.091705079767905 0 0 0
436 146 2 -1.1794 4.1022623781731795 7.783763333821168 10.33579766038288 0 0 0
757 253 2 -1.1794 2.2425587623938 9.577118872306082 14.032429232678831 0 0 0
789 263 1 0.5897 0.9683663014279666 9.362557005126588 15.18275695266283 0 0 0
792 264 1 0.5897 4.387462444650763 9.26422726249221 14.501330633781274 0 0 0
759 253 1 0.5897 2.208180742812764 9.012625207699184 13.260198185542333 0 0 0
351 117 1 0.5897 3.691598982023636 5.857810773900422 14.343430328984269 0 0 0
454 152 2 -1.1794 1.9284577892724624 7.503678539467914 12.028068090612036 0 0 0
455 152 1 0.5897 2.568604036987007 7.5547831246816655 11.31823441394225 0 0 0
456 152 1 0.5897 2.261144520519476 6.813607409172071 12.601950329100159 0 0 0
668 223 1 0.5897 1.5458852591636707 6.272665147074253 15.025996793094695 0 0 0
349 117 2 -1.1794 2.8147858817812694 5.7226723867607 13.98387398518006 0 0 0
533 178 1 0.5897 0.23459253176432426 7.461731713930048 12.040137684424968 1 0 0
673 225 2 -1.1794 2.9583312758872147 5.550861128160193 20.285617184472443 0 0 0
762 254 1 0.5897 4.977221681269487 7.70138133119487 17.56348044737709 0 0 0
787 263 2 -1.1794 0.47211994057917206 9.026630211525857 15.929163361664473 0 0 0
779 260 1 0.5897 2.2607126798757977 8.288230343639293 19.15455260887161 0 0 0
780 260 1 0.5897 2.898009090256193 7.742107015896326 17.894604273803637 0 0 0
675 225 1 0.5897 2.5585857235916016 6.1031250240847745 19.61373146499936 0 0 0
760 254 2 -1.1794 4.340193682223822 7.903465792417805 16.878186338835683 0 0 0
761 254 1 0.5897 4.362674880434833 8.857454314949415 16.803429071870802 0 0 0
778 260 2 -1.1794 2.0948673144367485 7.704757918767711 18.414113839866772 0 0 0
858 286 1 0.5897 0.3764805653595672 7.192467730311737 18.53693591842905 1 0 0
788 263 1 0.5897 0.8616887401657104 9.457690562242137 16.68984400061145 0 0 0
669 223 1 0.5897 0.8247394632227726 7.319732339213708 15.847882957765552 0 0 0
109 37 2 -1.1794 2.563968444919927 9.374238500824614 20.545551484464887 0 0 -1
662 221 1 0.5897 4.936895802957293 5.144780700618419 15.78458253799142 0 0 0
667 223 2 -1.1794 0.8644972413524489 6.376460277295779 15.690242917350252 0 0 0
663 221 1 0.5897 4.829345330030329 6.654754158025428 15.800520333102018 0 0 0
660 220 1 0.5897 1.3552969240602444 5.146252883865723 16.873781792365484 0 0 0
122 41 1 0.5897 4.674637136718912 11.586175562163069 2.0875146952272923 0 0 0
118 40 2 -1.1794 1.7209987605749215 10.604823536527679 4.055709237915824 0 0 0
119 40 1 0.5897 2.673023138511155 10.561890322826471 4.146218191811534 0 0 0
120 40 1 0.5897 1.5632656469998703 11.406317459310122 3.556780867982063 0 0 0
123 41 1 0.5897 4.196336464983382 12.257471871941641 0.8177044062300495 0 0 0
783 261 1 0.5897 2.0310823248261656 12.3163551047524 1.0599238791970573 0 0 1
124 42 2 -1.1794 4.394174542947139 10.473426624496813 3.5947528038266228 0 0 0
240 80 1 0.5897 2.5165743373610585 13.941607653150681 4.386335648775052 0 0 0
127 43 2 -1.1794 1.0416939107370276 12.62412737806275 2.461935971261949 0 0 0
129 43 1 0.5897 1.0387338407660067 13.575617180672369 2.566122428252096 0 0 0
222 74 1 0.5897 4.17258148385912 13.701496466138748 2.483565764949572 0 0 0
220 74 2 -1.1794 3.8571714476634287 14.145082264240239 3.270939277053392 0 0 0
125 42 1 0.5897 4.956513462639294 10.637037854313022 4.351885144205242 0 0 0
238 80 2 -1.1794 1.9033293251552619 13.971148195764144 5.120710782363725 0 0 0
246 82 1 0.5897 5.0569288179131915 14.110684820493349 4.611136204698011 0 0 0
121 41 2 -1.1794 4.858750791712946 12.323462224334904 1.505535463359254 0 0 0
188 63 1 0.5897 0.4221126935581486 11.005704640638905 5.150097842452883 1 0 0
781 261 2 -1.1794 2.493506858359595 12.16091023120926 0.23637993143793373 0 0 1
133 45 2 -1.1794 2.737055626608952 12.046264370171308 6.911171724940042 0 0 0
134 45 1 0.5897 2.0256261889474443 12.253847915741789 7.517023951469209 0 0 0
135 45 1 0.5897 3.5324387623423354 12.302875793050742 7.377902559630997 0 0 0
434 145 1 0.5897 2.545998624278581 10.215686830731338 6.648523978534205 0 0 0
446 149 1 0.5897 4.644056981056355 13.400369236314082 9.08507316812413 0 0 0
573 191 1 0.5897 0.9750221300277788 14.645753000428144 9.263080150581285 0 0 0
450 150 1 0.5897 4.526918604527147 11.271680172452452 9.749524702144539 0 0 0
451 151 2 -1.1794 1.156543558964994 12.67721222296342 8.987153049931374 0 0 0
453 151 1 0.5897 1.2836894143825035 12.07810142408367 9.722739369297832 0 0 0
239 80 1 0.5897 2.2376209827472398 13.321152013727962 5.738744794637608 0 0 0
445 149 2 -1.1794 4.854565392216191 12.61005159616 8.587790130196106 0 0 0
443 148 1 0.5897 1.1771700015958466 10.162011235060426 10.347904319512617 0 0 0
452 151 1 0.5897 0.23524922723434605 12.57280702082549 8.749062080433333 0 0 0
769 257 2 -1.1794 4.913147998616893 12.476325734801852 15.277610008452445 0 0 0
444 148 1 0.5897 2.350201408680073 10.878862810589975 10.982039741523087 0 0 0
457 153 2 -1.1794 2.790265646618149 12.278675666941352 13.651868741292773 0 0 0
458 153 1 0.5897 2.185535129991232 12.4115670371116 14.381860248929915 0 0 0
459 153 1 0.5897 3.660165558461621 12.365157733059046 14.04191977024662 0 0 0
546 182 1 0.5897 4.9800444481702355 14.549821768209162 11.030115925998611 0 0 0
758 253 1 0.5897 2.3667853661872966 10.458414442669746 13.680166500177267 0 0 0
562 188 2 -1.1794 1.999666677541535 14.22882237710596 11.816039104004547 0 0 0
563 188 1 0.5897 2.111426900413319 13.4916057428454 12.416186088196879 0 0 0
545 182 1 0.5897 3.4859455292376107 14.339223536165925 10.905285458330372 0 0 0
442 148 2 -1.1794 1.3956085225396748 10.814518396199336 11.013260932285846 0 0 0
449 150 1 0.5897 4.761816350259371 10.834517907660144 11.179732412332763 0 0 0
544 182 2 -1.1794 4.255774740289794 14.614951579831448 10.407637465288754 0 0 0
448 150 2 -1.1794 4.207554693962415 10.66542033073113 10.417859412398514 0 0 0
766 256 2 -1.1794 1.7252873546197924 10.831172199180784 17.706278775490382 0 0 0
767 256 1 0.5897 1.1182344959899937 10.818022946256344 18.44625510697218 0 0 0
768 256 1 0.5897 1.3118116698571256 11.411370353655624 17.067049974129638 0 0 0
772 258 2 -1.1794 4.351400314437777 10.582356184928665 17.058613374161403 0 0 0
773 258 1 0.5897 3.4208738425816634 10.640519805798265 17.275663565996965 0 0 0
774 258 1 0.5897 4.464827083835672 11.186241363427756 16.324689335814547 0 0 0
868 290 2 -1.1794 4.124463770965541 14.449139115782272 17.059227530452922 0 0 0
775 259 2 -1.1794 1.0771642017874719 12.52345513456029 15.701074498916514 0 0 0
869 290 1 0.5897 3.3860623109714325 14.295301634089327 17.648621512281437 0 0 0
886 296 2 -1.1794 1.958291349038338 14.132854993149106 18.70637246760655 0 0 0
888 296 1 0.5897 2.1123925621076003 13.426925668857352 19.334151787324664 0 0 0
782 261 1 0.5897 2.3782615692707316 11.225486685122554 20.492731913073143 0 0 0
771 257 1 0.5897 4.6398928673745825 13.198254492125939 15.843616964592245 0 0 0
870 290 1 0.5897 4.89343078048541 14.435657934186013 17.629150015019235 0 0 0
777 259 1 0.5897 1.043696913192202 13.46394389064571 15.875888024773875 0 0 0
887 296 1 0.5897 2.1305737981650053 14.934717919313657 19.199861019497703 0 0 0
247 83 2 -1.1794 0.9757835002819576 15.38737207879962 2.08764986113923 0 0 0
248 83 1 0.5897 1.2719955309203874 16.01860325981957 2.743406020643529 0 0 0
230 77 1 0.5897 4.389600894784619 18.899346692231365 0.927698871247352 0 0 0
235 79 2 -1.1794 1.1302011775035583 19.156107636038534 1.9048636458657118 0 0 0
226 76 2 -1.1794 1.676468823274303 17.328934983989058 3.9229546532489805 0 0 0
227 76 1 0.5897 1.5872666318972286 18.02660797868797 3.273734223012584 0 0 0
233 78 1 0.5897 4.633466435455229 17.488534740683136 2.9894717716324863 0 0 0
221 74 1 0.5897 4.095806407481907 15.062917136384337 3.1411781727968067 0 0 0
249 83 1 0.5897 1.5575246879795361 15.526839120088601 1.3403990537300843 0 0 0
232 78 2 -1.1794 4.4366531988607525 16.911283686423022 3.7271878185684515 0 0 0
228 76 1 0.5897 0.9552555328949672 17.476808978425996 4.534729725133608 0 0 0
234 78 1 0.5897 3.5124521158142907 17.072105576758133 3.9178881619302834 0 0 0
890 297 1 0.5897 2.3246376596314944 19.040942505242814 0.5745564508957985 0 0 1
229 77 2 -1.1794 4.933699270411172 18.71512420071661 1.6933796579307472 0 0 0
219 73 1 0.5897 3.539098024847353 16.058625462504974 0.2890017727557862 0 0 0
576 192 1 0.5897 4.001808103506094 15.87511068648121 7.271429700995683 0 0 0
571 191 2 -1.1794 0.5730943194062521 15.488810005253061 9.053469583417616 0 0 0
559 187 2 -1.1794 1.139147181935981 19.618767750183906 8.847237243774757 0 0 0
241 81 2 -1.1794 2.923149438858293 18.910131423190098 6.961274748468014 0 0 0
242 81 1 0.5897 2.620864402938519 18.011504600779666 6.829740713991716 0 0 0
243 81 1 0.5897 2.4088753799990728 19.230226533967432 7.702415751670143 0 0 0
541 181 2 -1.1794 2.2931339387157372 16.25450355245267 6.921287596053516 0 0 0
572 191 1 0.5897 0.9365337540280161 16.09501784520582 9.69892282780296 0 0 0
543 181 1 0.5897 2.0455750045388665 15.631309682629942 6.238243051295474 0 0 0
555 185 1 0.5897 4.942164377931633 18.72059305886474 7.850380010923618 0 0 0
574 192 2 -1.1794 4.926451747760884 15.67442379744073 7.416808130323875 0 0 0
542 181 1 0.5897 1.759529305771541 16.007242642027688 7.6765197408498835 0 0 0
558 186 1 0.5897 4.514643714804789 17.820218246235626 10.119121725425256 0 0 0
551 184 1 0.5897 1.301515549011635 18.26921068282282 10.060748219388515 0 0 0
560 187 1 0.5897 0.33423480459716753 19.226846765204794 8.508360691853477 0 0 0
885 295 1 0.5897 1.5889560882918021 19.205260789159706 14.824849888767549 0 0 0
866 289 1 0.5897 3.2696263994788444 15.967625876226522 13.90752311769648 0 0 0
879 293 1 0.5897 4.432813441375003 19.165795662929334 14.914585215905362 0 0 0
867 289 1 0.5897 1.8324044119266747 16.035325981469157 14.378720989643512 0 0 0
550 184 2 -1.1794 1.495074227881314 17.500512787656287 10.59725646471294 0 0 0
552 184 1 0.5897 2.450913281533974 17.449225456410137 10.607135682613393 0 0 0
565 189 2 -1.1794 3.034244772378113 19.064857997737448 13.75943236067928 0 0 0
566 189 1 0.5897 2.9770410579558906 18.16755094807177 13.431157399781593 0 0 0
567 189 1 0.5897 2.7774080263093635 19.609456674110273 13.015374150362584 0 0 0
865 289 2 -1.1794 2.4023828097480804 16.28038325547792 13.64980677710359 0 0 0
556 186 2 -1.1794 4.202713468919471 17.26564959040274 10.834214853502997 0 0 0
564 188 1 0.5897 2.012182406850121 15.001799667367022 12.380428455794894 0 0 0
557 186 1 0.5897 4.208150117890295 16.38006091121701 10.471029524020608 0 0 0
881 294 1 0.5897 3.242104034005606 17.40425296998462 17.513760035728858 0 0 0
897 299 1 0.5897 0.7674710471263081 15.943663545231312 16.425231619318843 0 0 0
878 293 1 0.5897 4.613777041979988 18.29161865228317 16.137230994109437 0 0 0
882 294 1 0.5897 4.058471912282687 16.1773230791851 17.167126812357225 0 0 0
880 294 2 -1.1794 4.14294200775175 17.103393292188752 17.39399189688362 0 0 0
874 292 2 -1.1794 1.315061524974214 17.37804815667192 17.38130182555959 0 0 0
875 292 1 0.5897 0.7849273940047319 17.560168713179213 18.15720474093706 0 0 0
876 292 1 0.5897 1.1014428566241938 18.08572350128675 16.77322431120495 0 0 0
891 297 1 0.5897 2.5406082046046436 19.448411660157653 19.5560594560745 0 0 0
889 297 2 -1.1794 2.893458066324425 18.884340358498996 20.244195962958976 0 0 0
895 299 2 -1.1794 0.6810276633710359 15.248503725827156 15.772949929295464 0 0 0
218 73 1 0.5897 2.6867432891582044 17.234222304180403 20.28414007162737 0 0 -1
883 295 2 -1.1794 0.9462085628532048 19.400587563236797 15.506755976836464 0 0 0
877 293 2 -1.1794 4.996876094379975 19.03863530195867 15.67741877653922 0 0 0
217 73 2 -1.1794 2.644882012678341 16.295433227453167 20.4661390658077 0 0 -1
69 23 1 0.5897 6.57151173939378 2.5164143646119634 1.8171045512131832 0 0 0
273 91 1 0.5897 7.555664927117263 0.5962124872887639 1.9359608888983886 0 1 0
68 23 1 0.5897 8.046977059744142 2.536681159501709 1.4782147677600737 0 0 0
67 23 2 -1.1794 7.436406450010477 2.346257185754827 2.190399961087098 0 0 0
46 16 2 -1.1794 8.3857370864009 4.11549262648067 3.977302124664524 0 0 0
47 16 1 0.5897 8.106650206034274 3.4033214367503204 3.401885132678703 0 0 0
48 16 1 0.5897 7.73361541112328 4.1274502821279 4.677890960896467 0 0 0
58 20 2 -1.1794 8.559481752551937 0.9082137331665845 5.068077651537928 0 0 0
34 12 2 -1.1794 5.206736921963744 2.5710755246767674 0.5615903192803553 0 0 0
9 3 1 0.5897 5.538310422059112 4.073014337044457 4.901466539082419 0 0 0
41 14 1 0.5897 9.876426369802896 1.1594578860697964 3.7306372063215987 0 0 0
29 10 1 0.5897 6.8358938535567395 0.7375397540736943 5.169961395618875 0 0 0
8 3 1 0.5897 6.139715755143283 3.6785133249853676 6.233582120131252 0 0 0
391 131 2 -1.1794 7.737095326714123 2.3902765769294967 8.884865803353398 0 0 0
393 131 1 0.5897 7.8728752764807854 1.44295974400067 8.904034535862497 0 0 0
371 124 1 0.5897 8.180992297162813 3.314654555224054 10.317254655903856 0 0 0
361 121 2 -1.1794 9.340622725713017 2.993656443499386 6.775250655300138 0 0 0
392 131 1 0.5897 8.314419258358205 2.701383982894042 8.187610272242372 0 0 0
362 121 1 0.5897 9.324920458832334 3.948928226039606 6.716939073985303 0 0 0
59 20 1 0.5897 8.871978405651689 1.5666868535998983 5.688535193805049 0 0 0
359 120 1 0.5897 6.161150412143393 2.4013648617748093 8.047279447333592 0 0 0
360 120 1 0.5897 5.66077548456852 1.6842483451708614 6.811485178223465 0 0 0
7 3 2 -1.1794 6.23982628863864 4.299505642612476 5.51209836684316 0 0 0
358 120 2 -1.1794 5.468011003180077 2.4240210775111968 7.387481805919181 0 0 0
28 10 2 -1.1794 5.910645535417653 0.5814632560797715 5.359508419789887 0 0 0
60 20 1 0.5897 8.80670853867947 0.07135635260625557 5.461475131503259 0 0 0
352 118 2 -1.1794 5.8729502466766625 0.9021057313395641 12.266237398670258 0 0 0
353 118 1 0.5897 6.79878080459007 1.0023421426460812 12.044500341417773 0 0 0
684 228 1 0.5897 5.879908720474446 3.4279849760473367 13.775426694938025 0 0 0
332 111 1 0.5897 5.7269323938880765 4.383765174512524 11.881261461030526 0 0 0
372 124 1 0.5897 7.900880379927987 4.09253154113027 11.585416804097825 0 0 0
685 229 2 -1.1794 9.073050755261093 2.6186042611730596 13.755201072819387 0 0 0
382 128 2 -1.1794 8.53287786954608 0.8547396687803901 11.759790832160617 0 0 0
383 128 1 0.5897 8.69869289123807 1.6052108360699402 12.33031176029282 0 0 0
384 128 1 0.5897 9.257878113552602 0.8635882682103394 11.134839886892493 0 0 0
331 111 2 -1.1794 6.308457423311225 4.6583447713977755 12.590269261467752 0 0 0
686 229 1 0.5897 8.757250379014723 2.3529325832624135 14.61884757120166 0 0 0
370 124 2 -1.1794 8.544531152752572 3.99530566705019 10.883610780054116 0 0 0
386 129 1 0.5897 9.389266402781315 4.484604400602963 13.447946931749787 0 0 0
354 118 1 0.5897 5.7409832353913455 1.4842789547609194 13.01446186480337 0 0 0
682 228 2 -1.1794 5.50888817808766 2.728252524663928 14.312954726691078 0 0 0
657 219 1 0.5897 6.809678323718783 4.248966815177397 18.760580831677075 0 0 0
656 219 1 0.5897 5.315257529999687 4.2565163099302445 18.517915398629057 0 0 0
676 226 2 -1.1794 5.952678044013548 0.4839405734221353 19.389222282130625 0 0 0
715 239 2 -1.1794 7.670477055664194 2.044957890364744 16.08016930665224 0 0 0
716 239 1 0.5897 7.664117668627046 1.0897244190407227 16.14093915157609 0 0 0
38 13 1 0.5897 9.05737398885693 2.259499262743393 19.76614515489375 0 0 -1
694 232 2 -1.1794 8.24114729825479 4.104173592020191 17.74739135336742 0 0 0
695 232 1 0.5897 8.081768123485338 3.280195017722129 17.2871245117841 0 0 0
677 226 1 0.5897 5.4212657779796505 0.7409677311620091 18.635711848433928 0 0 0
706 236 2 -1.1794 8.718045850798147 0.6597478568408004 18.703134362034163 0 0 0
708 236 1 0.5897 7.765382252526886 0.6875699612132519 18.79279229262354 0 0 0
710 237 1 0.5897 9.192233275505494 4.757143153494212 20.31483821166271 0 0 0
717 239 1 0.5897 6.845298908895773 2.263360102576375 15.646909346281689 0 0 0
655 219 2 -1.1794 5.980240760504165 4.520391686995227 19.153869734631655 0 0 0
707 236 1 0.5897 9.007845722111496 0.07303517123329295 19.401697186554657 0 0 0
689 230 1 0.5897 9.993495083260811 0.6224326372716106 17.409586002761735 0 0 0
696 232 1 0.5897 8.071680696878968 4.781482964085152 17.092624175900625 0 0 0
36 12 1 0.5897 5.478517796107292 3.2938362128165184 20.419343742389238 0 0 -1
35 12 1 0.5897 5.385735420722398 1.78368959647224 20.471027091202465 0 0 -1
37 13 2 -1.1794 9.153282343485659 2.842726833947332 20.519014847863122 0 0 -1
143 48 1 0.5897 5.987623017871456 9.015135110622296 1.1730939456869407 0 0 0
176 59 1 0.5897 7.6625299852332205 7.90330118060123 2.2978523392125516 0 0 0
57 19 1 0.5897 7.952067747032117 5.520717405693059 2.8793574658995524 0 0 0
142 48 2 -1.1794 5.255986561506395 9.18354231303708 0.5792494839675051 0 0 0
175 59 2 -1.1794 7.557988474163537 8.847386764363218 2.179604808582534 0 0 0
55 19 2 -1.1794 7.725672913956326 6.149039753470512 2.1936761151991107 0 0 0
56 19 1 0.5897 6.815702766888138 5.947973848948817 1.9748189352135186 0 0 0
177 59 1 0.5897 8.133304205809168 9.062436670621807 1.445423214416276 0 0 0
711 237 1 0.5897 8.77722424074001 5.893379586218251 0.8016869334992631 0 0 1
166 56 2 -1.1794 8.603869863834712 7.727327533903391 4.985510443214289 0 0 0
149 50 1 0.5897 9.958884964035954 8.11756523157907 3.833415938674696 0 0 0
138 46 1 0.5897 6.848815120739397 7.19145125480876 5.2132601892558394 0 0 0
467 156 1 0.5897 5.538394146786354 8.22397433281042 6.5532961617435666 0 0 0
501 167 1 0.5897 6.486214063543914 8.787410118597634 8.413974475754308 0 0 0
380 127 1 0.5897 7.4810254191482874 6.699828307575541 9.101333111802397 0 0 0
466 156 2 -1.1794 5.34220048976077 8.895286097541973 7.206782744112509 0 0 0
499 167 2 -1.1794 7.219077534295896 8.613351896423218 9.004664394057743 0 0 0
61 21 2 -1.1794 9.318908202446748 5.660067714431298 6.550232343963252 0 0 0
168 56 1 0.5897 8.622119240377833 8.487395986369634 5.567017647441084 0 0 0
469 157 2 -1.1794 9.065510108595086 9.508164085875855 7.033048690981948 0 0 0
500 167 1 0.5897 7.244139751264766 9.37311108435501 9.586312194404508 0 0 0
470 157 1 0.5897 8.62295135848385 9.424747345463983 7.87767775807018 0 0 0
379 127 2 -1.1794 7.728188731374426 5.862762131324409 8.708343225800249 0 0 0
167 56 1 0.5897 8.980337421316706 7.017775450937344 5.506101767095865 0 0 0
338 113 1 0.5897 5.835954945349956 5.783228150755332 8.274957835128589 0 0 0
62 21 1 0.5897 8.74822991068445 5.742328931642276 7.3143057584275954 0 0 0
137 46 1 0.5897 5.968608584240862 6.014334343584894 5.576054637181269 0 0 0
136 46 2 -1.1794 5.940879836369365 6.955507853471045 5.403923137402608 0 0 0
381 127 1 0.5897 8.085817823427483 5.352713547570264 9.43508496829901 0 0 0
471 157 1 0.5897 9.997204374064953 9.44194269060232 7.242617260102112 0 0 0
333 111 1 0.5897 6.1925608193755055 5.607087221067539 12.641869302172127 0 0 0
794 265 1 0.5897 8.952752575614491 8.528865266439379 13.177646556707574 0 0 0
790 264 2 -1.1794 5.276729861190778 9.425754605737188 14.185938121711333 0 0 0
491 164 1 0.5897 9.074217337289772 7.752832560445249 11.132519170618133 0 0 0
791 264 1 0.5897 5.84021814989652 9.17686806860781 14.91859611123698 0 0 0
793 265 2 -1.1794 9.025304763560953 9.134048429096062 13.91567054849472 0 0 0
385 129 2 -1.1794 9.812446046594074 5.332948709344524 13.580073982921688 0 0 0
387 129 1 0.5897 9.401142892832485 5.909183986504428 12.935890950525758 0 0 0
460 154 2 -1.1794 5.917881078491809 7.325543693385596 12.246070150311105 0 0 0
461 154 1 0.5897 5.658536962930066 7.970294548371008 12.904269450510858 0 0 0
492 164 1 0.5897 7.710544939192685 7.371258524431787 11.668218120736798 0 0 0
490 164 2 -1.1794 8.643455065466624 7.338817926382717 11.880353253434201 0 0 0
824 275 1 0.5897 7.8057299374942275 9.059275773415647 15.17397895904405 0 0 0
705 235 1 0.5897 8.515637773808633 5.892136323759011 15.074114154234545 0 0 0
462 154 1 0.5897 5.335801839374057 7.492086067939406 11.504656740676111 0 0 0
661 221 2 -1.1794 5.1799705851486895 5.926232561088101 15.288135674623065 0 0 0
795 265 1 0.5897 9.243873513655457 9.975594831067756 13.515374802065933 0 0 0
704 235 1 0.5897 7.032414404810252 5.9858640297312276 15.363135934889689 0 0 0
814 272 2 -1.1794 8.647565867368312 7.5423670018556646 18.58932380558688 0 0 0
786 262 1 0.5897 6.74335694266588 7.565692550659091 18.94699079888951 0 0 0
815 272 1 0.5897 8.921119620610167 6.869347997777433 19.21256086041386 0 0 0
825 275 1 0.5897 7.529071439681521 7.9198298818341115 16.131550174572862 0 0 0
785 262 1 0.5897 5.746721891591813 6.495172394317118 19.33779978762948 0 0 0
823 275 2 -1.1794 7.273838149682221 8.82079985603286 15.933231323820841 0 0 0
816 272 1 0.5897 8.663306274830678 8.356302768121761 19.092770575307007 0 0 0
784 262 2 -1.1794 5.820224038163596 7.433390354959763 19.163026325597812 0 0 0
703 235 2 -1.1794 7.891465578719628 6.086920764571636 15.773213177550714 0 0 0
709 237 2 -1.1794 9.371245762234388 5.677776997225442 20.506131822698798 0 0 0
144 48 1 0.5897 5.3706472240604395 8.549505257034612 20.29482047145207 0 0 -1
145 49 2 -1.1794 8.821281919551073 9.46307677014036 20.310287327907126 0 0 -1
147 49 1 0.5897 9.745370079430652 9.37054203586716 20.542382846923285 0 0 -1
154 52 2 -1.1794 8.129518136337662 10.883613116178877 4.021229867829565 0 0 0
819 273 1 0.5897 8.446907030026136 12.467408650881744 0.7947897016442209 0 0 1
156 52 1 0.5897 9.081004110430433 10.984429170096531 4.05080508155055 0 0 0
163 55 2 -1.1794 7.352288328398238 12.908778506324301 2.394034852615686 0 0 0
164 55 1 0.5897 6.518485543040793 12.825713220796434 1.931228440521853 0 0 0
165 55 1 0.5897 7.3585294992624 12.176617318746322 3.0105486426248813 0 0 0
155 52 1 0.5897 7.982810291122599 10.172279086537145 3.397791138706987 0 0 0
276 92 1 0.5897 8.981041703196523 13.949491890937459 4.420980951818876 0 0 0
275 92 1 0.5897 7.595202951233787 13.91099059101802 5.029382201576488 0 0 0
116 39 1 0.5897 6.805926950997791 10.905570518511592 5.144538988430427 0 0 0
117 39 1 0.5897 5.8850839277135245 10.483198931327516 6.269526183147983 0 0 0
480 160 1 0.5897 7.68864099467883 11.460870110362386 9.796395738897811 0 0 0
171 57 1 0.5897 9.214238323071868 11.329741287528622 6.8290307723401895 0 0 0
169 57 2 -1.1794 9.645505631675272 12.176187604687348 6.946422686037508 0 0 0
488 163 1 0.5897 8.298090844996786 12.568086255214482 8.048681354174462 0 0 0
487 163 2 -1.1794 7.516609624366253 12.650845468795943 8.595268608922135 0 0 0
489 163 1 0.5897 7.542624749114237 13.55224208830942 8.91622516794087 0 0 0
447 149 1 0.5897 5.81084288564933 12.601031008165613 8.54492808611263 0 0 0