LAMMPS data file via write_data, version 30 Jul 2021, timestep = 15750000

1296 atoms
2 atom types
864 bonds
1 bond types
432 angles
1 angle types

-10.47959205057207 12.45959205057207 xlo xhi
-9.053929111875451 12.043927111875451 ylo yhi
0.29160403143352376 21.568394968571205 zlo zhi
-9.070947092275247 1.7580411098018085 2.682612040664202 xy xz yz

Masses

1 1.008
2 15.999

Pair Coeffs # lj/cut/tip4p/long/omp

1 0 0
2 0.21084 3.1668

Bond Coeffs # harmonic/omp

1 450 0.9572

Angle Coeffs # harmonic/omp

1 55 104.52

Atoms # full

282 94 1 0.5897 -10.311102321461771 -4.055942927401382 1.71450840457141 1 1 0
280 94 2 -1.1794 -9.4422849494599 -4.4511841212151015 1.641183508155562 1 1 0
299 100 1 0.5897 -6.4520385420448765 -7.837147053878075 4.197711707287722 1 1 0
163 55 2 -1.1794 -7.04738272778404 -7.870778251604799 1.0605484814040325 1 1 0
164 55 1 0.5897 -6.231522916500454 -8.249487259117064 1.3881719698061699 1 1 0
270 90 1 0.5897 -8.335991741805852 -7.309848571593248 2.218807358109949 1 1 0
269 90 1 0.5897 -9.142757152720936 -6.042473089250919 2.405200257052752 1 1 0
268 90 2 -1.1794 -9.020670976881739 -6.921549025266439 2.763545037116695 1 1 0
324 108 1 0.5897 -7.028442372001326 -4.271463579756997 3.64828976628981 1 1 0
73 25 2 -1.1794 -8.288311719348062 -3.7253130356054855 4.838006166902663 1 0 0
298 100 2 -1.1794 -5.844801964718528 -7.097173063520497 4.200974145293381 1 1 0
314 105 1 0.5897 -8.722731145295338 -6.671525214818903 4.527325401635436 1 1 0
323 108 1 0.5897 -6.185453917521745 -5.511785784251293 3.441289391156697 1 1 0
259 87 2 -1.1794 -6.647807297171741 -5.22980633086596 0.43328218996913126 1 1 0
261 87 1 0.5897 -6.5891571910509565 -4.909935873284571 1.3334698207235214 1 1 0
315 105 1 0.5897 -8.5460120722866 -5.43029898558081 5.375737415874874 1 1 0
313 105 2 -1.1794 -8.67982380052409 -6.37608339493244 5.436701342039836 1 1 0
260 87 1 0.5897 -6.767915511231717 -6.17524473491304 0.5218574967048373 1 1 0
275 92 1 0.5897 -10.382936239557093 -7.841679601894804 3.4899224332427448 1 1 0
300 100 1 0.5897 -4.977134058849202 -7.4982391502964365 4.148699553767816 1 1 0
281 94 1 0.5897 -8.84030264933276 -3.7070566935102436 1.6271986365858533 1 1 0
322 108 2 -1.1794 -6.335488818200635 -4.632162671248977 3.0951011653463647 1 1 0
75 25 1 0.5897 -9.106816098990258 -3.349118530978708 4.514096942748057 1 0 0
44 15 1 0.5897 -9.782136631474858 0.8580054494571225 0.5241696184331597 1 0 0
273 91 1 0.5897 -10.357612866296067 -1.4391601087725538 0.3109554669381578 1 1 0
84 28 1 0.5897 -8.030785988452894 -0.5153920132330558 4.185271963734577 1 0 0
258 86 1 0.5897 -12.334177809936735 -2.7042606318361226 1.3147657976110767 1 1 0
54 18 1 0.5897 -11.361758939677557 -0.2800111239348233 2.216606900118512 1 0 0
59 20 1 0.5897 -13.38847216223099 -0.8130005877327395 3.4898369116725108 1 0 0
53 18 1 0.5897 -12.140939829946788 0.9996250535291971 2.433976955714157 1 0 0
52 18 2 -1.1794 -12.01164252302059 0.12191480716777114 2.793139509098823 1 0 0
82 28 2 -1.1794 -8.890944139765093 -0.09788630472951709 4.232655369027154 1 0 0
107 36 1 0.5897 -9.227956160752205 1.48727924839263 3.4852619469261117 1 0 0
301 101 2 -1.1794 -7.83325509001209 -2.1871118270355216 1.7112141860733054 1 1 0
98 33 1 0.5897 -11.729901177228708 0.3807432143273708 4.5668426984310955 1 0 0
256 86 2 -1.1794 -11.896647066403297 -3.254512418602083 1.9643299993652539 1 1 0
67 23 2 -1.1794 -10.542630460394932 -2.332544564817921 4.1672013922821645 1 0 0
97 33 2 -1.1794 -11.69316358765554 0.6926565643450555 5.47097371364926 1 0 0
83 28 1 0.5897 -9.511198247802621 -0.826822356833512 4.2485095477358055 1 0 0
68 23 1 0.5897 -11.231673926593608 -2.479863389476691 4.815130398227453 1 0 0
99 33 1 0.5897 -11.574969976503285 1.639324309594409 5.393667881019249 1 0 0
271 91 2 -1.1794 -10.10902911543346 -0.8445165142192952 1.0186015524218328 1 1 0
272 91 1 0.5897 -9.299958330181495 -1.215565872619874 1.3708908094743983 1 1 0
69 23 1 0.5897 -10.945411725257753 -2.5673059342562716 3.33124130180049 1 0 0
165 55 1 0.5897 -7.329321201589586 -8.469579378084742 0.36908910497532044 1 1 0
74 25 1 0.5897 -8.013109486045373 -3.1341002247784244 5.5386460461053595 1 0 0
420 140 1 0.5897 -9.044137954451072 -6.428753300400379 9.910308778849089 1 0 0
414 138 1 0.5897 -6.718909421662067 -4.895442615329992 7.529828879595443 1 0 0
413 138 1 0.5897 -7.544769787308699 -3.642129476147711 7.727391218403796 1 0 0
412 138 2 -1.1794 -7.40477301841204 -4.520026370970299 8.08205961238671 1 0 0
350 117 1 0.5897 -7.104280842359309 -4.244588353958104 9.828254497668844 0 0 0
429 143 1 0.5897 -6.358638378592793 -7.165698853641217 8.681076608000815 1 0 0
428 143 1 0.5897 -6.585931053321016 -7.061179361989023 10.174034112556994 1 0 0
427 143 2 -1.1794 -5.9222563986769625 -6.924064869816352 9.498005944848142 1 0 0
627 209 1 0.5897 -10.175756163840536 -6.688395284575427 6.376255540206123 1 1 0
618 206 1 0.5897 -7.72953515388731 -7.347820297845544 6.634118070230205 1 1 0
419 140 1 0.5897 -8.765244678135572 -5.44479663762203 8.79426448220075 1 0 0
418 140 2 -1.1794 -9.479700342294453 -5.890663248348745 9.24933379824925 1 0 0
616 206 2 -1.1794 -7.28372707414928 -7.865952846153711 7.3041493642711295 1 1 0
349 117 2 -1.1794 -7.082781858051997 -3.9503828408379693 10.738787799534858 0 0 0
351 117 1 0.5897 -6.942838434389082 -3.0052028567442424 10.682380122093212 0 0 0
410 137 1 0.5897 -13.463827583920985 0.45235924208684963 7.885442958816748 1 0 0
626 209 1 0.5897 -10.409305631470398 -6.588797392641766 7.868583452552551 1 1 0
633 211 1 0.5897 -5.713569812556072 -6.034111407272485 5.661560625159088 1 1 0
526 176 2 -1.1794 -12.495361922866785 1.1520144966240835 9.255540303069045 1 0 0
425 142 1 0.5897 -7.2498851694872535 -1.3144913608247437 6.987146714805071 1 0 0
401 134 1 0.5897 -11.002841334594565 -1.2715414185003393 7.75742733616072 1 0 0
537 179 1 0.5897 -9.314742423193188 -0.13414301270760376 8.683193385852752 1 0 0
536 179 1 0.5897 -9.593225823177564 -0.015347326115472626 10.166384626157798 1 0 0
535 179 2 -1.1794 -8.898819263915271 0.089136765464076 9.515859426236515 1 0 0
528 176 1 0.5897 -12.070835713619218 0.6013533809943858 9.913330648338938 1 0 0
424 142 2 -1.1794 -7.864348031697132 -2.048481290205605 6.989505605674561 1 0 0
435 145 1 0.5897 -7.444279510957326 -0.9177799022696043 9.849228708984263 0 0 0
411 137 1 0.5897 -13.213330230719109 0.3526275767349958 6.395872910597992 1 0 0
400 134 2 -1.1794 -10.292271458221375 -0.8096240185346772 7.3123961868455485 1 0 0
402 134 1 0.5897 -10.733371493212939 -0.24935971653481737 6.673896672671094 1 0 0
527 176 1 0.5897 -11.772417712844723 1.5930620505483208 8.809257935540707 1 0 0
522 174 1 0.5897 -9.720094933664837 2.1376765780649087 7.53559642409792 1 0 0
426 142 1 0.5897 -8.727254878689237 -1.6391467961438249 7.054833522827442 1 0 0
417 139 1 0.5897 -8.706748778047299 0.9951955266810923 5.665516840026706 1 0 0
652 218 2 -1.1794 -5.6796157369879605 -5.456181850059579 12.595964964210804 0 0 0
788 263 1 0.5897 -4.9852800024572685 -4.637339930287464 15.454593811575174 0 0 0
780 260 1 0.5897 -7.461550152948643 -3.980697306113626 15.20511806648032 0 0 0
779 260 1 0.5897 -7.183456608374127 -2.994333994270476 14.09099992168413 0 0 0
778 260 2 -1.1794 -7.895894934427328 -3.4582985678090044 14.530887529525877 0 0 0
768 256 1 0.5897 -9.471714357866977 -2.647066699297757 14.772112592810066 0 0 0
654 218 1 0.5897 -6.134097167373322 -4.916056541664933 11.949541702399301 0 0 0
653 218 1 0.5897 -6.38095509630281 -5.895787830651853 13.07678820764882 0 0 0
766 256 2 -1.1794 -10.344893002981303 -2.257217755977253 14.816996442727179 0 0 0
740 247 1 0.5897 -10.684240236164326 -3.4015386828211582 12.046952741324347 1 0 0
729 243 1 0.5897 -8.036170909813274 -7.137776703343054 12.002129232150216 1 0 0
684 228 1 0.5897 -8.415627126191353 -6.472629066509034 14.311812267380589 0 0 0
682 228 2 -1.1794 -7.733828039801294 -6.852227321310198 13.757415152657188 0 0 0
663 221 1 0.5897 -8.581085579183968 -4.307274465595184 11.678096199066008 0 0 0
662 221 1 0.5897 -8.800453350066935 -4.172582819630225 13.16982156049535 0 0 0
661 221 2 -1.1794 -9.23770299823546 -4.440782798621452 12.361690597847184 0 0 0
727 243 2 -1.1794 -8.099521462948942 -7.428243878976245 11.092344497469877 1 0 0
767 256 1 0.5897 -10.941757166631023 -3.0055096376769264 14.827718439139401 0 0 0
758 253 1 0.5897 -9.403987414174118 -5.28655344308979 16.203723866810943 0 0 0
865 289 2 -1.1794 -12.713328027665334 1.1640817483289183 15.513926726244648 0 0 0
757 253 2 -1.1794 -9.662166286010207 -5.865927127281176 15.486904976364631 0 0 0
791 264 1 0.5897 -10.62565071056295 -0.6656427662038933 14.092145360842562 0 0 0
836 279 1 0.5897 -11.202039782809408 -1.306095910962556 11.18704584030327 1 0 0
770 257 1 0.5897 -11.857357256938998 2.836181485207973 13.195753196739489 0 0 0
769 257 2 -1.1794 -12.290404446834208 2.6117594246254505 12.372169072177755 0 0 0
790 264 2 -1.1794 -10.766244639421151 0.22222283208554217 13.763477736952566 0 0 0
761 254 1 0.5897 -9.420666338065104 1.1297133719588075 13.028676020218658 0 0 0
888 296 1 0.5897 -10.467474923539235 3.032711483734806 15.215303644548118 0 0 0
762 254 1 0.5897 -9.15188907235771 2.136172053232416 11.930357034742544 0 0 0
792 264 1 0.5897 -11.438449044578642 0.587504598512627 14.338808095487552 0 0 0
760 254 2 -1.1794 -8.710703916035037 1.5894597666727606 12.58043951114404 0 0 0
837 279 1 0.5897 -11.059636552242866 -0.04176370497299864 12.007322125081014 1 0 0
835 279 2 -1.1794 -11.0896026931317 -0.35914022855468275 11.104843952671644 1 0 0
896 299 1 0.5897 -7.993084594447864 2.343088783892826 15.456108727578057 0 0 0
771 257 1 0.5897 -11.623744613972795 2.7622427605150097 11.701944206014542 0 0 0
866 289 1 0.5897 -12.445728071530446 1.7641357195433987 16.209979432878605 0 0 0
897 299 1 0.5897 -7.781806123466039 2.3103541790083106 13.957513519709059 0 0 0
739 247 2 -1.1794 -11.485221384085829 -3.006017126688249 11.702909444298708 1 0 0
1089 363 1 0.5897 -6.4516381449024065 -4.671770710947461 17.288899764438632 0 0 0
1152 384 1 0.5897 -6.810219680941651 -4.0368699351344475 19.6169486702848 0 0 0
1225 409 2 -1.1794 -8.074265748610483 -3.4403746404926867 20.763052451089223 0 0 0
1227 409 1 0.5897 -8.892461229722606 -3.0706699818718057 20.430996235805736 0 0 0
1109 370 1 0.5897 -8.67037468715508 -3.4709696930947445 17.63002110076536 0 0 0
1219 407 2 -1.1794 -10.363658144747038 -2.0801447974936433 20.08499473237918 0 0 0
1108 370 2 -1.1794 -9.287180037757672 -4.202968766989136 17.62343383296306 0 0 0
1129 377 2 -1.1794 -7.64690880376862 -1.9650908307589479 17.688497157647788 0 0 0
1151 384 1 0.5897 -6.00265969769807 -5.297214238842744 19.39058697595334 0 0 0
1150 384 2 -1.1794 -6.138227342573947 -4.413545621112684 19.04876150028089 0 0 0
1248 416 1 0.5897 -5.863329826910096 -1.576074163951965 20.516719455415895 0 0 0
1097 366 1 0.5897 -8.97892061787871 -5.774485315391463 18.398097203940097 0 0 0
1130 377 1 0.5897 -7.20522974056417 -1.7490783196059132 18.509745297403406 0 0 0
1143 381 1 0.5897 -8.387412270376181 -5.107647538317003 21.321142060767762 0 0 0
1088 363 1 0.5897 -6.657752410602087 -5.904854569504662 16.435259344881388 0 0 0
1087 363 2 -1.1794 -6.496275555129698 -4.963145771423597 16.378295976043525 0 0 0
1110 370 1 0.5897 -10.149482978147457 -3.790984499131376 17.679388450293793 0 0 0
1141 381 2 -1.1794 -8.536915087480871 -6.04919429032802 21.40640348156493 0 0 0
1121 374 1 0.5897 -4.7656759276265905 -3.4782726355554656 18.371411253627144 0 0 0
1131 377 1 0.5897 -6.987200870657718 -1.8080670658991629 17.012920434853058 0 0 0
1226 409 1 0.5897 -7.817339929461353 -2.854113891220207 21.474703507387133 0 0 0
1142 381 1 0.5897 -8.57648714870097 -6.368527905701827 20.504985897966158 0 0 0
1096 366 2 -1.1794 -8.842901234754011 -6.655685729859615 18.74605722483436 0 0 0
1101 367 1 0.5897 -10.19514280774911 -1.2014767671117097 16.306467656173645 0 0 0
1011 337 1 0.5897 -11.926888200899931 3.9500588096877465 20.47803213847405 0 -1 0
1229 410 1 0.5897 -7.815996733062166 3.538747724036252 18.37502842384483 0 0 0
1217 406 1 0.5897 -11.701597629267368 3.5575344227866985 17.668723177653796 0 0 0
1251 417 1 0.5897 -11.42934041345803 1.867509251578321 21.322234411170122 0 0 0
1218 406 1 0.5897 -13.176745172775734 3.221447878527025 17.72863285233663 0 0 0
1195 399 2 -1.1794 -9.506386485405038 2.0456618400419924 16.402718548891443 0 0 0
1249 417 2 -1.1794 -11.579778886035735 0.9260080040942267 21.40634974464409 0 0 0
1204 402 2 -1.1794 -11.857226376675891 0.3338279682494161 18.72979694626914 0 0 0
1196 399 1 0.5897 -9.660325514959052 1.1024640159700798 16.455780193364753 0 0 0
1246 416 2 -1.1794 -6.286912722763288 -1.010739645647309 19.87087536787442 0 0 0
1250 417 1 0.5897 -11.604528210001249 0.6054212093699451 20.504848672413168 0 0 0
1009 337 2 -1.1794 -11.11904373416968 3.566267990769438 20.819310095624196 0 -1 0
1260 420 1 0.5897 -9.863896321590843 3.0007559794277228 19.622063992251327 0 0 0
1259 420 1 0.5897 -9.05584408419708 1.7377359347879917 19.413047134159626 0 0 0
1258 420 2 -1.1794 -9.183290808747161 2.6207626196945633 19.06647390938828 0 0 0
1100 367 1 0.5897 -9.1116530897384 -0.9695842046498626 17.338165426770274 0 0 0
1236 412 1 0.5897 -7.865267748780726 -0.232981085120592 20.11881224668302 0 0 0
1235 412 1 0.5897 -9.335503053058673 -0.5929794095225205 20.15634482278761 0 0 0
1234 412 2 -1.1794 -8.738493057623584 0.15498653062827117 20.17709021672725 0 0 0
1205 402 1 0.5897 -12.004417408850088 1.2226498987764316 18.40664726634514 0 0 0
1197 399 1 0.5897 -9.446821729311973 2.330794462430333 17.314443702260554 0 0 0
1216 406 2 -1.1794 -12.310726871514717 2.8191523354751773 17.660781683449933 0 0 0
1206 402 1 0.5897 -11.180197175359318 -0.021838727244404055 18.15409613915343 0 0 0
1099 367 2 -1.1794 -9.924591261000796 -0.5965017846674154 16.997100215009546 0 0 0
1010 337 1 0.5897 -10.855188203897297 4.15309370301593 21.5279549580178 0 -1 0
40 14 2 -1.1794 -14.919022627987246 3.7583683644431076 1.9806856536056392 1 0 0
177 59 1 0.5897 -13.98866395987432 4.5018347649818775 3.3390885521793683 1 0 0
42 14 1 0.5897 -15.349624610605453 4.298956970316542 1.3185015590518918 1 0 0
85 29 2 -1.1794 -10.833285832404112 4.823731545328501 1.7693079956171098 1 0 0
55 19 2 -1.1794 -13.087951792720059 6.208186434218424 1.0480812398705717 1 0 0
56 19 1 0.5897 -12.284111222229903 5.816521762501257 1.3898654821607008 1 0 0
66 22 1 0.5897 -13.34055925307867 2.966453649910653 1.7557373827715055 1 0 0
65 22 1 0.5897 -11.870742277382018 3.3244379973014624 1.6918297030051224 1 0 0
64 22 2 -1.1794 -12.469396061182994 2.5776651733875653 1.6760230003566787 1 0 0
191 64 1 0.5897 -12.515353110558658 6.207154798960087 4.24457533813055 1 0 0
190 64 2 -1.1794 -11.908762086674058 6.947664873259651 4.244602666157526 1 0 0
183 61 1 0.5897 -12.113068968621201 3.7206146428897 4.525159633704611 1 0 0
181 61 2 -1.1794 -11.310203360134 3.331251984445382 4.871827655934415 1 0 0
176 59 1 0.5897 -14.223155377742897 4.5918597479677885 4.831877250920854 1 0 0
175 59 2 -1.1794 -13.552947530697995 4.725184332010874 4.161556439212497 1 0 0
108 36 1 0.5897 -10.042685377687128 2.744575446924225 3.702719001833278 1 0 0
162 54 1 0.5897 -14.352028432300653 6.754077003062143 2.2202574076460655 1 0 0
45 15 1 0.5897 -9.621520994419194 2.107891865746268 1.3630127799824807 1 0 0
167 56 1 0.5897 -16.412766830217024 6.186198622179386 3.4639660497791587 1 0 0
43 15 2 -1.1794 -9.654852966923794 1.8041947065630541 0.4559578563144141 1 0 0
192 64 1 0.5897 -11.040326540969009 6.546787998581166 4.2052038938638345 1 0 0
106 36 2 -1.1794 -9.365205169930459 2.3693851389565896 3.1400882748434644 1 0 0
57 19 1 0.5897 -13.360283622690606 5.620776650396772 0.3431348826086704 1 0 0
182 61 1 0.5897 -11.039483754645978 3.923734676580535 5.5731406537285055 1 0 0
206 69 1 0.5897 -14.759728932826832 7.363403477682535 4.541353208804477 1 0 0
160 54 2 -1.1794 -15.04914608633293 7.10845437685829 2.772303209223098 1 0 0
291 97 1 0.5897 -15.132879842548075 10.723866239815194 4.487066767019807 1 0 0
207 69 1 0.5897 -14.58609962852941 8.633365642804854 5.346787628418341 1 0 0
152 51 1 0.5897 -12.818459184641133 7.911817593305063 0.5301457852026633 1 0 0
205 69 2 -1.1794 -14.724098590161114 7.6908209618455174 5.440031038109219 1 0 0
284 95 1 0.5897 -17.23081968350235 11.636068382960161 4.808686210075803 1 0 0
153 51 1 0.5897 -12.61290236504512 9.15416178324567 1.37038888259475 1 0 0
151 51 2 -1.1794 -12.66002402131798 8.853369578941017 0.4629772526316235 1 0 0
216 72 1 0.5897 -13.038301475537114 9.794440447601168 3.6933887168554187 1 0 0
215 72 1 0.5897 -12.223536884390969 8.535302145290594 3.487002115460175 1 0 0
174 58 1 0.5897 -16.36270330869975 10.019801716675538 1.727201773831477 1 0 0
173 58 1 0.5897 -14.881685635945608 10.33243836125476 1.6890555998644137 1 0 0
172 58 2 -1.1794 -15.501386565350309 9.602930769344379 1.6992684764886419 1 0 0
161 54 1 0.5897 -15.185521309878489 7.997644523753191 2.445443294694772 1 0 0
193 65 2 -1.1794 -13.847799493681103 11.803200175160516 1.7141831026693022 1 0 0
283 95 2 -1.1794 -16.561707155772666 11.77606979545379 4.13863410201174 1 0 0
285 95 1 0.5897 -16.99695016730675 11.555056255835154 3.3152846439390964 1 0 0
148 50 2 -1.1794 -17.953009535081968 10.816665996901214 1.9590820122026733 1 0 0
150 50 1 0.5897 -18.38893034815751 11.362092811144755 1.3043866747904571 1 0 0
289 97 2 -1.1794 -14.331918394453261 10.346733593842607 4.851217407016942 1 0 0
214 72 2 -1.1794 -12.349323580302062 9.420084640850419 3.144321506035894 1 0 0
290 97 1 0.5897 -14.072334626880528 10.956020542955564 5.542266460175524 1 0 0
532 178 2 -1.1794 -10.863468580311126 4.988735353895356 7.0083521682158505 1 0 0
521 174 1 0.5897 -10.543271465870415 3.390870196278186 7.744771355447025 1 0 0
534 178 1 0.5897 -11.723150875624215 5.406280279267175 7.063406392132519 1 0 0
645 215 1 0.5897 -12.401243359083544 6.905230936954746 8.651868784437164 1 0 0
644 215 1 0.5897 -12.638034217885124 7.005790845622968 10.143621969419845 1 0 0
643 215 2 -1.1794 -11.963780443024481 7.124268476164119 9.474569833029266 1 0 0
510 170 1 0.5897 -13.773593362529382 6.716317637114177 6.64105843660249 1 0 0
508 170 2 -1.1794 -13.31953875731541 6.1740955603415895 7.286024756327276 1 0 0
543 181 1 0.5897 -10.501670057693675 6.156461080443778 9.856160735637397 0 0 0
509 170 1 0.5897 -14.020703711588984 5.7222711368856665 7.755646535411583 1 0 0
636 212 1 0.5897 -15.075813964456815 7.655666997028611 9.91144777657356 1 0 0
459 153 1 0.5897 -10.003348110645518 4.066257406843562 10.69228410663056 0 0 0
457 153 2 -1.1794 -10.130625671941683 3.118863583389615 10.7410145298804 0 0 0
519 173 1 0.5897 -16.23028762941867 7.403854920574197 6.391988881867209 1 0 0
458 153 1 0.5897 -10.14110350882083 2.830845785192256 9.828312620604377 0 0 0
518 173 1 0.5897 -16.441873174810397 7.475579733371223 7.889182885214737 1 0 0
533 178 1 0.5897 -10.241581254652308 5.716262018690449 7.02502089234016 1 0 0
520 174 2 -1.1794 -10.409875863113912 2.5070389576530996 8.087029712997214 1 0 0
641 214 1 0.5897 -13.300229642665686 12.773801861015745 6.995502426636573 1 0 0
635 212 1 0.5897 -14.822350762258347 8.652924351458978 8.80116219504946 1 0 0
634 212 2 -1.1794 -15.526527470311361 8.206635984074882 9.271571926691616 1 0 0
566 189 1 0.5897 -13.201304664619968 9.8713922149416 9.85950619503006 0 0 0
565 189 2 -1.1794 -13.145681201832382 10.162971234990852 10.76944000673493 0 0 0
642 214 1 0.5897 -14.776830262997905 12.443480990081927 7.051574179000417 1 0 0
640 214 2 -1.1794 -13.912459536539362 12.038082607993935 6.981243352012728 1 0 0
617 206 1 0.5897 -17.059490237335098 12.770855962396151 7.759116639731208 1 0 0
567 189 1 0.5897 -12.994420729168507 11.106245889053259 10.71039761682904 0 0 0
630 210 1 0.5897 -12.782195208514784 9.185773698695208 7.54410892114492 1 0 0
628 210 2 -1.1794 -13.457913800956032 9.564546557144578 8.106456434063194 1 0 0
629 210 1 0.5897 -13.602250476796364 10.441399380648939 7.750944684834013 1 0 0
327 109 1 0.5897 -13.527764498939636 13.181916442291435 9.814374151182031 0 -1 0
525 175 1 0.5897 -11.787903582280064 8.040769309624395 5.664027268406373 1 0 0
523 175 2 -1.1794 -11.51745006662155 8.631433666296456 6.366974304033218 1 0 0
874 292 2 -1.1794 -13.349418582883676 4.789193286861565 14.864544783461298 0 0 0
887 296 1 0.5897 -10.195810124436468 4.017436204167003 14.098154703951183 0 0 0
876 292 1 0.5897 -12.48473874491755 4.381739994992916 14.812178871721356 0 0 0
945 315 1 0.5897 -14.095032248849828 6.981293718923727 11.983049441056519 1 0 0
848 283 1 0.5897 -13.738756509133054 3.6431004966658644 12.031426178243995 1 0 0
900 300 1 0.5897 -14.509926859388063 7.597814882291406 14.322348117222454 0 0 0
899 300 1 0.5897 -13.662353428923446 6.364767027702394 14.091913603639364 0 0 0
898 300 2 -1.1794 -13.817145428748741 7.249464401731103 13.761087477050006 0 0 0
886 296 2 -1.1794 -10.907134000787444 3.56887766751802 14.555478060398725 0 0 0
944 315 1 0.5897 -14.280434960702674 5.719034186639718 11.16818445893964 1 0 0
869 290 1 0.5897 -12.467430138200418 8.204665301367136 13.092500024953752 0 0 0
943 315 2 -1.1794 -14.138374442592536 6.661640268067963 11.081918516187706 1 0 0
875 292 1 0.5897 -13.961733946939667 4.053425015644882 14.869621299050953 0 0 0
649 217 2 -1.1794 -15.760465977591103 8.169256960577844 15.497632975088386 0 -1 0
956 319 1 0.5897 -16.780910213016625 10.62861853027654 12.06230603392065 1 0 0
877 293 2 -1.1794 -15.302849179292327 9.656951148924193 12.392483158461744 0 0 0
879 293 1 0.5897 -14.637690348851976 9.831249435178712 11.726552646806228 0 0 0
878 293 1 0.5897 -14.876066627551577 9.876006202621877 13.220767423431779 0 0 0
680 227 1 0.5897 -11.015742646704487 9.423410521504415 15.498874815201912 0 -1 0
728 243 1 0.5897 -17.3152292330714 12.72531957755972 11.151400280869128 1 -1 0
672 224 1 0.5897 -13.501677405551993 10.056362830309975 15.227932535759853 0 -1 0
683 228 1 0.5897 -16.665188201269757 13.368857532982993 14.115017852550313 0 -1 0
658 220 2 -1.1794 -16.389817595998974 11.77884422951837 14.875320975562335 0 -1 0
870 290 1 0.5897 -12.199121408966741 9.20200601107312 11.98578111917266 0 0 0
671 224 1 0.5897 -13.228209109470082 11.086205898333436 14.15268881596431 0 -1 0
659 220 1 0.5897 -16.98952553618198 11.032830077247684 14.864410460583278 0 -1 0
868 290 2 -1.1794 -11.757584564881936 8.659747700063882 12.639346574715999 0 0 0
660 220 1 0.5897 -15.517945835121157 11.386929420921131 14.823560372841147 0 -1 0
670 224 2 -1.1794 -13.938714170772595 10.604223660431707 14.576017998739283 0 -1 0
650 217 1 0.5897 -15.516630110002783 8.74798815059771 16.219969390127634 0 -1 0
681 227 1 0.5897 -10.79305173729682 9.334017701222432 14.004243084099823 0 -1 0
847 283 2 -1.1794 -14.54254435849023 4.025723150159541 11.679428871005102 1 0 0
1018 340 2 -1.1794 -11.769055672421452 7.23251750819642 20.176303720946933 0 -1 0
1019 340 1 0.5897 -12.377687206731256 6.4937051945155115 20.182015733536304 0 -1 0
1020 340 1 0.5897 -10.90127403774249 6.828718189523164 20.157998233554146 0 -1 0
1030 344 2 -1.1794 -9.319422063406899 6.038032180121435 19.927998762945172 0 -1 0
1043 348 1 0.5897 -12.074413797637725 8.81145850498051 19.42769073596442 0 -1 0
1032 344 1 0.5897 -8.878404337425717 5.473826505562904 20.56307509339642 0 -1 0
1239 413 1 0.5897 -9.987116331527474 5.1910907773402375 17.083787900291107 0 0 0
1237 413 2 -1.1794 -10.67208558336456 5.064488211637421 17.74035661937608 0 0 0
1003 335 2 -1.1794 -13.380851855201437 4.965574997723998 20.141323934819567 0 -1 0
1208 403 1 0.5897 -12.125878744548988 6.0620387423473865 17.34901151086025 0 0 0
1207 403 2 -1.1794 -12.925494279301866 6.451029646013842 16.99450572138172 0 0 0
1238 413 1 0.5897 -10.257324495574863 5.304543617836433 18.56892581479822 0 0 0
990 330 1 0.5897 -14.204763913134073 6.997256476471833 18.168992599730373 0 -1 0
989 330 1 0.5897 -15.025310904358133 8.248289087613738 18.400254092543165 0 -1 0
1034 345 1 0.5897 -14.630793933170672 7.646026054753836 20.494658889700595 0 -1 0
1035 345 1 0.5897 -14.443144641420975 8.885227678523961 21.34368437801232 0 -1 0
1033 345 2 -1.1794 -14.574245299317674 7.939027283257818 21.404078825204927 0 -1 0
980 327 1 0.5897 -12.649214705246496 8.147680838330704 16.501463704409005 0 -1 0
988 330 2 -1.1794 -14.879725746274058 7.365178935256186 18.739391872121367 0 -1 0
993 331 1 0.5897 -16.276502444302977 12.892703036599237 16.309996678677606 0 -1 0
1113 371 1 0.5897 -16.82150389749043 11.753818134336822 19.31138901011866 0 -1 0
1138 380 2 -1.1794 -12.344246847965023 13.02179058808532 19.866721649979127 0 -1 0
1128 376 1 0.5897 -13.910065109841746 13.815732090833894 20.139231698402497 0 -1 0
1022 341 1 0.5897 -13.30383173698694 12.301699989630091 18.511236291858253 0 -1 0
1013 338 1 0.5897 -10.862822515730148 10.614221422544446 18.402663733521322 0 -1 0
1126 376 2 -1.1794 -14.775046393486537 14.22281428153767 20.189467758453937 0 -1 0
979 327 2 -1.1794 -12.53204672418262 9.09491154599457 16.429684723921042 0 -1 0
1117 373 2 -1.1794 -14.168813430186406 10.592695939259343 20.842614997326613 0 -1 0
1044 348 1 0.5897 -12.901236671222758 10.057112900188358 19.665565503050935 0 -1 0
1002 334 1 0.5897 -16.223834671513373 10.252373594117042 17.71088561803797 0 -1 0
1127 376 1 0.5897 -15.387140931163284 13.486846542302374 20.19107197410146 0 -1 0
1119 373 1 0.5897 -14.974364610973339 10.973072576837229 20.492219206731797 0 -1 0
1042 348 2 -1.1794 -12.21993770287656 9.69784527338943 19.09718153839745 0 -1 0
1021 341 2 -1.1794 -13.735633364125997 12.08804522224601 17.684142959756812 0 -1 0
1098 366 1 0.5897 -17.237630010278387 14.063894514852837 18.183978000539824 0 -1 0
992 331 1 0.5897 -15.184403753862185 13.116434989830928 17.334392195253955 0 -1 0
1001 334 1 0.5897 -14.748711790077149 10.584450150721214 17.631274034801066 0 -1 0
1000 334 2 -1.1794 -15.35876108589579 9.847012664301975 17.649553297243095 0 -1 0
991 331 2 -1.1794 -15.996941711093452 13.495461470055165 16.99897769206396 0 -1 0
1111 371 2 -1.1794 -16.39851442092559 11.985027294732728 20.138314166048275 0 -1 0
1023 341 1 0.5897 -13.06272154208968 12.230735037795018 17.018474435018142 0 -1 0
981 327 1 0.5897 -12.500914185426915 9.40223193484021 17.335596807681057 0 -1 0
1140 380 1 0.5897 -11.886241484179969 12.49383008685389 20.52066440867457 0 -1 0
1118 373 1 0.5897 -13.916843818830214 11.179222499507183 21.555816366486276 0 -1 0
1209 403 1 0.5897 -13.180543024552925 5.8667720697040195 16.28053640395904 0 0 0
243 81 1 0.5897 -0.9198678180498696 -5.422065015902266 5.3504767080102695 0 1 0
317 106 1 0.5897 -1.1824854154783537 -3.7590903058443343 1.6413935406548847 1 1 0
316 106 2 -1.1794 -1.8075039005870792 -4.483441463530208 1.672748244630128 1 1 0
3 1 1 0.5897 -1.4376104163473151 -3.339090909587699 4.48634764821218 0 0 0
241 81 2 -1.1794 -1.0441796274378632 -6.367852137162712 5.428961903213443 0 1 0
305 102 1 0.5897 -1.4976273998567198 -6.06803833345222 2.422984140123798 1 1 0
293 98 1 0.5897 -4.975441942400219 -3.7054589444370745 2.3936539132988925 1 1 0
306 102 1 0.5897 -0.6575954779819995 -7.308140160387414 2.203034608147191 1 1 0
304 102 2 -1.1794 -1.3501391272644998 -6.951812861142924 2.759561189553331 1 1 0
318 106 1 0.5897 -2.665585715833749 -4.059555941083661 1.693790747874176 1 1 0
310 104 2 -1.1794 -3.415697806968101 -8.339494312875752 3.895923425465275 1 1 0
242 81 1 0.5897 -1.0725230068915064 -6.682009508231779 4.525305959219664 0 1 0
311 104 1 0.5897 -2.6899692377575786 -7.891451726784409 3.461278836847182 1 1 0
309 103 1 0.5897 -2.6775051042934708 -1.4296650828387145 0.340860230106781 1 1 0
303 101 1 0.5897 -7.164062536165284 -2.0342788902777356 1.044050736013271 1 1 0
25 9 2 -1.1794 -4.041338490297952 0.657291089619898 5.461892637093733 0 0 0
302 101 1 0.5897 -7.40098346009821 -1.9728514978477163 2.53790537305542 1 1 0
103 35 2 -1.1794 -2.888127654654653 -2.3230694966373395 4.123522193235612 1 0 0
294 98 1 0.5897 -4.688745479295303 -2.716572778672683 1.2839609360519613 1 1 0
27 9 1 0.5897 -3.9144855364555147 1.6022064991594647 5.377215584357747 0 0 0
89 30 1 0.5897 -4.526189211096286 0.9683593065334541 2.4338102674018907 1 0 0
292 98 2 -1.1794 -4.2569055208804905 -3.273593842207009 1.93155971959611 1 1 0
105 35 1 0.5897 -3.305991099167331 -2.5667490130809947 3.2975731815159786 1 0 0
26 9 1 0.5897 -4.0998495947560585 0.3412351844115058 4.560349560527937 0 0 0
95 32 1 0.5897 -5.7361821686067325 -0.8414549483182974 3.47503355561031 1 0 0
88 30 2 -1.1794 -4.380041626995682 0.08828601193635066 2.7805156162391818 1 0 0
96 32 1 0.5897 -6.002756515443619 -1.8600145446305207 4.5626838129352025 1 0 0
90 30 1 0.5897 -3.689516740664696 -0.2762268116611146 2.2267916421097977 1 0 0
94 32 2 -1.1794 -6.445699955032347 -1.2997047047167074 3.9255028040249402 1 0 0
104 35 1 0.5897 -3.562654354934887 -2.4711841188004504 4.786366492800856 1 0 0
201 67 1 0.5897 0.35797489155431883 -8.460278370810222 0.31179223862899696 1 1 0
555 185 1 0.5897 -2.510639817974715 -6.684992537227663 6.385279685521922 0 1 0
359 120 1 0.5897 -4.58877583269094 -3.106565683654436 8.76584461345135 0 0 0
554 185 1 0.5897 -2.7632827916797282 -6.607034770568509 7.87578469821933 0 1 0
544 182 2 -1.1794 0.36203666991093186 -7.878367521987832 7.271717699529919 0 1 0
335 112 1 0.5897 -4.88663015694039 -5.437928092202083 9.51690668355887 0 0 0
546 182 1 0.5897 -0.09146789355103202 -7.33307802639966 6.628954504989971 0 1 0
553 185 2 -1.1794 -3.182801366198471 -6.842625885245125 7.04832950016126 0 1 0
348 116 1 0.5897 -1.4002851953513549 -6.421136811751664 9.882702886885815 0 0 0
347 116 1 0.5897 -1.1165781131337251 -5.409131333926063 8.793268008424647 0 0 0
404 135 1 0.5897 -5.156070992715656 -3.7544614184044436 5.809710135551406 1 0 0
336 112 1 0.5897 -3.4195276285179634 -5.070329118956484 9.44566533656838 0 0 0
334 112 2 -1.1794 -4.2942015645053475 -4.686110509514172 9.50699348849156 0 0 0
346 116 2 -1.1794 -1.8333181973764106 -5.861872746584272 9.237840327892199 0 0 0