LAMMPS data file via write_data, version 30 Jul 2021, timestep = 9750000

1296 atoms
2 atom types
864 bonds
1 bond types
432 angles
1 angle types

-10.488749025730748 12.468749025730748 xlo xhi
-9.057327945011346 12.047325945011346 ylo yhi
0.2999165062040543 21.560082493791185 zlo zhi
-9.115173913507038 1.7297865047396062 2.6850312806309433 xy xz yz

Masses

1 1.008
2 15.999

Pair Coeffs # lj/cut/tip4p/long/omp

1 0 0
2 0.21084 3.1668

Bond Coeffs # harmonic/omp

1 450 0.9572

Angle Coeffs # harmonic/omp

1 55 104.52

Atoms # full

282 94 1 0.5897 -10.339893880733488 -4.080515688973012 1.7135161300868311 1 1 0
280 94 2 -1.1794 -9.456268340734297 -4.4473194426185545 1.685690244790167 1 1 0
270 90 1 0.5897 -8.409665541714713 -7.295609419626009 2.2998148415359543 1 1 0
163 55 2 -1.1794 -7.18949377652995 -7.922407679344678 1.105827973500563 1 1 0
164 55 1 0.5897 -6.368196560975385 -8.27191789497664 1.4513386450412928 1 1 0
269 90 1 0.5897 -9.207623236299932 -6.0244978643418285 2.4987493978506117 1 1 0
268 90 2 -1.1794 -9.074011425666056 -6.899269057735128 2.863641326398811 1 1 0
299 100 1 0.5897 -6.6203074753078495 -7.897395064896133 4.234207972973446 1 1 0
324 108 1 0.5897 -7.018898409519499 -4.302416822031522 3.6973880625802313 1 1 0
73 25 2 -1.1794 -8.251275633937393 -3.6580016167824096 4.858122578179757 1 0 0
314 105 1 0.5897 -8.835464473404137 -6.602939237372343 4.642671674668796 1 1 0
298 100 2 -1.1794 -6.021652980595119 -7.150574597565942 4.235943150913088 1 1 0
323 108 1 0.5897 -6.274310535453788 -5.588865587006854 3.4097635700087383 1 1 0
261 87 1 0.5897 -6.5865220172754135 -5.014736265649276 1.3770682060094426 1 1 0
300 100 1 0.5897 -5.14899148296359 -7.54265293277706 4.206694182017098 1 1 0
260 87 1 0.5897 -6.845745476333905 -6.252091660100918 0.5440182381142422 1 1 0
315 105 1 0.5897 -8.569247875473845 -5.37376401703775 5.4855707569530034 1 1 0
281 94 1 0.5897 -8.87875711261805 -3.685398706934336 1.7314979062082332 1 1 0
313 105 2 -1.1794 -8.80544821583979 -6.299124565424577 5.549986334568494 1 1 0
275 92 1 0.5897 -10.411906703851834 -7.79122465948907 3.540045068853904 1 1 0
165 55 1 0.5897 -7.4031789890199065 -8.495524956216304 0.3694514300137254 1 1 0
259 87 2 -1.1794 -6.649799384370599 -5.317987140138865 0.47128153772392417 1 1 0
322 108 2 -1.1794 -6.386077399085102 -4.692163665130841 3.0940699968570105 1 1 0
75 25 1 0.5897 -9.052270132153119 -3.279796538556967 4.4955778584063975 1 0 0
311 104 1 0.5897 -2.759415326029724 -7.789151322492438 3.514567837443589 1 1 0
293 98 1 0.5897 -4.995663107618665 -3.7372740690425967 2.46677433525524 1 1 0
242 81 1 0.5897 -1.1200085071967578 -6.623420219813802 4.579000279257379 0 1 0
243 81 1 0.5897 -0.9027451460403881 -5.415792662295157 5.465951748597146 0 1 0
306 102 1 0.5897 -0.7275882662104607 -7.341683549045764 2.2379878311365418 1 1 0
304 102 2 -1.1794 -1.3724914852632946 -6.935292629658846 2.8170356924491142 1 1 0
316 106 2 -1.1794 -1.8435520295386052 -4.509489080612226 1.6202592263841273 1 1 0
310 104 2 -1.1794 -3.486150416122829 -8.235150008732834 3.949397976416642 1 1 0
318 106 1 0.5897 -2.700979701686391 -4.090992630222609 1.6965497245643173 1 1 0
305 102 1 0.5897 -1.50612576452815 -6.060884618832073 2.451276400652512 1 1 0
241 81 2 -1.1794 -1.0868798671297561 -6.35460267973151 5.497182469348597 0 1 0
3 1 1 0.5897 -1.427332023407006 -3.408524383719893 4.5504258535813795 0 0 0
317 106 1 0.5897 -1.2228454591319888 -3.781396614191249 1.5933003847074005 1 1 0
201 67 1 0.5897 0.358463415218063 -8.445543147715242 0.3026126785121211 1 1 0
199 67 2 -1.1794 0.5303271271537344 -7.837037910343293 1.0213418691265617 1 1 0
429 143 1 0.5897 -6.355322234092365 -7.139403937265868 8.677283058523512 1 0 0
428 143 1 0.5897 -6.587378765812021 -7.05880664873822 10.17126970954126 1 0 0
427 143 2 -1.1794 -5.90905672009152 -6.955347075813677 9.503856788274089 1 0 0
618 206 1 0.5897 -7.7663489410460045 -7.256553890937278 6.693720432899738 1 1 0
420 140 1 0.5897 -9.106231692055342 -6.499843677869261 9.960651122355587 1 0 0
414 138 1 0.5897 -6.714348835314251 -4.928741599649792 7.568960492709914 1 0 0
413 138 1 0.5897 -7.570276429206334 -3.701997097182785 7.802480736354707 1 0 0
412 138 2 -1.1794 -7.415097977853133 -4.589447969771419 8.12587288981258 1 0 0
350 117 1 0.5897 -7.126811692334483 -4.203358593107729 9.877529066870403 0 0 0
419 140 1 0.5897 -8.812432521980828 -5.487474957657206 8.874048252068835 1 0 0
418 140 2 -1.1794 -9.533322264443441 -5.9371625395870335 9.314773058714007 1 0 0
627 209 1 0.5897 -10.214302942609072 -6.673087010466529 6.4970547753255365 1 1 0
616 206 2 -1.1794 -7.30724904555786 -7.8384264109648 7.299377121463333 1 1 0
349 117 2 -1.1794 -7.110248731757638 -3.8725216836541225 10.775695508991857 0 0 0
351 117 1 0.5897 -6.976176367431251 -2.9294236882085656 10.681682396694516 0 0 0
335 112 1 0.5897 -4.844308280806736 -5.495108748967396 9.601044022707471 0 0 0
554 185 1 0.5897 -2.79994560667482 -6.592408228380343 7.9145134127842125 0 1 0
631 211 2 -1.1794 -5.485216464105319 -5.4693453139656825 6.352486131687331 1 1 0
404 135 1 0.5897 -5.210626707174708 -3.739701656563227 5.861994478545615 1 0 0
555 185 1 0.5897 -2.591566701374134 -6.719613046086414 6.420273992464864 0 1 0
553 185 2 -1.1794 -3.248914999469288 -6.838768997227983 7.105815378159885 0 1 0
544 182 2 -1.1794 0.3625435600841467 -7.923735986811754 7.23797323965782 0 1 0
334 112 2 -1.1794 -4.260745411615532 -4.736447832021421 9.596078593844862 0 0 0
348 116 1 0.5897 -1.3300519440600294 -6.452259582844448 9.830030362368882 0 0 0
346 116 2 -1.1794 -1.8119227630244996 -5.872848045058554 9.239907250953916 0 0 0
359 120 1 0.5897 -4.585716968154994 -3.102625302554788 8.828741546071706 0 0 0
336 112 1 0.5897 -3.380060242228251 -5.111269581888895 9.598503296546472 0 0 0
347 116 1 0.5897 -1.1339897965951433 -5.357425861582136 8.802998714543765 0 0 0
356 119 1 0.5897 1.050814336011241 -7.067084392087698 10.051873284402452 0 0 0
546 182 1 0.5897 -0.06898323577953036 -7.362352398906841 6.593917640092005 0 1 0
632 211 1 0.5897 -4.657189975513928 -5.837071150028313 6.661054501402155 1 1 0
633 211 1 0.5897 -5.778780944381913 -6.076259658835012 5.672916123854372 1 1 0
652 218 2 -1.1794 -5.689082512041894 -5.435143245281579 12.58421662032728 0 0 0
780 260 1 0.5897 -7.432571258410722 -4.095402045719232 15.157095659763373 0 0 0
779 260 1 0.5897 -7.105540138654712 -3.0508399108333233 14.111228478364124 0 0 0
778 260 2 -1.1794 -7.840817335415874 -3.4951903747466817 14.533191908204614 0 0 0
768 256 1 0.5897 -9.43932789125149 -2.6923583782401233 14.815153099428777 0 0 0
654 218 1 0.5897 -6.1243431847910665 -4.866325928839365 11.949262464141388 0 0 0
653 218 1 0.5897 -6.403868731351258 -5.896498210904088 13.02281704238758 0 0 0
661 221 2 -1.1794 -9.25747585685425 -4.413814914815093 12.36510125882164 0 0 0
682 228 2 -1.1794 -7.737286384294663 -6.812315431166422 13.757563931630964 0 0 0
684 228 1 0.5897 -8.38844507063745 -6.427765868050458 14.344475724418796 0 0 0
662 221 1 0.5897 -8.77709249782789 -4.19506922948375 13.163615160991032 0 0 0
663 221 1 0.5897 -8.630510741177059 -4.260928233428024 11.65812477832634 0 0 0
740 247 1 0.5897 -10.750905987517978 -3.3777898047942756 12.04098955158854 1 0 0
788 263 1 0.5897 -4.932394239416554 -4.633993702393455 15.42796051763334 0 0 0
729 243 1 0.5897 -8.000843008595176 -7.176648887935648 12.030622661891279 1 0 0
766 256 2 -1.1794 -10.301602871533253 -2.295714667997382 14.938844945200934 0 0 0
727 243 2 -1.1794 -8.077917155323457 -7.459353340573786 11.119278398099187 1 0 0
676 226 2 -1.1794 -3.204099052972916 -6.630738691082001 12.295833280438032 0 0 0
689 230 1 0.5897 1.2447284770445517 -5.918451596061813 13.065091666708602 0 0 0
767 256 1 0.5897 -10.912372838909095 -3.031420533831086 14.89613058861896 0 0 0
789 263 1 0.5897 -4.726984945300357 -4.722290076587799 13.930512197219608 0 0 0
795 265 1 0.5897 -2.841350100931275 -5.516106080225872 15.107034596715515 0 0 0
667 223 2 -1.1794 -3.8633565584173715 -3.0189002433122862 11.681122073136361 0 0 0
793 265 2 -1.1794 -2.0134160620022037 -5.863980670241535 15.438049394871868 0 0 0
678 226 1 0.5897 -4.060708051597504 -6.206148781036829 12.341365978495906 0 0 0
720 240 1 0.5897 -0.7846726648403717 -6.4895412704911895 14.281325771832488 0 0 0
774 258 1 0.5897 -5.077401215025592 -2.414879197491511 12.892736326846258 0 0 0
655 219 2 -1.1794 -0.44341459477086786 -7.474492573910153 10.994743516755845 0 0 0
718 240 2 -1.1794 -0.13758970101638468 -6.887644607806135 13.698966124595044 0 0 0
698 233 1 0.5897 -1.1701643261429453 -4.142564027984148 13.268497627622896 0 0 0
668 223 1 0.5897 -3.079954854684951 -3.4191299467825713 12.05818110864914 0 0 0
802 268 2 -1.1794 -2.651055812639801 -2.2550075127491285 14.84051518022713 0 0 0
787 263 2 -1.1794 -4.281999064349288 -4.480185521783912 14.742691355156603 0 0 0
657 219 1 0.5897 -0.40891430655971206 -7.16171846488827 11.898848780482297 0 0 0
677 226 1 0.5897 -2.5782243756352994 -5.906799364354067 12.278124102629382 0 0 0
697 233 2 -1.1794 -1.5991063968992414 -4.372620058552104 12.444269929402287 0 0 0
699 233 1 0.5897 -0.9325780763865641 -4.21716220057337 11.775069253230306 0 0 0
816 272 1 0.5897 0.26014983484343013 -4.008556352772242 15.199952523964932 0 0 0
814 272 2 -1.1794 -0.22026956781431473 -3.457628298647709 14.582021588861148 0 0 0
804 268 1 0.5897 -1.7763470274190105 -2.6435574511975695 14.835166311373825 0 0 0
803 268 1 0.5897 -3.246431384093862 -3.0043663963303544 14.8294740457741 0 0 0
757 253 2 -1.1794 -9.658033476913513 -5.860983232024352 15.49802161002133 0 0 0
794 265 1 0.5897 -1.7600659686549065 -5.258217969323831 16.134627762289764 0 0 0
758 253 1 0.5897 -9.420135825501362 -5.26891331320129 16.211621305181144 0 0 0
669 223 1 0.5897 -4.129499317896346 -3.6209413754992976 10.986093716928657 0 0 0
1151 384 1 0.5897 -6.026190543872173 -5.296442662213925 19.42123029165466 0 0 0
1152 384 1 0.5897 -6.8049188421777576 -4.01671456946454 19.64019710105599 0 0 0
1225 409 2 -1.1794 -8.068531271096457 -3.4821651103257985 20.815443318091802 0 0 0
1227 409 1 0.5897 -8.882016375310007 -3.126075644775775 20.458363631617416 0 0 0
1109 370 1 0.5897 -8.64348103030885 -3.3902985384393194 17.671849443375002 0 0 0
1108 370 2 -1.1794 -9.228361536284641 -4.14649875056737 17.624799735412665 0 0 0
1089 363 1 0.5897 -6.410289435902206 -4.723619661151307 17.31782978809448 0 0 0
1150 384 2 -1.1794 -6.143632910642429 -4.412768045297348 19.07258082709039 0 0 0
1219 407 2 -1.1794 -10.336917684898898 -2.0973962291733734 20.108029363067168 0 0 0
1129 377 2 -1.1794 -7.635718219136162 -1.9125757470394973 17.73134818006894 0 0 0
1248 416 1 0.5897 -5.82090958602137 -1.5835954477584577 20.54076103462453 0 0 0
1097 366 1 0.5897 -8.970612218414633 -5.745154793625158 18.374686663946413 0 0 0
1131 377 1 0.5897 -6.97545034618281 -1.8102105008579192 17.045896769217237 0 0 0
1087 363 2 -1.1794 -6.465820740519777 -5.026650891813947 16.41146012854766 0 0 0
1130 377 1 0.5897 -7.177795045982007 -1.6880896589498837 18.54138799485837 0 0 0
1088 363 1 0.5897 -6.663666770273611 -5.960502174954883 16.482280883193255 0 0 0
1143 381 1 0.5897 -8.380279258643316 -5.200138383127352 21.397061354287594 0 0 0
1142 381 1 0.5897 -8.626980339255924 -6.3715256378096115 20.470107927046925 0 0 0
1110 370 1 0.5897 -10.106079675655002 -3.7772157364228356 17.7216234785541 0 0 0
1141 381 2 -1.1794 -8.56874620069239 -6.138610843748237 21.39680563199741 0 0 0
1121 374 1 0.5897 -4.77767937168234 -3.510716055376874 18.36696885168213 0 0 0
1132 378 2 -1.1794 -1.2059479274162523 -6.711120239185325 18.739597847869945 0 0 0
1186 396 2 -1.1794 1.439037846769244 -4.381107605626988 19.02600555287175 0 0 0
1123 375 2 -1.1794 1.2153131787817646 -5.058303086665604 16.38070673100625 0 0 0
1179 393 1 0.5897 -0.7869039581800319 -5.149938650578974 21.35566239392626 0 0 0
1177 393 2 -1.1794 -0.968011346356672 -6.086864536419142 21.430567900302336 0 0 0
1125 375 1 0.5897 1.203631445778111 -4.767204520226828 17.292603828229865 0 0 0
1124 375 1 0.5897 1.0471576212900828 -5.99948639728021 16.427001447496032 0 0 0
1187 396 1 0.5897 1.5843728698802 -5.264494403513708 19.364731613900986 0 0 0
1120 374 2 -1.1794 -4.065769044315678 -3.0681601996348746 17.90493686515382 0 0 0
1145 382 1 0.5897 -0.9995508275257698 -3.5173553643902675 17.598558772711733 0 0 0
1165 389 2 -1.1794 -0.06018548117553557 -1.9350135299652305 17.666374558866195 0 0 0
1256 419 1 0.5897 -3.4515542353840765 -2.215593923090964 20.758269669897984 0 0 0
1255 419 2 -1.1794 -2.7774985561301957 -2.0317621544941487 20.10397590135949 0 0 0
1144 382 2 -1.1794 -1.6145360665487587 -4.250724192079524 17.607975338357058 0 0 0
1261 421 2 -1.1794 -0.513487842326704 -3.4634008597437465 20.762745124710342 0 0 0
1188 396 1 0.5897 0.7353827391803325 -4.02800821571517 19.57053333433595 0 0 0
1263 421 1 0.5897 -1.3388627448871446 -3.0856480904257335 20.459225101710395 0 0 0
1257 419 1 0.5897 -3.1782955290254318 -2.2783623611168338 19.27040903958879 0 0 0
1133 378 1 0.5897 -1.321970934103371 -5.825230723900929 18.396131652704774 0 0 0
1122 374 1 0.5897 -4.504725235181409 -2.533033412880984 17.243778072402925 0 0 0
1146 382 1 0.5897 -2.4760285972681224 -3.8403581854281335 17.68260924695342 0 0 0
1178 393 1 0.5897 -0.9905649418160962 -6.400062777543168 20.526230943285498 0 0 0
1226 409 1 0.5897 -7.8182798933867375 -2.8653914477834466 21.50342565112676 0 0 0
1096 366 2 -1.1794 -8.89357978259464 -6.64166502591089 18.70113567038809 0 0 0
1262 421 1 0.5897 -0.26000226358855016 -2.9186043824490664 21.50793121920053 0 0 0
1221 407 1 0.5897 -10.788127039339905 -2.2918129854560885 19.286526245947712 0 0 0
302 101 1 0.5897 -7.470268309748189 -1.9595096681414281 2.631892417518505 1 1 0
53 18 1 0.5897 -12.269837376484652 0.9886266484409507 2.5058332919140396 1 0 0
44 15 1 0.5897 -9.86234484285458 0.8841846062037941 0.5486159640736628 1 0 0
97 33 2 -1.1794 -11.720690633780235 0.7033154010379139 5.503990910135807 1 0 0
59 20 1 0.5897 -13.410345158258451 -0.8672033018556586 3.5441519714696343 1 0 0
99 33 1 0.5897 -11.595288475585098 1.6513249158018866 5.461480359610371 1 0 0
54 18 1 0.5897 -11.415186246768243 -0.2457596932813626 2.311187338247616 1 0 0
107 36 1 0.5897 -9.268185511479079 1.4965769520054657 3.535282625076637 1 0 0
68 23 1 0.5897 -11.278309783843754 -2.5118007779138702 4.803643681435544 1 0 0
256 86 2 -1.1794 -11.927311365801703 -3.340999301756348 1.9900721937747154 1 1 0
69 23 1 0.5897 -10.990043426485673 -2.563227761173753 3.3181825385700283 1 0 0
67 23 2 -1.1794 -10.586654105207803 -2.354731245413629 4.160847428174302 1 0 0
271 91 2 -1.1794 -10.189591343081442 -0.794489019026166 1.1241468148217963 1 1 0
82 28 2 -1.1794 -8.923198137024695 -0.11235450932907831 4.3276853993370015 1 0 0
258 86 1 0.5897 -12.39351742546407 -2.7732818979920104 1.3764651123310703 1 1 0
83 28 1 0.5897 -9.52112730152858 -0.8543697739140459 4.238101540802351 1 0 0
272 91 1 0.5897 -9.36130591159836 -1.145348610658715 1.4511075449233677 1 1 0
52 18 2 -1.1794 -12.126241813418421 0.10588560305697747 2.846970457152897 1 0 0
98 33 1 0.5897 -11.790919098217847 0.4291967273499573 4.589475413724717 1 0 0
301 101 2 -1.1794 -7.9183921766836205 -2.1680585877021317 1.8121682461364501 1 1 0
84 28 1 0.5897 -8.050111512722427 -0.4977128911715276 4.254551374245171 1 0 0
89 30 1 0.5897 -4.511072650950712 0.9649256396773964 2.515123079918175 1 0 0
94 32 2 -1.1794 -6.460461583411604 -1.230780773595371 3.969053092783519 1 0 0
25 9 2 -1.1794 -4.078531681249966 0.7105383136904706 5.53180825053701 0 0 0
105 35 1 0.5897 -3.3160277749595037 -2.582084049898155 3.377563705376834 1 0 0
104 35 1 0.5897 -3.549480882311692 -2.478308065994181 4.869903720690569 1 0 0
95 32 1 0.5897 -5.729408970255774 -0.7925764074130974 3.5335370921785243 1 0 0
292 98 2 -1.1794 -4.282876747392833 -3.2821724446480527 2.0184884499438986 1 1 0
88 30 2 -1.1794 -4.358055996741422 0.07525185505170029 2.833397782852558 1 0 0
26 9 1 0.5897 -4.062900709870137 0.3903437993280523 4.6297732327038466 0 0 0
303 101 1 0.5897 -7.2477581412501575 -2.060397866031882 1.1376839847796183 1 1 0
27 9 1 0.5897 -3.9186815219022106 1.651207553931945 5.4554213863543985 0 0 0
96 32 1 0.5897 -6.046708128471929 -1.8050250101981469 4.61343493716132 1 0 0
90 30 1 0.5897 -3.6590514260325646 -0.2630047168684193 2.273664959723739 1 0 0
294 98 1 0.5897 -4.721508780861493 -2.7137498474750474 1.3855027353491083 1 1 0
103 35 2 -1.1794 -2.8706105125863797 -2.384896118843626 4.201564260000569 1 0 0
307 103 2 -1.1794 -2.4620118932532957 -0.8872136893885401 1.093109973299736 1 1 0
273 91 1 0.5897 -10.445928562405605 -1.3964247543852277 0.4253501016604149 1 1 0
74 25 1 0.5897 -8.032362762791196 -3.091892759844673 5.598374772828395 1 0 0
309 103 1 0.5897 -2.7214025331891225 -1.462714039380451 0.3734779718696337 1 1 0
426 142 1 0.5897 -8.762057260437064 -1.6525937684296954 7.134795602348572 1 0 0
425 142 1 0.5897 -7.274158842085078 -1.3778601312638097 7.089478395719117 1 0 0
435 145 1 0.5897 -7.509587671912177 -0.8985907325126412 9.883453003940918 0 0 0
401 134 1 0.5897 -11.027402323275302 -1.2667880320828875 7.81893387803474 1 0 0
402 134 1 0.5897 -10.739150920669838 -0.2681819776457459 6.718200944911587 1 0 0
400 134 2 -1.1794 -10.311992513141107 -0.7920948850699006 7.395863203020454 1 0 0
411 137 1 0.5897 -13.242653965447673 0.3125798888616895 6.342308185337686 1 0 0
536 179 1 0.5897 -9.649558054101536 -0.018541763323375093 10.219810010990983 1 0 0
535 179 2 -1.1794 -8.96258241851854 0.15366054518036343 9.57587410193907 1 0 0
537 179 1 0.5897 -9.353047619018783 -0.09100543622855639 8.736848809523972 1 0 0
528 176 1 0.5897 -12.10918463555967 0.5493024733757057 9.885166333297644 1 0 0
424 142 2 -1.1794 -7.912414279345829 -2.0911230810409354 7.090816844914566 1 0 0
527 176 1 0.5897 -11.802873893464923 1.547464256560911 8.788916092775219 1 0 0
526 176 2 -1.1794 -12.529568253664403 1.1180025195730785 9.240159095717416 1 0 0
522 174 1 0.5897 -9.740183013824575 2.1515827387148914 7.593689535442378 1 0 0
410 137 1 0.5897 -13.497769894362772 0.40184317421984517 7.832036535601616 1 0 0
433 145 2 -1.1794 -6.680085998943787 -1.2595405921411178 10.196033657856713 0 0 0
415 139 2 -1.1794 -8.452603962179916 1.6279381608249093 6.430622243450037 1 0 0
456 152 1 0.5897 -4.38543731123035 0.5076756360551311 9.896369958623374 0 0 0
338 113 1 0.5897 -5.851751246687654 0.3474003054832355 7.931634697527774 0 0 0
329 110 1 0.5897 -3.382699151027957 -1.3027888844258797 7.734267448492688 0 0 0
337 113 2 -1.1794 -6.26384794024793 0.11624504796201052 7.099155956229277 0 0 0
328 110 2 -1.1794 -2.6699620541325917 -0.8460989508101271 7.287524078382696 0 0 0
330 110 1 0.5897 -3.1091761259856208 -0.2636306736683487 6.667852587287997 0 0 0
358 120 2 -1.1794 -4.721931396907918 -2.2222311723309858 8.478626452417048 0 0 0
455 152 1 0.5897 -4.139618705943348 1.519694538226675 8.797595248313344 0 0 0
443 148 1 0.5897 -7.894724003490241 1.5978150383031178 9.586592740554686 0 0 0
464 155 1 0.5897 -1.8860191595410765 -0.028967935548740442 10.168365579326311 0 0 0
360 120 1 0.5897 -5.387554921729152 -1.8374644068437611 9.048926729955186 0 0 0
454 152 2 -1.1794 -4.839862416010326 1.0567871686054051 9.2575076076709 0 0 0
403 135 2 -1.1794 -5.0672995434073 -2.7960539848432413 5.789654670216113 1 0 0
339 113 1 0.5897 -5.5984103294653424 0.31148784337908 6.4393692528028765 0 0 0
405 135 1 0.5897 -5.058371154941389 -2.484504534605091 6.694799458648697 1 0 0
416 139 1 0.5897 -7.671749184794065 1.1980169910726737 6.779216460421136 1 0 0
442 148 2 -1.1794 -7.282130020976644 2.332947540906531 9.56576633919258 0 0 0
444 148 1 0.5897 -6.417998649840783 1.9238515138874401 9.520558299803918 0 0 0
434 145 1 0.5897 -6.416666613482687 -0.6748223496796815 10.906716325947194 0 0 0
417 139 1 0.5897 -8.75916367624793 1.043183466640004 5.737500922819321 1 0 0
520 174 2 -1.1794 -10.418645097986102 2.48865133235385 8.17884415593834 1 0 0
818 273 1 0.5897 -5.54439920285385 -1.7424213418942198 15.183635506607603 0 0 0
896 299 1 0.5897 -8.087020493577807 2.403535586216522 15.538683004321197 0 0 0
762 254 1 0.5897 -9.138261103992564 2.109832805974589 12.03466312418 0 0 0
888 296 1 0.5897 -10.5460459763031 3.051307857535301 15.200911750197607 0 0 0
771 257 1 0.5897 -11.674235668050061 2.7045336513749216 11.675975902179978 0 0 0
835 279 2 -1.1794 -11.14917128352363 -0.39874806967181264 11.086996092410834 1 0 0
770 257 1 0.5897 -11.90811240848749 2.8611576120856395 13.163637234655438 0 0 0
836 279 1 0.5897 -11.283922134598368 -1.3456403480718313 11.12561388565633 1 0 0
761 254 1 0.5897 -9.454702299905861 1.0686847577689615 13.087173073142932 0 0 0
837 279 1 0.5897 -11.133867722837055 -0.12088060640466303 12.002954411761994 1 0 0
791 264 1 0.5897 -10.683352331138414 -0.7251005525817593 14.10541056704199 0 0 0
792 264 1 0.5897 -11.50095910519026 0.5282616540090412 14.334898022071187 0 0 0
760 254 2 -1.1794 -8.724900547742203 1.5312447882274434 12.675401894645944 0 0 0
790 264 2 -1.1794 -10.861231809769876 0.14051979321814834 13.737598931647911 0 0 0
769 257 2 -1.1794 -12.353257326347624 2.6347136670603675 12.347041320148497 0 0 0
897 299 1 0.5897 -7.816470127067627 2.2855703260021425 14.05367720357533 0 0 0
826 276 2 -1.1794 -3.2041909716053762 0.1930760464601473 13.76309139931156 0 0 0
773 258 1 0.5897 -5.924246208695303 -1.1833188943279946 13.13389817265279 0 0 0
772 258 2 -1.1794 -5.7614501082739995 -2.066661239485807 13.464705680619181 0 0 0
786 262 1 0.5897 -7.125860332485807 0.8055323728712018 12.468409863202687 0 0 0
805 269 2 -1.1794 -4.694043956675061 2.6439300123605243 12.462075756407144 0 0 0
895 299 2 -1.1794 -7.401900423048167 2.5276185123106742 14.881821027813222 0 0 0
765 255 1 0.5897 -3.3629827992595303 -0.09072066298156223 11.97734468128917 0 0 0
784 262 2 -1.1794 -6.2572952608732875 0.4123802419658187 12.38382871068295 0 0 0
807 269 1 0.5897 -4.041752064839463 2.8140959421230285 11.782503873111507 0 0 0
901 301 2 -1.1794 -5.089308468797968 1.1832801014632022 15.558147594513274 0 0 0
806 269 1 0.5897 -4.253654765075128 2.873120552892191 13.280484195279138 0 0 0
827 276 1 0.5897 -3.037206783565974 -0.6838639171195506 14.108520698802325 0 0 0
903 301 1 0.5897 -5.930070610700953 1.5272914000133841 15.256757135678015 0 0 0
817 273 2 -1.1794 -5.460479336191918 -1.4763880419950945 16.099381017477302 0 0 0
763 255 2 -1.1794 -3.359216956532734 -0.4033126622579015 11.072522460800457 0 0 0
924 308 1 0.5897 -2.8264150571906654 3.0494141281506693 15.245323728295222 0 0 0
828 276 1 0.5897 -3.8649621471547535 0.5605083651162719 14.35021802058511 0 0 0
797 266 1 0.5897 -1.8628141059708518 1.118493871782265 13.075117117049546 0 0 0
819 273 1 0.5897 -5.322216854352557 -0.5299260833565018 16.062690346747807 0 0 0
785 262 1 0.5897 -5.656184484223819 1.157217488354009 12.380374492615804 0 0 0
764 255 1 0.5897 -3.515062375808979 -1.345092355961616 11.143269505120527 0 0 0
865 289 2 -1.1794 -12.73537934575931 1.1515017271700092 15.527638154144865 0 0 0
866 289 1 0.5897 -12.507755339626078 1.7487012716046397 16.24031376048407 0 0 0
1229 410 1 0.5897 -7.9023380121392615 3.531086733968424 18.398633004838196 0 0 0
1204 402 2 -1.1794 -11.910037804436195 0.3638314371100133 18.791942383107568 0 0 0
1272 424 1 0.5897 -0.28768160506225726 -0.1956858153196226 20.12921671570387 0 0 0
1249 417 2 -1.1794 -11.608125461934602 0.9232597178616455 21.45164411488156 0 0 0
1259 420 1 0.5897 -9.146738160277335 1.7162564133673612 19.469227692171437 0 0 0
1195 399 2 -1.1794 -9.603148138147535 2.097263782490339 16.432034479223695 0 0 0
1251 417 1 0.5897 -11.45996651827845 1.8652402172818636 21.368201291116968 0 0 0
1196 399 1 0.5897 -9.69194175949011 1.1461881495462318 16.49389948004962 0 0 0
1218 406 1 0.5897 -13.296019976907719 3.183385401955862 17.635915098119845 0 0 0
1197 399 1 0.5897 -9.59520559999652 2.397276113649525 17.341076385898 0 0 0
1258 420 2 -1.1794 -9.269393204643304 2.6020309646021413 19.127785891961757 0 0 0
1235 412 1 0.5897 -9.390954724057288 -0.5869679029237922 20.26004756866608 0 0 0
1236 412 1 0.5897 -7.919730436077815 -0.23286999719243973 20.221498728919634 0 0 0
1246 416 2 -1.1794 -6.284962328953959 -0.992651135506863 19.947799541931616 0 0 0
1099 367 2 -1.1794 -9.936011967060734 -0.5593653841063233 17.039901485663286 0 0 0
1250 417 1 0.5897 -11.658174243890418 0.6072685335066215 20.549389443251762 0 0 0
1205 402 1 0.5897 -12.092468115950975 1.2474956557151078 18.472431707655133 0 0 0
1216 406 2 -1.1794 -12.41859344866039 2.8021653312040247 17.665907451749213 0 0 0
1206 402 1 0.5897 -11.226559072442301 0.03399053906423255 18.20851319208046 0 0 0
1100 367 1 0.5897 -9.147335422235688 -0.9353390590055124 17.43067971283792 0 0 0
1234 412 2 -1.1794 -8.791381427247865 0.15897799063006524 20.27447026053985 0 0 0
1009 337 2 -1.1794 -11.251754554820788 3.5294344941010785 20.856301641102903 0 -1 0
1260 420 1 0.5897 -9.937240286584053 2.987553854910855 19.69496698623228 0 0 0
1011 337 1 0.5897 -12.044924945714412 3.890268455173951 20.460387223858696 0 -1 0
1217 406 1 0.5897 -11.829259486187013 3.556366610095985 17.66522576698968 0 0 0
1137 379 1 0.5897 -2.653486552365928 -1.146516367260885 16.336320413628435 0 0 0
1135 379 2 -1.1794 -2.373737480193725 -0.5335001209979104 17.01624425513652 0 0 0
1254 418 1 0.5897 -5.588423176375489 3.256549772218724 17.706144687739787 0 0 0
1232 411 1 0.5897 -2.0567792221085845 1.116603885004654 16.509050416822333 0 0 0
1287 429 1 0.5897 -3.7740805903964603 1.8973158512630803 21.466117603571455 0 0 0
1242 414 1 0.5897 -3.6053334175468823 0.009171458741811023 18.212587354710735 0 0 0
1247 416 1 0.5897 -5.591037541312415 -0.5195072401203404 19.488725877340038 0 0 0
1233 411 1 0.5897 -1.8713739931525506 2.36863171483299 17.339895899780252 0 0 0
1285 429 2 -1.1794 -3.9661099074614743 0.9598353836242328 21.488485469177263 0 0 0
1231 411 2 -1.1794 -1.8860607296393823 2.0555746047074948 16.43534717256324 0 0 0
1270 424 2 -1.1794 -1.163910932780075 0.18809803623851984 20.161606986064264 0 0 0
1047 349 1 0.5897 -4.368799318626132 3.9872009124208336 20.50953387238711 0 -1 0
1240 414 2 -1.1794 -4.258965156523686 0.4096444046245349 18.785941730781985 0 0 0
1252 418 2 -1.1794 -4.724571331433985 2.8472027909927924 17.657931545452534 0 0 0
1045 349 2 -1.1794 -3.5544682298546677 3.5999318851924027 20.83040620008284 0 -1 0
1241 414 1 0.5897 -4.400987068245241 1.281007465374838 18.41610138397828 0 0 0
1295 432 1 0.5897 -1.4927177928215052 1.7727452576947904 19.423210374884853 0 0 0
1136 379 1 0.5897 -1.569842523688079 -0.9158239133377322 17.367884052998242 0 0 0
1271 424 1 0.5897 -1.7555395052358183 -0.5642998227625498 20.158975791220755 0 0 0
1296 432 1 0.5897 -2.336750440478861 3.010245335236087 19.642882137643596 0 0 0
1286 429 1 0.5897 -4.027580378328469 0.7053413371211636 20.567689798437783 0 0 0
1253 418 1 0.5897 -4.110693337666928 3.5815541759511493 17.660759779269533 0 0 0
1294 432 2 -1.1794 -1.6442644535997157 2.655406674149498 19.08531388446088 0 0 0
1101 367 1 0.5897 -10.181853418764364 -1.1786853257939143 16.352613517755387 0 0 0
1010 337 1 0.5897 -11.019216776823795 4.156099822660364 21.54156117273878 0 -1 0
902 301 1 0.5897 -4.829363806294383 1.772016720673479 16.266788579792077 0 0 0
40 14 2 -1.1794 -14.971474387039553 3.839426161798146 1.9615121567571396 1 0 0
177 59 1 0.5897 -13.954282360492329 4.509577633211688 3.3037010128249804 1 0 0
42 14 1 0.5897 -15.414102622394758 4.33195124473114 1.2703727455670006 1 0 0
55 19 2 -1.1794 -13.08098703790944 6.165645824264615 0.973528437670228 1 0 0
56 19 1 0.5897 -12.255927253335559 5.7876188826731365 1.2775661829679303 1 0 0
66 22 1 0.5897 -13.43711699003112 2.9837421394091255 1.7141613597873937 1 0 0
65 22 1 0.5897 -11.94890220136919 3.2551490077499743 1.660039127379686 1 0 0
64 22 2 -1.1794 -12.588626135568843 2.54324269033501 1.6677021707804778 1 0 0
191 64 1 0.5897 -12.553791436808666 6.193832623786518 4.151750370291301 1 0 0
183 61 1 0.5897 -12.10431275353005 3.707752538710846 4.561612780096278 1 0 0
181 61 2 -1.1794 -11.314441303049547 3.31209267455802 4.9298938157393115 1 0 0
176 59 1 0.5897 -14.232904711806874 4.630707669049942 4.786959430117934 1 0 0
175 59 2 -1.1794 -13.539242641046869 4.736489664132623 4.13588389828603 1 0 0
108 36 1 0.5897 -10.054045493384429 2.7655999498831267 3.78839947224246 1 0 0
85 29 2 -1.1794 -10.854528681646945 4.739869437455367 1.6923710684166893 1 0 0
190 64 2 -1.1794 -11.93989772198365 6.927969516362495 4.16912083339813 1 0 0
162 54 1 0.5897 -14.337135586857048 6.762384055573502 2.208186853591307 1 0 0
167 56 1 0.5897 -16.444712585487615 6.160555563505094 3.3404151158120063 1 0 0
45 15 1 0.5897 -9.660518482555453 2.1249771236140163 1.3923839856095133 1 0 0
111 37 1 0.5897 -4.363001883320631 3.7221099515881466 4.5955950967274415 0 0 0
43 15 2 -1.1794 -9.678351528298261 1.8213605835297049 0.4846810992818614 1 0 0
192 64 1 0.5897 -11.075171731387355 6.517661171996526 4.165235717596161 1 0 0
106 36 2 -1.1794 -9.401524019982803 2.3836556462991734 3.2013054217401846 1 0 0
101 34 1 0.5897 -4.251578076928241 3.281351578907456 1.7212613798384957 1 0 0
86 29 1 0.5897 -10.468813172657146 5.0016202312637486 2.5284352748540466 1 0 0
87 29 1 0.5897 -10.166251437780506 4.905309251219469 1.0480533206410882 1 0 0
76 26 2 -1.1794 -7.3407329457547235 3.7521046894391095 1.996501688638941 1 0 0
77 26 1 0.5897 -8.068672319700351 3.3158466164320863 2.439131189492655 1 0 0
204 68 1 0.5897 -9.034437441196996 5.182891119614503 4.595928143794234 1 0 0
203 68 1 0.5897 -8.86683089413642 6.167142127332646 3.4579092613088958 1 0 0
198 66 1 0.5897 -6.815407191996133 6.702545570901064 2.2070216323679848 1 0 0
78 26 1 0.5897 -7.757022919990327 4.29102752720369 1.323863513847881 1 0 0
102 34 1 0.5897 -5.7263581147268745 2.943830778508321 1.7710428748507094 1 0 0
100 34 2 -1.1794 -4.858417970438006 2.541438843195971 1.7412916631968072 1 0 0
213 71 1 0.5897 -6.3364774920073295 4.451794137938002 3.377105977208752 1 0 0