LAMMPS data file via write_data, version 30 Jul 2021, timestep = 9000000

1296 atoms
2 atom types
864 bonds
1 bond types
432 angles
1 angle types

-10.744480528684212 12.724480528684213 xlo xhi
-9.287781050500742 12.277779050500742 ylo yhi
-0.03877440032738377 21.898773400333837 zlo zhi
-9.427589907942957 1.7041014453224808 3.117981382438324 xy xz yz

Masses

1 1.008
2 15.999

Pair Coeffs # lj/cut/tip4p/long/omp

1 0 0
2 0.21084 3.1668

Bond Coeffs # harmonic/omp

1 450 0.9572

Angle Coeffs # harmonic/omp

1 55 104.52

Atoms # full

298 100 2 -1.1794 -6.166514127544852 -7.244141774451503 4.262647769557098 1 1 0
270 90 1 0.5897 -8.302963240739093 -7.246877266669138 1.8798402038911466 1 1 0
269 90 1 0.5897 -9.337672390357541 -6.175551594378193 2.1514295680697177 1 1 0
268 90 2 -1.1794 -9.123735608406621 -7.0879444356834975 2.3462031694075476 1 1 0
163 55 2 -1.1794 -7.124291596790257 -8.031232307196165 0.7896443900490828 1 1 0
282 94 1 0.5897 -10.762423168934184 -4.385400545374372 1.3511727835281189 1 1 0
299 100 1 0.5897 -6.766191467967636 -7.956620901694135 4.041249149759926 1 1 0
164 55 1 0.5897 -6.524382201472124 -8.56731060459806 1.308249493050291 1 1 0
260 87 1 0.5897 -7.1848927027447385 -6.219160693570232 0.33232147945722657 1 1 0
314 105 1 0.5897 -9.162466546849728 -7.279411166190112 4.586697196074456 1 1 0
280 94 2 -1.1794 -9.860846466673795 -4.706207636506473 1.3767660338403678 1 1 0
261 87 1 0.5897 -6.665982906435354 -5.159592163423803 1.2809425897001534 1 1 0
324 108 1 0.5897 -7.052058639813019 -4.686965971169367 3.5057137572705037 1 1 0
315 105 1 0.5897 -8.958734582409747 -5.865380002401931 5.087486004072816 1 1 0
281 94 1 0.5897 -9.326796342827938 -3.9156075084902104 1.4540290706526533 1 1 0
73 25 2 -1.1794 -8.527531261029809 -4.179278139178308 4.53122781805805 1 0 0
313 105 2 -1.1794 -9.145926708771448 -6.754919757003863 5.387228683946595 1 1 0
275 92 1 0.5897 -10.612882509395071 -7.773545488010544 3.3216466108185294 1 1 0
75 25 1 0.5897 -9.233436662768838 -3.699526845646651 4.097842786978445 1 0 0
300 100 1 0.5897 -5.294307057913008 -7.629845636192978 4.179600295548726 1 1 0
259 87 2 -1.1794 -6.93752766277981 -5.295410551083693 0.37318819395937736 1 1 0
74 25 1 0.5897 -8.28678108295193 -3.629994229628174 5.277231862310907 1 0 0
1226 409 1 0.5897 -9.696984442678952 -5.662461884256105 -0.002622011524706834 0 0 1
165 55 1 0.5897 -7.383031112305092 -8.596422040340956 0.0617594775377739 1 1 0
419 140 1 0.5897 -9.157227852251737 -5.356015919050927 8.56471226745021 1 0 0
418 140 2 -1.1794 -9.805531110825779 -5.900804929464505 9.011056560279426 1 0 0
618 206 1 0.5897 -7.921956762157226 -7.3255002298339145 6.824723570626315 1 1 0
427 143 2 -1.1794 -5.984595374962707 -7.38529240728036 9.688649338770226 1 0 0
428 143 1 0.5897 -6.682377901315715 -7.282912935129757 10.335951461486681 1 0 0
420 140 1 0.5897 -9.320265380829374 -6.315261194496802 9.724460192783157 1 0 0
414 138 1 0.5897 -7.01015757611234 -4.903036240075826 7.6689101872594385 1 0 0
413 138 1 0.5897 -7.63837201772259 -3.527222186861171 7.734734745600108 1 0 0
412 138 2 -1.1794 -7.720283380367689 -4.414209979389206 8.085011176494511 1 0 0
627 209 1 0.5897 -10.709993212446182 -6.836466723350803 6.109280176563733 1 1 0
350 117 1 0.5897 -7.456850294656725 -4.17851131490106 9.793386566102434 0 0 0
429 143 1 0.5897 -6.4373212428174895 -7.648855029058382 8.887524493968993 1 0 0
616 206 2 -1.1794 -7.579787137519656 -7.992457195438292 7.419912208476311 1 1 0
351 117 1 0.5897 -7.08407730926926 -2.9813945596719975 10.641779719723766 0 0 0
349 117 2 -1.1794 -7.264586246734371 -3.9198975253169746 10.694691489490822 0 0 0
633 211 1 0.5897 -6.149227871210933 -6.2794701483260225 5.790898997216327 1 1 0
631 211 2 -1.1794 -5.83683909048965 -5.717635069841091 6.500102043332035 1 1 0
408 136 1 0.5897 -11.106614086085115 -4.982407028385452 9.282561535974382 1 0 0
661 221 2 -1.1794 -9.513764964789615 -4.349993407633409 12.57638263386321 0 0 0
740 247 1 0.5897 -10.905037808277317 -3.3734242858217547 11.981167056193499 1 0 0
780 260 1 0.5897 -7.636933310004917 -3.5215207600387686 15.423871167290716 0 0 0
779 260 1 0.5897 -7.193142091207971 -2.7539267360093067 14.196804325803607 0 0 0
778 260 2 -1.1794 -7.952588899969351 -3.190179161297891 14.583181870866296 0 0 0
663 221 1 0.5897 -8.96223818973628 -4.186965893062132 11.81116299399461 0 0 0
662 221 1 0.5897 -8.975999129873061 -4.081375039240179 13.32129403246856 0 0 0
652 218 2 -1.1794 -5.973516603291257 -5.57307200229112 12.53976037747073 0 0 0
654 218 1 0.5897 -6.33548656794368 -4.9761461962420945 11.884916436545147 0 0 0
653 218 1 0.5897 -6.73993177224888 -5.929953592169209 12.988763778427218 0 0 0
767 256 1 0.5897 -11.09668493092008 -3.0085178027536106 15.237587563912326 0 0 0
682 228 2 -1.1794 -8.341766867849051 -6.681681604866888 13.67355379504079 0 0 0
684 228 1 0.5897 -9.104772950578868 -6.307188926395515 14.113977978048244 0 0 0
739 247 2 -1.1794 -11.69473732532045 -3.011947416759254 11.578649473599448 1 0 0
768 256 1 0.5897 -9.736723125580227 -2.566564279901165 14.74009071309566 0 0 0
766 256 2 -1.1794 -10.584600758201159 -2.22757612816042 15.0274910950934 0 0 0
729 243 1 0.5897 -8.703937470599184 -6.941931269661135 11.808869823044349 1 0 0
788 263 1 0.5897 -5.265464891945019 -4.331314204739337 15.36014541281217 0 0 0
727 243 2 -1.1794 -8.593826128750242 -7.397526166257981 10.974281829741189 1 0 0
1089 363 1 0.5897 -6.489250150285695 -4.391686487582394 17.34607494351524 0 0 0
1219 407 2 -1.1794 -10.673838442790055 -1.9210416043495204 20.605447054808312 0 0 0
1227 409 1 0.5897 -8.940516853809607 -2.9382328318758155 20.821856051536802 0 0 0
1088 363 1 0.5897 -7.143038493070965 -5.567776567714273 16.65237302496041 0 0 0
1097 366 1 0.5897 -9.396620325113293 -5.344282489327615 18.669644222872947 0 0 0
1096 366 2 -1.1794 -9.114245469305455 -6.181401605866789 19.03796447712436 0 0 0
1152 384 1 0.5897 -7.042527216284 -3.910204484969075 19.83117229049327 0 0 0
1225 409 2 -1.1794 -8.049445260955032 -3.078284559229825 21.14242087567874 0 0 0
1151 384 1 0.5897 -6.207477513862863 -5.124967181370469 19.486199472720077 0 0 0
1150 384 2 -1.1794 -6.454341818009921 -4.259114165542103 19.161381419020636 0 0 0
1109 370 1 0.5897 -9.095552620957449 -2.9618662176270902 17.969075857281776 0 0 0
1108 370 2 -1.1794 -9.56853544408053 -3.791247209470929 18.037241563308328 0 0 0
1248 416 1 0.5897 -6.14905429543444 -1.4584316653380247 20.559985666646053 0 0 0
1110 370 1 0.5897 -10.49280884472799 -3.542235398836736 18.025446358201695 0 0 0
1098 366 1 0.5897 -8.312018497701825 -6.3949931475439605 18.561282867105596 0 0 0
1143 381 1 0.5897 -8.56480681714083 -4.835426051037389 21.706096295745123 0 0 0
1121 374 1 0.5897 -5.016734900383067 -3.4048521876675704 18.377716069785034 0 0 0
1142 381 1 0.5897 -9.149402121827698 -5.981574986059129 20.908323887269464 0 0 0
758 253 1 0.5897 -9.87424711685788 -5.226685447163922 16.486546014182625 0 0 0
1087 363 2 -1.1794 -6.790252195094835 -4.693123327426681 16.48891025165284 0 0 0
1141 381 2 -1.1794 -8.944866832060864 -5.708596811053228 21.802669427622718 0 0 0
69 23 1 0.5897 -11.063841458069039 -2.573200091005237 3.1816191490961643 1 0 0
44 15 1 0.5897 -10.315089847678626 0.8339707531567804 0.40207879680932573 1 0 0
272 91 1 0.5897 -9.569280276991524 -1.1047135825610113 1.1921465269936717 1 1 0
256 86 2 -1.1794 -12.274163747869952 -3.479660022474599 1.4005878542599297 1 1 0
82 28 2 -1.1794 -9.181211414959291 0.03323990209270278 4.28414787090552 1 0 0
83 28 1 0.5897 -9.836466944912628 -0.6580923292628587 4.189339850933644 1 0 0
271 91 2 -1.1794 -10.471931085889924 -0.867137762905049 0.9796407685297701 1 1 0
68 23 1 0.5897 -11.283263516784771 -2.6190055588124928 4.678823401589607 1 0 0
98 33 1 0.5897 -11.919269931177132 0.5653733479462062 4.861571845263949 1 0 0
54 18 1 0.5897 -11.579526704184458 -0.02267686766101029 2.2807270118959613 1 0 0
53 18 1 0.5897 -12.366568030624942 1.2140320631013957 2.659028675464344 1 0 0
52 18 2 -1.1794 -12.141403150843532 0.3363749659325741 2.96754335801206 1 0 0
301 101 2 -1.1794 -8.210720478962887 -2.2634179618917543 1.5779883853182544 1 1 0
273 91 1 0.5897 -10.700424867567193 -1.4300168658954728 0.23993915982197217 1 1 0
67 23 2 -1.1794 -10.675916395777403 -2.297904954368124 4.012240983261082 1 0 0
258 86 1 0.5897 -12.75911908349769 -3.070726815153094 0.683796081901308 1 1 0
59 20 1 0.5897 -13.715019142983298 -0.7298620109686844 3.2423543155482766 1 0 0
107 36 1 0.5897 -9.561001629763814 1.5763538181071333 3.4275423694251343 1 0 0
84 28 1 0.5897 -8.361159389975047 -0.37301173129904086 4.003285256664423 1 0 0
302 101 1 0.5897 -7.778430459530698 -2.0263939192124836 2.398452043811986 1 1 0
1010 337 1 0.5897 -13.268923289830697 1.3306513881078086 0.24691515497503386 0 -1 1
426 142 1 0.5897 -8.772569496298111 -1.5989697541755037 6.845901718016052 1 0 0
410 137 1 0.5897 -13.908136279388906 0.8401388746229621 8.068607685849958 1 0 0
528 176 1 0.5897 -12.200552019854229 0.7231642521749162 9.944419721239376 1 0 0
402 134 1 0.5897 -11.030564421706826 -0.43435970292919457 6.727063455102666 1 0 0
401 134 1 0.5897 -11.385619779515926 -1.4884822217600968 7.753974443628975 1 0 0
400 134 2 -1.1794 -10.644892702307164 -0.9975529248738102 7.398074070747043 1 0 0
527 176 1 0.5897 -11.896098551188265 1.7023150519612642 8.830709369215654 1 0 0
526 176 2 -1.1794 -12.612787339400102 1.3689703357078091 9.370696378846942 1 0 0
424 142 2 -1.1794 -7.917564829524187 -2.0286731139509104 6.8191500435410095 1 0 0
537 179 1 0.5897 -9.421949706240673 -0.09866964180096893 8.64733681588115 1 0 0
536 179 1 0.5897 -9.766987019328898 -0.10355311826882918 10.121388695813398 1 0 0
535 179 2 -1.1794 -9.126197639202033 0.2332074538860205 9.495036846944204 1 0 0
411 137 1 0.5897 -13.463896489813438 0.5802540336121531 6.64485549781086 1 0 0
516 172 1 0.5897 -14.275008360041674 2.2525451165450328 9.905557073556347 1 0 0
97 33 2 -1.1794 -11.875980529592082 0.84683213605555 5.775418545792854 1 0 0
435 145 1 0.5897 -7.695844804179421 -0.9913348851229173 9.39030118078687 0 0 0
99 33 1 0.5897 -11.68329976850091 1.783263068382924 5.729244736129597 1 0 0
417 139 1 0.5897 -9.074291008391363 1.2656737602920138 5.73259354167534 1 0 0
522 174 1 0.5897 -9.921783967818463 2.3396147051622993 7.777582825314635 1 0 0
760 254 2 -1.1794 -8.893276267238429 1.5554951230992042 12.961927520044242 0 0 0
790 264 2 -1.1794 -11.379322708146617 0.17413427841197837 14.025619908610247 0 0 0
791 264 1 0.5897 -11.222988763849802 -0.7392729717064466 14.265217878973209 0 0 0
837 279 1 0.5897 -11.239442387074849 -0.0853763387641262 12.30567310401492 1 0 0
762 254 1 0.5897 -9.332571365951683 2.074814620236639 12.288490343325165 0 0 0
761 254 1 0.5897 -9.604476109098051 1.1144191052886487 13.426677589848163 0 0 0
836 279 1 0.5897 -11.317478085385114 -1.2454146166750615 11.336120494043119 1 0 0
792 264 1 0.5897 -11.979348211503458 0.49906438505846573 14.696993632709496 0 0 0
888 296 1 0.5897 -11.07000560055932 3.010352915177732 15.536618166303404 0 0 0
835 279 2 -1.1794 -11.09726503816512 -0.31533354900014565 11.38745229197879 1 0 0
769 257 2 -1.1794 -12.902016415511735 2.87088977482723 12.694328952591707 0 0 0
896 299 1 0.5897 -8.435905452090392 2.359991797874615 16.007864891695608 0 0 0
771 257 1 0.5897 -12.054825085178553 2.890211484164949 12.248992912836508 0 0 0
770 257 1 0.5897 -12.694087388325073 3.0409573550885227 13.61304781752887 0 0 0
897 299 1 0.5897 -7.821129074643252 2.140496757155038 14.641887352512724 0 0 0
886 296 2 -1.1794 -11.543483486810828 3.534692382349606 14.890793141234397 0 0 0
866 289 1 0.5897 -13.009901101669971 1.6354895527734108 16.396992934635193 0 0 0
1101 367 1 0.5897 -10.628654096279579 -1.0080673122637087 16.400745970466918 0 0 0
1216 406 2 -1.1794 -12.700064094446306 3.415383260551753 18.107870430210166 0 0 0
1260 420 1 0.5897 -10.283299598182454 3.325556170077558 19.96451761545612 0 0 0
1235 412 1 0.5897 -9.352579429844049 -0.3068063401681371 20.794166156465078 0 0 0
1259 420 1 0.5897 -9.255666438021285 2.2176534586075025 19.871827327322137 0 0 0
1258 420 2 -1.1794 -9.589025858806075 2.9820889346273862 19.40205916757857 0 0 0
1236 412 1 0.5897 -7.9672094886163345 0.20219963823404719 20.456532252726646 0 0 0
1246 416 2 -1.1794 -6.4672180563259944 -0.7406463876722711 20.01251256542021 0 0 0
1009 337 2 -1.1794 -11.76223932265848 3.974147777643358 21.3769366388511 0 -1 0
1234 412 2 -1.1794 -8.84834274533978 0.4993251380944006 20.68400845266546 0 0 0
1099 367 2 -1.1794 -10.42436592644468 -0.5143651118212365 17.194926477588584 0 0 0
1218 406 1 0.5897 -13.63078790871143 3.5628028635824602 18.276578604688645 0 0 0
1206 402 1 0.5897 -11.615887886015756 0.3966937004866171 18.202325004162443 0 0 0
1100 367 1 0.5897 -9.511120636340197 -0.7305850840098937 17.383687577877275 0 0 0
1130 377 1 0.5897 -7.431225812672592 -1.207453840606826 18.5243407855175 0 0 0
1197 399 1 0.5897 -10.087426104745019 2.5133286628547165 17.66554768398543 0 0 0
1250 417 1 0.5897 -12.129632926559587 0.9147130078211365 20.56988685268955 0 0 0
1196 399 1 0.5897 -10.184986639567928 1.3210154584049505 16.737814713426197 0 0 0
1229 410 1 0.5897 -8.316854015524633 4.014374648530032 18.769418838157378 0 0 0
1195 399 2 -1.1794 -10.049512171260004 2.268541536209863 16.740961078276065 0 0 0
1251 417 1 0.5897 -12.086179307476241 2.1543188565394846 21.43781722813319 0 0 0
1204 402 2 -1.1794 -12.325525709252378 0.7838450814047793 18.71507252556793 0 0 0
1249 417 2 -1.1794 -12.009507908958794 1.200968328956117 21.475334486448514 0 0 0
1205 402 1 0.5897 -12.240346774299315 1.7260290242882323 18.569523113039683 0 0 0
1129 377 2 -1.1794 -7.747592830611192 -1.3807145541104342 17.63771773161945 0 0 0
1011 337 1 0.5897 -12.516852386142704 4.432795001696499 21.007456966055376 0 -1 0
1131 377 1 0.5897 -6.968649401700356 -1.3065510358561205 17.08623418161863 0 0 0
43 15 2 -1.1794 -10.188046813604076 1.779534467991784 0.32503506720975617 1 0 0
66 22 1 0.5897 -13.982134499992618 2.9149023505633167 1.672336693840405 1 0 0
176 59 1 0.5897 -14.817205270252291 4.268687772476909 4.742312263917967 1 0 0
56 19 1 0.5897 -12.533486702187044 6.159030968508064 1.157918810457122 1 0 0
65 22 1 0.5897 -12.550390596138666 3.365613300017481 1.4741234813566368 1 0 0
64 22 2 -1.1794 -13.075770048994002 2.639835854610311 1.810959995784927 1 0 0
177 59 1 0.5897 -14.063068379695043 4.249719721924677 3.4296819254523907 1 0 0
42 14 1 0.5897 -15.899331158655269 4.448524065345822 1.0140933406513934 1 0 0
57 19 1 0.5897 -13.61446616219496 5.986177516705167 0.11215016217823084 1 0 0
183 61 1 0.5897 -12.225986015859293 3.7122967872468706 4.884238985193714 1 0 0
108 36 1 0.5897 -10.241591938715127 2.900675490494983 3.701174166705509 1 0 0
191 64 1 0.5897 -12.787915548264053 6.308640656175584 4.451976171820866 1 0 0
55 19 2 -1.1794 -13.302528260598738 6.59062902814 0.7856078712734382 1 0 0
175 59 2 -1.1794 -13.93348618579441 4.307475310949565 4.376288423947677 1 0 0
181 61 2 -1.1794 -11.314075648293406 3.5059084114044623 5.089705990540999 1 0 0
40 14 2 -1.1794 -15.468280179064603 3.93819473841752 1.6996182889155784 1 0 0
85 29 2 -1.1794 -11.321623466736042 4.931409339957996 1.5642856608288143 1 0 0
160 54 2 -1.1794 -15.219357955174342 7.293702122947602 2.8603009793003222 1 0 0
162 54 1 0.5897 -14.366884254168323 7.042165258937056 2.5047069727056095 1 0 0
167 56 1 0.5897 -16.82003897632005 6.314062133434858 3.118171562908868 1 0 0
190 64 2 -1.1794 -12.305796962915124 7.088680623550426 4.17751197358118 1 0 0
106 36 2 -1.1794 -9.8763100429059 2.369205470226314 2.9937985103258207 1 0 0
192 64 1 0.5897 -11.3946985845313 6.800349099618712 4.121024819788729 1 0 0
45 15 1 0.5897 -10.17781268534077 2.0947351524413236 1.2287828513533163 1 0 0
508 170 2 -1.1794 -13.656744366270836 6.412088282785371 7.279034313197447 1 0 0
538 180 2 -1.1794 -15.83578329445428 5.068918666650401 8.403394971669046 1 0 0
510 170 1 0.5897 -14.14123723664457 7.041489601923979 6.744878901120543 1 0 0
509 170 1 0.5897 -14.332157888414914 5.851368472319912 7.660773686508219 1 0 0
644 215 1 0.5897 -12.730887551524683 7.283014978746591 10.198005922574499 1 0 0
643 215 2 -1.1794 -12.042182390448762 7.442499431745874 9.552547805337605 1 0 0
645 215 1 0.5897 -12.462961554533491 7.281514150309961 8.708008361016734 1 0 0
521 174 1 0.5897 -10.673736272269268 3.650300280676367 7.87030912559852 1 0 0
182 61 1 0.5897 -11.05209928848776 4.177354718526736 5.719566290880939 1 0 0
532 178 2 -1.1794 -10.974854583272604 5.474204209584302 6.823860320352063 1 0 0
534 178 1 0.5897 -11.849547612230369 5.713866198060602 7.130310437554002 1 0 0
520 174 2 -1.1794 -10.558091271796135 2.810906895531705 8.315495325329936 1 0 0
636 212 1 0.5897 -15.447897123449557 7.9700832680225115 9.598252802335564 1 0 0
519 173 1 0.5897 -16.638471158096458 7.36226748956844 6.305219482265399 1 0 0
458 153 1 0.5897 -10.521079366030664 2.981648229952752 10.29209522948186 0 0 0
944 315 1 0.5897 -14.509556501251152 6.120458664572908 10.910111121315357 1 0 0
943 315 2 -1.1794 -14.435638300746144 7.074352234910068 10.882234889645254 1 0 0
543 181 1 0.5897 -10.450422315027128 6.562778241630598 10.03737650788993 0 0 0
900 300 1 0.5897 -15.132273816601318 8.196406114092026 14.429483480104778 0 0 0
898 300 2 -1.1794 -14.468444560465844 7.631876264440853 14.033270301802599 0 0 0
926 309 1 0.5897 -9.463598706824637 5.539875517616766 15.458044561958786 0 0 0
887 296 1 0.5897 -10.995321076674259 4.308722157463974 14.761800376634858 0 0 0
899 300 1 0.5897 -14.59169103964162 6.782608901364378 14.457196360961367 0 0 0
880 294 2 -1.1794 -9.562994700367483 5.253222313129752 13.737940868050972 0 0 0
874 292 2 -1.1794 -13.757491194083181 5.131782588465626 15.247906831338614 0 0 0
876 292 1 0.5897 -13.031411748121212 4.51064867478396 15.190118718529744 0 0 0
945 315 1 0.5897 -14.471887965410785 7.344809114868147 11.799700883865215 1 0 0
848 283 1 0.5897 -14.002651307048977 4.216272939046842 12.244253473935009 1 0 0
875 292 1 0.5897 -14.540070533143869 4.58259696734739 15.296040241484564 0 0 0
457 153 2 -1.1794 -10.524267150315488 3.325449210544077 11.185406449102974 0 0 0
869 290 1 0.5897 -12.65960598600244 8.160453671436747 13.43064575735448 0 0 0
847 283 2 -1.1794 -14.806602400964234 4.513680649479518 11.818185054167682 1 0 0
459 153 1 0.5897 -10.395478779178507 4.268059381530611 11.080239512009742 0 0 0
868 290 2 -1.1794 -12.000730899240134 8.663279816883763 12.951722276792802 0 0 0
1003 335 2 -1.1794 -14.0037296636367 5.3845570542143 20.621934218973305 0 -1 0
1208 403 1 0.5897 -12.633517836048192 6.889981408273842 17.502075350893154 0 0 0
1207 403 2 -1.1794 -13.510890678728465 7.031221971898853 17.146248069228847 0 0 0
1217 406 1 0.5897 -12.292089316607886 4.2694871940500505 18.25020231468566 0 0 0
1018 340 2 -1.1794 -12.346578977744226 7.925653686875945 20.7920990795332 0 -1 0
1019 340 1 0.5897 -12.900610730542713 7.145808940256769 20.758279819283675 0 -1 0
1020 340 1 0.5897 -11.462818691539148 7.599948174627164 20.620910162787318 0 -1 0
1030 344 2 -1.1794 -9.839435598638754 6.698440547496132 20.554373880684583 0 -1 0
1237 413 2 -1.1794 -11.06623812145807 5.8225014885754245 18.17083494846741 0 0 0
980 327 1 0.5897 -13.353759743582149 8.90625135338937 16.682280510447146 0 -1 0
1032 344 1 0.5897 -9.396362216766837 6.084766923383398 21.140279221584553 0 -1 0
1238 413 1 0.5897 -10.572486177645033 5.898676906514181 18.987308982645104 0 0 0
1239 413 1 0.5897 -10.398147754932518 5.8256582618030635 17.485261985570386 0 0 0
1043 348 1 0.5897 -12.783192600076376 9.461361061349868 19.65761199912796 0 -1 0
990 330 1 0.5897 -14.767128773273399 7.54813991792931 18.386271543983547 0 -1 0
989 330 1 0.5897 -15.461192089127156 8.887372610872125 18.51497996622783 0 -1 0
1035 345 1 0.5897 -15.25735945423542 9.579236973537354 21.524435874438446 0 -1 0
1209 403 1 0.5897 -13.60766677403479 6.358466827845433 16.472277840027363 0 0 0
1034 345 1 0.5897 -15.456244696491982 8.304293315920804 20.73274895489876 0 -1 0
988 330 2 -1.1794 -15.355388382914281 8.044265732861716 18.955575353636934 0 -1 0
1033 345 2 -1.1794 -15.431949456135841 8.643774811198236 21.627385734944863 0 -1 0
650 217 1 0.5897 -16.247133627562548 9.113703376819652 16.466434010813064 0 -1 0
174 58 1 0.5897 -16.86763753761585 9.924980878489107 1.6872309697665144 1 0 0
173 58 1 0.5897 -15.477228856413044 10.517754999210249 1.7748925452113629 1 0 0
172 58 2 -1.1794 -15.940794138933597 9.685473040197584 1.682009478745061 1 0 0
161 54 1 0.5897 -15.451745745749552 8.091361200812637 2.385020720448452 1 0 0
215 72 1 0.5897 -12.591286593532981 8.80529853997283 3.5319507948741435 1 0 0
152 51 1 0.5897 -13.387107160416466 8.255905561838693 0.4068635783443739 1 0 0
148 50 2 -1.1794 -18.40625418902709 10.947653447016021 1.6633802683530436 1 0 0
150 50 1 0.5897 -18.55496650578984 11.656323138070528 1.0374243278416124 1 0 0
153 51 1 0.5897 -13.38884076885941 9.602008170810967 1.0995431622927636 1 0 0
291 97 1 0.5897 -15.214163353648763 11.07143247337652 4.457885378680227 1 0 0
289 97 2 -1.1794 -14.623892237513191 10.689652929435985 5.107531836454727 1 0 0
285 95 1 0.5897 -17.665944814546158 11.639187922947263 3.0827924755011713 1 0 0
284 95 1 0.5897 -17.835482005009958 11.853134117679874 4.571872322897289 1 0 0
283 95 2 -1.1794 -17.173666118273253 11.832837545093279 3.8805344378165727 1 0 0
216 72 1 0.5897 -13.54150006216064 9.957686504252537 3.7792240807473094 1 0 0
194 65 1 0.5897 -14.001358102758427 12.320451556882547 2.370122142695243 1 0 0
193 65 2 -1.1794 -14.579901530622859 11.954797007700348 1.700923368790283 1 0 0
151 51 2 -1.1794 -13.290624798414981 9.193378752316862 0.23954177276588373 1 0 0
214 72 2 -1.1794 -12.886142579497449 9.636406235799923 3.1598242526554143 1 0 0
206 69 1 0.5897 -15.200578329315633 7.6020602078785 4.671453061531715 1 0 0
1118 373 1 0.5897 -16.250354101371833 8.673944582360546 0.2220802876906235 0 -1 1
195 65 1 0.5897 -14.11303203914628 12.095596648104847 0.8772167845468599 1 0 0
205 69 2 -1.1794 -15.306365038982271 7.931596524318282 5.563890157411066 1 0 0
640 214 2 -1.1794 -14.391224027891905 12.381123357793042 7.185753722569741 1 0 0
566 189 1 0.5897 -13.447496677837744 9.785553657532548 10.253960036519114 0 0 0
630 210 1 0.5897 -13.357105281119853 9.571736952040228 7.5174631590921805 1 0 0
629 210 1 0.5897 -14.29541135759842 10.698170165919448 7.8953581779965925 1 0 0
628 210 2 -1.1794 -13.921490044953643 9.881411827546566 8.225921532245753 1 0 0
327 109 1 0.5897 -14.016608261566681 13.034724648456196 9.847965533882741 0 -1 0
635 212 1 0.5897 -15.326152712098317 8.99795256222305 8.493546522443937 1 0 0
642 214 1 0.5897 -15.188834836961263 12.90851696908995 7.230973832141727 1 0 0
617 206 1 0.5897 -17.787077419065774 13.154364728590808 7.784740649114798 1 0 0
634 212 2 -1.1794 -15.968329490309895 8.474421923344542 8.972962376917787 1 0 0
290 97 1 0.5897 -14.608520570512932 11.326882538809235 5.821612463555817 1 0 0
641 214 1 0.5897 -13.683138662438818 13.021833263866307 7.1192924936722 1 0 0
525 175 1 0.5897 -12.266017341991693 8.063108528389579 5.857557019041749 1 0 0
523 175 2 -1.1794 -12.036935769203103 8.788015636952034 6.439134057058636 1 0 0
325 109 2 -1.1794 -13.19568519529772 12.700651324852325 10.209659555490296 0 -1 0
207 69 1 0.5897 -15.09737881531061 8.863610598497138 5.501904244210727 1 0 0
956 319 1 0.5897 -17.82374769788878 11.149672938019924 12.169980421342125 1 0 0
870 290 1 0.5897 -12.503927747821088 9.179552543944569 12.322069262442305 0 0 0
877 293 2 -1.1794 -15.956756778026595 10.020198673819783 12.491283227404564 0 0 0
658 220 2 -1.1794 -16.877991123103445 12.694146845937679 14.999329755531619 0 -1 0
672 224 1 0.5897 -14.128291677181195 10.708707545086115 15.325765294128873 0 -1 0
671 224 1 0.5897 -13.977271755039146 11.579015818718682 14.09633368615308 0 -1 0
670 224 2 -1.1794 -14.634685670708187 11.207246049389871 14.684486352511026 0 -1 0
660 220 1 0.5897 -16.05018932420073 12.239187030368578 14.843929619581361 0 -1 0
680 227 1 0.5897 -11.329919695467693 9.957388692373344 15.846752506967004 0 -1 0
878 293 1 0.5897 -15.581361433373424 10.362466076230527 13.302545884755377 0 0 0
683 228 1 0.5897 -17.462037303461848 14.198624678807628 14.266977624097443 0 -1 0
879 293 1 0.5897 -15.259014539218347 10.119421306413978 11.843456629561771 0 0 0
659 220 1 0.5897 -17.54063886929432 12.00401321213741 14.96914634246766 0 -1 0
664 222 2 -1.1794 -12.563388537632875 12.44996421674909 13.424326879486268 0 -1 0
565 189 2 -1.1794 -13.243489660908985 10.10768319654501 11.131909899733026 0 0 0
728 243 1 0.5897 -18.176485233190615 13.246561748908265 11.18163199338911 1 -1 0
710 237 1 0.5897 -12.423486025562752 12.431636450487362 15.258970213019797 0 -1 0
681 227 1 0.5897 -11.051153670516758 9.4476514434358 14.448763821989395 0 -1 0
567 189 1 0.5897 -13.248935612597379 11.060870216368043 11.045084597849403 0 0 0
1022 341 1 0.5897 -13.88703527567187 13.153144335077657 18.805571912419662 0 -1 0
1000 334 2 -1.1794 -15.976019793048746 10.443550520638146 17.85205676019921 0 -1 0
992 331 1 0.5897 -15.782292814795213 13.83214050458126 17.72186513042698 0 -1 0
1111 371 2 -1.1794 -17.033768501037827 12.70219658849881 20.407029773218223 0 -1 0
1119 373 1 0.5897 -15.558291046035652 11.70754351611395 21.03684247178368 0 -1 0
1138 380 2 -1.1794 -12.720057874849362 13.812025252314646 20.25968906922024 0 -1 0
1128 376 1 0.5897 -14.472230670535534 14.497881604303066 20.34915916657808 0 -1 0
1140 380 1 0.5897 -12.426712180674835 13.279827807496142 20.99920677231428 0 -1 0
1127 376 1 0.5897 -15.927411954938227 14.095879921706674 20.464037103075718 0 -1 0
1013 338 1 0.5897 -11.511776761864992 11.224353415871041 18.53899442152584 0 -1 0
1023 341 1 0.5897 -13.71162686163747 13.082232520443428 17.303548543730564 0 -1 0
1126 376 2 -1.1794 -15.34350431807135 14.851638303976353 20.52842660015707 0 -1 0
1117 373 2 -1.1794 -14.748924520511514 11.309849296410784 21.357926836263626 0 -1 0
1044 348 1 0.5897 -13.317317485065434 10.76073360382403 20.221730323670073 0 -1 0
1002 334 1 0.5897 -16.890995756225685 10.72364745684512 17.880137252527348 0 -1 0
1021 341 2 -1.1794 -14.338873036211655 12.895290355880034 18.002089893141175 0 -1 0
1042 348 2 -1.1794 -12.921203179502797 10.382399243038405 19.43671858523687 0 -1 0
1001 334 1 0.5897 -15.474192281087797 11.251470115132674 17.960052801023004 0 -1 0
991 331 2 -1.1794 -16.598326959951955 14.17808838090164 17.360270919719976 0 -1 0
981 327 1 0.5897 -13.267461393707489 10.113153013453784 17.59208398608227 0 -1 0
979 327 2 -1.1794 -13.180168327833336 9.847529405411601 16.67663719952714 0 -1 0
1113 371 1 0.5897 -17.287015037221085 12.614149526190742 19.488163082105967 0 -1 0
993 331 1 0.5897 -16.791146795104282 13.608717907398512 16.615391338222295 0 -1 0
293 98 1 0.5897 -4.866629233536191 -3.7940951178124553 2.249336408791337 1 1 0
317 106 1 0.5897 -1.1579027403514761 -4.032375156980358 1.251055212058317 1 1 0
305 102 1 0.5897 -1.7499060559594248 -6.433234948378853 1.9599867869985315 1 1 0
304 102 2 -1.1794 -1.3240862059890137 -7.142196605682324 2.441899631340328 1 1 0
316 106 2 -1.1794 -1.8596751209839866 -4.6824599347064675 1.216339991972617 1 1 0
242 81 1 0.5897 -1.2186900319440728 -6.596214186721276 4.142288630158227 0 1 0
306 102 1 0.5897 -0.7744090666536234 -7.578618812511815 1.7909621285877413 1 1 0
311 104 1 0.5897 -2.9413653577959664 -8.04644119621637 3.3724544885162917 1 1 0
241 81 2 -1.1794 -1.1513853754337653 -6.358845833296403 5.067132149441254 0 1 0
318 106 1 0.5897 -2.6500561386877184 -4.195283497258378 1.4494647894983768 1 1 0
323 108 1 0.5897 -5.91820265484409 -5.680616296961038 3.367192547506253 1 1 0
243 81 1 0.5897 -0.9263989229175849 -5.428517983205893 5.060367011370361 0 1 0
199 67 2 -1.1794 0.4387744065101593 -7.930524004265023 0.4761722404072145 1 1 0
310 104 2 -1.1794 -3.7533136247733516 -8.386783769364914 3.748358014748376 1 1 0
322 108 2 -1.1794 -6.2166199013815024 -4.824919370909127 3.0591278270185853 1 1 0
348 116 1 0.5897 -1.5016063294684159 -6.752961539373831 9.654020643233025 0 0 0
347 116 1 0.5897 -1.3690607057362012 -5.504713186560126 8.807843108937771 0 0 0
346 116 2 -1.1794 -2.0069335263113253 -6.153854675721195 9.104540105189917 0 0 0
336 112 1 0.5897 -3.46365959399711 -5.589464882693236 9.705923399674418 0 0 0
546 182 1 0.5897 0.06854276847462693 -7.8035614832354225 6.3653871121834085 0 1 0
334 112 2 -1.1794 -4.294933014609082 -5.117881265628757 9.760393439270274 0 0 0
555 185 1 0.5897 -2.7317168343937492 -6.503233207593033 6.122394998652206 0 1 0
544 182 2 -1.1794 0.3180129424023441 -8.196652616925036 7.201699365144382 0 1 0
554 185 1 0.5897 -2.8225335841635886 -6.496620687677414 7.633531789676184 0 1 0
357 119 1 0.5897 1.1036433699880224 -7.359375152996945 8.539553862171958 0 0 0
553 185 2 -1.1794 -3.295300826865086 -6.771790284691136 6.848042766889963 0 1 0
632 211 1 0.5897 -4.956146745816672 -6.040216322061452 6.691677408348765 1 1 0
359 120 1 0.5897 -4.560167257638296 -3.4847703725047365 8.716559711860084 0 0 0
356 119 1 0.5897 0.7363457316571669 -7.243004351414473 10.003617404353493 0 0 0
335 112 1 0.5897 -4.936825457944855 -5.7887839665725895 9.9931218636891 0 0 0
340 114 2 -1.1794 -0.05412823002211553 -4.491685715107819 8.091550909788497 0 0 0
669 223 1 0.5897 -4.26809321784426 -3.5658945441987626 10.895186788656032 0 0 0
404 135 1 0.5897 -5.553632475654286 -3.933540482112644 5.525788169984334 1 0 0
657 219 1 0.5897 -0.6905631965569761 -7.24940331118232 11.995895157361026 0 0 0
678 226 1 0.5897 -4.310434223054637 -6.277226522467048 12.11029804028782 0 0 0
667 223 2 -1.1794 -4.175450051635019 -2.932001029903069 11.60638557305147 0 0 0
795 265 1 0.5897 -3.192018815079381 -5.505008303389795 15.162666586938638 0 0 0
655 219 2 -1.1794 -0.515380555929907 -7.6543417260865345 11.146437654393939 0 0 0
668 223 1 0.5897 -3.396292044050557 -3.218334477368563 12.083086180986637 0 0 0
816 272 1 0.5897 0.19713154169289027 -4.265946201840009 15.057637645988256 0 0 0