LAMMPS data file via write_data, version 30 Jul 2021, timestep = 13500000

1008 atoms
2 atom types
672 bonds
1 bond types
336 angles
1 angle types

-3.2085499343123622 14.81854893386781 xlo xhi
-0.30135873048661743 22.88135773048507 ylo yhi
-0.1183318380097127 19.348329838007707 zlo zhi
-0.2818658637907012 -6.921187688472791 0.18827698512462582 xy xz yz

Masses

1 1.008
2 15.999

Pair Coeffs # lj/cut/tip4p/long/omp

1 0 0
2 0.21084 3.1668

Bond Coeffs # harmonic/omp

1 450 0.9572

Angle Coeffs # harmonic/omp

1 55 104.52

Atoms # full

122 41 1 0.5897 -2.55081450479452 1.8539760124780948 1.3111522778338864 1 0 0
158 53 1 0.5897 -4.5257077793930085 4.538627693923863 4.459515643560641 1 0 0
56 19 1 0.5897 -1.4104225737465013 3.409084629834111 2.8288082471729568 0 0 0
602 201 1 0.5897 -1.0528665017372014 5.459446617214148 -0.1119922353450832 1 0 1
55 19 2 -1.1794 -0.9392173078378447 3.9640080315675714 3.45044040714673 0 0 0
123 41 1 0.5897 -3.3077207809997873 2.4803939797621477 2.4631309921786837 1 0 0
121 41 2 -1.1794 -2.4403179215136754 2.164442612364185 2.2099524748893282 1 0 0
86 29 1 0.5897 -2.3737122559145707 1.2195759721616326 3.724215302065142 1 0 0
101 34 1 0.5897 -2.751135563414704 4.633521529495693 0.3269360635700515 1 0 0
482 161 1 0.5897 -0.9582108843466841 -0.19857547825790256 0.5176834105684681 1 1 0
87 29 1 0.5897 -3.2008684351126533 0.23198676048009237 4.5195453973437605 1 0 0
21 7 1 0.5897 0.8644052651446659 2.562075137684791 0.8018188918893981 0 0 0
85 29 2 -1.1794 -2.4235870991907857 0.7877042642224366 4.577063377898557 1 0 0
57 19 1 0.5897 -0.09763051051705407 4.136347194849752 3.0281536147321373 0 0 0
19 7 2 -1.1794 0.8969856104818525 2.8370963663638613 -0.11452085741847043 0 0 0
134 45 1 0.5897 -2.491466639518225 2.0300279723106067 5.85263736136379 1 0 0
135 45 1 0.5897 -1.7792004306339444 2.8173069834375064 6.932056669924825 1 0 0
157 53 2 -1.1794 -3.9868629664360933 5.068488798785707 5.047117360225036 1 0 0
124 42 2 -1.1794 -5.1883759581380335 2.0213458236160435 7.205444211970488 1 0 0
669 223 1 0.5897 -5.520214660281345 1.5839194279541833 9.046287810544374 1 0 0
67 23 2 -1.1794 -2.5828856180834032 0.08598448379676665 7.877672358092741 0 0 0
133 45 2 -1.1794 -2.6323122541645483 2.7102844678001956 6.51130618568694 1 0 0
126 42 1 0.5897 -4.256563648864103 2.221596218790893 7.116660484142427 1 0 0
159 53 1 0.5897 -3.324284503190005 4.461778938092542 5.377533851587365 1 0 0
69 23 1 0.5897 -2.829639631298952 0.7090514206874494 8.561292973241933 0 0 0
98 33 1 0.5897 -4.528188755696023 5.000248245661633 8.710539903937388 1 0 0
125 42 1 0.5897 -5.630613281071807 2.8497354596343527 7.019741737476854 1 0 0
97 33 2 -1.1794 -4.716879791470822 4.489954211753461 9.498142090089779 1 0 0
90 30 1 0.5897 -5.126269217694217 0.9514178691502488 5.580068732299105 1 0 0
561 187 1 0.5897 -5.1933813517528975 3.8711904769560173 13.028514329680428 0 0 0
559 187 2 -1.1794 -4.3939174386301 4.1489527732917155 13.475731325910408 0 0 0
625 209 2 -1.1794 -6.281879251482556 2.6355727385541337 12.049837714726905 1 0 0
627 209 1 0.5897 -7.143903385591839 2.9603119543263516 12.310169049969485 1 0 0
668 223 1 0.5897 -5.748611728806676 1.7861064279542478 10.529289601033256 1 0 0
560 187 1 0.5897 -4.117633187983268 3.3793814930583865 13.973402365445565 0 0 0
626 209 1 0.5897 -6.164182040583509 1.8330586925661803 12.55819315700388 1 0 0
667 223 2 -1.1794 -5.508814445371405 1.120872787609193 9.884015963963988 1 0 0
524 175 1 0.5897 -3.1989408699193738 2.8183197610540445 9.643463402717682 0 0 0
589 197 2 -1.1794 -5.922144819928355 0.6929754779339489 14.233372294459057 1 0 0
523 175 2 -1.1794 -2.652997370760361 2.1075550784351416 9.979680211361488 0 0 0
99 33 1 0.5897 -4.504070353411048 5.078718564541325 10.222352009166507 1 0 0
591 197 1 0.5897 -5.305949474654949 -0.015075062622842694 14.421172122057522 1 0 0
606 202 1 0.5897 -6.668750928541483 4.414021527584172 9.936489312189837 1 0 0
661 221 2 -1.1794 -7.041952580009273 5.271274916488975 14.427586957412785 1 0 0
662 221 1 0.5897 -7.7421781572720665 4.662625656755147 14.191899251457713 1 0 0
164 55 1 0.5897 -8.90991193314444 1.6861919267532357 18.442403029555056 1 0 -1
590 197 1 0.5897 -5.734615014503108 1.3567638675669491 14.897181011657592 1 0 0
637 213 2 -1.1794 -5.851395491425682 3.0780646669706013 15.885697519377256 1 0 0
571 191 2 -1.1794 -5.963693368915015 0.42144026994987827 17.941439342922934 0 0 0
639 213 1 0.5897 -5.9860504402963794 3.81453530465841 15.289214079572503 1 0 0
628 210 2 -1.1794 -8.310849003143577 2.482825561812458 16.974933260703555 1 0 0
638 213 1 0.5897 -6.715986158800334 2.9125713071316714 16.26172411958892 1 0 0
573 191 1 0.5897 -5.625577096340188 -0.10518352229427383 18.66577520039105 0 0 0
20 7 1 0.5897 -6.364382864224341 2.275346795517313 18.86414610788427 0 0 -1
593 198 1 0.5897 -7.7094896133287865 0.8371364804298995 14.554894235570043 1 0 0
629 210 1 0.5897 -8.955129034270374 3.167547717798948 16.79504909714763 1 0 0
614 205 1 0.5897 -7.66234790422136 5.634625607725462 17.42920942754364 1 0 0
630 210 1 0.5897 -8.466356133148293 1.8232813166527109 16.2987246154719 1 0 0
603 201 1 0.5897 -7.345297031952137 4.2745304042276615 19.248914811617418 1 0 0
163 55 2 -1.1794 -9.371606192792285 1.1910192645584299 19.1191204744174 1 0 -1
601 201 2 -1.1794 -8.137646236031983 4.763428419283099 19.026563873824948 1 0 0
331 111 2 -1.1794 -2.0576866119865618 9.083484850726157 -0.01046715565873442 1 0 0
146 49 1 0.5897 -1.6745384643691366 6.80109954488942 2.0823264196635605 1 0 0
332 111 1 0.5897 -2.484754597359335 9.482426348090835 0.7477346766103506 1 0 0
289 97 2 -1.1794 -2.8491963550651684 10.175252421875156 2.2965028334310804 1 0 0
145 49 2 -1.1794 -1.0703506771618896 6.899399292912476 1.3463715477066085 1 0 0
290 97 1 0.5897 -2.1617997790539745 10.835680179426145 2.383935738050869 1 0 0
147 49 1 0.5897 -1.4470254212887546 7.603921643615737 0.8190608718408277 1 0 0
255 85 1 0.5897 -2.474052223320109 8.641983272392789 3.8857862385957302 1 0 0
112 38 2 -1.1794 -3.413018172558157 6.485873600955772 2.7979310666262975 1 0 0
291 97 1 0.5897 -3.6092096432421936 10.56081090266739 2.7324598388112222 1 0 0
113 38 1 0.5897 -3.633115615154817 6.031878435430345 3.6114302226718715 1 0 0
189 63 1 0.5897 0.560270901086632 9.685015098873912 0.8250895689698883 0 0 0
187 63 2 -1.1794 0.9687054611086259 10.23337737045114 0.15516654479370712 0 0 0
200 67 1 0.5897 0.2661858018292129 7.8810640964311265 2.0825939435190195 0 0 0
224 75 1 0.5897 -0.32400612240958093 10.972611750255336 3.771267493661278 0 0 0
114 38 1 0.5897 -3.626535867374029 5.858236876566376 2.1073865983246036 1 0 0
293 98 1 0.5897 -4.110333627121554 10.443865252389786 7.385660406157864 1 0 0
292 98 2 -1.1794 -5.001557960731976 10.148924245860254 7.57274596481896 1 0 0
110 37 1 0.5897 -4.640499838923866 5.882992546161935 6.617978372930893 1 0 0
294 98 1 0.5897 -4.988175650420854 9.9188404181278 8.501859979131767 1 0 0
235 79 2 -1.1794 -2.4343983707449723 7.6519557044618685 8.398958310176257 0 0 0
236 79 1 0.5897 -3.2215130503582152 7.297270442418355 7.985476302218274 0 0 0
111 37 1 0.5897 -5.477265676603718 6.704393834140708 7.5758137904038545 1 0 0
302 101 1 0.5897 -2.5393993849307477 10.174070739441618 6.137160457503308 1 0 0
109 37 2 -1.1794 -4.580762429069354 6.409936128730829 7.414979674470958 1 0 0
7 3 2 -1.1794 -1.1084503517602209 6.341413343185657 5.403867003184036 0 0 0
254 85 1 0.5897 -2.1638335844557943 7.867776808752446 5.149314441499603 1 0 0
301 101 2 -1.1794 -2.6377519392617854 10.97633811402759 6.6501055612176305 1 0 0
237 79 1 0.5897 -2.714088948415851 8.489436971248294 8.768795829922873 0 0 0
257 86 1 0.5897 -4.5173568808765845 8.525946210063571 4.820029877465885 1 0 0
258 86 1 0.5897 -5.238551909449461 9.15831474321905 5.991501261742412 1 0 0
253 85 2 -1.1794 -2.557771482107497 8.68296333204926 4.838530394676016 1 0 0
837 279 1 0.5897 -6.2885984119800415 8.45400752088832 9.394429993671721 1 0 0
8 3 1 0.5897 -1.3557228956450151 5.57165482988253 4.89130463976469 0 0 0
836 279 1 0.5897 -5.246502674764084 8.107150255662711 10.436444601910665 1 0 0
691 231 2 -1.1794 -2.7764333996302035 9.907556046773328 9.876769627454458 0 0 0
616 206 2 -1.1794 -6.992041787438673 6.65559088121998 12.153894013952051 1 0 0
759 253 1 0.5897 -6.1666721628868775 8.908070081200188 13.894036547318912 1 0 0
649 217 2 -1.1794 -4.337167914135293 6.517951051113808 11.281210968685151 1 0 0
663 221 1 0.5897 -7.100058845886337 5.968529916581415 13.774305921346247 1 0 0
651 217 1 0.5897 -5.093984103884642 6.519441941978889 11.867312646631703 1 0 0
795 265 1 0.5897 -6.076366127697345 9.776672411163764 11.715084772981262 1 0 0
793 265 2 -1.1794 -6.3269606682818385 10.193542834464154 12.539620740179425 1 0 0
794 265 1 0.5897 -5.647025027954085 10.849592403691444 12.693284167609491 1 0 0
650 217 1 0.5897 -3.7239642577234604 7.135714002486749 11.679598025837658 1 0 0
835 279 2 -1.1794 -5.671456132099485 8.850906030355723 10.009197806331334 1 0 0
618 206 1 0.5897 -7.343718612214021 5.835747174586813 11.806669314887989 1 0 0
693 231 1 0.5897 -2.934603585148074 9.472302482934756 10.714547437591792 0 0 0
333 111 1 0.5897 -8.939216902409479 9.97345627450576 18.80629496515517 1 0 -1
797 266 1 0.5897 -7.760997430027416 10.725022406878134 16.881843323484343 1 0 0
805 269 2 -1.1794 -6.1341426712410865 11.004902830653881 16.093654638807905 1 0 0
741 247 1 0.5897 -6.311750946567255 9.036269486698403 18.36033995990754 0 0 0
796 266 2 -1.1794 -8.680008436603131 10.508990860544413 17.040070162015084 1 0 0
613 205 2 -1.1794 -7.581593385353515 6.453997426983544 16.94093321792267 1 0 0
739 247 2 -1.1794 -5.898634283468416 8.21832733383906 18.083435747176775 0 0 0
740 247 1 0.5897 -6.616871973686946 7.695121162252249 17.727450562309865 0 0 0
758 253 1 0.5897 -6.073845044410119 9.147365147097064 15.38618288544241 1 0 0
762 254 1 0.5897 -7.957364648800711 8.391045927251252 14.874353964584738 1 0 0
798 266 1 0.5897 -8.855030159614419 9.766536510481217 16.461662888491787 1 0 0
615 205 1 0.5897 -7.511891777822912 6.182099037935245 16.02569976973708 1 0 0
654 218 1 0.5897 -9.80708273699199 8.127242392678266 18.621545393010365 1 0 0
757 253 2 -1.1794 -6.225975179615801 8.459749126220041 14.73774180098449 1 0 0
512 171 1 0.5897 -4.740460099931294 7.372667168542108 14.962708543305611 0 0 0
513 171 1 0.5897 -4.445380224301731 5.960110516793633 14.50458227099833 0 0 0
807 269 1 0.5897 -5.376040885092213 11.422003873465533 16.50309455688958 1 0 0
280 94 2 -1.1794 -3.5309176145006465 14.211145413648484 2.327790858050556 1 0 0
423 141 1 0.5897 -2.3741165480573594 16.48792329841247 3.7414347325143216 1 0 0
314 105 1 0.5897 -1.635382909032764 14.782296506571514 1.8894599994900303 1 0 0
281 94 1 0.5897 -3.706096478639557 13.612483318201075 1.6016050534760664 1 0 0
270 90 1 0.5897 -2.8264067976003 12.399596259271435 -0.09992706337863162 1 0 0
282 94 1 0.5897 -3.560367688242348 13.65726313490172 3.1079616189088473 1 0 0
313 105 2 -1.1794 -0.7997524754563274 14.871431186589609 1.4311183576254132 1 0 0
315 105 1 0.5897 -0.801817579037075 14.162230212920361 0.7881122249396042 1 0 0
225 75 1 0.5897 -0.7870561591542176 12.40858416512926 3.896730594559176 0 0 0
223 75 2 -1.1794 -0.7213898537939247 11.686169663121781 3.2720505569037956 0 0 0
500 167 1 0.5897 -1.6728449483484522 15.732614296478973 0.3172595256738355 1 0 0
499 167 2 -1.1794 -2.356134047757245 16.33963380216632 0.032776513340392555 1 0 0
421 141 2 -1.1794 -2.3983225639546646 16.263139123822157 4.671633179389101 1 0 0
425 142 1 0.5897 -4.309537594419391 15.899951679069579 4.5302882350630185 1 0 0
326 109 1 0.5897 -3.4032255889093195 12.059591204283269 5.455155499251858 1 0 0
403 135 2 -1.1794 -3.0263773558337075 15.504745162343257 8.010791398724018 0 0 0
325 109 2 -1.1794 -3.84705072371385 12.665246689889193 4.8614516428694365 1 0 0
267 89 1 0.5897 -3.7715159202102755 12.55700047234856 8.658500213976053 1 0 0
277 93 2 -1.1794 -5.122576381761013 13.623786273169758 7.297072378182438 1 0 0
278 93 1 0.5897 -4.479563009572594 14.281111921866986 7.563161179668187 1 0 0
175 59 2 -1.1794 -0.6571267546089148 14.051452499754701 4.856809177522591 0 0 0
327 109 1 0.5897 -4.206790513388615 13.342536971932782 5.434410857124624 1 0 0
405 135 1 0.5897 -3.155441176764432 16.253985996894883 8.592518750292516 0 0 0
404 135 1 0.5897 -2.261817296656281 15.738490488498018 7.4843591609210165 0 0 0
279 93 1 0.5897 -5.948919440351334 14.104060503614098 7.244299758320551 1 0 0
422 141 1 0.5897 -2.400677999216525 17.107509898900837 5.122679974295224 1 0 0
774 258 1 0.5897 -6.334126302703086 12.590710457178366 9.383106846832629 1 0 0
462 154 1 0.5897 -5.380781765715114 17.056095596989934 6.315108490698892 1 0 0
265 89 2 -1.1794 -3.88149972795238 12.285540286588075 9.569840694559817 1 0 0
1004 335 1 0.5897 -5.563091617151999 17.043605364365995 8.589221159865387 1 0 0
303 101 1 0.5897 -1.7756449240992622 11.39086090479852 6.615000297778552 1 0 0
1003 335 2 -1.1794 -5.791451238666745 16.617646092199777 9.415517386103408 1 0 0
176 59 1 0.5897 -1.0425155433625735 14.92689436508695 4.819263936688728 0 0 0
925 309 2 -1.1794 -6.2618962499219375 16.040077498028396 14.14303980737484 1 0 0
819 273 1 0.5897 -3.912786055896874 13.652523764144698 10.919528556558545 1 0 0
1005 335 1 0.5897 -4.968807306981767 16.584469874472568 9.903833234326223 1 0 0
729 243 1 0.5897 -4.7319691546135445 12.607942213078742 13.760518050269358 0 0 0
818 273 1 0.5897 -5.0952961965823516 14.464434127311529 11.403892919536837 1 0 0
784 262 2 -1.1794 -7.042236075716328 14.236129706280371 11.681841332471336 1 0 0
962 321 1 0.5897 -6.380477871338126 17.154153213250424 12.450555689631601 1 0 0
786 262 1 0.5897 -6.9680230210565535 13.830012473719444 12.54550124459166 1 0 0
817 273 2 -1.1794 -4.141034553550259 14.48575866137405 11.331876334275819 1 0 0
728 243 1 0.5897 -3.6765408469917285 12.152963236792933 12.774960935862705 0 0 0
727 243 2 -1.1794 -4.415519882509724 11.83455499654321 13.293459640827535 0 0 0
266 89 1 0.5897 -3.4307056837693395 11.442906868560202 9.62529934905521 1 0 0
831 277 1 0.5897 -7.7599632539684755 12.198899744438508 13.803327436746914 1 0 0
829 277 2 -1.1794 -7.144613179940119 12.801194204900394 14.221585064418353 1 0 0
926 309 1 0.5897 -5.62642394900013 15.386062427875672 14.434089582606173 1 0 0
907 303 2 -1.1794 -6.398365406370688 15.695209588452803 17.957146247743562 0 0 0
782 261 1 0.5897 -9.001855536233142 14.459491173477554 17.009392483705078 1 0 0
770 257 1 0.5897 -8.016105457750793 13.039117349469096 18.32065021714068 1 0 0
830 277 1 0.5897 -7.692214573282555 13.357315395991813 14.775891913011643 1 0 0
783 261 1 0.5897 -7.503750540379643 14.647224721657809 17.12099495446281 1 0 0
781 261 2 -1.1794 -8.168926723367669 14.021966083921065 16.833060456963043 1 0 0
909 303 1 0.5897 -5.97419910031603 15.172434283892411 18.637661238936683 0 0 0
679 227 2 -1.1794 -4.144181108337068 14.262960294489167 14.608030348980655 0 0 0
771 257 1 0.5897 -7.372904694499572 12.082979912515484 19.302572848440565 1 0 0
930 310 1 0.5897 -7.913321918139091 16.27187930004296 14.533601542373681 1 0 0
908 303 1 0.5897 -5.674293533018716 16.095647166606312 17.47582652347792 0 0 0
769 257 2 -1.1794 -7.996902919270851 12.806907407940292 19.249138601602606 1 0 0
927 309 1 0.5897 -5.998218700946111 16.845606194285267 14.588009478592275 1 0 0
806 269 1 0.5897 -6.4183437408366135 11.627561211374726 15.424446643355827 1 0 0
501 167 1 0.5897 -8.939350036183182 16.906397006330018 18.687724719644518 1 0 -1
450 150 1 0.5897 -4.124756680939739 22.57023291572272 2.1717070921319914 1 0 0
391 131 2 -1.1794 -1.0632612550867195 19.478775079724628 3.467314559107602 0 0 0
458 153 1 0.5897 -2.6290714630281995 17.46903053604258 1.389213421701053 1 0 0
457 153 2 -1.1794 -2.8793908928222134 17.761674135686434 2.2656435010568123 1 0 0
481 161 2 -1.1794 -1.040650621430307 22.43916194549798 1.2789660483715795 1 0 0
393 131 1 0.5897 -1.2013692577870945 20.370282621172443 3.7875147806618976 0 0 0
495 165 1 0.5897 -3.966661764592435 20.917546323879925 4.10726134084643 1 0 0
483 161 1 0.5897 -1.8922156215532213 22.267602632932352 1.681035385898483 1 0 0
459 153 1 0.5897 -2.208665835051562 18.400924233014692 2.505999487003433 1 0 0
448 150 2 -1.1794 -3.5867579047718685 21.81795227783239 2.418545922335747 1 0 0
449 150 1 0.5897 -3.6913346548739705 21.20022679254761 1.694728411703695 1 0 0
392 131 1 0.5897 -0.6783001248365483 19.01391500798494 4.210303898153922 0 0 0
938 313 1 0.5897 -1.1168005408992197 20.82361071878735 0.36506312728491125 1 0 1
355 119 2 -1.1794 0.5451796206494031 18.026621199348 0.16079193036612544 0 0 0
345 115 1 0.5897 -1.6994344327257933 22.524820557902274 4.608556585246547 0 0 0
343 115 2 -1.1794 -0.9618421158830328 21.922113205250838 4.703372586872346 0 0 0
437 146 1 0.5897 -3.026177078431616 20.222872875192515 0.11587378268378987 1 0 0
493 165 2 -1.1794 -4.094837590106156 20.44267171682641 4.9284755094347386 1 0 0
447 149 1 0.5897 -5.985846835737587 21.971535775046874 7.11637984007849 1 0 0
471 157 1 0.5897 -3.3636143650653136 18.206309865292674 6.667946325582569 1 0 0
470 157 1 0.5897 -2.8084646047099677 19.16949396773333 5.640229397400699 1 0 0
445 149 2 -1.1794 -5.030186542447544 21.91720595812064 7.111983149127231 1 0 0
446 149 1 0.5897 -4.822902604344128 21.279750022196005 7.795358731236951 1 0 0
494 165 1 0.5897 -4.327873585841942 21.119973205456084 5.56360333105589 1 0 0
469 157 2 -1.1794 -2.542008714296829 18.514728492938545 6.285666124956195 1 0 0
460 154 2 -1.1794 -5.180499132445201 17.724162693871264 6.970858569544169 1 0 0
860 287 1 0.5897 -3.337026991949496 18.500674640516202 9.305215365677286 0 0 0
461 154 1 0.5897 -5.778952645192179 18.443955835726044 6.770726938222909 1 0 0
435 145 1 0.5897 -5.382601797373828 19.8204627242214 9.089827042806839 1 0 0
68 23 1 0.5897 -3.698151655047029 22.943935142173054 7.536692590267583 0 -1 0
433 145 2 -1.1794 -4.445217043832354 19.99834658785973 9.166598828401956 1 0 0
998 333 1 0.5897 -7.201577723278162 20.59001876503652 13.499715076813754 1 0 0
941 314 1 0.5897 -7.162762921241276 20.41299654687414 10.528235042801002 1 0 0
952 318 2 -1.1794 -6.718386623251993 21.442609234002276 12.075628633834208 1 0 0
954 318 1 0.5897 -5.828747335788124 21.742188591894795 11.888319041695334 1 0 0
848 283 1 0.5897 -4.44717010452351 21.274558634886553 14.073975408757825 0 0 0
896 299 1 0.5897 -5.2667885188394195 19.169814312214726 12.486932666374578 0 0 0
961 321 2 -1.1794 -6.656267431365159 17.880591184278785 11.891525126061536 1 0 0
895 299 2 -1.1794 -4.58245861655422 19.700509156145422 12.894858788899759 0 0 0
985 329 2 -1.1794 -4.3375418347252666 22.271518811555467 10.998840603459573 1 0 0
953 318 1 0.5897 -7.251558958665983 22.23682463439836 12.039947642751894 1 0 0
897 299 1 0.5897 -4.014163893661268 19.065462405170976 13.330786772281513 0 0 0
963 321 1 0.5897 -6.588116183460837 17.53710937116307 11.000565154577952 1 0 0
987 329 1 0.5897 -3.8547615616903683 22.690300250400348 11.711537358107169 1 0 0
986 329 1 0.5897 -4.93230360140775 22.95059087741771 10.68039103609715 1 0 0
997 333 2 -1.1794 -7.537467721122647 20.352841983449615 14.364180619112943 1 0 0
859 287 2 -1.1794 -2.8432945322887364 17.77321030597416 9.683777593323036 0 0 0
434 145 1 0.5897 -4.3942756957053914 20.790859063341124 9.701154516223434 1 0 0
965 322 1 0.5897 -8.60414788441874 17.42338117656395 16.474401100566652 1 0 0
964 322 2 -1.1794 -8.359182778218146 17.961888437206945 17.227022450523826 1 0 0
975 325 1 0.5897 -5.442993167860543 18.974628089310073 15.905063065189193 1 0 0
974 325 1 0.5897 -6.818095456787402 18.38136959717587 16.126722105071448 1 0 0
973 325 2 -1.1794 -6.022827448487702 18.274694148404393 15.604749596689553 1 0 0
949 317 2 -1.1794 -7.908226245317239 21.76199905922696 16.709233743519878 1 0 0
950 317 1 0.5897 -7.801534661544707 21.2088147366893 15.935257913278221 1 0 0
951 317 1 0.5897 -8.186050277159056 21.15897741177239 17.39880229319228 1 0 0
937 313 2 -1.1794 -8.224069349588229 20.36593510772746 19.150154793997643 1 0 0
999 333 1 0.5897 -6.982716788105145 19.62538714876701 14.645885404816033 1 0 0
356 119 1 0.5897 -6.828854892798409 17.731211984009313 18.93652799501132 0 0 -1
939 313 1 0.5897 -7.436125251275799 19.823768413050836 19.111710062260087 1 0 0
966 322 1 0.5897 -8.965973259516296 18.70173894890562 17.200479572326024 1 0 0
572 191 1 0.5897 -6.858917889585548 23.02474088726799 17.489297163815067 0 -1 0
78 26 1 0.5897 -0.021967730336733382 2.734000315863187 4.475588652520225 0 0 0
31 11 2 -1.1794 1.2447126309806205 1.2504936503229371 2.1397208171849584 0 0 0
54 18 1 0.5897 3.161288391225643 3.5889636189987564 3.0296514428842296 0 0 0
32 11 1 0.5897 1.2674518503133978 1.5772595832378862 3.039240120793036 0 0 0
71 24 1 0.5897 3.427416939409624 0.5761284451280123 2.280019957155601 0 0 0
528 176 1 0.5897 3.754728346438049 1.6586966773875957 0.24691169709597982 0 0 1
52 18 2 -1.1794 3.9885420627108674 3.1890621857691697 3.2979995255091668 0 0 0
46 16 2 -1.1794 1.6840960699839398 4.5658846035052285 2.5599855712550283 0 0 0
70 24 2 -1.1794 4.104262217452746 0.4028023682501467 1.6256489133687535 0 0 0
6 2 1 0.5897 3.8866370475372776 1.7242962605545915 4.1593694770691965 0 0 0
4 2 2 -1.1794 4.023018967713234 0.9184520124959152 4.657690029416016 0 0 0
16 6 2 -1.1794 5.247407392734644 4.821148917893843 0.32042051338569066 0 0 0
47 16 1 0.5897 1.8983725272508316 4.912480143578194 1.693785199071189 0 0 0
76 26 2 -1.1794 0.7125348242993268 2.181255893839148 4.742524780433742 0 0 0
33 11 1 0.5897 0.619673649929573 0.5258891218574536 2.1632949596282787 0 0 0
18 6 1 0.5897 4.703563209000484 4.076380522691133 0.06373437554078154 0 0 0
5 2 1 0.5897 3.283387405785705 0.36001280890125376 4.418114605146601 0 0 0
48 16 1 0.5897 1.92558465526107 5.266903768296291 3.1655062903378797 0 0 0
36 12 1 0.5897 -0.9203291498587176 0.588991697137146 7.359678731064002 0 0 0
44 15 1 0.5897 -0.4620075940595312 4.67136012975438 8.300806353901047 0 0 0
59 20 1 0.5897 1.8812094540873172 3.5422387204968953 5.536537309551806 0 0 0
34 12 2 -1.1794 -0.060074896794230614 0.9833722145793244 7.215739675600343 0 0 0
35 12 1 0.5897 0.01259485438935748 1.65496674683575 7.894063902222371 0 0 0
45 15 1 0.5897 0.5661855516861025 4.427135313433525 7.216641135494599 0 0 0
58 20 2 -1.1794 2.220738183289572 4.155279754267798 6.188669533580681 0 0 0
22 8 2 -1.1794 0.0024049990926111597 2.5223929535936835 9.531272001886862 0 0 0
77 26 1 0.5897 0.3565249140112021 1.6285346260147229 5.438286059575891 0 0 0
43 15 2 -1.1794 -0.370379812469654 4.570175740936348 7.353291569428485 0 0 0
60 20 1 0.5897 3.020261213904563 3.7413692237730043 6.513805196430956 0 0 0
402 134 1 0.5897 2.4692451033916027 0.03735908862572507 8.669970080099615 0 1 0
522 174 1 0.5897 1.7380006414745974 5.329309109852956 9.19733126937423 0 0 0
401 134 1 0.5897 1.2559823236439431 -0.13727574654209113 7.781384263082165 0 1 0
24 8 1 0.5897 0.6574104119853152 3.21716426670557 9.598969647533048 0 0 0
557 186 1 0.5897 0.1594774693754637 2.6510732466937936 13.732571727085356 0 0 0
550 184 2 -1.1794 -1.9913904338038693 4.604707741996548 12.375565851658811 0 0 0
576 192 1 0.5897 -0.6475367839683273 0.2098637705909585 11.963618304558823 0 0 0
558 186 1 0.5897 -0.5271980429224641 3.8048734791186156 13.033082115301216 0 0 0
574 192 2 -1.1794 0.054813635861774124 0.2971332924415694 11.319092640699294 0 0 0
556 186 2 -1.1794 0.3381698317459616 3.4484622700318397 13.234028798967875 0 0 0
536 179 1 0.5897 -2.781244256171072 1.5498431674919526 13.098941592635756 0 0 0
535 179 2 -1.1794 -2.515127516815167 0.9001607459882686 12.448165088428283 0 0 0
537 179 1 0.5897 -2.481068573971249 1.3859309204061412 11.624037088468814 0 0 0
525 175 1 0.5897 -1.772959448038665 2.481488743591106 10.02441010286755 0 0 0
552 184 1 0.5897 -2.8669597599842174 4.379356696876071 12.690035645777353 0 0 0
23 8 1 0.5897 0.23963993500457414 1.9009874889198488 10.219658965377645 0 0 0
551 184 1 0.5897 -1.7260716073861966 5.348414532735354 12.916784290217826 0 0 0
520 174 2 -1.1794 1.907386004505108 4.585750008178985 9.775895384456716 0 0 0
575 192 1 0.5897 0.7971772572918567 -0.1643718777456651 11.709179453148737 0 0 0
587 196 1 0.5897 -1.8915904286367944 5.481771044879061 10.546825523670554 0 0 0
539 180 1 0.5897 -3.0646919757045614 1.4372154052110024 17.672034024557046 0 0 0
547 183 2 -1.1794 -4.03996360634366 4.8195626785309384 17.12675953513093 0 0 0
563 188 1 0.5897 -1.2183694250610504 4.890532479435395 15.61132287898933 0 0 0
564 188 1 0.5897 -2.1563361938847523 4.260165541080879 16.61879299919918 0 0 0
562 188 2 -1.1794 -1.3643975331844311 4.086507009150307 16.109855187059456 0 0 0
538 180 2 -1.1794 -3.318859535558021 0.7295367323901445 17.0795735432959 0 0 0
582 194 1 0.5897 -2.378734946638458 2.7952679358162515 14.930262060380437 0 0 0
549 183 1 0.5897 -4.679153804750383 4.180012282267093 16.812513831247028 0 0 0
581 194 1 0.5897 -3.1268763147019687 1.5369456621955164 15.31627309527265 0 0 0
540 180 1 0.5897 -4.256029980569912 0.611604339472003 17.23474980055348 0 0 0
527 176 1 0.5897 -4.163144181602097 2.8480832063860957 19.16915724776587 0 0 0
580 194 2 -1.1794 -3.1256905778564645 2.251666100103059 14.679505629031606 0 0 0
526 176 2 -1.1794 -3.2312066720426724 2.6295798632976837 19.166178113325167 0 0 0
548 183 1 0.5897 -4.096620402186637 5.542404974189782 16.501841689754354 0 0 0
508 170 2 -1.1794 0.330993575426362 0.8413190363252923 14.772748133778302 0 0 0
84 28 1 0.5897 -4.624068413832061 5.418161097185885 18.653553143109637 0 0 -1
694 232 2 -1.1794 3.7148253559657025 10.151316807363381 0.4497096070362876 0 0 1
240 80 1 0.5897 3.0345058170573873 7.269948311176354 0.7998570381319144 0 0 0
199 67 2 -1.1794 0.7792605104735792 8.530982044156556 2.5629365315928494 0 0 0
222 74 1 0.5897 2.98157677716819 11.101324717870861 3.0774506002897204 0 0 0
238 80 2 -1.1794 3.1892627670398994 7.825627903332332 1.5638610886378839 0 0 0
82 28 2 -1.1794 2.0196870533664057 5.801600328544642 -0.09714770889112095 0 0 0
239 80 1 0.5897 3.55830225186316 8.631946779253651 1.203362264402283 0 0 0
201 67 1 0.5897 1.6688591435710372 8.433093089219142 2.223331293874735 0 0 0
245 82 1 0.5897 0.7891980773146834 9.261334353036778 4.264737673172732 0 0 0
220 74 2 -1.1794 3.8086829079775875 10.874433846133611 3.502504791338403 0 0 0
12 4 1 0.5897 0.849028689543359 6.551128233374764 4.742453143837136 0 0 0
174 58 1 0.5897 3.7400005719726765 9.326951285312951 4.428791976982836 0 0 0
10 4 2 -1.1794 1.7904099800447923 6.4002734745076415 4.656847975991739 0 0 0
188 63 1 0.5897 1.8866669918613388 10.292109001919957 0.4200165549928354 0 0 0
696 232 1 0.5897 4.158983491136496 10.996961426071222 0.5125604432360495 0 0 1
221 74 1 0.5897 4.410531183040277 10.700199793710462 2.77875858655004 0 0 0
173 58 1 0.5897 3.0672967892984655 7.976214070600417 4.551704260472008 0 0 0
203 68 1 0.5897 -1.0541150025815575 8.243267833578642 7.384228792199625 0 0 0
228 76 1 0.5897 2.0733283952282395 10.93406544109734 5.510499916524777 0 0 0
191 64 1 0.5897 -0.00981539627728667 9.717987271623459 8.670716228040188 0 0 0
202 68 2 -1.1794 -0.2128431176206389 8.6458757568207 7.168685796612126 0 0 0
246 82 1 0.5897 0.11382703062073629 9.466950650917031 5.604072760881103 0 0 0
172 58 2 -1.1794 3.826267593469078 8.47432202798274 4.855285163835026 0 0 0
204 68 1 0.5897 0.39995508627614385 7.911870477620678 7.123665621350612 0 0 0
64 22 2 -1.1794 1.8032522248922351 6.872029983649578 8.125296302700363 0 0 0
66 22 1 0.5897 2.6439206931583037 6.605672378291098 7.752935671972305 0 0 0
588 196 1 0.5897 -1.7742959926794133 6.390328453167545 9.34145357185385 0 0 0
11 4 1 0.5897 1.9610513957637998 5.632625319087202 5.202656314719146 0 0 0
65 22 1 0.5897 2.016167302149846 7.612436146075384 8.693523677349384 0 0 0
244 82 2 -1.1794 0.5790872701522609 9.935526852497672 4.9110566993091105 0 0 0
9 3 1 0.5897 -0.7765264139751142 5.984679285990241 6.2278187440711035 0 0 0
190 64 2 -1.1794 -0.12273886010212065 10.054548391213377 9.559773746976004 0 0 0
724 242 2 -1.1794 -0.30880922994853677 10.857684146533556 12.850218970181812 0 0 0
744 248 1 0.5897 -0.06833369553854718 7.206679928412766 10.615343514213551 0 0 0
703 235 2 -1.1794 -2.6053186637190935 8.365280330971462 12.367056858485054 0 0 0
742 248 2 -1.1794 0.0515924536730763 7.858418258804631 11.306209685411451 0 0 0
705 235 1 0.5897 -2.7111332691285055 8.862449213016191 13.178275889805347 0 0 0
743 248 1 0.5897 0.1300064980435529 8.690743752482692 10.839950787433255 0 0 0
704 235 1 0.5897 -1.657939899350116 8.281273247572107 12.25888965957521 0 0 0
586 196 2 -1.1794 -1.2605897071286702 5.815807060587086 9.909190193541647 0 0 0
750 250 1 0.5897 -3.612459052593163 10.461851866399567 14.428119453200777 0 0 0
678 226 1 0.5897 -0.12965274090219303 9.376618700311381 13.902188202415887 0 0 0
692 231 1 0.5897 -1.8233490061030335 9.972387765345983 9.816161965024246 0 0 0
726 242 1 0.5897 -0.8850336756432791 11.203239536061373 12.168422384356006 0 0 0
516 172 1 0.5897 -1.0483464599795882 7.069141383878626 14.39990067377189 0 0 0
514 172 2 -1.1794 -1.4601720727073602 6.205217274725095 14.380721304254976 0 0 0
192 64 1 0.5897 0.5145445329858727 10.765359276051555 9.630100728787111 0 0 0
569 190 1 0.5897 -1.7218769565933068 6.284530308368702 18.639339111874257 0 0 0
695 232 1 0.5897 -2.993332330353554 10.021155812747743 19.039072563584135 0 0 0
706 236 2 -1.1794 -3.329974013055619 9.050214343832147 17.128485405525307 0 0 0
515 172 1 0.5897 -2.3837617071814448 6.375480365316636 14.56584613769439 0 0 0
749 250 1 0.5897 -3.109038382061894 9.704999320367593 15.638851381558899 0 0 0
708 236 1 0.5897 -2.8557210035682044 8.23264578263497 17.280068911335967 0 0 0
568 190 2 -1.1794 -1.5477781528661758 6.974101562717834 17.998635093066586 0 0 0
707 236 1 0.5897 -4.229440398545484 8.858691050266213 17.3941405509785 0 0 0
83 28 1 0.5897 -5.250113205324934 6.767816140811525 18.934124879317192 0 0 -1