LAMMPS data file via write_data, version 30 Jul 2021, timestep = 14250000

1008 atoms
2 atom types
672 bonds
1 bond types
336 angles
1 angle types

-3.1239945767949244 14.733993576349132 xlo xhi
-0.052125774518726686 22.632124774515624 ylo yhi
-0.07946362339385793 19.309461623399606 zlo zhi
-0.1812860179014792 -6.528473828419097 -0.03777407903747451 xy xz yz

Masses

1 1.008
2 15.999

Pair Coeffs # lj/cut/tip4p/long/omp

1 0 0
2 0.21084 3.1668

Bond Coeffs # harmonic/omp

1 450 0.9572

Angle Coeffs # harmonic/omp

1 55 104.52

Atoms # full

21 7 1 0.5897 1.1472011629544072 2.07651171503065 0.9577748591345181 0 0 0
55 19 2 -1.1794 -0.6733843471288932 4.08790346039225 3.3261638881612576 0 0 0
56 19 1 0.5897 -1.3367205843870624 3.6010266754925944 2.8370568806101413 0 0 0
57 19 1 0.5897 0.10856161731503544 4.0471414541930795 2.7758348511424713 0 0 0
121 41 2 -1.1794 -2.403215225151462 2.5112072174254134 2.098256306603562 1 0 0
122 41 1 0.5897 -2.2738799491715627 2.095837378252813 1.245670565353939 1 0 0
86 29 1 0.5897 -2.209664304798239 1.6889196000110365 3.776410173848194 1 0 0
31 11 2 -1.1794 1.2935391426078109 0.8653518618206912 2.533378889838483 0 0 0
32 11 1 0.5897 1.00898569079747 1.2941974336301463 3.3404100547230677 0 0 0
123 41 1 0.5897 -3.32903806855761 2.753767909376303 2.1090117578137018 1 0 0
46 16 2 -1.1794 1.7950684399763048 4.832903231748094 2.3027608448423607 0 0 0
33 11 1 0.5897 0.5809221515098222 0.2640784088601486 2.3168237525011732 0 0 0
47 16 1 0.5897 1.7514801027491211 5.36999604276814 1.5117117748999762 0 0 0
53 18 1 0.5897 4.419720584753803 2.985150148651403 2.9966991737163613 0 0 0
16 6 2 -1.1794 5.336385340817227 4.968889374111964 0.23957982545541157 0 0 0
6 2 1 0.5897 3.491999693603976 1.5948531267870574 4.637672778718767 0 0 0
52 18 2 -1.1794 3.667745093420387 3.053631402264327 3.584840042271909 0 0 0
527 176 1 0.5897 4.089560916355992 1.888335696717044 0.5436839339818645 0 0 1
70 24 2 -1.1794 3.789659731461682 0.38625984406784825 1.5309402586291065 0 0 0
54 18 1 0.5897 3.0581565786430573 3.633531340990642 3.1284665472074504 0 0 0
48 16 1 0.5897 1.9333910844254625 5.4608903467431285 3.0118511415962166 0 0 0
71 24 1 0.5897 3.1157342128506507 0.4478386328375143 2.2077705622939265 0 0 0
602 201 1 0.5897 -0.548211202744707 5.129841815507245 0.26352280045813814 1 0 1
78 26 1 0.5897 0.18420404650659883 2.867649828313481 4.443641877732721 0 0 0
482 161 1 0.5897 -1.1986752607394622 0.016303313562827576 0.8547671858877152 1 1 0
158 53 1 0.5897 -4.259912375463513 4.410029589770694 4.352513109539063 1 0 0
18 6 1 0.5897 4.919935897952939 4.113302969161235 0.13540887472744617 0 0 0
526 176 2 -1.1794 3.8696618422651117 2.604364600102172 -0.05222399800699826 0 0 1
19 7 2 -1.1794 1.1509285998269663 2.527598288012933 0.1136061478583906 0 0 0
85 29 2 -1.1794 -2.305327832713287 1.3110706799767748 4.6505891921290266 1 0 0
101 34 1 0.5897 -2.552560183345459 4.325172580737928 -0.006091826765285524 1 0 0
87 29 1 0.5897 -3.2045742005852853 0.9839515928307705 4.673480589177963 1 0 0
157 53 2 -1.1794 -3.65035319864303 5.03067455305174 4.751946519622318 1 0 0
603 201 1 0.5897 -0.17433835858159474 3.701875285984235 -0.07269528697673523 1 0 1
134 45 1 0.5897 -2.505751686267995 2.6756523825741536 6.169572362125199 1 0 0
135 45 1 0.5897 -1.9269150755908644 3.791904695638813 7.012843061658518 1 0 0
67 23 2 -1.1794 -2.2715975020160157 0.6069463878756072 8.113644252463956 0 0 0
34 12 2 -1.1794 0.24753760390392632 1.4313958493130596 7.613506607839301 0 0 0
35 12 1 0.5897 0.32377502658269774 2.0213076083991925 8.363489772694995 0 0 0
36 12 1 0.5897 -0.6692021170126532 1.1563734923939153 7.616562780209892 0 0 0
159 53 1 0.5897 -3.2006705483363396 4.52398676037961 5.42811731519106 1 0 0
69 23 1 0.5897 -2.549909481350435 1.0512917055550577 8.91444839701464 0 0 0
124 42 2 -1.1794 -5.233306410154243 2.3044022440677385 7.456021305533204 1 0 0
58 20 2 -1.1794 2.0693973477420604 4.2655998467940766 6.162183095469485 0 0 0
59 20 1 0.5897 1.8542733594888272 3.4680297019398267 5.6785017264188875 0 0 0
97 33 2 -1.1794 -4.067003438075167 4.60140062210121 9.393571616133135 1 0 0
4 2 2 -1.1794 3.6567184012707594 0.9248817357533029 5.301119358295357 0 0 0
126 42 1 0.5897 -4.365255628170403 2.706566894006133 7.425582537277705 1 0 0
45 15 1 0.5897 0.5163182956403354 4.710814024616444 6.83851029809504 0 0 0
133 45 2 -1.1794 -2.7573429728662155 3.4002189137072185 6.7422502775542785 1 0 0
401 134 1 0.5897 2.760081726997985 0.12617775212555477 8.942304494142784 0 1 0
669 223 1 0.5897 -5.308456902155205 1.4451067866232277 8.940426993584783 1 0 0
60 20 1 0.5897 2.7331318898294352 3.990988583550596 6.794812932283098 0 0 0
44 15 1 0.5897 -0.20639368076513387 5.229413190555242 8.063398427109393 0 0 0
77 26 1 0.5897 0.38320450618151813 2.014060429051982 5.677921907919547 0 0 0
76 26 2 -1.1794 0.7836718994540988 2.233391053168737 4.836735210348852 0 0 0
68 23 1 0.5897 -3.0517092255207237 0.13962228355057055 7.8148340139082775 0 0 0
98 33 1 0.5897 -3.953600324025067 4.968232771070538 8.516828002122159 1 0 0
43 15 2 -1.1794 -0.34720265378061654 4.982379611392222 7.1494299946141675 0 0 0
402 134 1 0.5897 1.4544223396907192 0.2812342883290721 8.191971715336969 0 1 0
522 174 1 0.5897 2.21554070231681 5.504420365229895 9.182819270539236 0 0 0
5 2 1 0.5897 3.060474441981838 0.21109636223383488 5.074594927988773 0 0 0
627 209 1 0.5897 -6.910917185916917 2.903806794451543 12.1348381989812 1 0 0
523 175 2 -1.1794 -2.3710804482712087 2.4696398398239907 10.047257416361514 0 0 0
560 187 1 0.5897 -4.891946201779941 3.8037508012867915 12.358834042167079 0 0 0
23 8 1 0.5897 0.5615000085585264 2.215168930766886 10.38507606324043 0 0 0
575 192 1 0.5897 1.3975428066040978 0.33299430491187715 11.756923050834892 0 0 0
550 184 2 -1.1794 -1.4668476828426051 4.866321465008642 11.890593832120407 0 0 0
574 192 2 -1.1794 0.6432996038551768 0.5928422890971371 11.227984780144817 0 0 0
589 197 2 -1.1794 -5.457021059073608 1.0875785052790765 14.05919331432705 1 0 0
535 179 2 -1.1794 -1.8087538016549418 1.2311773629821912 12.352324036877567 0 0 0
536 179 1 0.5897 -1.9669537235786958 1.7831990597902543 13.118131091434721 0 0 0
537 179 1 0.5897 -2.037862190843915 1.7848805323996266 11.605964944463883 0 0 0
576 192 1 0.5897 -0.02812491868322642 0.8298049454111108 11.867598739961968 0 0 0
625 209 2 -1.1794 -6.099958564034193 2.5889212419557217 11.73573872302014 1 0 0
556 186 2 -1.1794 0.6952790366137132 3.38986204055601 12.983623430419222 0 0 0
561 187 1 0.5897 -3.8507991728414015 3.727018445922632 13.455157919959165 0 0 0
668 223 1 0.5897 -5.593620246633555 1.5903527505576658 10.420006246334559 1 0 0
558 186 1 0.5897 -0.008776618798107094 3.8485976026932227 12.52533164912611 0 0 0
559 187 2 -1.1794 -4.227399219630668 4.324879087877149 12.80948884537987 0 0 0
524 175 1 0.5897 -2.993442481991058 3.196848543987343 10.050128748136258 0 0 0
552 184 1 0.5897 -2.4230714027898026 4.8906713486868085 11.924652249893452 0 0 0
626 209 1 0.5897 -5.707528344761537 2.025178675028644 12.402330044985984 1 0 0
557 186 1 0.5897 0.25738518065148064 2.6687710906293454 13.43577741297008 0 0 0
593 198 1 0.5897 -7.576001458970915 0.4987913652057985 14.259073971978115 1 0 0
551 184 1 0.5897 -1.1864897436708999 5.408216569491695 12.6281891138128 0 0 0
667 223 2 -1.1794 -5.333211021773163 0.9492049708526986 9.758691574866578 1 0 0
525 175 1 0.5897 -1.5186314265823104 2.883947410036199 9.913953996682746 0 0 0
99 33 1 0.5897 -3.8249875334407513 5.3140295827234185 9.985018721122996 1 0 0
662 221 1 0.5897 -7.34162623567682 4.4584732118073855 14.175832195994895 1 0 0
591 197 1 0.5897 -4.914666327350302 0.35289675608937965 14.346018747902862 1 0 0
22 8 2 -1.1794 0.301210355459792 2.93632004930623 9.812047473048274 0 0 0
24 8 1 0.5897 1.0075594140042528 3.5768097751462262 9.896358386758639 0 0 0
587 196 1 0.5897 -0.7917279793549792 5.397327415538539 10.35412069410984 0 0 0
987 329 1 0.5897 -3.0893270742638728 -0.05742433400779048 11.67449422296096 1 1 0
606 202 1 0.5897 -6.024711222191275 4.285238853916086 9.62070440385536 1 0 0
20 7 1 0.5897 -5.6325089607958265 1.8178539318553675 18.870250255905987 0 0 -1
581 194 1 0.5897 -2.7250507517986433 2.0014314221624185 15.09278060685429 0 0 0
614 205 1 0.5897 -7.195606739140301 5.4461090848342675 17.57314026224092 1 0 0
630 210 1 0.5897 -8.378539494149996 1.8003863118251846 15.807147153344124 1 0 0
548 183 1 0.5897 -3.647309926700655 5.290884380780173 16.554423878869947 0 0 0
84 28 1 0.5897 -4.2597765817530036 5.508744717101766 18.840840257725574 0 0 -1
639 213 1 0.5897 -5.939618392990591 3.8729471916630103 15.405786196755601 1 0 0
582 194 1 0.5897 -1.9966645215194916 3.3281745011955826 15.058287686617888 0 0 0
538 180 2 -1.1794 -2.8821060798179774 1.3484922526976577 17.042363791525325 0 0 0
539 180 1 0.5897 -2.7845331283080785 1.8931585947296579 17.82343185913375 0 0 0
547 183 2 -1.1794 -3.4792433781461325 4.611913976500909 17.20780567141872 0 0 0
540 180 1 0.5897 -3.8093583065555787 1.1114775603809781 17.02921589546434 0 0 0
638 213 1 0.5897 -6.264788981818324 2.728081716803742 16.341327620142593 1 0 0
549 183 1 0.5897 -3.9829835395322313 3.8566791448611553 16.904170203019135 0 0 0
562 188 2 -1.1794 -0.9465217094994367 4.274242511827596 16.238119876090835 0 0 0
590 197 1 0.5897 -5.3152008482097015 1.7636855542534933 14.721822247083766 1 0 0
564 188 1 0.5897 -1.6948610656232352 4.462840904910244 16.804239860230332 0 0 0
637 213 2 -1.1794 -5.546951115082032 3.116502425194664 15.841412315502769 1 0 0
164 55 1 0.5897 -8.229419623672996 1.5350813145721673 18.316613038124267 1 0 -1
628 210 2 -1.1794 -8.076750263195812 2.328420012578683 16.54634399191678 1 0 0
563 188 1 0.5897 -0.9265567366037226 5.001804211525221 15.616499027801702 0 0 0
580 194 2 -1.1794 -2.474008185865105 2.711960033065433 14.502639163810304 0 0 0
572 191 1 0.5897 -6.321934513979961 0.20283536108678096 17.24958487566802 0 0 0
571 191 2 -1.1794 -5.460695769030854 0.5248566709084291 17.515640469420575 0 0 0
165 55 1 0.5897 -9.22846268874147 0.6050633241027605 18.971319449054754 1 0 -1
163 55 2 -1.1794 -8.529142904272373 1.2271706490106118 19.171825849279756 1 0 -1
661 221 2 -1.1794 -6.779772672972435 5.162629582015799 14.499524206052948 1 0 0
601 201 2 -1.1794 -7.321600599597067 4.35806366557369 19.088918086331446 1 0 0
629 210 1 0.5897 -8.657473591381365 3.089296103982682 16.550742516958763 1 0 0
528 176 1 0.5897 -3.613872632106646 2.544681849128935 19.277328844458545 0 0 0
289 97 2 -1.1794 -2.7702829997206324 10.173562746737366 2.132703402585892 1 0 0
255 85 1 0.5897 -2.6956660588194072 8.911507233145143 3.5514087797653766 1 0 0
146 49 1 0.5897 -1.4428319164987808 6.8047100181952125 1.7799087364537614 1 0 0
147 49 1 0.5897 -1.1714927530038446 7.626359853979239 0.5378024257808567 1 0 0
332 111 1 0.5897 -2.6338761867971257 9.299664704699515 0.6694425829564168 1 0 0
145 49 2 -1.1794 -0.7873955769895917 6.9521591313154785 1.0982060668015436 1 0 0
112 38 2 -1.1794 -3.304526037071808 6.310501901690036 2.2444788675408534 1 0 0
291 97 1 0.5897 -3.59918213944702 10.426667842129783 2.538828666416933 1 0 0
224 75 1 0.5897 -0.4890226057869409 11.060458426654485 3.481581486657146 0 0 0
188 63 1 0.5897 0.7173936188672245 9.939312600963088 0.8609141556664518 0 0 0
200 67 1 0.5897 0.31156497847797393 8.123531431261682 2.25419206487621 0 0 0
199 67 2 -1.1794 0.8301249985961334 8.893321318032779 2.4883014812209323 0 0 0
10 4 2 -1.1794 1.857998166311745 6.399579032909224 4.485132638971638 0 0 0
290 97 1 0.5897 -2.1354022078200687 10.80630157782494 2.46863407129664 1 0 0
221 74 1 0.5897 4.204108288826864 10.657746555217543 2.739724396481461 0 0 0
245 82 1 0.5897 0.5709097299411194 9.3793061472449 4.2273087328920775 0 0 0
114 38 1 0.5897 -3.402186470155512 5.694820088160856 1.518055759635388 1 0 0
238 80 2 -1.1794 3.515306456400033 7.968168730701912 1.6880101230157403 0 0 0
239 80 1 0.5897 3.470917864432919 8.828567591579063 1.270975767912912 0 0 0
113 38 1 0.5897 -3.404677112754363 5.772713642053962 3.0298904327865293 1 0 0
240 80 1 0.5897 3.0997468169027327 7.37588717763904 1.0612509372397785 0 0 0
220 74 2 -1.1794 3.364357500554094 10.585537005007106 3.193188244815837 0 0 0
12 4 1 0.5897 0.9077148764773817 6.465994694032029 4.578104003414623 0 0 0
201 67 1 0.5897 1.7337954907499862 8.640072438824877 2.3003644981130664 0 0 0
174 58 1 0.5897 3.5898433103853797 9.051340468589384 4.26729007906026 0 0 0
9 3 1 0.5897 -1.0711952408396628 5.714431964859681 4.163146092894959 0 0 0
187 63 2 -1.1794 0.7878158265333202 10.273717003564943 -0.03313640099011946 0 0 0
82 28 2 -1.1794 2.0368671330643107 6.299626108253711 -0.004626620555681166 0 0 0
254 85 1 0.5897 -2.2127005934017645 7.805767094390678 4.465614675783133 1 0 0
253 85 2 -1.1794 -2.8992592330929767 8.466340616323784 4.373887078073386 1 0 0
7 3 2 -1.1794 -0.9633574263202673 6.497024257264424 4.7037461294336795 0 0 0
191 64 1 0.5897 0.6355083677709583 9.721382064672673 8.929914841108243 0 0 0
65 22 1 0.5897 2.7090605198449413 7.620814851902539 8.527136982111235 0 0 0
837 279 1 0.5897 -5.772860472347171 8.086379183462963 9.332959376065254 1 0 0
111 37 1 0.5897 -5.0325947608770445 6.615662522858845 7.373253117186949 1 0 0
293 98 1 0.5897 -4.06380124007705 10.249378228279795 7.332693309490596 1 0 0
109 37 2 -1.1794 -4.117484331896206 6.410616355954229 7.181882605855761 1 0 0
292 98 2 -1.1794 -4.995619016523307 10.144716010772887 7.524539983933828 1 0 0
110 37 1 0.5897 -4.116525941060557 6.15620646149584 6.259133662140528 1 0 0
246 82 1 0.5897 0.4355414313737547 9.533938511770813 5.727130447022385 0 0 0
294 98 1 0.5897 -5.018018075997038 9.733704831261292 8.38862704029761 1 0 0
588 196 1 0.5897 -0.9765609948326581 6.4672840295046825 9.299258645732847 0 0 0
64 22 2 -1.1794 2.392682394632219 6.9181757900548 7.959238684392838 0 0 0
172 58 2 -1.1794 3.696808175663995 8.394810960621005 4.9555156752941265 0 0 0
202 68 2 -1.1794 0.534191531959546 8.798164095327689 7.247879379685058 0 0 0
203 68 1 0.5897 -0.3453644148829298 8.474530491368114 7.442255980817393 0 0 0
204 68 1 0.5897 1.1046233178377358 8.042775955222554 7.389949273742612 0 0 0
8 3 1 0.5897 -0.9087782653950622 6.164245571741619 5.599515302769948 0 0 0
235 79 2 -1.1794 -1.9743138533112985 7.7685663906061615 8.177551352551438 0 0 0
236 79 1 0.5897 -2.644517190964047 7.251627825903297 7.730442558921203 0 0 0
237 79 1 0.5897 -2.467583042387068 8.37325838197758 8.73181249433207 0 0 0
302 101 1 0.5897 -2.160028514103621 9.848361829074344 5.876903290185937 1 0 0
244 82 2 -1.1794 0.2643681853148374 9.986152438190821 4.901090099950475 0 0 0
301 101 2 -1.1794 -2.4558749170649814 10.489829322055149 6.52283192553993 1 0 0
303 101 1 0.5897 -1.654118591327757 10.923040297269667 6.815648614051254 1 0 0
228 76 1 0.5897 1.7216145655415502 11.15780757349153 5.7502635654962475 0 0 0
257 86 1 0.5897 -4.516779393226772 8.461637394686711 4.975366300207006 1 0 0
11 4 1 0.5897 2.115252849790017 5.73185891715991 5.120841323116503 0 0 0
258 86 1 0.5897 -5.233813211152203 9.011503077602923 6.1899234178428335 1 0 0
173 58 1 0.5897 2.995433438219724 7.763276222415411 4.79583852986543 0 0 0
66 22 1 0.5897 3.119892083504114 6.7474180500930565 7.360842589796316 0 0 0
691 231 2 -1.1794 -2.2711642048946805 9.99774059846693 10.01873070957868 0 0 0
794 265 1 0.5897 -5.482856085666347 10.834417239829591 12.48462838902374 1 0 0
663 221 1 0.5897 -6.670703593309838 5.746749850595239 13.749191812524831 1 0 0
678 226 1 0.5897 0.12743479583190798 9.08522457175849 14.168122718387858 0 0 0
742 248 2 -1.1794 0.36429798389492163 7.833038395371229 11.526122495115073 0 0 0
836 279 1 0.5897 -4.720762265898969 7.920987310700225 10.408835408087992 1 0 0
726 242 1 0.5897 -0.2770116709894985 10.99444836752293 12.694993293293813 0 0 0
693 231 1 0.5897 -2.382954453088076 9.528162570492722 10.845234752003853 0 0 0
649 217 2 -1.1794 -3.7164953672945944 6.648948138209744 11.119920189479807 1 0 0
650 217 1 0.5897 -3.232689167733162 7.29468535219626 11.634969771314367 1 0 0
651 217 1 0.5897 -4.515616892221608 6.491103306329717 11.6224621912805 1 0 0
795 265 1 0.5897 -5.891430379155448 9.875407952996628 11.386690162906506 1 0 0
744 248 1 0.5897 0.29917461196623485 7.188688344742081 10.82123867776829 0 0 0
793 265 2 -1.1794 -6.085958383374354 10.116375268791689 12.29236983183958 1 0 0
724 242 2 -1.1794 0.5158279908627588 10.576633175502149 13.031122724913661 0 0 0
759 253 1 0.5897 -5.679170750210824 8.956670382027733 13.776925860807163 1 0 0
703 235 2 -1.1794 -2.166704611529344 8.42273028469838 12.29214680236621 0 0 0
704 235 1 0.5897 -1.2525324682130954 8.188777623562268 12.131976712899254 0 0 0
705 235 1 0.5897 -2.1386337090070917 8.983007352115294 13.067755927115217 0 0 0
743 248 1 0.5897 0.5974355080565754 8.649501663590174 11.08427647810497 0 0 0
616 206 2 -1.1794 -6.373703164003047 6.5302005268534105 11.927933994141734 1 0 0
750 250 1 0.5897 -3.1013028377636136 10.46245096455019 14.142168299776285 0 0 0
692 231 1 0.5897 -1.3351864718203075 10.193973320369349 9.97896820459166 0 0 0
514 172 2 -1.1794 -1.3620764733959172 6.153543092485692 14.297073952216754 0 0 0
617 206 1 0.5897 -6.801159240341866 7.325178137757578 11.609381080286875 1 0 0
618 206 1 0.5897 -6.613865055307054 5.856929624758036 11.291260166340432 1 0 0
835 279 2 -1.1794 -5.25839501016525 8.580837330510798 9.970997806223298 1 0 0
725 242 1 0.5897 0.8559510338277825 11.193565846735975 13.679201317828174 0 0 0
192 64 1 0.5897 1.0766915767732677 10.715708121545685 9.982885312975252 0 0 0
190 64 2 -1.1794 0.4568996555010325 10.003068460636111 9.827077608718609 0 0 0
748 250 2 -1.1794 -2.2361514148995942 10.166506437981823 14.425139407964808 0 0 0
515 172 1 0.5897 -2.2978154498541192 6.350856978445535 14.336472485330738 0 0 0
586 196 2 -1.1794 -0.3082666968812582 5.925941477340982 9.719359924602513 0 0 0
797 266 1 0.5897 -7.3888523399842825 10.630771258047371 16.96950895178645 1 0 0
695 232 1 0.5897 -2.7321346429072904 9.675230956664976 18.438710997283444 0 0 0
741 247 1 0.5897 -5.775880002780905 8.845800089499608 17.996516391571525 0 0 0
511 171 2 -1.1794 -3.9611910972887303 6.220445407860492 15.140787772912864 0 0 0
740 247 1 0.5897 -6.102105165505495 7.576817654746148 17.23797629573872 0 0 0
568 190 2 -1.1794 -1.0318655756422634 7.113259297651416 17.93159589928446 0 0 0
762 254 1 0.5897 -7.445846080828774 8.209092605214847 14.713493173436055 1 0 0
807 269 1 0.5897 -4.912918191390663 11.233722177106323 16.49709463058153 1 0 0
83 28 1 0.5897 -4.94953899457495 6.855376078693181 18.789158779937026 0 0 -1
615 205 1 0.5897 -7.028769103813147 5.82735176921419 16.117667053603917 1 0 0
569 190 1 0.5897 -1.241898859974797 6.43321727941936 18.57154929333032 0 0 0
749 250 1 0.5897 -2.4098018833643806 9.604819605808887 15.180415488557154 0 0 0
805 269 2 -1.1794 -5.691624926965673 10.979136193903487 16.002084582858245 1 0 0
613 205 2 -1.1794 -7.21036086277008 6.1981484882358515 16.981209476462652 1 0 0
796 266 2 -1.1794 -8.3181055653087 10.403146765098263 16.998335373146737 1 0 0
706 236 2 -1.1794 -2.871373374402098 8.856130120045968 16.83157571816279 0 0 0
707 236 1 0.5897 -3.7703388396347037 8.577719800524402 17.006169110247974 0 0 0
708 236 1 0.5897 -2.345747725304757 8.067410253782166 16.964895401113665 0 0 0
739 247 2 -1.1794 -5.366978171822222 8.098469892966172 17.560052129789852 0 0 0
798 266 1 0.5897 -8.42403511401712 9.739624534523216 16.316556804176614 1 0 0
333 111 1 0.5897 -8.668472265335529 9.570387232069754 18.66107404034156 1 0 -1
512 171 1 0.5897 -4.536177616445401 6.985615433217282 15.15031084846056 0 0 0
758 253 1 0.5897 -5.533351293130135 9.306266474989641 15.242648338429401 1 0 0
757 253 2 -1.1794 -5.461599869764724 8.576141528008822 14.627797622193555 1 0 0
676 226 2 -1.1794 0.24451780039277526 8.396127353148698 14.82202455159757 0 0 0
677 226 1 0.5897 0.3017369414354487 8.863460132326573 15.655431239529888 0 0 0
570 190 1 0.5897 -0.2531634310207318 6.786486834132675 17.481129626665066 0 0 0
331 111 2 -1.1794 -8.863181426981535 8.842677137078049 19.2515656933142 1 0 -1
516 172 1 0.5897 -0.9366297366072045 6.937596491112497 14.644344350597205 0 0 0
694 232 2 -1.1794 -2.896846665950074 10.11672623733863 19.271876296557267 0 0 0
189 63 1 0.5897 -4.817678684415231 10.470338618835827 19.259317059558313 0 0 -1
696 232 1 0.5897 -2.303214289363887 10.867615830159153 19.26720891581043 0 0 0
513 171 1 0.5897 -4.4066460509879075 5.592476013957221 14.571975589367325 0 0 0
280 94 2 -1.1794 -3.31871814861957 13.771751597726881 2.6377754345271955 1 0 0
281 94 1 0.5897 -3.3625507099590584 13.478194827987089 3.5477259110434947 1 0 0
423 141 1 0.5897 -2.435950479647878 16.429329189674903 3.824644844418591 1 0 0
282 94 1 0.5897 -2.460604525833977 14.188828002352691 2.5612976192917505 1 0 0
313 105 2 -1.1794 -0.9226661619429106 14.769522473820667 1.7050961919138394 1 0 0
315 105 1 0.5897 -0.6759815102257427 13.938013259388256 1.3001352089587823 1 0 0
500 167 1 0.5897 -1.5476820102753954 16.041054680015392 0.359533764651051 1 0 0
369 123 1 0.5897 1.226813899806828 16.691334919698512 3.215280837201817 0 0 0
225 75 1 0.5897 -1.0013485724445976 12.4495432566739 3.7976290479528996 0 0 0
314 105 1 0.5897 -0.09156980728874986 15.221424202831486 1.85101441476362 1 0 0
223 75 2 -1.1794 -0.835318771514201 11.851589122032566 3.068847162974484 0 0 0
216 72 1 0.5897 0.8613139866880077 12.307547740304893 2.483982008212942 0 0 0
499 167 2 -1.1794 -2.2224438215147457 16.6449746534241 0.04948033502678381 1 0 0
368 123 1 0.5897 2.0985390108135578 16.023530491337077 2.173302050759838 0 0 0
180 60 1 0.5897 1.7990408224493368 13.617279521822907 3.9501283472739557 0 0 0
214 72 2 -1.1794 1.7903937807052124 12.515732366808303 2.3859755996197527 0 0 0
252 84 1 0.5897 3.101712215923037 14.241762154537536 0.6132700964728524 0 0 0
407 136 1 0.5897 4.5806194784918315 15.025618669914932 2.1605044276585756 0 0 0
406 136 2 -1.1794 3.771033066543401 15.516975494721423 2.0216858306508687 0 0 0
215 72 1 0.5897 1.846998638045446 12.97063433629168 1.545752531363943 0 0 0
367 123 2 -1.1794 1.2068536828167735 16.335654780097308 2.3268665471769605 0 0 0
408 136 1 0.5897 4.04874532187864 16.31514293075162 1.572273115634125 0 0 0
184 62 2 -1.1794 5.482101057281039 12.26500120662356 0.07910869027983417 0 0 0
250 84 2 -1.1794 2.5219341282102627 13.759863242344181 0.02340826870958357 0 0 0
222 74 1 0.5897 2.8615637425991878 11.341045341547748 2.888927382592152 0 0 0
269 90 1 0.5897 -3.2100538206485485 12.838036925697295 1.0503629318458525 1 0 0
421 141 2 -1.1794 -2.4137920051031108 16.078284090740418 4.714806742959275 1 0 0
404 135 1 0.5897 -1.549894727769563 15.742634913693113 7.37656991060829 0 0 0
756 252 1 0.5897 -1.5305875804377438 14.620000126119468 9.095660732418477 0 0 0
178 60 2 -1.1794 1.8089709290577352 13.991006933408178 4.831289806151696 0 0 0
327 109 1 0.5897 -4.037947053545503 12.896920789868828 5.737248199010352 1 0 0
279 93 1 0.5897 -5.277619387711669 14.312835891098944 7.245973638639454 1 0 0
211 71 2 -1.1794 -0.501060928460614 12.263434648031062 7.494679922310841 0 0 0
227 76 1 0.5897 1.2480867980906325 11.953308611477867 6.948057590046379 0 0 0
213 71 1 0.5897 -0.6631013349493111 12.892816554801122 6.79200295637997 0 0 0
212 71 1 0.5897 -0.553973716074025 12.781534234380665 8.297786206354527 0 0 0
326 109 1 0.5897 -3.0507436410499023 11.78369537344673 5.458147369678966 1 0 0
232 78 2 -1.1794 1.8294075037204092 14.417814411788596 8.29965006988113 0 0 0
371 124 1 0.5897 0.4932299975808512 16.718379804123963 7.662454483721222 0 0 0
234 78 1 0.5897 1.3000412014148202 14.93331986231145 7.691235053111997 0 0 0
370 124 2 -1.1794 0.2588194915664035 16.127762845917673 6.946540485949556 0 0 0
405 135 1 0.5897 -2.5754499961397115 16.415194897756052 8.263984953301199 0 0 0
277 93 2 -1.1794 -4.441681579289467 13.895119278461642 7.039017333879896 1 0 0
278 93 1 0.5897 -3.7819810620840753 14.543500450249102 7.285343366608131 1 0 0
341 114 1 0.5897 2.947855383996303 15.443960538264797 5.0540740213265725 0 0 0
226 76 2 -1.1794 2.0050426347581674 11.823664046281017 6.376867205022348 0 0 0
403 135 2 -1.1794 -2.398540393601784 15.59949089852256 7.7953650270990575 0 0 0
340 114 2 -1.1794 3.491715763403257 16.227835494265378 5.13184024015017 0 0 0
267 89 1 0.5897 -3.840265464196374 12.423787946687602 8.530646926587496 1 0 0
176 59 1 0.5897 -1.5119036605487828 14.505948005619945 5.017027004095813 0 0 0
179 60 1 0.5897 1.9682822644110267 13.243290860092364 5.407223425670563 0 0 0
233 78 1 0.5897 2.6771213629842725 14.32893009321531 7.864300325010865 0 0 0
372 124 1 0.5897 0.3284880865351809 16.666497394246754 6.158484885290877 0 0 0
425 142 1 0.5897 -4.164892874920315 15.96264018316858 4.866953340886502 1 0 0
175 59 2 -1.1794 -0.9423611359840733 13.73725076988169 5.047076949156532 0 0 0
325 109 2 -1.1794 -3.6245018047134376 12.413562445337172 5.021994654264754 1 0 0
177 59 1 0.5897 -0.06398005530799455 14.083169997648962 4.889190396286955 0 0 0
422 141 1 0.5897 -2.4045408938482975 16.85234583396973 5.277878193960168 1 0 0
462 154 1 0.5897 -4.787673439030094 16.910847484954473 6.544834722198622 1 0 0
1004 335 1 0.5897 -4.930080829250819 16.723983167806104 9.010574360875871 1 0 0
265 89 2 -1.1794 -3.730798870150456 12.298055636987083 9.473175038215237 1 0 0
690 230 1 0.5897 1.7679352425060557 13.035337263496984 9.526123872738484 0 0 0
266 89 1 0.5897 -3.393864282716535 11.406233089821866 9.558755165645014 1 0 0
774 258 1 0.5897 -5.611739338666332 12.273195495257335 9.544025955203832 1 0 0
754 252 2 -1.1794 -1.1016374336042518 14.03299708495408 9.718222538438692 0 0 0
872 291 1 0.5897 -2.291351482426011 16.896249288208956 11.271848453479464 0 0 0
727 243 2 -1.1794 -4.034221800060574 11.603796573188792 12.981872352855948 0 0 0
718 240 2 -1.1794 -1.2949979476661504 12.41123631424453 12.018654833081198 0 0 0
912 304 1 0.5897 1.0491102966013113 15.281904954225077 11.671221171353046 0 0 0
720 240 1 0.5897 -1.119314688626119 13.103972312394953 12.655490048510131 0 0 0
1003 335 2 -1.1794 -5.219029441351784 16.224161064759095 9.77397264082366 1 0 0
831 277 1 0.5897 -7.531500195588399 12.24735446681303 14.050074124894818 1 0 0
871 291 2 -1.1794 -2.2223069654977268 16.49894143578794 12.139897009396067 0 0 0
784 262 2 -1.1794 -6.441374735250947 14.140892591413087 11.808637357619885 1 0 0
729 243 1 0.5897 -4.110479378827583 12.417442893482756 13.480339372275166 0 0 0
911 304 1 0.5897 -0.3747342314279756 15.791003019542027 11.742558056004837 0 0 0
910 304 2 -1.1794 0.36193419765853907 15.68511539313041 11.140770418643168 0 0 0
755 252 1 0.5897 -0.48089074985757563 14.591582673922149 10.186162702990327 0 0 0
962 321 1 0.5897 -5.720344392507583 16.8097310664292 12.743224863048317 1 0 0
719 240 1 0.5897 -1.3248843079830794 12.86264808708895 11.175187751536093 0 0 0
786 262 1 0.5897 -6.600104149537851 13.805246616952273 12.690820206800636 1 0 0
817 273 2 -1.1794 -3.6966938997222147 14.447113504155674 11.21847701096786 1 0 0
818 273 1 0.5897 -4.603402440318928 14.478625692947324 11.523386603300265 1 0 0
819 273 1 0.5897 -3.633311804999951 13.62094289480068 10.739171782524448 1 0 0
873 291 1 0.5897 -2.7338714545445804 15.692397973351317 12.075995405401905 0 0 0
728 243 1 0.5897 -3.2975221018022767 11.753514223638424 12.389485812008504 0 0 0
773 258 1 0.5897 -6.597723755159013 12.921540487019959 10.492233104108205 1 0 0
1005 335 1 0.5897 -4.490813469097803 15.632498477355538 9.963159677637222 1 0 0
688 230 2 -1.1794 2.0154226315211243 12.27688102121734 10.05496416829132 0 0 0
829 277 2 -1.1794 -6.921410707018455 12.958248515637186 14.246787856737187 1 0 0
682 228 2 -1.1794 -1.0961867365711386 14.178633975350488 14.205032204662027 0 0 0
925 309 2 -1.1794 -5.608375805655439 16.056417453446542 14.338201219800677 1 0 0
930 310 1 0.5897 -7.558716639173711 16.036791264668167 14.410650769767521 1 0 0
731 244 1 0.5897 -1.4021740937105092 11.305929500906561 15.379596749783452 0 0 0
771 257 1 0.5897 -6.7686027518189515 11.774483564274297 19.13449160806968 1 0 0
717 239 1 0.5897 -2.5597393613581403 12.433167700722029 16.99109161985165 0 0 0
875 292 1 0.5897 -2.8380167310344433 16.618555062822388 16.388966668072463 0 0 0
844 282 2 -1.1794 0.5810766011236996 16.32148469984675 14.982204831041178 0 0 0
681 227 1 0.5897 -3.7567202700771913 13.453898728271742 15.583406592435464 0 0 0
830 277 1 0.5897 -7.304297731898006 13.400502442930971 15.00439226612248 1 0 0
783 261 1 0.5897 -8.397662154018594 14.330103839313937 16.95678906968343 1 0 0
715 239 2 -1.1794 -3.502498580704054 12.572749290838074 17.07954369074868 0 0 0
716 239 1 0.5897 -3.620077519400928 12.847393993521171 17.988898527437357 0 0 0
874 292 2 -1.1794 -2.927399172029192 16.11754539993686 17.199574316680383 0 0 0
907 303 2 -1.1794 -5.651777349512711 15.683963741637388 18.013888878337575 0 0 0
680 227 1 0.5897 -2.915693249784794 14.05291664452106 14.47644748060697 0 0 0
876 292 1 0.5897 -2.179382111860334 15.520374968661638 17.19638121270038 0 0 0
736 246 2 -1.1794 -0.9144311479944083 14.40042777975145 17.994955800235964 0 0 0
909 303 1 0.5897 -4.851811777392123 15.747780352197418 17.492312549553162 0 0 0
781 261 2 -1.1794 -7.525803617537188 13.956288975575372 16.829375443699398 1 0 0
782 261 1 0.5897 -7.3676085959924915 13.441063470295857 17.62035574674806 1 0 0
730 244 2 -1.1794 -0.969574504878512 11.944439171678773 15.946603835947938 0 0 0
908 303 1 0.5897 -6.268540208481101 15.215850924720497 17.451058064634708 0 0 0
251 84 1 0.5897 -4.510798644563025 14.400967464555924 18.96398599807339 0 0 -1
927 309 1 0.5897 -5.46117766444646 16.76396863108782 14.965909789257129 1 0 0
737 246 1 0.5897 -0.6919184686157704 15.02275281988549 18.68741842419709 0 0 0
806 269 1 0.5897 -5.8318217962989864 11.699807650906553 15.38797834480517 1 0 0
679 227 2 -1.1794 -3.819297121786768 13.840884916025738 14.710229584606617 0 0 0
683 228 1 0.5897 -0.8626614690672154 13.389822633677712 14.694342656748903 0 0 0
185 62 1 0.5897 -1.0638513607060807 12.967311275757426 18.86129467321897 0 0 -1