LAMMPS data file via write_data, version 30 Jul 2021, timestep = 2250000

972 atoms
2 atom types
648 bonds
1 bond types
324 angles
1 angle types

-0.09243521158584755 20.092436211584587 xlo xhi
-0.13874030340207355 20.138741303401634 ylo yhi
-0.11097252258213075 20.810970522578792 zlo zhi

Masses

1 1.008
2 15.999

Pair Coeffs # lj/cut/tip4p/long/omp

1 0 0
2 0.21084 3.1668

Bond Coeffs # harmonic/omp

1 450 0.9572

Angle Coeffs # harmonic/omp

1 55 104.52

Atoms # full

10 4 2 -1.1794 1.1538005745956912 3.898887117731678 3.976271880085717 0 0 0
11 4 1 0.5897 1.2265448591558346 3.3006760582183317 3.2325748770123393 0 0 0
12 4 1 0.5897 2.017598531160755 3.8759266010806757 4.388101563270262 0 0 0
16 6 2 -1.1794 3.961630207913587 3.8930389347806535 3.521927007309016 0 0 0
18 6 1 0.5897 4.147429637245012 3.0619502631792694 3.0848737710213103 0 0 0
17 6 1 0.5897 4.060811031071326 4.552661607676249 2.835422060676739 0 0 0
53 18 1 0.5897 9.820358161292862 4.2865753144324446 3.6651530313309295 0 0 0
23 8 1 0.5897 2.8766536859657217 0.9148592569977161 3.9842165206710014 0 0 0
31 11 2 -1.1794 1.002567008465374 2.1918271114757433 1.8729493193013969 0 0 0
33 11 1 0.5897 1.650588950976878 2.353812363855003 1.187328442186804 0 0 0
67 23 2 -1.1794 7.537363570464522 2.137443638273362 2.4478354939561773 0 0 0
4 2 2 -1.1794 4.572939393516543 0.9744414815173901 3.1505244611770875 0 0 0
32 11 1 0.5897 0.1711915731697431 2.4686025800959612 1.4876886971264403 0 0 0
34 12 2 -1.1794 5.250541915988589 2.2195473297242927 -0.0764852467564307 0 0 0
48 16 1 0.5897 7.268633444203872 4.5468470044644524 4.413861214854024 0 0 0
6 2 1 0.5897 4.885874428348442 0.5189714421761502 3.9320887677102254 0 0 0
46 16 2 -1.1794 7.996252024985386 4.4910280077124165 3.7944151887294475 0 0 0
69 23 1 0.5897 6.636689448066966 1.8643487952098012 2.2732159652647836 0 0 0
68 23 1 0.5897 7.930566557540111 2.2363279463355745 1.580753745874294 0 0 0
5 2 1 0.5897 4.386604355038339 0.27535999515276066 2.5238135897376313 0 0 0
47 16 1 0.5897 7.859289577913641 3.6612146960872747 3.3374587667948696 0 0 0
9 3 1 0.5897 4.895356509614962 4.376456329950693 4.983273790066609 0 0 0
22 8 2 -1.1794 2.388050398006507 0.8297710165463119 4.802877787193685 0 0 0
41 14 1 0.5897 9.872523904985151 0.7214140612200818 3.5846481392079292 0 0 0
39 13 1 0.5897 9.995762212180695 2.409588783220217 0.4689411697753181 0 0 0
3 1 1 0.5897 3.629732774759128 2.4010299843662932 -0.01179655418584119 0 0 0
273 91 1 0.5897 7.872733310513297 0.19763584176736299 2.4331324596940913 0 1 0
236 79 1 0.5897 0.7436048434849989 0.262108092942596 1.7705711934955644 0 1 0
58 20 2 -1.1794 8.372717349725598 0.39416696387813577 4.692247257553214 0 0 0
59 20 1 0.5897 8.594887245422422 1.294166555275102 4.930784350692138 0 0 0
37 13 2 -1.1794 9.098230579620106 2.5283212960918413 0.1581055217322942 0 0 0
24 8 1 0.5897 2.5698572091965373 -0.06204184460089161 5.099275480524148 0 0 0
1 1 2 -1.1794 2.6849091584980007 2.554371987260228 -0.01958839081043351 0 0 0
325 109 2 -1.1794 2.9824871791249215 2.475326728367941 6.965116368966095 0 0 0
326 109 1 0.5897 2.803235043256356 1.9795857112280695 6.166165791443927 0 0 0
327 109 1 0.5897 3.8884389228485583 2.2575852308868867 7.184478684648356 0 0 0
355 119 2 -1.1794 0.8564340941013792 2.3590485761769604 8.853771391941093 0 0 0
356 119 1 0.5897 1.5447097346895424 2.4029715704056454 8.189999283691042 0 0 0
335 112 1 0.5897 1.326237150554837 3.6839218734888255 10.275468590626987 0 0 0
371 124 1 0.5897 7.859127634581935 3.160696580978549 10.206507600746116 0 0 0
359 120 1 0.5897 6.428233656176854 2.30624554055521 7.809294496949113 0 0 0
561 187 1 0.5897 0.687828433686968 0.45104998617686654 8.856262765077394 0 1 0
358 120 2 -1.1794 5.67242586408782 2.2839123602426867 7.222353984877427 0 0 0
341 114 1 0.5897 4.235017630971068 3.340913567234503 10.180576131329692 0 0 0
360 120 1 0.5897 5.711672308246507 1.4193726990329674 6.8133550311233195 0 0 0
361 121 2 -1.1794 9.151716544273459 2.579285251806696 6.084421464359324 0 0 0
357 119 1 0.5897 0.049032394053662165 2.5467882506889032 8.375132802648427 0 0 0
362 121 1 0.5897 8.977820931033104 3.5182841530003843 6.149613223078371 0 0 0
393 131 1 0.5897 7.6844992208017775 0.9343992380150064 8.718458933102744 0 0 0
8 3 1 0.5897 5.655129402223815 3.8280423168603983 6.172342656513649 0 0 0
391 131 2 -1.1794 7.855988911198748 1.8724370191381454 8.635228516397625 0 0 0
392 131 1 0.5897 8.584746907302836 1.9292773525449758 8.017282272376526 0 0 0
27 9 1 0.5897 2.6151101761134314 4.330148662937366 6.792963917699744 0 0 0
342 114 1 0.5897 4.343199108788676 4.8086294293188745 9.82551557700943 0 0 0
330 110 1 0.5897 4.018995010542837 0.7373546941521558 9.49574305702111 0 0 0
7 3 2 -1.1794 5.584859843707565 4.5986717951648055 5.6089341356763756 0 0 0
328 110 2 -1.1794 3.9192764132876228 1.444842567190551 10.13272893850271 0 0 0
363 121 1 0.5897 9.998404424392419 2.461546244213901 6.515107689005681 0 0 0
29 10 1 0.5897 6.65426461048565 0.31810463479361534 5.194041627679619 0 0 0
28 10 2 -1.1794 5.795146258625166 0.04498074018443568 5.515911975214148 0 0 0
102 34 1 0.5897 0.45887680096446826 0.6899287415101142 5.171612022911104 1 0 0
649 217 2 -1.1794 2.4580238255257076 2.590264713097919 13.853236082441416 0 0 0
650 217 1 0.5897 2.2116631979203043 1.9829679276046743 13.155600582398582 0 0 0
651 217 1 0.5897 1.930945343665142 2.3189569565246133 14.604761559020272 0 0 0
352 118 2 -1.1794 5.800202171813967 0.6365885046658363 12.050121728661727 0 0 0
346 116 2 -1.1794 1.8728537174452173 0.7112874851786543 11.817501113146086 0 0 0
717 239 1 0.5897 6.631106934940504 2.525847710938849 15.219160817561084 0 0 0
336 112 1 0.5897 2.5184651555524704 4.5048868978425824 10.718862173514275 0 0 0
332 111 1 0.5897 5.467513136749762 4.479248241640365 11.954480441195923 0 0 0
683 228 1 0.5897 4.239640837082082 2.6924147875648186 14.331928116657837 0 0 0
685 229 2 -1.1794 9.164464103154248 2.9180704595453357 13.545679283008711 0 0 0
384 128 1 0.5897 9.283092012600147 0.9132126938757195 11.207926207257628 0 0 0
350 117 1 0.5897 2.5587101615852657 4.303364857838394 13.501184399555545 0 0 0
383 128 1 0.5897 8.534409540834519 1.5279144716345259 12.371310088357482 0 0 0
682 228 2 -1.1794 5.186152968753789 2.6401807122672163 14.19896720596393 0 0 0
329 110 1 0.5897 4.618394706495594 1.2950422081893953 10.769161262313155 0 0 0
347 116 1 0.5897 1.001108998534931 0.8567295860699753 11.449852893003994 0 0 0
372 124 1 0.5897 7.553957045507435 4.1688614673929845 11.293849391691086 0 0 0
684 228 1 0.5897 5.388840957244983 3.3782273286176445 13.624129217604933 0 0 0
353 118 1 0.5897 6.719109773870458 0.7829379874359345 11.82545024141066 0 0 0
686 229 1 0.5897 8.628937863808098 2.5486808195253943 14.247817890959686 0 0 0
382 128 2 -1.1794 8.54726420230613 0.7596501872671341 11.80055019323643 0 0 0
354 118 1 0.5897 5.653326234698511 1.178851764609289 12.825104595544232 0 0 0
348 116 1 0.5897 2.471757487966487 1.0799667358086051 11.168177783245795 0 0 0
386 129 1 0.5897 9.139159554105293 4.638009249494935 14.067288344725634 0 0 0
331 111 2 -1.1794 6.212456484413605 4.4739524525334575 12.555531359300543 0 0 0
340 114 2 -1.1794 4.24956764254147 4.214973364837911 10.570523068571918 0 0 0
334 112 2 -1.1794 1.5619743175849823 4.481980232665118 10.74851904120876 0 0 0
377 126 1 0.5897 9.88443348921758 4.088275851953671 10.397099442389505 0 0 0
680 227 1 0.5897 0.013080012820015696 2.1978754765626265 15.283369109466939 0 0 0
370 124 2 -1.1794 8.001171726002273 4.074659181580376 10.452844646652487 0 0 0
652 218 2 -1.1794 4.346605416645807 1.2233941417262646 17.40275171902167 0 0 0
653 218 1 0.5897 3.5675545548288325 1.0937906642672812 17.94359964535407 0 0 0
658 220 2 -1.1794 0.9617405652652036 4.291664766557899 17.46029411486077 0 0 0
657 219 1 0.5897 6.182129221005871 4.0768468959082185 18.7184578368908 0 0 0
664 222 2 -1.1794 3.6851241826251235 3.752134195652233 16.949961222635366 0 0 0
666 222 1 0.5897 3.913446464260205 2.82931695836335 17.061915501061907 0 0 0
671 224 1 0.5897 2.4564303836494052 1.486467728918478 19.584995732636617 0 0 0
670 224 2 -1.1794 2.0884512433263005 0.975085058889082 18.86437325941811 0 0 0
665 222 1 0.5897 2.755879793072666 3.7984682280559166 17.174971483435915 0 0 0
884 295 1 0.5897 0.9036863396003346 0.03804040719030158 16.021147344867458 0 1 0
681 227 1 0.5897 0.47296471783459126 2.501792153043447 16.69331884797658 0 0 0
2 1 1 0.5897 2.5916124376951646 3.463022148953792 20.61617764907855 0 0 -1
672 224 1 0.5897 1.1420130572266594 1.0938392197690534 18.94458523679703 0 0 0
716 239 1 0.5897 7.342878413768138 1.2468468383820528 15.605703367225201 0 0 0
676 226 2 -1.1794 6.297575181235219 0.4114524267804973 19.028071547602845 0 0 0
677 226 1 0.5897 5.565463916833109 0.5855011074719958 18.436485757624325 0 0 0
655 219 2 -1.1794 5.395115500719377 4.457497128107349 19.10831472299868 0 0 0
656 219 1 0.5897 4.70835075623293 4.306295121141834 18.45889413777074 0 0 0
659 220 1 0.5897 0.34623892758136054 4.351566165396907 18.19092022180311 0 0 0
38 13 1 0.5897 9.02021948871439 1.9294075863723577 20.337476782242458 0 0 -1
708 236 1 0.5897 8.095285228147748 0.7448212880785248 18.95559048555385 0 0 0
694 232 2 -1.1794 7.775918758740548 3.7147929365695735 17.915667778785277 0 0 0
695 232 1 0.5897 7.588904206133706 3.1949016175740934 17.134025191191892 0 0 0
706 236 2 -1.1794 9.046634614318018 0.8343452661758771 18.899021028872912 0 0 0
679 227 2 -1.1794 0.5572028447817279 1.8553296646175776 15.992449793654728 0 0 0
654 218 1 0.5897 4.235230669173656 0.6153703381393709 16.671924920402535 0 0 0
36 12 1 0.5897 5.322739923698128 3.049801135594048 20.37460519973974 0 0 -1
707 236 1 0.5897 9.387614983506454 0.06078598664669552 19.34800133909956 0 0 0
711 237 1 0.5897 8.632927030231354 4.427596363623105 20.639413990228615 0 0 0
35 12 1 0.5897 5.722287726058924 1.591547119998071 20.298351081372473 0 0 -1
715 239 2 -1.1794 7.417876033837771 2.1997614739091773 15.656095089680885 0 0 0
696 232 1 0.5897 7.876448040394561 4.60943645263844 17.59047510046776 0 0 0
20 7 1 0.5897 0.8185937136493048 5.1941059478226626 2.529147545892086 0 0 0
15 5 1 0.5897 3.891819111502794 6.5385294736738055 2.219473321731622 0 0 0
126 42 1 0.5897 3.9992263198451603 9.881892418519396 3.3634924137898845 0 0 0
56 19 1 0.5897 6.132555381846195 6.041965392451418 1.7646106492875415 0 0 0
14 5 1 0.5897 3.510069372197228 5.788977542841868 0.9607744646378151 0 0 0
139 47 2 -1.1794 0.7818437116539837 8.848951843079812 2.04481373815685 0 0 0
175 59 2 -1.1794 7.244806729969611 9.202971307238764 1.6181387112444598 0 0 0
112 38 2 -1.1794 3.60524637696008 7.863065352789439 3.519936996811404 0 0 0
141 47 1 0.5897 0.9176323974067089 8.039836999155607 2.537881827375413 0 0 0
140 47 1 0.5897 0.8467788750730096 9.543319017019325 2.7004474087166734 0 0 0
114 38 1 0.5897 2.890717856880062 7.654947662231713 4.121928297297455 0 0 0
13 5 2 -1.1794 4.190837912406759 5.845036094580549 1.6313427992441947 0 0 0
110 37 1 0.5897 1.6910489744283386 9.448682691258268 0.5943997658056561 0 0 0
149 50 1 0.5897 9.896248632139292 7.720636780612622 3.7294494405535263 0 0 0
710 237 1 0.5897 7.970508602170016 5.701087377636764 0.19850283018932152 0 0 1
143 48 1 0.5897 5.550095991108782 8.959244901361922 0.9042661319111653 0 0 0
19 7 2 -1.1794 0.632767175595569 5.865786602770937 1.8729821328964116 0 0 0
113 38 1 0.5897 4.401006387191128 7.683473404831916 4.020705794070779 0 0 0
176 59 1 0.5897 7.199187308415099 8.26452842026586 1.8011594456935027 0 0 0
177 59 1 0.5897 7.947493522705427 9.287920393718288 0.9737370205525979 0 0 0
55 19 2 -1.1794 7.026604179970024 6.382778859056748 1.7929713560278875 0 0 0
674 225 1 0.5897 1.5999766249640661 5.450471858740506 0.5484065569604732 0 0 1
142 48 2 -1.1794 4.867577624080879 8.715216618020486 0.2790664552168913 0 0 0
57 19 1 0.5897 7.370426895807816 6.084825418385721 2.635127282598585 0 0 0
166 56 2 -1.1794 8.465461367262181 7.54706169625464 4.920240158165919 0 0 0
138 46 1 0.5897 6.785847727318246 7.257847369514935 4.961283984700825 0 0 0
132 44 1 0.5897 0.5197006702682149 7.349869456748139 5.115736975385144 0 0 0
130 44 2 -1.1794 1.4683158172666826 7.33432482309602 4.9885768499034855 0 0 0
136 46 2 -1.1794 5.83884839950504 7.2024500291771405 5.08915741187808 0 0 0
145 49 2 -1.1794 9.654937994162536 9.569149642609922 -0.09660961026425952 0 0 0
111 37 1 0.5897 3.069795602514886 9.204001433057758 0.01889287016769714 0 0 0
344 115 1 0.5897 0.937371123988515 5.548552520291705 9.39915263664333 0 0 0
345 115 1 0.5897 0.7317775392012937 6.965539838236408 8.907395868749292 0 0 0
337 113 2 -1.1794 4.387572312259582 6.112161060000044 8.44528824167622 0 0 0
463 155 2 -1.1794 0.6718261059895098 8.873378759110953 8.651701343322175 0 0 0
499 167 2 -1.1794 7.605933454790246 8.335509191438488 9.097937821667779 0 0 0
62 21 1 0.5897 8.751943599414904 5.6410728570598065 7.24335918054869 0 0 0
469 157 2 -1.1794 9.030493394215654 9.549335219971534 6.782797928942015 0 0 0
437 146 1 0.5897 4.217705963522819 7.476681874964092 9.809319489654413 0 0 0
438 146 1 0.5897 4.289132335962186 8.93232803952861 10.21905631349354 0 0 0
464 155 1 0.5897 1.3992403562272882 9.027353187869842 8.048860436842688 0 0 0
433 145 2 -1.1794 2.6848899829667774 8.894597754219632 6.934893406638565 0 0 0
466 156 2 -1.1794 5.478401891162675 8.793681708622739 7.397807095188646 0 0 0
435 145 1 0.5897 2.1039932827174797 8.607715950879296 6.230263485531647 0 0 0
339 113 1 0.5897 3.8995137205303165 5.918588328016716 7.644944243568231 0 0 0
343 115 2 -1.1794 0.6270928738239053 6.05077400993025 8.645681062944908 0 0 0
500 167 1 0.5897 7.632421809008644 8.73247632708565 9.968528715370809 0 0 0
61 21 2 -1.1794 9.427431987532366 5.603881063520158 6.566201217458936 0 0 0
137 46 1 0.5897 5.686629844766861 6.299424436069028 5.367635065660554 0 0 0
468 156 1 0.5897 4.550639079961873 8.59839834405572 7.266028752856683 0 0 0
467 156 1 0.5897 5.9391207136776245 8.100464242006508 6.925179211647242 0 0 0
470 157 1 0.5897 8.548593620654128 9.101550713779755 7.478135371301654 0 0 0
434 145 1 0.5897 2.677217024131681 9.850098029678861 6.878213026279624 0 0 0
338 113 1 0.5897 5.303631796744953 5.966300559463328 8.209020107892984 0 0 0
379 127 2 -1.1794 7.270370053339357 5.67740168376925 8.484857074886252 0 0 0
501 167 1 0.5897 6.732511198319058 8.54328552083063 8.765910611597763 0 0 0
380 127 1 0.5897 7.5352816590921945 6.563623684959701 8.731200414173115 0 0 0
26 9 1 0.5897 1.837465843385044 5.499560159862534 7.3583472996871695 0 0 0
381 127 1 0.5897 7.54863474064755 5.130749275071267 9.219680921332769 0 0 0
25 9 2 -1.1794 2.449580607544088 5.263685024995424 6.661268527592149 0 0 0
131 44 1 0.5897 1.7543394671352062 6.526177819918209 5.414420500403384 0 0 0
471 157 1 0.5897 9.95183995793494 9.394476217562277 6.9911915613971685 0 0 0
168 56 1 0.5897 8.765599498809857 8.196468512533599 5.556187444592892 0 0 0
167 56 1 0.5897 8.801736367416225 6.7141234054044 5.250837490621172 0 0 0
443 148 1 0.5897 1.0233471619503638 9.747474179079534 10.171976714374601 0 0 0
349 117 2 -1.1794 2.710953378029852 5.247632411510334 13.463301368801844 0 0 0
793 265 2 -1.1794 8.95654088302077 9.003156892584668 14.477786550964979 0 0 0
385 129 2 -1.1794 9.211327770722242 5.559892375691225 14.314610668477894 0 0 0
791 264 1 0.5897 5.8589362393201805 9.107851873983714 14.973907090840303 0 0 0
759 253 1 0.5897 2.4147541307273106 8.540331719877626 13.268235954352047 0 0 0
491 164 1 0.5897 9.491564795515107 7.504388262116956 11.482738122531185 0 0 0
790 264 2 -1.1794 5.4606985956141 9.22664026695359 14.111654699582774 0 0 0
454 152 2 -1.1794 1.9458102269852962 7.603454205726349 11.753350532512425 0 0 0
455 152 1 0.5897 2.7366335635695664 7.775632564411561 11.24229029776067 0 0 0
456 152 1 0.5897 2.130460855647547 6.784145719601049 12.212545248791058 0 0 0
794 265 1 0.5897 8.818297053334549 8.356994392894075 13.785258541419271 0 0 0
387 129 1 0.5897 9.138542031055396 6.036606827136838 13.487783408871394 0 0 0
461 154 1 0.5897 5.995558013382218 7.921450916384831 13.137011674862725 0 0 0
460 154 2 -1.1794 6.271351233117609 7.332039887778159 12.435044084624073 0 0 0
462 154 1 0.5897 5.580450414308396 7.403427627912198 11.776430588117817 0 0 0
351 117 1 0.5897 3.437255602664099 5.398081189852005 14.068354933436694 0 0 0
668 223 1 0.5897 1.3691511810181212 5.67648481185233 14.637007900334448 0 0 0
492 164 1 0.5897 8.039797072375944 7.5067794476106915 11.912134705298383 0 0 0
757 253 2 -1.1794 2.5414926573735093 9.100798385150648 14.033761111615057 0 0 0
333 111 1 0.5897 6.371134097825846 5.3978411539480575 12.749208892203127 0 0 0
789 263 1 0.5897 1.364609612809428 8.513153888210756 15.348240253160824 0 0 0
490 164 2 -1.1794 8.925046007446616 7.342464489452665 12.23708754313734 0 0 0
792 264 1 0.5897 4.518643241735692 9.23341178024288 14.281213110426007 0 0 0
405 135 1 0.5897 0.03060845812639812 4.975260295716304 11.62859645852178 1 0 0
533 178 1 0.5897 0.004892646677904233 7.889921599517326 12.09600697001594 1 0 0
758 253 1 0.5897 2.3328515598861412 9.981903147511007 13.723341937696954 0 0 0
436 146 2 -1.1794 4.333447565985719 8.043644273529996 10.5717989583766 0 0 0
661 221 2 -1.1794 4.491147129414717 5.802833267760786 15.278065306976528 0 0 0
667 223 2 -1.1794 0.5344225161605014 5.831458949704663 15.079083693474297 0 0 0
669 223 1 0.5897 0.6059820913221354 6.722482509047784 15.421431411619015 0 0 0
795 265 1 0.5897 8.900480598788652 9.848373245120825 14.032076534509276 0 0 0
663 221 1 0.5897 4.01733356273857 6.581635292239622 15.569967172418766 0 0 0
109 37 2 -1.1794 2.2432232190895647 9.652181410671224 20.76140209676838 0 0 -1
780 260 1 0.5897 2.40924945685846 7.362578971325026 18.22036090753831 0 0 0
703 235 2 -1.1794 7.215410132789694 5.898050484005513 16.29617549774078 0 0 0
778 260 2 -1.1794 1.8056881146855819 7.320312256683575 18.962097207899358 0 0 0
673 225 2 -1.1794 2.2508016473803822 5.2923319100370305 20.78649737180617 0 0 0
761 254 1 0.5897 3.7924228949268373 8.85303753584284 17.240028061224763 0 0 0
779 260 1 0.5897 1.9550229340509282 8.136247412687782 19.4397846741226 0 0 0
760 254 2 -1.1794 3.8731374996776187 7.901191862364458 17.178966634958815 0 0 0
815 272 1 0.5897 8.510635402658309 6.721565523188519 19.505324189048935 0 0 0
787 263 2 -1.1794 0.6711954253663178 8.452522837221904 16.00532088449225 0 0 0
825 275 1 0.5897 7.1384781734371145 7.840195517336046 16.610671405313372 0 0 0
814 272 2 -1.1794 8.372858710664465 7.472461753698309 18.927928680874153 0 0 0
788 263 1 0.5897 0.8636077762393741 9.15792074956196 16.623043602461184 0 0 0
762 254 1 0.5897 4.665220747680966 7.695176780042504 17.675370427193148 0 0 0
784 262 2 -1.1794 5.8409121270841675 7.184412793195909 18.883566347404543 0 0 0
816 272 1 0.5897 8.692866318686336 8.222545122616316 19.429146251224363 0 0 0
786 262 1 0.5897 6.782137374647278 7.358688565005459 18.883055603031274 0 0 0
785 262 1 0.5897 5.77363830407597 6.229579848198902 18.879373736276307 0 0 0
709 237 2 -1.1794 8.63993348511034 5.377035368889089 20.51785473887761 0 0 0
823 275 2 -1.1794 7.089450528933211 8.765521970309356 16.3706418782207 0 0 0
675 225 1 0.5897 2.0766005178869062 5.9658818396922895 20.129063651659024 0 0 0
797 266 1 0.5897 9.767719782353257 7.420397534442563 17.636832096107952 0 0 0
704 235 1 0.5897 6.36641796998453 5.926391039901666 15.854999346205505 0 0 0
660 220 1 0.5897 0.6827951827600399 4.978379098153594 16.85463232405604 0 0 0
662 221 1 0.5897 4.222403879781476 5.115802892885016 15.887962003020156 0 0 0
858 286 1 0.5897 0.029579041370219272 7.33847160679489 18.814320386667966 1 0 0
144 48 1 0.5897 5.211779668814703 7.937764177242071 20.761300952505316 0 0 -1
824 275 1 0.5897 7.766760791826233 8.87658069369722 15.703434246008003 0 0 0
705 235 1 0.5897 7.8524069030688555 5.818971869463159 15.586101380503267 0 0 0
819 273 1 0.5897 8.580209370158386 12.409953444752604 0.543449045784914 0 0 1
120 40 1 0.5897 0.9667598547228096 11.5867467814116 3.4759995445346195 0 0 0
129 43 1 0.5897 0.9551984831565798 14.20383560511525 2.1630607543195484 0 0 0
118 40 2 -1.1794 1.0488123456208647 10.792770306536699 4.004278977995117 0 0 0
123 41 1 0.5897 3.994275011436205 12.324447926767983 1.1080164110491175 0 0 0
220 74 2 -1.1794 3.8391105240760575 14.35553177692511 3.3373831342745572 0 0 0
119 40 1 0.5897 1.98821389830408 10.709541789421001 4.168078381494379 0 0 0
155 52 1 0.5897 7.647766999089733 10.255019706523093 3.0619447645542683 0 0 0
240 80 1 0.5897 2.3198145750074493 13.911758909682845 4.666081141924565 0 0 0
121 41 2 -1.1794 4.809897097560101 12.377088048032846 1.6062681059856734 0 0 0
285 95 1 0.5897 7.692904588398433 14.757844831946775 1.9089594560789784 0 0 0
154 52 2 -1.1794 8.003431720946823 10.803038235822456 3.7615297501453213 0 0 0
783 261 1 0.5897 1.7839555640374007 12.592877678692044 1.0912734780025468 0 0 1
122 41 1 0.5897 4.647341250841441 11.850629522281604 2.3889796680970443 0 0 0
156 52 1 0.5897 8.951992945962353 10.762231101085513 3.639646776874612 0 0 0
125 42 1 0.5897 4.439437420948585 10.899316164074603 4.394484556686453 0 0 0
222 74 1 0.5897 4.319493392365459 13.852560957105846 2.679749025743408 0 0 0
124 42 2 -1.1794 3.8309860425749775 10.774250557846658 3.666209600881013 0 0 0
276 92 1 0.5897 8.667192341840066 14.342334447029506 4.773021089223894 0 0 0
163 55 2 -1.1794 7.546470775847703 12.758127241129179 1.9066349413866694 0 0 0
164 55 1 0.5897 6.659863533374506 12.66149646797684 1.559056410032544 0 0 0
165 55 1 0.5897 7.634120751994759 12.04733389447032 2.5416936353549406 0 0 0
127 43 2 -1.1794 0.7425836020904162 13.27426932777579 2.246442922077645 0 0 0
246 82 1 0.5897 4.947875196951151 13.935018515812482 4.530966670209585 0 0 0
781 261 2 -1.1794 2.3260881439257814 12.368376609280713 0.3350260521252354 0 0 1
116 39 1 0.5897 6.645095688179786 10.889472083714363 4.84976692952247 0 0 0
782 261 1 0.5897 2.1387067377597173 11.444072446463442 0.17132340638418192 0 0 1
133 45 2 -1.1794 2.564320745525531 11.743204320792952 7.0748440643758785 0 0 0
134 45 1 0.5897 1.9678828649979851 12.161648230777157 7.695621998019278 0 0 0
135 45 1 0.5897 3.4386188373910023 11.96721635575273 7.393723015971649 0 0 0
451 151 2 -1.1794 0.7604897585405489 12.472392633636792 9.043945001342552 0 0 0
115 39 2 -1.1794 5.953388622037436 11.17059881424951 5.448731546850441 0 0 0
171 57 1 0.5897 9.061228598311965 11.332432629106568 6.799183636155791 0 0 0
450 150 1 0.5897 4.313759231976364 11.10402478346182 9.869370344142732 0 0 0
170 57 1 0.5897 9.165428412468465 12.8143822617936 6.5078664120294505 0 0 0
544 182 2 -1.1794 4.150836089060182 14.441001090453659 10.251238373875978 0 0 0
446 149 1 0.5897 4.447547948249896 13.081020499278852 9.276052104561463 0 0 0
445 149 2 -1.1794 4.71668826976035 12.352675110030075 8.716316692552127 0 0 0
239 80 1 0.5897 2.1757335690417983 13.085630981513429 5.926486760876299 0 0 0
487 163 2 -1.1794 7.730901012204067 12.65893076862316 9.214214425339 0 0 0
169 57 2 -1.1794 9.38656967057631 12.15480364522489 7.165353043173807 0 0 0
489 163 1 0.5897 7.659908800532053 13.593761221818804 9.407355853267712 0 0 0
488 163 1 0.5897 8.265772455092621 12.61760975604927 8.421471628370021 0 0 0
447 149 1 0.5897 5.650919423549691 12.497691275457576 8.56642245543666 0 0 0
317 106 1 0.5897 0.034821246931086236 14.098256047037367 5.320068897591318 1 0 0
453 151 1 0.5897 0.8561571441976586 11.689623690574516 9.586477975835535 0 0 0
117 39 1 0.5897 5.958656073024044 10.51490908319436 6.14606844329231 0 0 0
245 82 1 0.5897 5.706445570308783 13.058177203639639 5.504442975048058 0 0 0
573 191 1 0.5897 0.806815321576701 14.493400563598735 9.532515207803952 0 0 0
244 82 2 -1.1794 5.546928101402018 13.97406939567032 5.276523551076992 0 0 0
275 92 1 0.5897 7.3323885311517 14.47191450915735 5.475522293812833 0 0 0
274 92 2 -1.1794 8.27624835698936 14.502401235928366 5.6319208410331445 0 0 0
238 80 2 -1.1794 1.7949861549410568 13.831278045673335 5.4624939581770375 0 0 0
457 153 2 -1.1794 2.427494287748754 12.092785373091928 13.295062483249636 0 0 0
458 153 1 0.5897 1.736263260087527 12.097216151298785 13.957185856693023 0 0 0
459 153 1 0.5897 3.2413087604536526 12.132947321672411 13.797375772538981 0 0 0
441 147 1 0.5897 5.949005772895537 10.558618036010202 13.071383398312554 0 0 0
546 182 1 0.5897 4.763678918321632 14.230317728286996 10.95568214897929 0 0 0
563 188 1 0.5897 1.9621395585146835 13.512530224155256 12.242817772848527 0 0 0
479 160 1 0.5897 9.121128802115406 10.621184467559123 11.190484289707296 0 0 0
642 214 1 0.5897 0.1641301341645291 14.35394799720062 11.77064727761921 1 0 0
562 188 2 -1.1794 1.9126816058218759 14.359879999228994 11.800323497451117 0 0 0
545 182 1 0.5897 3.285748526162254 14.354012103038448 10.651653442268545 0 0 0
493 165 2 -1.1794 9.11422414361601 11.988461840824456 13.61981037885345 0 0 0
480 160 1 0.5897 7.9815576648778865 11.156847084378319 10.350003768208854 0 0 0
440 147 1 0.5897 6.892957902065203 11.212693850985806 12.0849325695388 0 0 0
444 148 1 0.5897 1.89115812679135 10.59489955157875 11.077885214274337 0 0 0
769 257 2 -1.1794 4.4861543869641 12.413374465339643 15.215397138080062 0 0 0
439 147 2 -1.1794 6.051951747010201 11.337573017372957 12.524694212012147 0 0 0
570 190 1 0.5897 6.879511166575777 14.14628050573022 11.983735399545314 0 0 0
448 150 2 -1.1794 3.9389008910331773 10.681774052200668 10.642281978226965 0 0 0
494 165 1 0.5897 8.430920851879515 12.319797117421563 14.202502693935452 0 0 0
569 190 1 0.5897 5.965648458734087 13.279097003806132 12.823263623100893 0 0 0
598 200 2 -1.1794 9.006343011068132 14.044692195233981 11.666271940086013 0 0 0
568 190 2 -1.1794 6.025022078338645 14.142904712100888 12.415143332983124 0 0 0
599 200 1 0.5897 9.157967900623401 13.231046562475191 12.14711322705755 0 0 0
478 160 2 -1.1794 8.182620384026574 10.517377336223316 11.033296857194323 0 0 0
442 148 2 -1.1794 0.9773332109765995 10.411753308734902 10.859603225537036 0 0 0
495 165 1 0.5897 9.932764857302294 12.289970183100314 14.013963356342098 0 0 0
564 188 1 0.5897 2.215144332197818 14.990118824355687 12.454200814822675 0 0 0
449 150 1 0.5897 4.542174554759615 10.901676407145182 11.35217299712679 0 0 0
600 200 1 0.5897 9.334604235210893 14.731304423730341 12.246831444708317 0 0 0
770 257 1 0.5897 5.418460144113932 12.19659039337855 15.205963946522797 0 0 0
775 259 2 -1.1794 0.6988218804000911 12.597197798835376 15.257301643739066 0 0 0
777 259 1 0.5897 0.964846850221762 13.478131640707717 15.520825887879418 0 0 0
811 271 2 -1.1794 7.344094487661135 12.506192280251158 15.521556926993629 0 0 0
766 256 2 -1.1794 0.9062754439526827 10.863455534028391 17.378004907427492 0 0 0
768 256 1 0.5897 0.8058580120252032 11.55607528532269 16.725012246847317 0 0 0
888 296 1 0.5897 2.6266428397125785 13.249915410659199 19.36395772893507 0 0 0
773 258 1 0.5897 2.739252157485679 10.876890426266678 17.382629622195726 0 0 0
886 296 2 -1.1794 2.5095913377936423 14.061065793528092 18.869411872193396 0 0 0
774 258 1 0.5897 3.8920400759891853 11.429469107602467 16.57169554697204 0 0 0
772 258 2 -1.1794 3.68506340812918 10.796493539554326 17.259187303230384 0 0 0
892 298 2 -1.1794 5.93219411596983 13.885182622406331 19.4500741997122 0 0 0
804 268 1 0.5897 7.564730771732878 10.158658235729577 17.286954655036297 0 0 0
818 273 1 0.5897 9.095559525502 12.892945413267281 20.126368126200703 0 0 0
887 296 1 0.5897 2.544965780080021 14.752430266927957 19.53045406934791 0 0 0
868 290 2 -1.1794 4.319083600120928 14.563366968173309 17.014930210053166 0 0 0
924 308 1 0.5897 9.171368742572554 14.138207717282665 18.14598394795021 0 0 0
767 256 1 0.5897 0.1993410597631045 11.019678998602265 18.00416038131733 0 0 0
802 268 2 -1.1794 8.035690562982298 10.911943668877495 17.64332143516591 0 0 0
803 268 1 0.5897 7.537412788469316 11.16002600113038 18.422038611009206 0 0 0
146 49 1 0.5897 9.57713469592433 10.51506944838732 20.70110065437894 0 0 -1
813 271 1 0.5897 7.607100201160488 12.021330145784141 16.30383196376174 0 0 0
765 255 1 0.5897 5.569922003207706 10.47031231597839 19.866646803098895 0 0 0
764 255 1 0.5897 4.568874894281399 11.015837409301197 18.870561518073213 0 0 0
922 308 2 -1.1794 8.670193718776417 14.179585396804743 18.96044529115362 0 0 0
893 298 1 0.5897 6.871351943810741 14.03715331498626 19.344506893179588 0 0 0
763 255 2 -1.1794 5.3490715654282335 11.257908278432144 19.36950788747722 0 0 0
894 298 1 0.5897 5.858573331627907 12.945900178355016 19.61912356339238 0 0 0
869 290 1 0.5897 3.547125834109992 14.484130873325032 17.575292219319902 0 0 0
870 290 1 0.5897 5.044149766206076 14.258956387680673 17.56071182981545 0 0 0
923 308 1 0.5897 8.987039756766295 14.970168415056087 19.39728092717618 0 0 0
817 273 2 -1.1794 9.257228903920558 12.24251457213193 20.809763328720752 0 0 0
965 322 1 0.5897 0.7051141043149777 14.120041773847577 18.83577010755972 1 0 0
810 270 1 0.5897 9.772473372742606 10.9568514598167 17.083121456162647 0 0 0
252 84 1 0.5897 5.482176547254282 15.055576434342981 20.67640600207494 0 0 -1
812 271 1 0.5897 7.235711056129159 13.408093543041774 15.823333570979333 0 0 0
771 257 1 0.5897 4.4429470127910555 13.268729035936916 15.642867518502548 0 0 0
230 77 1 0.5897 5.067155622895289 19.708759789902686 0.6437468211167902 0 0 0
219 73 1 0.5897 3.5228417109674868 16.17006079792706 -0.012830187717664837 0 0 0
233 78 1 0.5897 4.562050675918648 17.483943173958828 2.1746952489476445 0 0 0
271 91 2 -1.1794 7.939385886555504 19.67897808731374 1.905913153873649 0 0 0
251 84 1 0.5897 6.09168613511188 15.798595925817954 0.9242118737643839 0 0 0
235 79 2 -1.1794 0.7074334160011377 19.588711708940465 1.6668568290909838 0 0 0
221 74 1 0.5897 4.1289703583656 15.258545481074847 3.2077881854071166 0 0 0
262 88 2 -1.1794 8.248874831168376 17.40464470314117 3.5341284100813284 0 0 0
248 83 1 0.5897 1.3326119199519586 16.697787997915544 2.594757147994804 0 0 0
232 78 2 -1.1794 4.418255285306404 16.952372679664006 2.957621288295412 0 0 0