LAMMPS data file via write_data, version 30 Jul 2021, timestep = 9250000

864 atoms
2 atom types
576 bonds
1 bond types
288 angles
1 angle types

0.5594644068064412 17.648107993187757 xlo xhi
1.7505064420453547 21.878671357946452 ylo yhi
0.6825452695437644 21.53065053044704 zlo zhi

Masses

1 1.00794
2 15.9994

Pair Coeffs # lj/cut/tip4p/long/omp

1 0 0
2 0.21084 3.1668

Bond Coeffs # harmonic/omp

1 450 0.9572

Angle Coeffs # harmonic/omp

1 55 104.52

Atoms # full

278 1 1 0.5897 3.5335693441099423 2.4929165448097246 3.496071620558534 0 -1 1
279 1 1 0.5897 3.3685919524517933 1.9842628301521605 4.912491337644447 0 -1 1
277 1 2 -1.1794 3.9426059889327614 2.5162130186066096 4.361229483238035 0 -1 1
85 1 2 -1.1794 1.4847359738716468 6.471469625439765 1.3503601130321914 -2 6 2
703 1 2 -1.1794 3.3408464152999886 5.405635734294286 4.476024822782957 5 -2 -2
87 1 1 0.5897 1.092048815408114 6.160945628132607 2.1662797807137415 -2 6 2
53 1 1 0.5897 1.8000151924841163 3.0058290094338256 2.3430222062359904 -6 1 2
705 1 1 0.5897 3.29139019218961 4.452091460989273 4.407020031017272 5 -2 -2
52 1 2 -1.1794 2.615867432793639 2.5701876468523746 2.0961319534099463 -6 1 2
704 1 1 0.5897 3.272697783111124 5.582171296849476 5.414399850271232 5 -2 -2
54 1 1 0.5897 3.0683742246727745 3.2050559546924227 1.5406745040292202 -6 1 2
815 1 1 0.5897 4.208635686019871 6.609137020967454 2.690224008216618 -3 7 -5
86 1 1 0.5897 2.399632679286519 6.64247372177694 1.5741737422421076 -2 6 2
809 1 1 0.5897 4.5183033585409245 4.44716953436117 0.8561196308908815 6 -2 0
630 1 1 0.5897 1.247964522661674 1.7902743951894777 0.6995392599234469 -1 -3 5
804 1 1 0.5897 1.5372801865116423 4.774382210701395 10.293085524901585 5 2 -5
753 1 1 0.5897 3.4996292877926547 6.022457153731516 9.796687477574332 2 1 -3
803 1 1 0.5897 2.7597099456061853 3.9458037381529234 10.626718076369494 5 2 -5
556 1 2 -1.1794 1.3965838295112252 3.5304730934849697 7.1625493381466905 2 0 2
805 1 2 -1.1794 3.373748094947271 5.535721254095053 7.132376069511599 2 -1 -3
558 1 1 0.5897 1.1928336157509605 3.53619720866746 8.097867780156509 2 0 2
807 1 1 0.5897 4.206762368377645 5.065825396812647 7.173541007820013 2 -1 -3
806 1 1 0.5897 2.7092104868276867 4.856983109208447 7.2513299311819255 2 -1 -3
557 1 1 0.5897 1.5549567391356347 2.609006212429836 6.9570871406706765 2 0 2
802 1 2 -1.1794 2.492117670904366 4.772480478562736 10.225034317455552 5 2 -5
752 1 1 0.5897 4.619907648475899 6.605980721143399 8.962021595288277 2 1 -3
229 1 2 -1.1794 4.597733600963214 3.7898348732815577 16.10011008217272 1 5 1
532 1 2 -1.1794 3.757967400247998 6.3593146008467 12.579079428465173 -7 -1 -1
376 1 2 -1.1794 2.798141187922239 2.8465504563279076 12.236115092367937 2 5 2
146 1 1 0.5897 2.086294435416617 2.4128529816015085 14.868286879054459 2 0 -6
145 1 2 -1.1794 2.621161975656221 1.7547975920795862 15.312429770223707 2 0 -6
378 1 1 0.5897 2.5123301202819883 3.244876533976101 13.05831814664394 2 5 2
377 1 1 0.5897 3.359048259076343 2.1186557484499273 12.504301040975056 2 5 2
761 1 1 0.5897 1.0487692012159677 5.736983545235741 14.357147559757403 3 -4 -2
201 1 1 0.5897 2.583094940009212 6.4619052879953305 15.95734547467708 2 0 -1
760 1 2 -1.1794 1.3789260447281837 6.6248068130910704 14.495505199715362 3 -4 -2
796 1 2 -1.1794 0.7913371012089868 3.6497831253246975 14.12906713216107 1 -4 -1
533 1 1 0.5897 2.9424738001991133 6.3357128882321385 13.079879227293041 -7 -1 -1
231 1 1 0.5897 3.897715933939858 3.1600153688187866 16.272326354298784 1 5 1
534 1 1 0.5897 3.571132405721635 5.847595934521187 11.791935535117029 -7 -1 -1
200 1 1 0.5897 4.065284421650135 6.573380391398013 16.245292376739233 2 0 -1
808 1 2 -1.1794 3.8072729995887413 4.238783850431553 21.098121044560585 6 -2 -1
791 1 1 0.5897 2.9078721746789413 6.093066549778353 18.441177375423393 3 4 -4
790 1 2 -1.1794 2.4189370449846517 6.367456609420584 19.21707020261401 3 4 -4
810 1 1 0.5897 4.2482244267307685 3.907899916941672 20.315542045899882 6 -2 -1
792 1 1 0.5897 2.913890510775625 6.006579669668559 19.952702262470183 3 4 -4
744 1 1 0.5897 1.302802163608934 2.949784177205049 18.903495392272994 -4 0 3
743 1 1 0.5897 1.6472007227478391 4.33866106716195 19.39807134423618 -4 0 3
742 1 2 -1.1794 0.9068644212188126 3.7873972397436972 19.14431729738871 -4 0 3
199 1 2 -1.1794 3.264273767559995 6.148664887606597 16.552513570994137 2 0 -1
230 1 1 0.5897 4.223696308522973 4.6368221607551465 16.34320428202406 1 5 1
464 1 1 0.5897 3.6731152802505056 9.2085932944022 5.106964051447671 8 3 -2
829 1 2 -1.1794 1.1288052421664971 10.404377188337724 3.309607009173827 1 3 5
814 1 2 -1.1794 3.950688955197725 7.391295799086198 2.2023115511290188 -3 7 -5
463 1 2 -1.1794 3.7422785749388843 9.246919015034912 4.152970882994193 8 3 -2
831 1 1 0.5897 1.918009510345558 9.883794956019251 3.459634217718499 1 3 5
830 1 1 0.5897 0.8232430144137597 10.635316854040179 4.186911820623673 1 3 5
465 1 1 0.5897 4.511588920843321 9.792743563913616 3.989852256583739 8 3 -2
816 1 1 0.5897 3.636572130384382 7.999098893263195 2.8718421722345546 -3 7 -5
32 1 1 0.5897 3.46420257827938 8.634844229946587 0.9935466285607182 3 7 1
165 1 1 0.5897 0.6547192776427748 7.915339213364662 4.918799967210754 -3 1 -1
163 1 2 -1.1794 0.7505104084496423 8.472671246767051 5.691177491596565 -3 1 -1
33 1 1 0.5897 2.3139171947538566 9.572488769874152 0.6937237904157598 3 7 1
846 1 1 0.5897 3.2579831127636085 7.5191257852783 7.043938930961935 0 -1 5
392 1 1 0.5897 2.4756040731145523 10.471842289811685 9.452244194253403 2 -1 -3
285 1 1 0.5897 3.732924499326216 8.432335221674716 10.069374053619889 6 -1 -5
393 1 1 0.5897 1.2447973396725778 11.286387069967335 9.789634936761356 2 -1 -3
391 1 2 -1.1794 2.0349968120411113 11.29712490042078 9.249431695178162 2 -1 -3
844 1 2 -1.1794 3.1476474898642968 8.418725310598361 6.735883649321318 0 -1 5
751 1 2 -1.1794 4.069654762140313 6.788042515046451 9.723878349294639 2 1 -3
283 1 2 -1.1794 3.307259517346835 9.122106708205944 10.578681340903701 6 -1 -5
845 1 1 0.5897 2.2208761784674524 8.481178760084504 6.504414388558588 0 -1 5
357 1 1 0.5897 4.78311656823806 9.018082156582306 7.674233906252803 0 0 5
828 1 1 0.5897 2.485199800591725 11.765674290792552 7.463801829969949 2 3 1
683 1 1 0.5897 1.904065956708194 11.292110535939473 13.850531671930884 4 -3 -4
762 1 1 0.5897 0.6204722648965909 7.116493356300506 14.810724065919512 3 -4 -2
335 1 1 0.5897 2.4927848308603697 9.583726944038418 14.94252962627808 8 0 4
334 1 2 -1.1794 2.601548623020643 9.660656569552996 13.994563168407515 8 0 4
386 1 1 0.5897 4.416979880019567 9.34891154677091 13.364946307462258 -2 0 1
336 1 1 0.5897 1.9893928882167047 9.021289806337695 13.630094837355655 8 0 4
307 1 2 -1.1794 1.0979478432428926 8.251792948646692 11.91399124830772 -2 6 -2
308 1 1 0.5897 0.6362239787112888 9.053236298804695 12.160668809616052 -2 6 -2
284 1 1 0.5897 3.873977271780397 9.242209516891888 11.340754686430955 6 -1 -5
309 1 1 0.5897 1.8747456324700853 8.556964576715725 11.445146516449867 -2 6 -2
387 1 1 0.5897 4.606934643997718 8.008652047916202 12.68678237694797 -2 0 1
395 1 1 0.5897 0.6401469153197539 11.507678049423864 12.077758480594689 4 -1 4
655 1 2 -1.1794 4.407852176286307 9.195366253905151 18.889234797050847 -4 5 -2
217 1 2 -1.1794 1.1543593428931338 10.806741837747934 19.26807164054356 2 -1 -3
470 1 1 0.5897 3.265208824627132 9.096067180220084 17.475377420143623 4 -4 3
657 1 1 0.5897 3.862339312668514 9.085959198951667 19.66822713705742 -3 5 -2
469 1 2 -1.1794 2.6101586200436335 9.500789593591074 16.906634255679485 4 -4 3
471 1 1 0.5897 1.7703578749651 9.252537951693949 17.293266379160308 4 -4 3
614 1 1 0.5897 1.1925540941539263 7.578627615091116 18.757163499338013 -6 0 2
218 1 1 0.5897 1.1974465640138972 9.867548135912763 19.088031546666997 2 -1 -3
96 1 1 0.5897 3.0093022658356716 11.200671741507756 17.06719342721528 -4 2 -1
31 1 2 -1.1794 3.2624810888522418 9.483958141685033 21.448346681544194 3 7 0
106 1 2 -1.1794 4.26852265833049 13.462667182298407 1.3101501373293634 1 -3 3
598 1 2 -1.1794 2.5194702193080545 15.023134419422762 4.9288822329678315 0 -2 -4
212 1 1 0.5897 1.4914082277303242 12.31629614564853 2.910844677422579 3 1 4
211 1 2 -1.1794 1.5972203810430305 13.167553310694345 2.4859713334834943 3 1 4
600 1 1 0.5897 3.380450732086765 14.76673927330363 4.598218345489148 0 -2 -4
599 1 1 0.5897 1.9005577147348218 14.506505490061704 4.412731811741526 0 -2 -4
213 1 1 0.5897 2.522572330919663 13.201247343220103 2.243190014103683 3 1 4
690 1 1 0.5897 1.3501272424148225 16.791794608527802 3.053822662777693 4 -1 4
108 1 1 0.5897 4.402000953522047 14.409488024482647 1.2646870136494068 1 -3 3
732 1 1 0.5897 2.0242493829542827 15.813994385254885 0.8902526994388584 2 1 -2
255 1 1 0.5897 4.725475936899331 16.69636861561996 1.3991101721543036 5 5 -6
501 1 1 0.5897 1.1947164903984078 12.01130926965552 5.881596661242044 -1 -1 -3
183 1 1 0.5897 4.234022508989543 11.958643340290799 5.9740288954136105 -5 1 -1
827 1 1 0.5897 2.436533792137797 13.193545202950599 6.96277967206112 2 3 1
450 1 1 0.5897 2.9915908092980454 15.466031456961783 6.956569553319043 4 -3 -5
157 1 2 -1.1794 0.7295739379970583 14.48965592346964 7.4315787540288625 1 3 -1
509 1 1 0.5897 2.5405445135275313 12.6213933048907 10.342991051076023 5 -1 3
506 1 1 0.5897 3.0616864871586893 14.8682469795367 10.268088535516267 3 2 -2
826 1 2 -1.1794 2.6874618099933745 12.307594735652271 6.701068719266766 2 3 1
508 1 2 -1.1794 2.4603449979331353 13.355760228162703 10.951798149747875 5 -1 3
507 1 1 0.5897 3.748964238620877 15.774676332650508 9.26892215836589 3 2 -2
448 1 2 -1.1794 3.796891697934546 15.612100786100534 7.453076150434227 4 -3 -5
505 1 2 -1.1794 3.5402359351758066 15.694506653662637 10.199748203785886 3 2 -2
158 1 1 0.5897 0.6695884629985625 15.186567118363971 8.085107159855802 1 3 -1
449 1 1 0.5897 4.377390972968688 16.06470918791142 6.841064364936616 4 -3 -5
55 1 2 -1.1794 2.8746444402859206 14.602285579801192 13.656491577081287 -4 -2 3
847 1 2 -1.1794 4.7036333543612106 12.646980157561558 12.469504317986408 6 -2 5
510 1 1 0.5897 3.0662652072851433 13.14561358468362 11.662480575739265 5 -1 3
684 1 1 0.5897 1.9979206362326187 12.777490951089678 13.572986410024507 4 -3 -4
682 1 2 -1.1794 1.375097807121441 12.05125898475455 13.605076143937332 4 -3 -4
57 1 1 0.5897 2.427930165616325 15.399943123809617 13.372595693076155 -4 -2 3
74 1 1 0.5897 0.8126598245006524 13.88687190282831 11.49434208589676 2 2 2
530 1 1 0.5897 1.3171745851264394 13.89017181716711 15.391210076910017 -4 1 -5
56 1 1 0.5897 3.760711150622571 14.88922298716866 13.87775609092974 -4 -2 3
155 1 1 0.5897 2.689948852827236 16.761968486024024 11.69808016062148 6 2 -5
758 1 1 0.5897 2.1630192749177395 15.511150354584954 16.29765968577551 4 1 2
107 1 1 0.5897 3.8156503307164122 13.24473687406909 21.3435362144711 1 -3 2
759 1 1 0.5897 3.3766654471381985 15.795858176216923 17.15684836483181 4 1 2
94 1 2 -1.1794 3.3234846715595663 12.103572393307891 17.116365049483576 -4 2 -1
730 1 2 -1.1794 1.6053764084136966 15.533133739754668 20.92470926420762 2 1 -3
18 1 1 0.5897 1.2179339695544893 16.65916323303174 17.87486839266534 -2 2 0
757 1 2 -1.1794 2.6946344294137834 16.228434981553136 16.642978127099724 4 1 2
731 1 1 0.5897 2.0519752754876466 14.718583605187384 20.693606515320262 2 1 -3
518 1 1 0.5897 2.2645896984590164 12.386320888745656 19.64353093193315 1 -1 -5
517 1 2 -1.1794 2.811855108282927 13.14519412951168 19.845977806311325 1 -1 -5
95 1 1 0.5897 3.8758001133690754 12.20802931044508 16.34150808895764 -3 2 -1
519 1 1 0.5897 3.1107392032706556 13.459990132711775 18.992788039202523 1 -1 -5
531 1 1 0.5897 1.914844072532503 13.272096105038244 16.637396209524788 -4 1 -5
529 1 2 -1.1794 1.2885223921745748 13.9352223005226 16.346983388530965 -4 1 -5
488 1 1 0.5897 1.540920280297836 18.101337110829355 5.60994026956651 -1 -5 2
400 1 2 -1.1794 2.06687941071329 19.901863411802253 3.275748519585675 -2 -2 2
689 1 1 0.5897 2.3977699543932305 17.874598839099896 2.9048139127588666 4 -1 4
402 1 1 0.5897 1.1833719430734022 19.563952529494628 3.1288463687021104 -2 -2 2
269 1 1 0.5897 3.83508686651635 18.90056994539283 5.113928779368275 1 3 5
688 1 2 -1.1794 2.0247632940575846 17.115359113532826 2.4567246842116757 4 -1 4
483 1 1 0.5897 3.5541754078330308 21.540325207234424 1.2609439253226502 -1 2 0
301 1 2 -1.1794 1.760674384349762 20.907930374382445 5.726788700270596 -3 3 7
303 1 1 0.5897 1.97709055309512 20.486240407434387 4.895100738796372 -3 3 7
487 1 2 -1.1794 2.437294120926254 17.80614873050463 5.449536576972117 -1 -5 2
401 1 1 0.5897 2.1851580576804928 20.567240835574538 2.5977865386310226 -2 -2 2
481 1 2 -1.1794 4.235865404497484 20.878170015838897 1.146007653040508 -1 2 0
268 1 2 -1.1794 4.7471850826177615 19.169032955547813 5.225103737254489 1 3 5
489 1 1 0.5897 2.3400550749371916 16.914908425522434 5.11399364849854 -1 -5 2
302 1 1 0.5897 0.8099523233018584 21.016538955341083 5.700577933791964 -3 3 7
359 1 1 0.5897 2.0113874472840525 17.510044906425875 8.650639044282812 1 1 -3
281 1 1 0.5897 4.154196319410299 21.839209265999955 8.586119026648635 0 -4 1
717 1 1 0.5897 1.258995242345625 20.2491176574757 8.901331815871526 4 -7 -2
360 1 1 0.5897 2.517411975524296 18.22755133252764 7.417207468634109 1 1 -3
282 1 1 0.5897 2.9581519853059786 21.58722915636426 9.479546721697913 0 -4 1
184 1 2 -1.1794 4.590203038522867 19.10599258468916 9.819639209398037 -4 6 3
715 1 2 -1.1794 1.2445470239624048 21.125033491719762 9.287224954138779 4 -7 -2
358 1 2 -1.1794 2.277798389459749 18.37272482647218 8.332563697768219 1 1 -3
185 1 1 0.5897 3.7988565569457777 18.70625916164478 9.458594409305691 -4 6 3
280 1 2 -1.1794 3.8794697386902173 21.8460383826569 9.503092269469603 0 -4 1
186 1 1 0.5897 4.437734739702961 20.04824565457026 9.746970920649503 -4 6 3
203 1 1 0.5897 1.0111604817612863 20.67369678523491 11.085528644594133 -8 0 1
265 1 2 -1.1794 0.8947321931472001 18.778383663487304 15.641368201204081 -1 1 -1
147 1 1 0.5897 3.011849057116846 21.37257851381588 14.603045527044744 2 -1 -6
653 1 1 0.5897 4.331144939548658 18.0551210837543 14.420973678311135 -4 -3 -1
652 1 2 -1.1794 3.467861682573902 18.2396926296257 14.79116203580718 -4 -3 -1
654 1 1 0.5897 3.2951453152448593 17.502335400019597 15.376699932639315 -4 -3 -1
202 1 2 -1.1794 0.8439270728359811 20.995917968670987 11.971282459893143 -8 0 1
156 1 1 0.5897 2.902120252358766 17.43842407943989 13.035847755662905 6 2 -5
266 1 1 0.5897 1.822533532467781 18.67855684831452 15.427849791071827 -1 1 -1
440 1 1 0.5897 4.091732747916451 19.98365703298299 13.09044956828721 2 0 1
439 1 2 -1.1794 4.130052226194565 20.887867607163194 13.402376903347317 2 0 1
154 1 2 -1.1794 2.2368452082110535 16.99666880184722 12.508008275038483 6 2 -5
204 1 1 0.5897 1.6243108959943662 21.50396967519881 12.193181364093052 -8 0 1
642 1 1 0.5897 4.416221560439022 19.34153641975538 16.222910327861936 6 1 -2
801 1 1 0.5897 2.455117831191129 21.878448413004357 17.15247808374184 -1 -3 2
17 1 1 0.5897 0.8529427393671107 17.390700167844894 19.149167685638417 -2 2 0
800 1 1 0.5897 1.4756730638015276 21.304161423842096 18.154021775234618 -1 -3 2
482 1 1 0.5897 4.05672860034081 20.49592024455874 21.134950916664934 -1 2 -1
641 1 1 0.5897 4.413286715743753 19.41956162651214 17.734895580107292 6 1 -2
745 1 2 -1.1794 1.2020301982543735 18.54285938582955 20.458885787536836 6 2 -7
25 1 2 -1.1794 3.5817567810922206 19.889288384408133 19.609443771554957 -1 5 7
799 1 2 -1.1794 2.2636665102496107 21.843893064831526 18.089767586947396 -1 -3 2
27 1 1 0.5897 3.1936739889272676 20.66100132693679 19.196879814503518 -1 5 7
26 1 1 0.5897 2.8327166712623364 19.345954240327416 19.854566859975606 -1 5 7
747 1 1 0.5897 0.9312698085411483 19.334883529408337 20.923385775680416 6 2 -7
628 1 2 -1.1794 0.7564945998520516 21.09832729300313 21.500421122182928 -1 -4 4
746 1 1 0.5897 1.3958601016474057 17.9122637322225 21.152526357200998 6 2 -7
89 1 1 0.5897 0.5655550833114198 19.67545005775706 17.04149393511279 9 -2 3
19 1 2 -1.1794 5.832374739699994 6.285823894126023 4.934755685931293 -4 -2 3
638 1 1 0.5897 7.488569417358599 3.5367654378457636 4.456934350427561 -6 -1 5
205 1 2 -1.1794 5.724937515130357 4.889348328668444 2.0834948065454615 -6 4 -2
207 1 1 0.5897 6.3063984244008395 4.552885845524591 1.4015463346979018 -6 4 -2
639 1 1 0.5897 7.241600603361783 5.030093337324147 4.491349347132729 -6 -1 5
637 1 2 -1.1794 7.814176447926699 4.366155041104868 4.107015229193626 -6 -1 5
206 1 1 0.5897 6.249693069564323 4.857590760950772 2.883480139567653 -6 4 -2
21 1 1 0.5897 4.985589623812309 5.900103016779861 4.70993337287598 -4 -2 3
69 1 1 0.5897 6.953384706076357 1.8046265304212565 3.3183300008583534 4 0 -6
68 1 1 0.5897 5.6834257022046115 1.7884561352645192 4.142439002920074 4 0 -6
633 1 1 0.5897 8.837386755030847 5.896725895317921 3.978995315997037 3 2 5
260 1 1 0.5897 6.289886047198001 6.535266455689496 1.1345171909907008 1 -2 7
62 1 1 0.5897 5.500633044397549 2.8390496873023463 6.971107330509596 -2 0 5
572 1 1 0.5897 8.170528716565851 2.647018181495921 8.122614458463133 3 -2 -3
61 1 2 -1.1794 5.58259104826109 3.7821676567870637 7.113194924751104 -2 0 5
573 1 1 0.5897 7.9541125686608405 3.880462865457413 8.973477315043482 3 -2 -3
555 1 1 0.5897 7.081701133531263 3.5069519666093996 10.74911662839906 -5 -5 5
63 1 1 0.5897 6.481351838146925 3.901359103783203 7.4204209040528015 -2 0 5
553 1 2 -1.1794 7.71311020236562 4.226118701467134 10.727299042248422 -5 -5 5
779 1 1 0.5897 8.695963057476794 4.976870827299322 7.191729228439663 -4 0 -2
504 1 1 0.5897 5.1418468012874685 2.1813090724369397 10.901187772760583 -6 -2 3
571 1 2 -1.1794 8.053786307181564 3.5953920315319574 8.065100398743926 3 -2 -3
778 1 2 -1.1794 8.82417448700108 5.793446465232435 6.708905040947285 -4 0 -2
780 1 1 0.5897 8.86776610474545 6.468463463755285 7.386293998717681 -4 0 -2
235 1 2 -1.1794 6.434539602420099 6.6292926048520675 10.910075271031223 0 -3 -4
236 1 1 0.5897 6.612418597974751 5.704759368214924 10.736974605618446 0 -3 -4
675 1 1 0.5897 5.864048543195788 6.732613961790141 6.689975933793292 -3 0 -4
237 1 1 0.5897 5.526780676467579 6.75493783383581 10.633419088824441 0 -3 -4
503 1 1 0.5897 5.904802742427991 2.675336521558604 12.112026606689986 -6 -2 3
129 1 1 0.5897 5.2141398865872715 5.152328800495531 13.27706098497107 -1 1 -6
554 1 1 0.5897 8.386290702965514 3.9737160907315197 11.359335915418761 -5 -5 5
128 1 1 0.5897 5.404052286724724 4.1954511789223625 14.434889506346265 -1 1 -6
569 1 1 0.5897 7.994808840641212 5.971841673660966 13.59455529627002 2 0 -1
113 1 1 0.5897 7.012015544369194 2.1120239956111444 14.912288681215482 -3 -3 1
127 1 2 -1.1794 5.707035331124494 4.376717530817959 13.545109220697077 -1 1 -6
228 1 1 0.5897 8.987909147283114 4.5899792042733765 15.47491759384998 2 -2 3
502 1 2 -1.1794 5.997910352317428 2.1352755975201 11.327150251273272 -6 -2 3
426 1 1 0.5897 6.299828872394677 6.462823109926593 14.730606789857909 8 -4 1
547 1 2 -1.1794 8.962988234044245 3.0604585502032804 13.07777970768266 4 2 4
432 1 1 0.5897 7.532862194472863 3.8931020495592548 17.088631506439206 -6 1 0
475 1 2 -1.1794 5.340900279751691 3.2832887634846113 18.83574850707617 2 -1 -4
477 1 1 0.5897 6.021913882291631 3.7532588247656484 19.31715107479704 2 -1 -4
823 1 2 -1.1794 7.256193593878194 4.090855651155069 20.76138603850429 -2 3 4
430 1 2 -1.1794 7.970252528871997 3.4650808775622397 16.35252910299296 -6 1 0
825 1 1 0.5897 8.027228589577295 4.644177136029434 20.635949744778593 -2 3 4
838 1 2 -1.1794 6.718505105587752 5.6104078630330925 17.598273815857844 -2 -2 -5
431 1 1 0.5897 8.336309893729933 2.662608895260413 16.724552481244892 -6 1 0
824 1 1 0.5897 7.569884738202539 3.3589339176910373 21.29265261971154 -2 3 4
839 1 1 0.5897 6.084203842139488 5.923091571402092 18.24344574044153 -2 -2 -5
840 1 1 0.5897 6.387203135635285 5.933009378301536 16.760110586715896 -2 -2 -5
476 1 1 0.5897 5.23627957483651 3.77839525504618 18.023171464809487 2 -1 -4
141 1 1 0.5897 8.706429287330115 5.82850595042014 18.68484175342123 0 -1 -2
777 1 1 0.5897 7.60020253835597 7.978953627463578 4.132871275281971 5 -4 1
261 1 1 0.5897 6.33668461149918 8.04744279427786 1.076023062847309 1 -2 7
168 1 1 0.5897 5.831849415524874 10.500359101457265 1.918701601511404 0 1 6
92 1 1 0.5897 8.43586740040359 9.505104862340275 2.9956460497574717 1 -7 4
818 1 1 0.5897 8.638680755848457 7.040081745094053 0.7736244337269935 5 -1 0
775 1 2 -1.1794 7.040428211630965 8.754147237505329 4.0870277965002035 5 -4 1
20 1 1 0.5897 5.78769855935192 7.178826011734188 4.592847719392193 -4 -2 2
776 1 1 0.5897 6.917717115559719 9.01588421224504 4.999611780818812 5 -4 1
166 1 2 -1.1794 5.856293229285463 10.153530145709047 1.026796229933207 0 1 6
259 1 2 -1.1794 6.821627909913914 7.264400415959811 0.8151388384765865 1 -2 7
28 1 2 -1.1794 5.6588787941786745 11.710461842145014 3.2542526476317954 -7 1 6
182 1 1 0.5897 5.414113987085166 11.799344003772008 5.039042068412396 -4 1 -1
167 1 1 0.5897 4.943292984033989 10.165989486390178 0.7393114298418764 0 1 6
93 1 1 0.5897 8.969343272325116 10.000252988119655 1.668083199554581 1 -7 4
763 1 2 -1.1794 7.646905957009505 9.463603021081816 6.725341775177959 -4 -1 -3
674 1 1 0.5897 6.834556280789035 7.395961536423388 7.644058715217276 -3 0 -4
210 1 1 0.5897 7.728014961472361 6.8395910177445005 9.592178119028851 0 -2 3
764 1 1 0.5897 6.863502778093743 9.492792479186773 7.274691437364536 -4 -1 -3
48 1 1 0.5897 5.30145156158081 10.720289614954972 9.602619429912428 4 -1 -1
208 1 2 -1.1794 8.476282116631946 7.1906376207712706 9.10919764576387 0 -2 3
673 1 2 -1.1794 5.952037822924393 7.028234844949234 7.596185755258263 -3 0 -4
209 1 1 0.5897 8.577493686947916 8.083474490264646 9.439307083100015 0 -2 3
765 1 1 0.5897 7.825493547316457 10.379815238459237 6.513088592490637 -4 -1 -3
46 1 2 -1.1794 5.768564945667157 11.415959252789436 10.065442595821825 4 -1 -1
685 1 2 -1.1794 9.093091274578297 9.488568264551468 10.39416888902984 6 -6 -4
356 1 1 0.5897 5.101070983364758 10.487171231590779 7.49289643313554 0 0 5
355 1 2 -1.1794 5.289104206381699 9.735760757243 8.055372683824853 0 0 5
181 1 2 -1.1794 5.111426824516883 11.579674340912499 5.920222559678572 -5 1 -1
687 1 1 0.5897 8.5418929292257 9.543479044266126 11.174885863441194 6 -6 -4
424 1 2 -1.1794 5.705955313720571 6.810333064510842 15.396132781479473 8 -3 1
304 1 2 -1.1794 5.144409232143273 11.597469820365829 15.056917529814909 6 -3 -5
607 1 2 -1.1794 7.203889959254164 10.472081344187304 12.291956869046343 7 2 0
609 1 1 0.5897 6.7817168352207995 10.802084857932138 11.498723583244596 7 2 0
324 1 1 0.5897 5.977886427074585 9.727870140408351 16.099864292645975 5 -4 -1
242 1 1 0.5897 8.491397575553908 10.52244174074866 13.665372163542846 3 -4 3
385 1 2 -1.1794 4.921691920430827 8.912657215328139 12.678408268639828 -2 0 1
608 1 1 0.5897 6.614520040264377 9.788492203851625 12.610869110246375 7 2 0
241 1 2 -1.1794 8.713578477177506 10.334776936499972 14.577385716524988 3 -4 3
425 1 1 0.5897 6.077644893121533 7.661285513938326 15.628677741099095 8 -3 1
323 1 1 0.5897 7.453204169041063 9.58089021776047 15.793098383657153 5 -4 -1
568 1 2 -1.1794 7.6231419063041255 6.847381773371347 13.486642635437812 2 0 -1
570 1 1 0.5897 7.264970220045787 6.848326712223105 12.598914749147168 2 0 -1
734 1 1 0.5897 8.386577987419624 8.92168749890121 19.308002907840503 -1 -2 -5
397 1 2 -1.1794 5.562499031080231 11.580512237152414 19.029980279715936 2 5 -4
416 1 1 0.5897 6.014133843823163 7.013764105668355 20.090754809923347 -4 0 0
373 1 2 -1.1794 8.391038332649824 10.357458230289753 20.76491654787936 0 5 -2
735 1 1 0.5897 7.65169559295623 8.504777829543475 18.05168842006681 -1 -2 -5
375 1 1 0.5897 7.485640558071905 10.38097346343227 21.074853062870503 0 5 -2
733 1 2 -1.1794 8.252924685062196 8.177543309370506 18.720859743339602 -1 -2 -5
374 1 1 0.5897 8.442405561655255 11.0631515824253 20.120159018263124 0 5 -2
417 1 1 0.5897 4.9836792904187295 7.712228133377004 19.2290587377913 -4 0 0
340 1 2 -1.1794 8.156981575145874 11.427821477170868 18.21384588162553 3 3 2
342 1 1 0.5897 7.212461348309381 11.281216304176658 18.161512936023186 3 3 2
322 1 2 -1.1794 6.768406090477828 9.269562367854025 16.385159712110998 5 -4 -1
656 1 1 0.5897 4.863079962937252 10.02567991170886 19.029680090198028 -4 5 -2
415 1 2 -1.1794 5.3258245696659365 6.8452170096093425 19.447187435278295 -4 0 0
680 1 1 0.5897 6.848095051014827 15.92895839045102 2.000806615331324 -9 -6 0
767 1 1 0.5897 5.442187265339398 15.341723950927422 5.3669807585961715 -2 -2 -1
766 1 2 -1.1794 5.290722379548117 14.841219398061886 4.565160943427966 -2 -2 -1
602 1 1 0.5897 8.582680159550755 13.459545729614963 5.340181157620941 1 3 -2
724 1 2 -1.1794 8.216687363957808 12.602192389227893 2.6727619792997026 3 -5 2
679 1 2 -1.1794 7.399066199807766 15.868160283124283 2.7812611941939434 -9 -6 0
768 1 1 0.5897 6.0318012178030385 15.061969282436356 4.000841786149206 -2 -2 -1
671 1 1 0.5897 8.643066386811789 15.99602496604412 1.4438422595080493 8 2 1
725 1 1 0.5897 8.673293518034535 13.191812377428457 3.27293728325269 3 -5 2
681 1 1 0.5897 7.738801597591348 16.754556082989893 2.90482326549795 -9 -6 0
30 1 1 0.5897 5.203131108509665 12.3865599589237 2.7526955672595994 -7 1 6
369 1 1 0.5897 7.309982644933814 12.921403072309225 1.054032332455538 6 4 -2
29 1 1 0.5897 6.587821658673061 11.881543652916339 3.09879149794999 -7 1 6
726 1 1 0.5897 8.80626187136467 11.854226493320256 2.576234469096828 3 -5 2
253 1 2 -1.1794 5.18776259513255 16.0534269709122 0.8612345921258068 5 5 -6
860 1 1 0.5897 8.679979209779724 15.513628853480203 5.7373859132954115 -3 -2 2
368 1 1 0.5897 5.88935333065876 13.347341417883992 0.7496892813129605 6 4 -1
859 1 2 -1.1794 8.664169742537583 16.235830232846098 6.365500378442983 -3 -2 2
170 1 1 0.5897 6.7836602690330485 15.089869365548914 8.800974789761591 -3 4 -2
445 1 2 -1.1794 5.737308254010401 13.29480871155257 7.89641459050609 1 -1 -4
169 1 2 -1.1794 7.276499806960663 15.608723779174646 9.436793761147882 -3 4 -2
171 1 1 0.5897 7.896111460856059 14.989655972022382 9.823053805618812 -3 4 -2
47 1 1 0.5897 5.940612866444932 12.07692984927719 9.394705100016445 4 -1 -1
447 1 1 0.5897 5.743494501595669 12.737453180803135 7.118162652732747 2 -1 -4
606 1 1 0.5897 8.661492633208947 11.938538094895376 7.4342347839407035 -5 -2 -1
446 1 1 0.5897 5.00982220664303 13.900088676631828 7.752357431505747 1 -1 -4
833 1 1 0.5897 8.989176595373664 12.42045940152149 9.639630974118644 4 -2 2
604 1 2 -1.1794 8.158100383764431 12.176880309978525 6.655677987294003 -5 -2 -1
605 1 1 0.5897 7.501037240924917 12.795566018058507 6.974817997449875 -5 -2 -1
538 1 2 -1.1794 8.667590259846534 13.746654283006249 10.787296026697865 0 -3 0
382 1 2 -1.1794 7.685417872124575 13.342427714549087 13.340390936739723 -8 -3 -1
849 1 1 0.5897 5.11731299926742 13.51024095596631 12.463836428092826 6 -2 5
79 1 2 -1.1794 5.359042834143886 15.539771007991838 14.452468810424005 1 1 -4
848 1 1 0.5897 5.069453296399186 12.20053012648937 11.70579110495044 6 -2 5
80 1 1 0.5897 5.937210651525929 16.187181212246493 14.856126245212014 1 1 -4
383 1 1 0.5897 7.407278860606583 12.46328010625265 13.083278093970621 -8 -3 -1
306 1 1 0.5897 5.531920123840745 12.384757845707686 15.439493794837896 6 -3 -5
81 1 1 0.5897 5.528009392860042 15.61938076434023 13.51359800504035 1 1 -4
191 1 1 0.5897 5.996381248148827 14.211966503442678 15.594750880253342 6 5 -5
305 1 1 0.5897 4.994944194373471 11.825163136349328 14.139220414139318 6 -3 -5
109 1 2 -1.1794 5.634778230968349 15.426554597592883 11.825309430524959 -1 -1 -6
540 1 1 0.5897 8.213560306644137 13.668420031376936 11.626393689992458 0 -3 0
384 1 1 0.5897 8.396893559334163 13.196300265845377 13.963930801948262 -8 -3 -1
344 1 1 0.5897 8.91848279499186 15.900505374530352 14.532227344471137 -2 1 -1
111 1 1 0.5897 4.909743147431066 15.577391665852835 11.218720363021147 -1 -1 -6
110 1 1 0.5897 6.401909096934195 15.780382578460916 11.375122488260471 -1 -1 -6
319 1 2 -1.1794 4.859725708773065 15.024206204834808 18.361922172621163 0 -2 0
215 1 1 0.5897 7.596168963568346 13.891802857130555 19.593921950038933 -2 1 2
771 1 1 0.5897 8.526242695562278 15.255820599837094 17.541035631619458 0 -1 -2
341 1 1 0.5897 8.247635191666792 12.375665793564979 18.312475479751534 3 3 2
367 1 2 -1.1794 6.758404016638795 13.273215181934699 21.203314697120412 6 4 -2
321 1 1 0.5897 5.413065386251533 15.750226042714727 18.650142065690765 0 -2 0
769 1 2 -1.1794 8.696235399942784 15.792386835305932 16.76672234571381 0 -1 -2
398 1 1 0.5897 4.92588154950841 11.927184004345104 18.40476293863405 2 5 -4
214 1 2 -1.1794 8.2025723987842 14.091448477213756 18.8806263528383 -2 1 2
320 1 1 0.5897 5.419490592533562 14.513275050168943 17.777136538342326 0 -2 0
254 1 1 0.5897 5.356795652805772 16.508061357368003 20.884056892733298 5 5 -7
399 1 1 0.5897 5.761795935057242 12.319839315396496 19.604464825528524 2 5 -4
216 1 1 0.5897 9.007963090258905 14.365019591116797 19.319792505744317 -2 1 2
192 1 1 0.5897 7.202632375788719 13.777500944093962 16.39998629363911 6 5 -5
190 1 2 -1.1794 6.246157970228392 13.7401642622046 16.389340156842657 6 5 -5
116 1 1 0.5897 8.485582439203387 19.028773079725617 4.047746100462204 -4 -3 4
238 1 2 -1.1794 5.330558487772984 18.666255604772267 2.3656632455414943 -7 -5 1
115 1 2 -1.1794 8.051247872453532 18.514016093378352 3.3675043838456125 -4 -3 4
117 1 1 0.5897 8.587757360695385 18.64766494973167 2.5860659235651675 -4 -3 4
407 1 1 0.5897 7.696451735420635 20.71458132305115 5.125848262940307 -4 -2 3
276 1 1 0.5897 7.689121300462774 21.24450097451598 1.1017757781065214 -3 2 0
406 1 2 -1.1794 8.52861015984788 20.441710475849426 5.512434472470061 -4 -2 3
275 1 1 0.5897 6.2463272016467 21.695173177788092 1.187973286107945 -3 2 0
239 1 1 0.5897 6.277489046528793 18.80564730351196 2.381687185859252 -7 -5 1
527 1 1 0.5897 5.496850099107531 17.620357509226153 5.814264524426961 -3 -4 -1
274 1 2 -1.1794 7.111066142952238 21.84757848632111 1.5692201355494464 -3 2 0