LAMMPS data file via write_data, version 30 Jul 2021, timestep = 9000000

1920 atoms
2 atom types
1280 bonds
1 bond types
640 angles
1 angle types

-0.0753461908861901 24.805347190876063 xlo xhi
-0.12422016109537459 24.85422116109573 ylo yhi
-0.06306454772526848 22.873064547724084 zlo zhi

Masses

1 1.008
2 15.999

Pair Coeffs # lj/cut/tip4p/long/omp

1 0 0
2 0.21084 3.1668

Bond Coeffs # harmonic/omp

1 450 0.9572

Angle Coeffs # harmonic/omp

1 55 104.52

Atoms # full

1 1 2 -1.1794 4.518270691458398 1.3680596160470277 4.268909459625168 0 0 0
2 1 1 0.5897 4.576175301972747 1.958267483698878 5.020241792160605 0 0 0
3 1 1 0.5897 5.299944689163893 1.5610721689210862 3.751318655993009 0 0 0
4 2 2 -1.1794 2.7801259922697286 1.4022839770839126 1.8993652166599435 0 0 0
5 2 1 0.5897 3.201060974153377 1.3386097922278226 2.756652168243645 0 0 0
6 2 1 0.5897 1.8426366639775351 1.4098303562399512 2.0923100796605905 0 0 0
10 4 2 -1.1794 3.2857363288674666 4.57647006758155 3.383954431639856 0 0 0
11 4 1 0.5897 2.834105465016992 5.3320809715100825 3.7598272032910085 0 0 0
12 4 1 0.5897 2.879214730251778 4.456386481331673 2.525757101599845 0 0 0
14 5 1 0.5897 2.0932750578889516 3.3374281847739273 4.362785485734181 0 0 0
22 8 2 -1.1794 1.5161602573155066 4.426218566293574 1.2760233373051555 0 0 0
24 8 1 0.5897 1.4002170659345397 5.2234517758447145 0.759123012494409 0 0 0
13 5 2 -1.1794 1.2783185254204794 3.0586676266622317 4.780279841183344 0 0 0
15 5 1 0.5897 1.3942925005716869 2.1204722428409193 4.930454088682921 0 0 0
9 3 1 0.5897 5.035426827066927 4.479177112099011 3.5590464995895315 0 0 0
23 8 1 0.5897 0.7084680167034128 4.349947934630178 1.7839515395700676 0 0 0
21 7 1 0.5897 5.085153471158429 2.6143766649191744 1.1701829676066604 0 0 0
19 7 2 -1.1794 4.425839061578668 3.1065321597374247 0.6810347773449137 0 0 0
20 7 1 0.5897 3.593476190006919 2.7036422085978162 0.928050216751721 0 0 0
27 9 1 0.5897 4.717821338525966 4.990485899980259 0.7471951367386007 0 0 0
25 9 2 -1.1794 4.5701739787746956 5.936081694850438 0.7309220887762705 0 0 0
28 10 2 -1.1794 1.3967093542155247 0.16549489058267047 4.944905971547675 0 0 0
16 6 2 -1.1794 -0.0350703117284227 1.2586986560769102 2.101210859673514 0 0 0
7 3 2 -1.1794 5.975666785458386 4.473619828854694 3.3799437014748412 0 0 0
387 129 1 0.5897 3.9177256411589085 0.062409735677967454 1.2113250010201042 0 1 0
99 33 1 0.5897 0.10785609083482345 3.880398859400092 3.5949463157461063 1 0 0
98 33 1 0.5897 0.029357891600501757 5.391475939292839 3.5464068388591743 1 0 0
150 50 1 0.5897 1.8602356461106717 6.078450266148523 5.637771908151636 0 0 0
867 289 1 0.5897 4.518476405296376 0.11112661404264954 5.750274151067083 0 1 0
579 193 1 0.5897 -0.008890836109170408 5.478642375156441 9.391780779746428 1 0 0
489 163 1 0.5897 6.133594671789426 5.058964361616028 9.956376969039775 0 0 0
505 169 2 -1.1794 4.7026153058442715 5.80874421301207 6.4104490206021465 0 0 0
578 193 1 0.5897 0.27048336029082876 4.062317237735418 9.847651660820326 1 0 0
629 210 1 0.5897 2.3031193533239116 5.908493108027865 10.00824386940322 0 0 0
528 176 1 0.5897 5.585419394382827 2.363804830724216 7.45803239164625 0 0 0
493 165 2 -1.1794 1.5127511201865529 2.9479404703169716 10.72163217929545 0 0 0
487 163 2 -1.1794 5.9662474423232155 4.645985813119133 9.10923925589099 0 0 0
499 167 2 -1.1794 4.363270560516504 3.189331640001688 6.331410077626321 0 0 0
508 170 2 -1.1794 1.1212904402722808 0.007205407757407106 10.432061096746772 0 0 0
491 164 1 0.5897 2.858811572686316 4.762693482451945 8.441913299856093 0 0 0
481 161 2 -1.1794 4.5848318022956125 1.1886061296986628 10.278270977641741 0 0 0
500 167 1 0.5897 3.518195624104392 3.1123589670416725 6.7742235379092595 0 0 0
502 168 2 -1.1794 1.5337328303664526 4.706107528875417 7.034673714650805 0 0 0
498 166 1 0.5897 0.9360090684784348 1.4363349283459719 7.739788651392503 0 0 0
488 163 1 0.5897 5.012060809047192 4.601935607142573 9.048055202898265 0 0 0
486 162 1 0.5897 3.4598235358030394 0.7767582166594716 7.561318229219219 0 0 0
485 162 1 0.5897 3.144526895573772 1.5505092141893422 8.823738299276469 0 0 0
490 164 2 -1.1794 3.3130139829114262 4.492653242630355 9.240011315027399 0 0 0
492 164 1 0.5897 2.7865852653866736 3.7706198911701287 9.583136468236297 0 0 0
526 176 2 -1.1794 6.023121110252419 1.6104282035329496 7.8543139216043185 0 0 0
483 161 1 0.5897 4.68060440378371 2.1408835877959618 10.29276859865878 0 0 0
501 167 1 0.5897 4.4711063610879025 4.128577758472567 6.181739948851159 0 0 0
494 165 1 0.5897 1.2380131730908057 2.0310437880393284 10.71622708759732 0 0 0
503 168 1 0.5897 0.8419713577458239 4.485125647817061 7.65821504936832 0 0 0
484 162 2 -1.1794 2.833594526247319 1.3989977885011957 7.9312415465985415 0 0 0
504 168 1 0.5897 1.3743290184081554 4.131614172954845 6.285843929663389 0 0 0
482 161 1 0.5897 4.982587472738968 0.9199873267400249 9.450128708986309 0 0 0
527 176 1 0.5897 5.775672947512106 0.8702417758107003 7.300149193741796 0 0 0
496 166 2 -1.1794 -0.015991696720380588 1.3950011708204133 7.649561409722834 0 0 0
961 321 2 -1.1794 4.568355369219676 1.9024815602632161 15.882687030625071 0 0 0
962 321 1 0.5897 5.074526729077053 1.6817279349398968 15.10087054504308 0 0 0
963 321 1 0.5897 4.559068029479189 1.0960212641181197 16.398188817380422 0 0 0
964 322 2 -1.1794 2.8223353869000243 1.7109258425950606 13.492195306715702 0 0 0
965 322 1 0.5897 3.2388677870350437 1.8683314651644056 14.339490676806646 0 0 0
966 322 1 0.5897 1.9844535491314739 1.302104856211269 13.708956082836782 0 0 0
970 324 2 -1.1794 3.289435808808952 4.690810473410316 14.871280507157008 0 0 0
971 324 1 0.5897 4.239906485780353 4.628314489667889 14.965371726324433 0 0 0
972 324 1 0.5897 2.9520677031303055 3.9185382588278292 15.325131439919414 0 0 0
975 325 1 0.5897 0.923373026460251 3.171270460403374 15.992948452653923 0 0 0
982 328 2 -1.1794 1.4944139284493467 4.574687733532418 12.889016349664143 0 0 0
984 328 1 0.5897 2.1428434507152825 4.78047201471868 13.562340847088654 0 0 0
973 325 2 -1.1794 1.6656027824338793 2.82791650618807 16.49031567879704 0 0 0
983 328 1 0.5897 1.7407500697641773 5.121976441869359 12.14337007127619 0 0 0
990 330 1 0.5897 1.565924802926603 0.971208905124006 16.033209233324 0 0 0
980 327 1 0.5897 3.5777258238824934 3.0690041035832585 12.126994561656128 0 0 0
979 327 2 -1.1794 4.40911132379937 3.496473648213892 11.921477729489006 0 0 0
987 329 1 0.5897 4.711671432450982 5.148696496106974 12.192739570216121 0 0 0
981 327 1 0.5897 5.0648559488727 2.9875584785684657 12.398116950970621 0 0 0
495 165 1 0.5897 1.3915521931364625 3.229444256433307 11.628415358815086 0 0 0
967 323 2 -1.1794 5.968396425170129 4.6156937274091385 15.16194251634611 0 0 0
1006 336 2 -1.1794 6.100981509707599 1.6608018389720072 13.455100885400718 0 0 0
1058 353 1 0.5897 0.009623850773929299 4.329967586516192 14.063414529155068 1 0 0
1109 370 1 0.5897 0.6686171303901485 5.770602059395858 15.72232729324069 0 0 0
976 326 2 -1.1794 0.19182035442099965 1.3058945161120057 13.384673743090888 0 0 0
1110 370 1 0.5897 2.1822769577872183 5.748105059611782 15.717725037380555 0 0 0
1346 449 1 0.5897 3.740296686173409 0.2143631667884403 12.890069224922295 0 1 0
988 330 2 -1.1794 1.4086087884774556 0.03331302985280399 16.141921612244218 0 0 0
1347 449 1 0.5897 4.53009274406504 0.09321445449620364 11.604260043688821 0 1 0
1008 336 1 0.5897 5.691521831755743 0.9167679486456699 13.013564148320127 0 0 0
985 329 2 -1.1794 4.742879638244171 6.098635608425577 12.306134326115135 0 0 0
989 330 1 0.5897 1.3996306328485568 -0.1002505465438901 17.089701829130732 0 0 0
1456 486 2 -1.1794 0.34908156104403704 1.2333421168227188 19.17818131995669 0 0 0
1447 483 2 -1.1794 5.878573692521206 4.448913778666838 20.628111262446385 0 0 0
1455 485 1 0.5897 1.3253213639606143 2.938014186443226 22.71869854777078 0 0 0
1450 484 2 -1.1794 2.960814113669969 4.701581383165329 20.80199652708342 0 0 0
1451 484 1 0.5897 3.883865946237228 4.699671190622947 20.54876741056722 0 0 0
1826 609 1 0.5897 4.098872885319023 -0.03530848119361167 18.557940962306777 0 1 0
1460 487 1 0.5897 4.439365712198625 3.0044105639743672 17.26088896422277 0 0 0
974 325 1 0.5897 1.6635604704570508 3.3326307050800232 17.30361539562489 0 0 0
1465 489 2 -1.1794 4.510218027418019 5.996930076421824 18.073881369339144 0 0 0
1452 484 1 0.5897 2.496736016842052 4.9876691584727695 20.01525145795564 0 0 0
1457 486 1 0.5897 0.0023647092925879326 1.4958891341358675 20.03084846995967 0 0 0
1461 487 1 0.5897 5.347712120740734 2.8506423707940654 18.46214524944292 0 0 0
1464 488 1 0.5897 0.5773269988078815 4.683049402552533 19.08142235141797 0 0 0
1463 488 1 0.5897 1.4505525735700426 5.328891083974571 18.026845749649503 0 0 0
1462 488 2 -1.1794 1.440222933797467 4.621679071999119 18.671786113996827 0 0 0
1538 513 1 0.5897 0.04489830468071432 3.7889804605916035 20.93628954223923 1 0 0
1441 481 2 -1.1794 5.167889746537533 1.3591615850428704 21.6134764374543 0 0 0
1445 482 1 0.5897 2.2682716618145506 1.4003594674488153 19.47636660215395 0 0 0
1469 490 1 0.5897 1.1432708206752102 0.9310363085175613 21.72640669784768 0 0 0
1442 481 1 0.5897 4.464858648048773 1.374411765371197 20.964105932150115 0 0 0
1443 481 1 0.5897 5.039281598516763 2.157783483152511 22.125206316496037 0 0 0
1459 487 2 -1.1794 4.594811827201488 3.3468646926019905 18.141089513706476 0 0 0
1444 482 2 -1.1794 3.216534835766277 1.390276363692254 19.60617488896852 0 0 0
1466 489 1 0.5897 4.5982244403904815 5.04922306362492 17.9722641542512 0 0 0
1446 482 1 0.5897 3.522221123105168 2.2042051123962874 19.20582387225171 0 0 0
1454 485 1 0.5897 1.9209904238207278 3.2154377291750627 21.35488543188465 0 0 0
1453 485 2 -1.1794 1.236332212623174 2.71024070115875 21.793285806198273 0 0 0
1468 490 2 -1.1794 1.4704896013170787 0.03371100840763222 21.789194305830105 0 0 0
1488 496 1 0.5897 6.142714696889044 0.8977037443180276 18.9135571618797 0 0 0
1539 513 1 0.5897 0.0006233312394385848 5.294245851458896 21.09144655136268 1 0 0
386 129 1 0.5897 4.6909597544085475 0.01744109157711432 22.846743772474277 0 1 -1
121 41 2 -1.1794 4.609002004312804 7.505748695597582 4.39712948612428 0 0 0
122 41 1 0.5897 3.8965748823653317 7.351066204272459 3.7768873859104706 0 0 0
124 42 2 -1.1794 2.907494415858914 7.6377238127978275 1.8967404465647382 0 0 0
126 42 1 0.5897 3.2126983898076045 8.478083156063553 1.5548956453517768 0 0 0
130 44 2 -1.1794 3.329540711964062 10.718172705293815 3.7896277003200973 0 0 0
133 45 2 -1.1794 1.3906610411504272 9.071328326228093 4.9735867079705685 0 0 0
137 46 1 0.5897 1.10188233048721 7.601667000772353 1.8493196590462748 0 0 0
142 48 2 -1.1794 1.722426195946656 10.808409350896346 1.3856377340279784 0 0 0
143 48 1 0.5897 2.221191636163961 10.919945131334307 2.1949404992166337 0 0 0
149 50 1 0.5897 1.568755430859988 7.280795526274723 4.765280652187156 0 0 0
139 47 2 -1.1794 4.60673004244961 9.51475675103104 0.5943831790679964 0 0 0
123 41 1 0.5897 5.37545601335526 7.666868464209146 3.8468966101251745 0 0 0
131 44 1 0.5897 2.7593502715659235 10.000935786546178 4.066478728218597 0 0 0
144 48 1 0.5897 1.7369322345257454 11.672350359319378 0.973804778361276 0 0 0
129 43 1 0.5897 5.2273410041550665 10.790007786951664 3.5659735873858933 0 0 0
135 45 1 0.5897 0.6123759884022606 9.460314969346678 4.5746744870609835 0 0 0
132 44 1 0.5897 3.094043770396888 11.447180350909724 4.363465856743417 0 0 0
125 42 1 0.5897 3.4477861504844927 6.986267184123512 1.449663714737294 0 0 0
140 47 1 0.5897 4.768318083164609 10.442205854241097 0.42135226127529735 0 0 0
145 49 2 -1.1794 4.526665912272744 12.243135572889363 0.4038543321759121 0 0 0
136 46 2 -1.1794 0.14901536658672848 7.620048844939418 1.760674219398965 0 0 0
26 9 1 0.5897 5.299145577841988 6.301468122151189 1.2321859476750927 0 0 0
270 90 1 0.5897 0.967299936132004 12.082099547805576 4.791186303077485 0 0 0
168 56 1 0.5897 5.805643095520186 8.356238908530393 1.4824591419371815 0 0 0
218 73 1 0.5897 0.2820102933018968 10.822600587256664 2.7180518537749303 1 0 0
148 50 2 -1.1794 1.6869513679525892 6.331542730951168 4.731071960940986 0 0 0
138 46 1 0.5897 -0.07004366061824285 6.783302514573505 1.3507017856200136 0 0 0
146 49 1 0.5897 5.329937032651504 12.357337345667384 0.911675157952279 0 0 0
1575 525 1 0.5897 1.7519795019692925 9.652110284778024 -0.03152977610930563 0 0 1
610 204 2 -1.1794 3.1484867948065545 10.700869609843627 9.05060776439361 0 0 0
616 206 2 -1.1794 0.18871157382900833 7.678582914468324 7.617020193768748 0 0 0
507 169 1 0.5897 4.859322937867682 6.407943179882707 5.680651806314892 0 0 0
606 202 1 0.5897 2.0167711865413462 7.578008210381019 7.647904849498833 0 0 0
134 45 1 0.5897 1.41608380910402 9.438036267930174 5.857373896947548 0 0 0
647 216 1 0.5897 5.958976547145374 7.632146302920018 8.607531479871238 0 0 0
506 169 1 0.5897 3.979274910846337 6.205590593256435 6.895693496613567 0 0 0
628 210 2 -1.1794 1.7048594269188055 6.164907776442063 10.710035097519626 0 0 0
607 203 2 -1.1794 5.842379284966356 10.862547601744353 9.290091778622322 0 0 0
625 209 2 -1.1794 4.620360006859091 12.133989239096644 6.46972935256473 0 0 0
601 201 2 -1.1794 4.556664585502931 7.787005811989953 9.979082823945243 0 0 0
615 205 1 0.5897 0.6988151500452952 9.420704193009572 10.282788540171653 0 0 0
619 207 2 -1.1794 4.511024408659928 9.424438254404572 6.695924361225563 0 0 0
621 207 1 0.5897 4.359964434820975 8.998217511808711 5.8522962965727405 0 0 0
602 201 1 0.5897 4.692544457969746 7.196449745613521 10.720012436180888 0 0 0
604 202 2 -1.1794 2.9335285939999776 7.3132877601973165 7.7229771958707385 0 0 0
623 208 1 0.5897 1.905099817750342 10.697714758234284 7.85921619291158 0 0 0
611 204 1 0.5897 4.094877646110322 10.564710136727248 9.006361560205095 0 0 0
630 210 1 0.5897 1.6031181737425908 7.110861462969679 10.604996594537663 0 0 0
603 201 1 0.5897 3.747909997108842 7.477885710072287 9.571008370207467 0 0 0
624 208 1 0.5897 1.3524332852079763 11.365827468734865 6.618260598932134 0 0 0
622 208 2 -1.1794 1.214371239568941 10.619325661057378 7.201251711763964 0 0 0
612 204 1 0.5897 3.04234423569755 11.46680911114946 9.614765361144483 0 0 0
605 202 1 0.5897 3.429656273640714 8.106799376346604 7.5219954249369065 0 0 0
614 205 1 0.5897 2.1838926452877008 9.649261209059299 10.098384585510887 0 0 0
626 209 1 0.5897 4.536319481913573 11.181319796788841 6.509373189097381 0 0 0
620 207 1 0.5897 5.270504210238946 8.970792290668424 7.061393288192692 0 0 0
613 205 2 -1.1794 1.5541839315363772 9.13493124116509 10.603473721953113 0 0 0
648 216 1 0.5897 6.086192839890653 7.047465473521852 7.216933934707424 0 0 0
699 233 1 0.5897 0.032642443739895555 10.807509725234903 8.506009513405923 1 0 0
627 209 1 0.5897 5.174175697397921 12.357384240777515 7.217766771015014 0 0 0
750 250 1 0.5897 1.4044666893125346 12.17081738370027 11.360365974067753 0 0 0
1101 367 1 0.5897 4.6151888027331704 9.392939193685397 11.237160568434168 0 0 0
1081 361 2 -1.1794 4.394048743827095 7.575254859686427 15.787661086576943 0 0 0
1084 362 2 -1.1794 2.6981293535673947 7.604111424137017 13.49531990673297 0 0 0
1086 362 1 0.5897 3.1313919169566953 8.215325675002585 12.899592821266742 0 0 0
1089 363 1 0.5897 4.731675492467015 11.017167271518721 15.21489216803249 0 0 0
1090 364 2 -1.1794 2.897872574164111 10.707029817098487 15.068844210880128 0 0 0
1092 364 1 0.5897 2.5403881717656023 10.070139901026957 15.687528632557493 0 0 0
1097 366 1 0.5897 0.9850349367730666 7.74206171435624 12.822212751703578 0 0 0
1102 368 2 -1.1794 1.2939969447025539 10.862840034605494 12.781440631512218 0 0 0
1104 368 1 0.5897 1.8255216757813664 10.809463719692523 13.57567657606056 0 0 0
1091 364 1 0.5897 2.5126734325792883 11.542038848618057 15.334533740163295 0 0 0
1093 365 2 -1.1794 1.424295220673365 8.918595509378312 16.482973218171406 0 0 0
1094 365 1 0.5897 1.5811963091510957 7.975775806645869 16.431125531409254 0 0 0
1100 367 1 0.5897 5.1417768388042555 8.911704481146945 12.572416945099707 0 0 0
1099 367 2 -1.1794 4.453472265731454 9.448003478543184 12.178975013200791 0 0 0
1082 361 1 0.5897 4.485345581056332 6.826969617649526 16.37752536592598 0 0 0
1085 362 1 0.5897 3.105009914272608 7.768890736744277 14.345894893498276 0 0 0
1095 365 1 0.5897 0.628400729700734 9.057996713079486 15.969862414836694 0 0 0
1103 368 1 0.5897 1.5552682371380937 10.099722809768085 12.26608527940133 0 0 0
1083 361 1 0.5897 4.38630541284114 8.337574543600446 16.366469050724238 0 0 0
1107 369 1 0.5897 4.727881593140774 11.43422768480076 12.334302965546732 0 0 0
986 329 1 0.5897 3.910098781125473 6.317941832317837 12.723917360891587 0 0 0
1178 393 1 0.5897 -0.0335354781586976 11.501100943505218 15.452550069546136 1 0 0
1105 369 2 -1.1794 4.5268148693298125 12.36402368983754 12.44044591502942 0 0 0
1096 366 2 -1.1794 0.059900173385751654 7.960229361745753 12.934851800360034 0 0 0
1179 393 1 0.5897 -0.02139146939484924 10.627748886490162 14.216057946774717 1 0 0
1087 363 2 -1.1794 5.677996282971887 11.139532613493152 15.139675299777789 0 0 0
1128 376 1 0.5897 5.945748993464899 7.031574207965448 13.325019777354601 0 0 0
1108 370 2 -1.1794 1.4325509833421137 6.147482812452762 16.15883538623201 0 0 0
1127 376 1 0.5897 5.884733502247748 7.7713102975884665 14.644439839027825 0 0 0
1088 363 1 0.5897 6.052980620082405 10.463674085119282 15.704304291573822 0 0 0
1710 570 1 0.5897 2.6653792816210293 12.221426424699873 21.660488249171813 0 0 0
1590 530 1 0.5897 1.9615706226017449 6.15692824395943 21.72021463688408 0 0 0
1658 553 1 0.5897 0.16132188190296248 10.75977954337789 19.7178127446215 1 0 0
1467 489 1 0.5897 5.344540673865011 6.27639012774227 18.450677199229233 0 0 0
1608 536 1 0.5897 6.0473370225790575 7.515047637349536 20.105918557958816 0 0 0
1576 526 2 -1.1794 0.23330953533825177 7.490819843861675 18.9332994235679 0 0 0
1583 528 1 0.5897 2.233166307150401 10.850287799740537 18.956578879056703 0 0 0
1562 521 1 0.5897 4.756709784058222 7.123277966222274 22.022379897804424 0 0 0
1580 527 1 0.5897 3.958301262662017 9.324820929131139 18.643993024283567 0 0 0
1579 527 2 -1.1794 4.452717216456389 9.493357992318987 17.841912516488737 0 0 0
1570 524 2 -1.1794 3.5577679367248116 10.870784792771119 20.367629847990425 0 0 0
1584 528 1 0.5897 1.4413752655694025 10.26833014760979 17.804988956645875 0 0 0
1587 529 1 0.5897 4.721788517659529 11.40632231674808 17.806019890949056 0 0 0
1709 570 1 0.5897 1.2017003035065554 11.848672142553177 21.558482185351735 0 0 0
1581 527 1 0.5897 5.299298765779499 9.071568205774616 17.988766823294313 0 0 0
1564 522 2 -1.1794 2.9151046824254934 7.731519311900488 19.426796550217297 0 0 0
1566 522 1 0.5897 3.2814257464266756 7.1115177866968935 18.79624151842082 0 0 0
1571 524 1 0.5897 3.1676610780114745 10.111090994219197 20.79994245124236 0 0 0
1573 525 2 -1.1794 1.7731428112235026 9.178951042686279 22.07281324889644 0 0 0
1589 530 1 0.5897 1.3467633240127383 7.378033390870202 22.370406171966472 0 0 0
1572 524 1 0.5897 4.477671899995219 10.850812838982149 20.631329873157757 0 0 0
1574 525 1 0.5897 1.1507700380832433 9.645813740291793 21.515253452577284 0 0 0
1582 528 2 -1.1794 1.4627017911392797 11.00877074088155 18.411204744541664 0 0 0
1563 521 1 0.5897 4.080761980535941 7.776959000158171 20.835964752005058 0 0 0
1561 521 2 -1.1794 4.796908064281753 7.896545708538577 21.459666616837094 0 0 0
1565 522 1 0.5897 1.996173602874277 7.8171263238742075 19.173039425067394 0 0 0
141 47 1 0.5897 4.633767059819513 9.101375728016185 22.667622183199438 0 0 -1
1657 553 2 -1.1794 -0.05833242295128572 10.59862337205829 20.635401542746052 1 0 0
1588 530 2 -1.1794 1.1522647987627077 6.474756872389283 22.120450387818007 0 0 0
1585 529 2 -1.1794 4.719915323549655 12.330864016472995 17.558165918575778 0 0 0
241 81 2 -1.1794 4.726199141516212 13.995979445105407 4.377705184803374 0 0 0
242 81 1 0.5897 4.703430982704453 13.291070867140105 5.024850102760146 0 0 0
243 81 1 0.5897 4.105939088750722 13.721741232262607 3.7022385083742506 0 0 0
244 82 2 -1.1794 2.9969446049974855 13.766374268650992 2.158692544585798 0 0 0
245 82 1 0.5897 2.053808450753461 13.92957858581136 2.15498905438521 0 0 0
246 82 1 0.5897 3.3582302952227443 14.43360155297398 1.5751895581940738 0 0 0
250 84 2 -1.1794 3.1810823801973336 16.851212882406436 3.819915995396906 0 0 0
251 84 1 0.5897 2.9205441310018645 17.087244708198405 2.9296377928833413 0 0 0
252 84 1 0.5897 4.137935731898917 16.845642166292606 3.796421699418449 0 0 0
253 85 2 -1.1794 1.4546511999820633 15.172903782102042 4.697989717227125 0 0 0
255 85 1 0.5897 2.1448004585478353 15.728042812463242 4.335096700994904 0 0 0
259 87 2 -1.1794 4.83360019844899 15.602262193518014 0.5369908826693004 0 0 0
262 88 2 -1.1794 1.4855678950793065 17.163872319064104 1.3599195150753938 0 0 0
263 88 1 0.5897 1.394116911493402 16.292357225356923 0.9748121651523542 0 0 0
254 85 1 0.5897 0.6418218512816426 15.548800444816647 4.360086777596871 0 0 0
264 88 1 0.5897 1.3693187148565131 17.76483284642144 0.624032481196325 0 0 0
269 90 1 0.5897 1.6772795769282753 13.343938034024676 5.2333676155682465 0 0 0
260 87 1 0.5897 4.593516500668226 16.51962235580517 0.4065273463041325 0 0 0
740 247 1 0.5897 4.689280669767917 15.631384812599695 5.546994021631325 0 0 0
247 83 2 -1.1794 5.918512292544475 16.82776756817259 3.814418433320098 0 0 0
147 49 1 0.5897 3.8276402108915883 12.524786634670273 0.9939450669553951 0 0 0
339 113 1 0.5897 -0.016252178981055285 17.730907309735265 3.87333584451009 1 0 0
256 86 2 -1.1794 0.21588430196206138 13.839315609150896 2.0223412986666296 0 0 0
338 113 1 0.5897 0.04870801141028838 17.056931366201425 2.519324174892158 1 0 0
265 89 2 -1.1794 4.509225264201073 18.499186840745118 0.7212482243884514 0 0 0
268 90 2 -1.1794 1.6127855938457853 12.407100303719462 5.418809350440078 0 0 0
736 246 2 -1.1794 0.20411366449552237 13.566673794736861 7.663430472086211 0 0 0
818 273 1 0.5897 0.04903319131010467 16.948447315584858 8.30104735208843 1 0 0
727 243 2 -1.1794 6.061838037922773 17.224773690270446 9.125711211518784 0 0 0
768 256 1 0.5897 6.021512558827256 14.777860904472451 7.421032947103069 0 0 0
870 290 1 0.5897 2.533621020939939 18.204158913070017 10.238341205635887 0 0 0
741 247 1 0.5897 4.626225577185484 16.736424463120308 6.579832362700704 0 0 0
748 250 2 -1.1794 1.7425320747177666 12.606035771209994 10.577749205188097 0 0 0
721 241 2 -1.1794 4.642476067552576 14.00125738054585 10.11559067843002 0 0 0
730 244 2 -1.1794 3.380552124351749 16.78841671415946 9.097623248451901 0 0 0
739 247 2 -1.1794 4.9261755305022135 15.836560787824647 6.451416540705976 0 0 0
749 250 1 0.5897 1.6253501046981893 13.539748571267904 10.752850582339555 0 0 0
869 290 1 0.5897 1.0268406856956316 18.290391187783058 10.356142374117002 0 0 0
743 248 1 0.5897 1.6679653630930547 17.91375732483185 6.407866649791525 0 0 0
744 248 1 0.5897 1.3898395457835406 16.450375513298553 6.137678579738516 0 0 0
726 242 1 0.5897 3.159661508324398 13.145426385129529 7.352416478016302 0 0 0
732 244 1 0.5897 2.8620470429645537 16.21448912746905 9.661489649965375 0 0 0
731 244 1 0.5897 2.820469285889243 16.948466963337673 8.33810431927178 0 0 0
723 241 1 0.5897 5.446198345380116 14.239233165257092 9.653451315374944 0 0 0
742 248 2 -1.1794 1.6019459846091229 17.063124253364535 6.84177077162403 0 0 0
733 245 2 -1.1794 1.5442921061095023 15.41441433589088 10.725988956251577 0 0 0
728 243 1 0.5897 5.167616315275258 17.025870948341428 8.84829086655624 0 0 0
735 245 1 0.5897 0.9184040140626121 15.812385266939327 10.120959396083398 0 0 0
725 242 1 0.5897 3.543525144376215 14.609743272117008 7.368962149370455 0 0 0
737 246 1 0.5897 1.1195970468241006 13.690327434492831 7.913946934213567 0 0 0
722 241 1 0.5897 3.9877395777882993 13.90453590930898 9.424115422253378 0 0 0
724 242 2 -1.1794 3.007234556719469 13.962593215097625 7.826981244239937 0 0 0
745 249 2 -1.1794 4.627534244101488 18.573009839292723 6.276277001034738 0 0 0
1221 407 1 0.5897 4.623262688801515 15.275331218727437 11.393607614378984 0 0 0
1201 401 2 -1.1794 4.495473054176577 14.15935988440639 15.542219936269671 0 0 0
1203 401 1 0.5897 4.391010278544611 13.40698256423064 16.1246473774023 0 0 0
1204 402 2 -1.1794 2.569140720349545 14.267155278713696 13.501836021479344 0 0 0
1205 402 1 0.5897 3.2416646381282694 14.300462085217854 14.182112204281761 0 0 0
1206 402 1 0.5897 2.8366490936194886 13.543640126304375 12.935122241290484 0 0 0
1210 404 2 -1.1794 3.505521894313038 17.036344527562548 14.687159682251368 0 0 0
1212 404 1 0.5897 4.462530724855553 17.035372437580797 14.704040225527656 0 0 0
1213 405 2 -1.1794 1.39355491367541 15.432789551450385 16.057873466582407 0 0 0
1215 405 1 0.5897 1.9923016234676476 15.416719396333958 15.311268963740996 0 0 0
1218 406 1 0.5897 0.6914652773898647 14.43349999123413 13.591357037928972 0 0 0
1222 408 2 -1.1794 1.483988648627322 17.109581608232723 12.87084676328432 0 0 0
1224 408 1 0.5897 2.2755372850821076 16.986425082551584 13.394728314120695 0 0 0
1229 410 1 0.5897 1.2788861465785828 13.53997059710759 15.899221733764808 0 0 0
1202 401 1 0.5897 5.337584082746593 14.013985163514832 15.111073638513318 0 0 0
1211 404 1 0.5897 3.25853834167377 17.848666972486832 15.129127487326738 0 0 0
1223 408 1 0.5897 1.7235300383337735 17.776287329770334 12.227162833957586 0 0 0
1214 405 1 0.5897 0.7411104511515665 16.094363799844103 15.82804559381706 0 0 0
1219 407 2 -1.1794 4.676433613217311 15.857528577961652 12.151511376870747 0 0 0
1220 407 1 0.5897 3.8800777305965584 15.675436847638013 12.650332725838277 0 0 0
1227 409 1 0.5897 4.676007429941091 17.689209763442342 12.177733252450523 0 0 0
734 245 1 0.5897 1.45770166738234 15.924928413787674 11.531018376841402 0 0 0
1228 410 2 -1.1794 1.0801948594481119 12.635220240242335 16.140385024452772 0 0 0
1225 409 2 -1.1794 4.610063055250846 18.60647145684318 11.912214571227 0 0 0
1298 433 1 0.5897 0.19739366821812937 17.42114285781127 14.178691055946205 1 0 0
1700 567 1 0.5897 4.44489607723869 15.755914991378182 16.713317288306623 0 0 0
1106 369 1 0.5897 4.687515654026245 12.74441489625446 11.576921852025452 0 0 0
1230 410 1 0.5897 1.054419324757722 12.642032309561316 17.097191193439862 0 0 0
1350 450 1 0.5897 0.9941089002296406 18.487099185561156 16.03029104151068 0 0 0
1687 563 2 -1.1794 5.845231023230767 17.228123880924173 21.24488458914338 0 0 0
1830 610 1 0.5897 2.1346613478074916 18.50099665209092 21.460072068158667 0 0 0
1778 593 1 0.5897 0.5619087578518596 16.93030910322191 19.767163769884775 1 0 0
1779 593 1 0.5897 0.4881043051514915 17.56483140160833 21.139656858552915 1 0 0
261 87 1 0.5897 4.65480441308707 15.185200144371528 22.63033769708239 0 0 -1
1777 593 2 -1.1794 0.0019401144400746084 16.99844929359986 20.540449450313517 1 0 0
1692 564 1 0.5897 2.842495433423225 17.132441059770002 19.939012331777484 0 0 0
1685 562 1 0.5897 3.1565349517925507 13.157165237044472 18.37851314679667 0 0 0
1699 567 2 -1.1794 4.589081068696513 16.24594388555633 17.52280966797629 0 0 0
1689 563 1 0.5897 4.909341262529338 17.187481747376836 21.04838266889469 0 0 0
1695 565 1 0.5897 1.6421142718566801 14.354460070155266 22.245012215230723 0 0 0
1696 566 2 -1.1794 0.17394848250728934 13.66260193238392 19.41278444193787 0 0 0
1703 568 1 0.5897 1.9852677164099441 16.094258708144558 17.890545056588522 0 0 0
1686 562 1 0.5897 3.293397030153237 14.079509616085023 19.571147412208763 0 0 0
1691 564 1 0.5897 2.722104100346405 16.462290389931134 21.2911242784611 0 0 0
1684 562 2 -1.1794 2.7719167888778737 13.935536246251939 18.781521536246746 0 0 0
1702 568 2 -1.1794 1.9763865433536059 16.869558237881762 18.45183103304852 0 0 0
1694 565 1 0.5897 0.909564196398718 15.435841685849706 21.47964178567362 0 0 0
1693 565 2 -1.1794 1.5861039494112033 15.304647255600667 22.14391496783313 0 0 0
1697 566 1 0.5897 1.1193145755807024 13.695344210891312 19.266620764680273 0 0 0
1682 561 1 0.5897 5.286579363055888 14.11997490332933 20.427269883373484 0 0 0
1683 561 1 0.5897 4.832591501941434 13.514858207610086 21.738576156361077 0 0 0
1681 561 2 -1.1794 4.583050037554924 14.158135814783432 21.075160347402754 0 0 0
1704 568 1 0.5897 1.933227957490229 17.606487836965364 17.84250710909539 0 0 0
1690 564 2 -1.1794 3.171562180091348 17.174901356082636 20.836840492726857 0 0 0
1701 567 1 0.5897 3.860991818581227 15.99209888093405 18.08992539863538 0 0 0
1707 569 1 0.5897 4.621538626917713 17.912060931911775 17.833835707668015 0 0 0
1586 529 1 0.5897 5.262482695689148 12.75810467889732 18.220938888589355 0 0 0
1708 570 2 -1.1794 1.8076736927065642 12.41136911258093 22.04052002848312 0 0 0
361 121 2 -1.1794 4.583138200429414 20.356819118034316 4.122896611429826 0 0 0
362 121 1 0.5897 3.7702399659009638 20.319832311953782 3.6189174330726703 0 0 0
364 122 2 -1.1794 2.7759320123760176 20.11408946692673 2.126824399357701 0 0 0
366 122 1 0.5897 3.1489855323180844 20.81964130801132 1.598408180244424 0 0 0
370 124 2 -1.1794 2.936226196870016 23.290052579220315 3.2777618945151685 0 0 0
371 124 1 0.5897 3.8933613293297737 23.28508932835848 3.2727412181490556 0 0 0
372 124 1 0.5897 2.6957641486594306 22.587485150995988 3.881730986759264 0 0 0
373 125 2 -1.1794 1.1570826206660987 21.63277149467436 4.825387541235161 0 0 0
375 125 1 0.5897 0.5795896772521699 22.103350447776336 4.224357082035545 0 0 0
382 128 2 -1.1794 1.1559579474889263 23.326325528050887 1.141576491121792 0 0 0
383 128 1 0.5897 1.9034905630884553 23.212911287094357 1.7285250709312205 0 0 0
365 122 1 0.5897 1.829684927347396 20.246820043105217 2.070683891187038 0 0 0
363 121 1 0.5897 4.596514971718336 19.537277227729952 4.617243025657894 0 0 0
390 130 1 0.5897 1.1574640763548634 19.72779553211877 4.857267618477847 0 0 0
381 127 1 0.5897 5.344086002577922 21.682773907970315 1.056400292031104 0 0 0
379 127 2 -1.1794 4.47394110517542 22.00183541601963 0.8172077313835834 0 0 0
384 128 1 0.5897 1.2308396711648637 22.60601644250523 0.5156770012585187 0 0 0
380 127 1 0.5897 4.555563839384491 22.955426860641147 0.8318890968830864 0 0 0