LAMMPS data file via write_data, version 30 Jul 2021, timestep = 10000000

972 atoms
2 atom types
648 bonds
1 bond types
324 angles
1 angle types

-0.02328056394951261 20.023281563938276 xlo xhi
-0.050795814132213124 20.050796814126606 ylo yhi
-0.17208641625232524 20.87208441625132 zlo zhi

Masses

1 1.008
2 15.999

Pair Coeffs # lj/cut/tip4p/long/omp

1 0 0
2 0.21084 3.1668

Bond Coeffs # harmonic/omp

1 450 0.9572

Angle Coeffs # harmonic/omp

1 55 104.52

Atoms # full

10 4 2 -1.1794 1.3433041993443542 4.065603064331345 3.7257798438982426 0 0 0
11 4 1 0.5897 1.1509346841641075 3.375783441149964 3.0907362060707415 0 0 0
12 4 1 0.5897 2.27623076618756 3.9647363605308987 3.9143966979131024 0 0 0
16 6 2 -1.1794 4.100362156243348 3.7189457145813103 3.2512733874988546 0 0 0
33 11 1 0.5897 1.8843356429884313 2.3460451637950843 1.2314290426650063 0 0 0
31 11 2 -1.1794 1.2420214635263318 2.0470703567262016 1.8750065292079512 0 0 0
18 6 1 0.5897 4.45039397401183 2.907728604499128 2.883027180049024 0 0 0
17 6 1 0.5897 4.256328300778178 4.376946910021922 2.5738735567203337 0 0 0
23 8 1 0.5897 2.5370882675871695 0.7380325359221163 4.209735822703211 0 0 0
15 5 1 0.5897 4.604387414231435 6.428810963048015 1.8379893199749442 0 0 0
4 2 2 -1.1794 4.158187682723223 0.6454071137595739 2.9793939915287013 0 0 0
126 42 1 0.5897 4.502633448244367 9.647116696388307 3.0317033595950633 0 0 0
112 38 2 -1.1794 4.289485187237973 7.778272756574124 3.0899267865034483 0 0 0
132 44 1 0.5897 0.8942078175587246 7.364196339254693 4.639775517448566 0 0 0
3 1 1 0.5897 3.6483188123368784 2.6244551487210988 0.023969948316420853 0 0 0
21 7 1 0.5897 0.0873161045309028 5.642515173197581 1.2444543580045133 0 0 0
20 7 1 0.5897 0.9785090464589496 4.9578489031916835 2.2587085850852144 0 0 0
110 37 1 0.5897 1.671464096355431 8.83362862758543 0.5119068055243885 0 0 0
32 11 1 0.5897 0.3944056754275914 2.206691477033872 1.4600531883775585 0 0 0
14 5 1 0.5897 4.080702384190976 5.583100948286446 0.696816565644579 0 0 0
674 225 1 0.5897 2.1345606331310436 5.4080681582363805 0.25932747231066117 0 0 1
13 5 2 -1.1794 4.780778819692518 5.625611092223308 1.3481286475729897 0 0 0
141 47 1 0.5897 0.7937542313347039 7.473181922530013 1.9591105150078003 0 0 0
139 47 2 -1.1794 0.7468954861093869 8.4291648354663 1.9631189908876472 0 0 0
19 7 2 -1.1794 1.006024740099248 5.513903894797487 1.48010145086728 0 0 0
114 38 1 0.5897 3.453194932555868 7.541489075458705 3.4907651035097755 0 0 0
236 79 1 0.5897 0.8459992059950189 0.42761629204696305 1.6224107275967434 0 1 0
140 47 1 0.5897 1.2132973010811667 8.68902087475545 2.757522606657552 0 0 0
113 38 1 0.5897 4.939397067055988 7.606062671480192 3.771164733079487 0 0 0
130 44 2 -1.1794 1.8383825703085879 7.290865978734453 4.501125347153371 0 0 0
22 8 2 -1.1794 1.9733541112648987 0.7272374602234991 4.983179420091109 0 0 0
6 2 1 0.5897 4.836300785374385 0.5461735966970337 3.647563771922159 0 0 0
131 44 1 0.5897 2.1116972860901675 6.58052343113819 5.081547062618787 0 0 0
102 34 1 0.5897 0.14155451703985733 0.6493563420652859 4.960415205692012 1 0 0
111 37 1 0.5897 3.139050260657361 9.016056459207611 0.1887153936887742 0 0 0
325 109 2 -1.1794 2.7258069256441044 2.7416148424549456 6.756032159252277 0 0 0
326 109 1 0.5897 2.40767232155458 2.1416292202447162 6.081507977742123 0 0 0
327 109 1 0.5897 3.639365388797033 2.489470688140797 6.889924061248832 0 0 0
355 119 2 -1.1794 0.95315029552767 2.1032307076068197 9.086789453289178 0 0 0
356 119 1 0.5897 1.5857307246914487 2.327127228672938 8.40425421848274 0 0 0
344 115 1 0.5897 1.155545582809825 5.252603919182625 9.333564301963802 0 0 0
27 9 1 0.5897 2.6086354740702156 4.463215105600272 6.198100222951564 0 0 0
337 113 2 -1.1794 4.775500733444545 5.626746077493751 8.628098013161248 0 0 0
339 113 1 0.5897 4.385764063663316 5.284118834480411 7.8238486368324365 0 0 0
468 156 1 0.5897 4.310703988113875 9.402404045671258 7.215926540082903 0 0 0
328 110 2 -1.1794 3.952972644053608 1.5435633790510417 9.93031574206894 0 0 0
342 114 1 0.5897 4.394471033424117 4.75895952958654 10.003468542887031 0 0 0
433 145 2 -1.1794 2.4348858767346826 8.915380459813996 6.692949479649948 0 0 0
25 9 2 -1.1794 2.5595918362396852 5.4166561683468455 6.266911267579306 0 0 0
434 145 1 0.5897 2.1296454790002413 9.809078489602147 6.53695598930673 0 0 0
26 9 1 0.5897 2.0326191546253596 5.573950881627894 7.050305906634372 0 0 0
464 155 1 0.5897 1.4443335867624902 8.687954237841042 8.158143889913282 0 0 0
435 145 1 0.5897 2.220350140984615 8.444501254215208 5.8877046684099685 0 0 0
463 155 2 -1.1794 0.7597584583037128 8.708322850006601 8.826782443748055 0 0 0
437 146 1 0.5897 4.125253547037954 7.353156182014886 9.693927337250186 0 0 0
329 110 1 0.5897 3.936153420447746 0.7057481706340698 9.46772169171251 0 0 0
345 115 1 0.5897 1.2440848696443103 6.7054400094271065 8.917277423137538 0 0 0
343 115 2 -1.1794 1.1761895495587729 5.819102005757647 8.562302193266532 0 0 0
438 146 1 0.5897 3.988000354582643 8.750575317572487 10.259764782113962 0 0 0
335 112 1 0.5897 1.141058211106802 3.440734237764178 10.231206408728989 0 0 0
561 187 1 0.5897 0.8152831666178041 0.3102390755294709 8.797285066253224 0 1 0
24 8 1 0.5897 2.355854175420631 0.05715763328950055 5.549606876198183 0 0 0
357 119 1 0.5897 0.10002933093434978 2.195019676174762 8.66268760611034 0 0 0
443 148 1 0.5897 1.243991515192827 9.779933213431448 10.18511826198771 0 0 0
649 217 2 -1.1794 2.8812162855419934 2.452464569141511 13.857000761090626 0 0 0
650 217 1 0.5897 2.7220126680727303 1.9606180979079046 13.051440500947951 0 0 0
651 217 1 0.5897 2.215502692393937 2.1354152248587916 14.46728906424171 0 0 0
349 117 2 -1.1794 2.537244763451557 5.18996253667234 13.871732614328467 0 0 0
347 116 1 0.5897 1.2978911144904048 0.7128853066853341 11.40202459783929 0 0 0
330 110 1 0.5897 4.605095694132317 1.4235191899955588 10.620572880441483 0 0 0
348 116 1 0.5897 2.7596484884646446 0.9791679254595813 11.112277212454432 0 0 0
346 116 2 -1.1794 2.1538283572206236 0.7778186043264081 11.825431985713141 0 0 0
350 117 1 0.5897 2.7779332229987874 4.2737436702821965 13.734515245546893 0 0 0
683 228 1 0.5897 4.76273028463686 2.611842983535316 14.541357354145763 0 0 0
454 152 2 -1.1794 1.9474740415115956 7.438253200790352 12.553128916709143 0 0 0
351 117 1 0.5897 3.208048588904393 5.528092785773563 14.464850569391064 0 0 0
680 227 1 0.5897 0.3235962096946585 2.2363484065170516 15.392464608412475 0 0 0
792 264 1 0.5897 4.2899700087101165 9.152106077713713 14.264556746114655 0 0 0
757 253 2 -1.1794 2.429543309909081 9.471516218227707 14.342871968561168 0 0 0
455 152 1 0.5897 2.47187026911778 7.599343966189001 11.768772565486055 0 0 0
668 223 1 0.5897 1.167812191785647 5.316899697374828 14.969874021655158 0 0 0
759 253 1 0.5897 2.219291160707278 8.909188430187218 13.597377832515061 0 0 0
456 152 1 0.5897 2.2039376365601826 6.560940306441273 12.83728371085294 0 0 0
533 178 1 0.5897 0.16153979387297604 7.076356066905297 12.177578417172294 1 0 0
336 112 1 0.5897 2.2339334155831194 4.279076723311461 10.859248674472989 0 0 0
334 112 2 -1.1794 1.2894340197043972 4.258702764456394 10.705648101902664 0 0 0
340 114 2 -1.1794 4.1768830429733805 4.2021942294928465 10.75103562878552 0 0 0
789 263 1 0.5897 1.2638252631089515 8.645762764939981 15.455834529058338 0 0 0
661 221 2 -1.1794 4.800297060626692 5.660453749353978 15.438425034416214 0 0 0
436 146 2 -1.1794 3.797588206666817 7.832973787499597 10.454569529941027 0 0 0
405 135 1 0.5897 0.0020425848609342268 4.183780279399097 12.176511198703812 1 0 0
341 114 1 0.5897 4.298865652244345 3.3091807513693174 10.428755147468657 0 0 0
653 218 1 0.5897 3.5896133832990813 1.2281820265644054 17.21283261614782 0 0 0
652 218 2 -1.1794 4.511172562010628 1.3875975772731852 17.009324446864433 0 0 0
664 222 2 -1.1794 4.005912170873557 3.9936890275016825 17.378385622013425 0 0 0
671 224 1 0.5897 2.545209527713517 1.7096706994712056 19.360113389250664 0 0 0
658 220 2 -1.1794 1.3237947587457726 3.945933603558751 17.884899881626282 0 0 0
666 222 1 0.5897 4.273328647896063 3.084818417269192 17.2418540134981 0 0 0
670 224 2 -1.1794 2.3254819687370274 0.9230166419135867 18.861110938095727 0 0 0
665 222 1 0.5897 3.102538495255033 3.9339558368923293 17.688959777723554 0 0 0
681 227 1 0.5897 1.150260123744456 2.563875040161771 16.617629663072748 0 0 0
672 224 1 0.5897 1.3685816777876976 0.9075127351163463 18.846630215851704 0 0 0
788 263 1 0.5897 0.6795706568067006 9.020983554856477 16.801014835288306 0 0 0
659 220 1 0.5897 0.5190741467146754 3.9499212430451287 18.40309853116215 0 0 0
762 254 1 0.5897 4.864230294797008 7.633562410810954 17.795638209244792 0 0 0
662 221 1 0.5897 4.424828484616704 5.038162765174837 16.06129017257998 0 0 0
787 263 2 -1.1794 0.5693642261498824 8.411357259448309 16.071399598908123 0 0 0
761 254 1 0.5897 4.187191268075649 8.7192340540733 16.98649381166495 0 0 0
679 227 2 -1.1794 1.0018600835678215 1.8790569918713125 15.965562690288747 0 0 0
675 225 1 0.5897 2.473589573178285 5.903782868910522 19.913868464541522 0 0 0
660 220 1 0.5897 1.180922471797888 4.614132772144264 17.214606367539858 0 0 0
779 260 1 0.5897 2.4705041973359667 7.914460865873312 19.33722385199404 0 0 0
663 221 1 0.5897 4.773720220135081 6.501777810555712 15.894128247990755 0 0 0
778 260 2 -1.1794 2.254925995024711 7.268081296214694 18.66502328671158 0 0 0
780 260 1 0.5897 2.8902413374533045 7.4268156246346555 17.966953682116532 0 0 0
654 218 1 0.5897 4.723748681001254 0.7407155245206914 16.33661593683395 0 0 0
760 254 2 -1.1794 4.425056818613323 7.7924436108186885 16.960155580339872 0 0 0
858 286 1 0.5897 0.2911894485691614 7.40665330466063 18.75065385814903 1 0 0
109 37 2 -1.1794 2.2652554422582116 9.083241425472263 20.848098929490483 0 0 -1
669 223 1 0.5897 0.8940798926231546 6.512134180240701 15.857676528424085 0 0 0
884 295 1 0.5897 0.7055427558393608 0.1466939369878304 15.91012554775896 0 1 0
673 225 2 -1.1794 2.8177432438242676 5.3753450990138605 20.63392783960216 0 0 0
2 1 1 0.5897 2.6882068878947774 3.7177380148084453 20.650241118556437 0 0 -1
667 223 2 -1.1794 0.7195691622667852 5.574610045116185 15.775358089110034 0 0 0
1 1 2 -1.1794 2.7442753609706543 2.7726134675037697 20.790886654827435 0 0 -1
120 40 1 0.5897 1.3409168339897566 11.243456468626954 2.8491734425944943 0 0 0
127 43 2 -1.1794 0.5132385471981141 12.460251576466304 1.667643625358913 0 0 0
238 80 2 -1.1794 1.6434050140755168 13.923376210519342 4.925435040023854 0 0 0
119 40 1 0.5897 2.578230224255993 10.65313694213427 3.491221630009054 0 0 0
129 43 1 0.5897 0.8812313951183675 13.318676509125549 1.8771406845584435 0 0 0
240 80 1 0.5897 2.2734342921821864 13.972776050558554 4.206573728156417 0 0 0
118 40 2 -1.1794 1.624489005076335 10.678250471852827 3.5677206079450103 0 0 0
228 76 1 0.5897 0.6544106009623422 17.718143518175644 4.522363070788934 0 0 0
233 78 1 0.5897 4.299521916880458 17.452908772922214 2.7801894476773894 0 0 0
220 74 2 -1.1794 3.877456956130502 14.380118944132947 3.369119066493977 0 0 0
222 74 1 0.5897 4.089217756777309 14.13068851212076 2.4696136103152933 0 0 0
123 41 1 0.5897 4.1827695430943495 12.282363916255582 0.32080371413494263 0 0 0
235 79 2 -1.1794 0.5922786622494752 19.621378330854505 1.788675937956414 0 0 0
229 77 2 -1.1794 4.589642266887084 18.620359437849636 1.3455564102532598 0 0 0
232 78 2 -1.1794 4.036462688575779 17.079378951261916 3.621263470488774 0 0 0
234 78 1 0.5897 3.141391355745517 17.3917555334354 3.7530952595109586 0 0 0
227 76 1 0.5897 1.0645000608913213 18.426835455481836 3.249043902330038 0 0 0
783 261 1 0.5897 1.7285557731988892 12.155740409768919 0.37143754188258393 0 0 1
249 83 1 0.5897 1.547434030960061 15.400510721366684 1.492836884237658 0 0 0
219 73 1 0.5897 3.477397550917309 15.612072853246795 0.15735153967181575 0 0 0
230 77 1 0.5897 3.9458348406553387 18.718944360071717 0.644173871531156 0 0 0
226 76 2 -1.1794 1.255440081709435 17.653803929002002 3.780232772860546 0 0 0
248 83 1 0.5897 0.8702277941182885 15.999971809329027 2.7067803142993507 0 0 0
124 42 2 -1.1794 4.550628614076613 10.601737532165483 3.08284068138395 0 0 0
122 41 1 0.5897 4.662067348357695 12.043643649846636 1.7367885531864602 0 0 0
247 83 2 -1.1794 0.8074703778813311 15.27366431111018 2.0865240543433035 0 0 0
221 74 1 0.5897 3.900362552832926 15.337015145722127 3.3645300869910173 0 0 0
890 297 1 0.5897 1.6465009920835099 18.957298056920052 0.29915731937841683 0 0 1
121 41 2 -1.1794 4.593395730380705 12.722176311241002 1.0651719410426574 0 0 0
5 2 1 0.5897 4.2463760446521075 19.9678739944427 2.4304030580268408 0 -1 0
188 63 1 0.5897 0.016458826376605812 10.867945976312665 4.68011014754365 1 0 0
217 73 2 -1.1794 2.537620762718542 15.791937641890854 0.1332630327789417 0 0 0
218 73 1 0.5897 2.475770062309239 16.71104121004207 -0.1268175651327823 0 0 0
133 45 2 -1.1794 2.1609373393132705 11.67601185103105 6.682878335271606 0 0 0
134 45 1 0.5897 1.5484916981485366 11.96937809638099 7.357390069670773 0 0 0
135 45 1 0.5897 3.0263319836261346 11.857612136349783 7.049221206274302 0 0 0
572 191 1 0.5897 1.0587091346208635 15.923297019425913 9.797955936450348 0 0 0
544 182 2 -1.1794 4.178236290116676 14.596335490357244 10.243686869186092 0 0 0
446 149 1 0.5897 3.978848477030583 13.15853540526806 8.838580012774324 0 0 0
453 151 1 0.5897 0.9257892273828398 11.982332621151668 9.53507200826383 0 0 0
451 151 2 -1.1794 0.8032017347667724 12.705267205686317 8.919828532768628 0 0 0
576 192 1 0.5897 4.40184656309354 15.856532523560473 7.199140339666635 0 0 0
543 181 1 0.5897 2.1068603337065483 15.339714497427842 5.997530492235589 0 0 0
559 187 2 -1.1794 0.7855626253439304 19.458462498951377 8.71713576832757 0 0 0
571 191 2 -1.1794 0.9765178578407873 15.46782028776111 8.960158683970834 0 0 0
542 181 1 0.5897 1.9074381736150523 15.646573254443762 7.4664792614457225 0 0 0
450 150 1 0.5897 4.344383978612936 11.333038629308726 9.998468572329 0 0 0
445 149 2 -1.1794 4.332928749961541 12.311961867515643 8.566308301280554 0 0 0
573 191 1 0.5897 1.1428788109621664 14.548749475624245 9.169372753858562 0 0 0
558 186 1 0.5897 4.058152691996302 18.091373179365725 10.073901221610436 0 0 0
555 185 1 0.5897 3.65783369663721 18.993353679483597 7.9665001496776675 0 0 0
241 81 2 -1.1794 2.4376632903582904 18.699638518459636 6.676332701001132 0 0 0
242 81 1 0.5897 2.285491451577532 17.76233082546142 6.555854833180376 0 0 0
243 81 1 0.5897 1.6612375209921977 19.01100025276203 7.141464888103861 0 0 0
541 181 2 -1.1794 2.350537579266148 15.96497062180993 6.680066508267799 0 0 0
553 185 2 -1.1794 4.235012592724512 19.18108815877411 8.706542273667093 0 0 0
239 80 1 0.5897 1.8074528888696577 13.07164548114397 5.330224682662322 0 0 0
551 184 1 0.5897 1.090455960723664 18.52307220368793 10.306439823007178 0 0 0
457 153 2 -1.1794 2.5126270592248896 12.270238651209963 13.642270083718902 0 0 0
458 153 1 0.5897 1.8485191564453671 12.393320134321831 14.320464156026878 0 0 0
459 153 1 0.5897 3.3461511767110816 12.330849628250446 14.1088360991267 0 0 0
562 188 2 -1.1794 1.963901628617398 14.602274086838754 12.131543668757281 0 0 0
563 188 1 0.5897 2.257102798468116 13.811781397651758 12.584704861204493 0 0 0
564 188 1 0.5897 2.340306060990954 15.32245648643344 12.637307320880517 0 0 0
885 295 1 0.5897 1.341896064318743 19.31427451965682 14.902943411139782 0 0 0
449 150 1 0.5897 4.654937399615163 11.106530556547696 11.462700970117345 0 0 0
550 184 2 -1.1794 1.335470394053244 17.8529270111502 10.944457925681657 0 0 0
545 182 1 0.5897 3.479152121216413 14.47887673617149 10.886821488367369 0 0 0
758 253 1 0.5897 2.2744784130351037 10.360618816138489 14.024086224649205 0 0 0
769 257 2 -1.1794 4.494818982205466 12.429138657953866 15.483114212068587 0 0 0
546 182 1 0.5897 4.980815772707145 14.384673130025769 10.720336461410332 0 0 0
567 189 1 0.5897 2.35248070134065 19.490491806885743 12.99979690381351 0 0 0
867 289 1 0.5897 1.999484228237574 16.07602510763659 14.638382654406628 0 0 0
642 214 1 0.5897 0.2275561474001337 14.451459356328591 11.973438824803537 1 0 0
566 189 1 0.5897 2.5569650975017217 18.182928330552492 13.734850780727031 0 0 0
879 293 1 0.5897 4.294859696916109 19.5989115445297 14.71280832901324 0 0 0
865 289 2 -1.1794 2.574330947490792 16.455487860777552 13.973766602597747 0 0 0
565 189 2 -1.1794 2.6244831531800465 19.131439313441945 13.844351591860809 0 0 0
866 289 1 0.5897 3.4591904496942867 16.261573661425217 14.282848271961578 0 0 0
556 186 2 -1.1794 4.0195878916025976 17.4996707083721 10.825276160213265 0 0 0
552 184 1 0.5897 2.2627402335331714 17.687455848496157 10.77457148895669 0 0 0
444 148 1 0.5897 2.2824536539311797 10.690111212022101 10.805485160664158 0 0 0
442 148 2 -1.1794 1.3464791407259895 10.490390448897593 10.818313025827655 0 0 0
448 150 2 -1.1794 4.145290764579664 10.753253901909948 10.733582597319181 0 0 0
877 293 2 -1.1794 4.887077110555042 19.45439997239574 15.450741654758643 0 0 0
512 171 1 0.5897 0.2217841678030652 11.079907414240754 12.1497206008503 1 0 0
557 186 1 0.5897 4.1139081235627435 16.625327111310654 10.447331895837864 0 0 0
886 296 2 -1.1794 1.7319634728146396 14.046758749097597 18.904935161029663 0 0 0
768 256 1 0.5897 0.827274344486718 10.953010552306845 17.286792557482123 0 0 0
888 296 1 0.5897 1.8733877987628353 13.174383482675543 19.272571310302617 0 0 0
766 256 2 -1.1794 1.1935938729357063 10.28579738840339 17.86715523004959 0 0 0
773 258 1 0.5897 3.0008826348875948 10.459564689032288 17.685206420821757 0 0 0
774 258 1 0.5897 4.077189858483034 10.955369384169725 16.743181676950826 0 0 0
873 291 1 0.5897 4.853752389316508 17.93280715515555 18.57012084607355 0 0 0
772 258 2 -1.1794 3.936894217474794 10.385645416512041 17.49943481456127 0 0 0
878 293 1 0.5897 4.558040452787323 18.65956032379716 15.870452847856788 0 0 0
870 290 1 0.5897 4.685817925348095 14.380661686771768 17.68002226495299 0 0 0
869 290 1 0.5897 3.173433846699305 14.445026571665565 17.6909692153111 0 0 0
764 255 1 0.5897 4.911117819690543 11.060855442443785 18.7678269781508 0 0 0
883 295 2 -1.1794 0.7116354590869356 19.335212235834526 15.622980471015179 0 0 0
868 290 2 -1.1794 3.932670860127949 14.579910050518247 17.12396784739115 0 0 0
882 294 1 0.5897 3.7924313253797264 16.477849406920086 17.04756467172964 0 0 0
887 296 1 0.5897 1.8630260751397623 14.642270909733233 19.642753656746002 0 0 0
874 292 2 -1.1794 0.889627382166772 17.43396904381693 17.7149161603701 0 0 0
781 261 2 -1.1794 2.3177312107610586 11.84075808624272 20.73019788324151 0 0 0
875 292 1 0.5897 0.3682780482348986 17.660096206392502 18.48510575388306 0 0 0
897 299 1 0.5897 0.6136829642114838 16.087085986704736 16.50558383961411 0 0 0
876 292 1 0.5897 0.8517585306622987 18.21433068147664 17.161925885414057 0 0 0
881 294 1 0.5897 2.7324680147310487 17.518300732513808 17.340227681144498 0 0 0
880 294 2 -1.1794 3.662212905017819 17.42217649521806 17.134220822596994 0 0 0
891 297 1 0.5897 2.154755848238192 19.303691240565833 19.960074360975057 0 0 0
767 256 1 0.5897 0.7466223572859739 10.422631446773892 18.702405398158042 0 0 0
782 261 1 0.5897 2.093219785055415 10.916019146383126 20.62701803251109 0 0 0
895 299 2 -1.1794 0.6295835104802571 15.399875528993041 15.839505915254092 0 0 0
777 259 1 0.5897 0.6924979044318568 13.50874994354029 16.030763141172685 0 0 0
775 259 2 -1.1794 0.7203068509688573 12.578491454632251 15.807033244738182 0 0 0
771 257 1 0.5897 4.108832835159116 13.11166388904784 16.032078058768448 0 0 0
889 297 2 -1.1794 2.2192860944333814 18.638913528375454 20.64570860509672 0 0 0
175 59 2 -1.1794 7.466575781952668 8.838077850630313 1.84170123749591 0 0 0
711 237 1 0.5897 8.76574002956935 5.611053616331892 0.46763980063783617 0 0 1
69 23 1 0.5897 6.718160779857758 2.1970513984770768 1.4844808949351933 0 0 0
67 23 2 -1.1794 7.473472685296681 1.9010782881923223 1.9924523648234436 0 0 0
68 23 1 0.5897 8.212618214995906 1.9755725923982452 1.3889343072977418 0 0 0
46 16 2 -1.1794 8.1249748364912 4.150068570194018 3.645066305272404 0 0 0
47 16 1 0.5897 7.9299592944235755 3.350012954758427 3.157151811291546 0 0 0
48 16 1 0.5897 7.398138810605639 4.238437288537116 4.261478499152084 0 0 0
9 3 1 0.5897 5.275926279141891 4.154238787879514 4.498961125060613 0 0 0
34 12 2 -1.1794 5.21715339022488 2.467549216484915 0.42545235282960636 0 0 0
176 59 1 0.5897 7.480745223866156 7.887766076739039 1.9553950048944437 0 0 0
53 18 1 0.5897 9.802612469787867 3.9930476139157918 3.781995208530905 0 0 0
56 19 1 0.5897 6.814388584239231 5.875593856044763 1.4216131241240038 0 0 0
177 59 1 0.5897 8.13118982923784 9.009907627965703 1.1746893711290598 0 0 0
55 19 2 -1.1794 7.660333734807329 6.103958023820246 1.8067714817019376 0 0 0
143 48 1 0.5897 5.8280241927498455 9.091679932870331 0.7779731705943012 0 0 0
57 19 1 0.5897 7.839744559594643 5.397922064329899 2.42766868788646 0 0 0
58 20 2 -1.1794 8.920294120857532 0.8634947997268382 5.047485211252933 0 0 0
36 12 1 0.5897 5.501241040205618 3.1889682679789475 -0.1358156924774647 0 0 0
142 48 2 -1.1794 5.13476079101817 9.09516543364945 0.11804031770432083 0 0 0
37 13 2 -1.1794 9.17373144568809 2.6990804730002376 -0.0838369964786003 0 0 0
29 10 1 0.5897 7.129467117408333 0.3897314886043914 4.823064765240596 0 0 0
166 56 2 -1.1794 8.51598492478426 7.604735275332025 4.914116124449537 0 0 0
35 12 1 0.5897 5.356233167531058 1.6823889469711522 -0.10403304064778496 0 0 0
145 49 2 -1.1794 9.546213696651806 9.267186486111168 -0.10625059520376823 0 0 0
381 127 1 0.5897 7.72224051336724 5.224200476745373 9.245026496694276 0 0 0
359 120 1 0.5897 5.9737298344690055 2.173187271493558 7.768407633782203 0 0 0
469 157 2 -1.1794 8.963095520281941 9.233437751879567 7.014580280843352 0 0 0
360 120 1 0.5897 5.75003043826019 1.6436446629157142 6.3679970972875175 0 0 0
392 131 1 0.5897 8.016506281988644 2.293218015368667 8.46605285573352 0 0 0
361 121 2 -1.1794 9.21469476228889 2.9773624307691167 7.237149568761661 0 0 0
466 156 2 -1.1794 5.228187674870282 9.129896190510564 7.224584913734129 0 0 0
8 3 1 0.5897 5.74684455276971 3.5932436763522113 5.823818383050979 0 0 0
391 131 2 -1.1794 7.272332798448973 2.0764340428836925 9.02759831667744 0 0 0
362 121 1 0.5897 9.270396860687036 3.8335015000335355 6.81273273566922 0 0 0
393 131 1 0.5897 7.10363279075993 1.150081359231084 8.855477782332258 0 0 0
136 46 2 -1.1794 5.83038411278386 7.296509691297262 5.331568358423814 0 0 0
500 167 1 0.5897 7.370654552854898 9.251200276668499 9.80583508507237 0 0 0
61 21 2 -1.1794 9.527054836023817 5.7173220817311154 6.411782379433153 0 0 0
467 156 1 0.5897 5.284496991664018 8.45500946770893 6.548167267986523 0 0 0
168 56 1 0.5897 8.662090864862762 8.274991056717777 5.58165450243675 0 0 0
62 21 1 0.5897 8.859608852848417 5.749391456809938 7.097062388741405 0 0 0
501 167 1 0.5897 6.512202984966591 8.921601709205344 8.603292761467241 0 0 0
358 120 2 -1.1794 5.429227173983388 2.295756034784042 6.990818727581678 0 0 0
380 127 1 0.5897 7.586700583828153 6.693112968546597 8.904819361803252 0 0 0
7 3 2 -1.1794 5.821247651046667 4.361518198223089 5.25778566401887 0 0 0
470 157 1 0.5897 8.524148264405868 9.030212032029887 7.840523810615672 0 0 0
499 167 2 -1.1794 7.301627346414441 8.6448590470282 9.068424261277704 0 0 0
379 127 2 -1.1794 7.644754740308984 5.825638017409631 8.504445009875564 0 0 0
59 20 1 0.5897 9.045587550018395 1.5159814046223878 5.736495659645519 0 0 0
371 124 1 0.5897 7.691632613101442 3.408910902330644 10.227056966783387 0 0 0
167 56 1 0.5897 8.898166290384593 6.809354304230758 5.284932405660048 0 0 0
60 20 1 0.5897 8.956961664698921 0.02274848159259578 5.503570397953962 0 0 0
137 46 1 0.5897 5.815364184541502 6.339623771608638 5.350506199712217 0 0 0
338 113 1 0.5897 5.7126467949825415 5.457810674337251 8.53151580906859 0 0 0
471 157 1 0.5897 9.894601614519331 9.24443327965039 7.234272715670232 0 0 0
138 46 1 0.5897 6.745877931227557 7.51885849976465 5.162622966909061 0 0 0
28 10 2 -1.1794 6.223977434219038 0.42420958818531906 5.131292527902415 0 0 0
331 111 2 -1.1794 6.030326924678729 4.598671811374442 12.51388702087907 0 0 0
372 124 1 0.5897 7.38745640534487 4.377874991704341 11.349724580801366 0 0 0
384 128 1 0.5897 9.469187881700842 0.8585851883840948 11.429080261089114 0 0 0
791 264 1 0.5897 5.6799537758762515 8.803518934769746 14.752411447947008 0 0 0
705 235 1 0.5897 7.988569901284858 5.650932574382455 15.17765789154045 0 0 0
461 154 1 0.5897 5.719847012289972 8.053670655780502 12.818178792277584 0 0 0
382 128 2 -1.1794 8.830919365773592 0.7870995093343891 12.138762419833341 0 0 0
354 118 1 0.5897 5.915023248084417 1.5337239987020383 12.879452595172527 0 0 0
353 118 1 0.5897 6.92156962001049 1.028754910803614 11.867745900888787 0 0 0
685 229 2 -1.1794 9.533180778116794 2.902969876672282 13.89883407488435 0 0 0
383 128 1 0.5897 9.047667983776925 1.5079737007955227 12.729989687686453 0 0 0
686 229 1 0.5897 9.12194078397748 2.6381937583806394 14.721586419736722 0 0 0
352 118 2 -1.1794 5.980852761845005 1.0944148562730247 12.03160634054873 0 0 0
684 228 1 0.5897 5.878698571733882 3.3774212475915677 13.862980035959989 0 0 0
386 129 1 0.5897 9.00480657333763 4.6062787780619745 13.52812890294679 0 0 0
462 154 1 0.5897 5.167150932999651 7.565817096829238 11.495989262788683 0 0 0
492 164 1 0.5897 8.058484184607279 7.548409750029036 11.734273215786116 0 0 0
385 129 2 -1.1794 8.979681469678548 5.534789009808083 13.759330419557449 0 0 0
490 164 2 -1.1794 8.987822719523045 7.531692974868391 11.962647833546615 0 0 0
333 111 1 0.5897 6.063351405395953 5.551213217444143 12.6021148694693 0 0 0
491 164 1 0.5897 9.442341285998975 7.559440047212202 11.120745837662234 0 0 0
682 228 2 -1.1794 5.698707639999849 2.570603103738239 14.345523607780407 0 0 0
793 265 2 -1.1794 9.300782897827135 9.204866649063456 14.274535502406069 0 0 0
794 265 1 0.5897 9.063059048561463 8.631117809228963 13.546189378659953 0 0 0
387 129 1 0.5897 9.00100149491487 5.992089623252892 12.918730506223014 0 0 0
460 154 2 -1.1794 5.838846053382312 7.377434089652509 12.151314693464105 0 0 0
790 264 2 -1.1794 5.211145547661349 9.176288849439244 14.005816888222249 0 0 0
332 111 1 0.5897 5.330699496355906 4.440470422073331 11.880141256881403 0 0 0
377 126 1 0.5897 9.838453432643568 4.191860159195001 10.387249793522201 0 0 0
824 275 1 0.5897 7.9632814443351885 8.735741891764835 15.235263678454956 0 0 0
717 239 1 0.5897 7.315211345279694 2.4500246363971363 15.511771353923509 0 0 0
370 124 2 -1.1794 8.076874108878942 4.121163676710798 10.737410552926711 0 0 0
657 219 1 0.5897 6.4790342207715135 4.000367699864748 18.797409745615596 0 0 0
716 239 1 0.5897 7.986856899714857 1.1597592974697415 15.93117537348135 0 0 0
655 219 2 -1.1794 5.751066537059437 4.322370853936568 19.32890547834758 0 0 0
709 237 2 -1.1794 9.326801890910977 5.441161758794481 20.755182510111716 0 0 0
715 239 2 -1.1794 8.103831439217997 2.109773690008069 15.934178558361486 0 0 0
823 275 2 -1.1794 7.285478346315872 8.501854630833948 15.869308276624727 0 0 0
706 236 2 -1.1794 8.607278348799795 1.1961347774245092 18.80147085185849 0 0 0
696 232 1 0.5897 7.884916435301299 4.690144192036896 17.28969969328795 0 0 0
708 236 1 0.5897 7.650748500312867 1.1791940708041617 18.77214649691051 0 0 0
707 236 1 0.5897 8.84635859908604 0.40865530889309215 19.290254771913858 0 0 0
38 13 1 0.5897 8.99501609920275 2.0828757662846056 20.250034166234727 0 0 -1
676 226 2 -1.1794 5.823039359764872 0.7324105897910254 19.32722806057189 0 0 0
694 232 2 -1.1794 8.070547800452113 3.9821613663327975 17.906539665740667 0 0 0
695 232 1 0.5897 8.080751822276271 3.1910105959207056 17.367852467293865 0 0 0
677 226 1 0.5897 5.4747191818784895 0.9697023004902863 18.46786248330278 0 0 0
815 272 1 0.5897 8.768529356237662 6.576494660305029 19.48931082178195 0 0 0
144 48 1 0.5897 5.433695952742339 8.47546326430344 20.496804043260745 0 0 -1
786 262 1 0.5897 6.781041406384493 7.204671157619294 19.106690111055734 0 0 0
784 262 2 -1.1794 5.8345770366866185 7.120995742423516 19.22203268028369 0 0 0
785 262 1 0.5897 5.70702143691704 6.217506685902053 19.511237156891227 0 0 0
825 275 1 0.5897 7.4200132330349335 7.568062472128019 16.030952022236498 0 0 0
816 272 1 0.5897 8.682000569559897 8.087576760495486 19.457365816443726 0 0 0
814 272 2 -1.1794 8.50139785115879 7.307780629831885 18.93247982627628 0 0 0
710 237 1 0.5897 9.227998714387953 4.503741921233916 20.588798200729528 0 0 0
703 235 2 -1.1794 7.477990244153696 5.771174399765156 15.978285944955635 0 0 0
656 219 1 0.5897 4.996685080822647 4.301892125272541 18.74016942559666 0 0 0
704 235 1 0.5897 6.585268114185431 5.529126662626356 15.732181387581608 0 0 0
154 52 2 -1.1794 8.041062734112753 10.870975177438947 3.794800422182105 0 0 0
819 273 1 0.5897 8.460051353525257 12.31725036898886 0.24914507329475977 0 0 1
231 77 1 0.5897 5.435328424397049 18.624577383665923 0.8973221510587948 0 0 0
155 52 1 0.5897 7.832716437850423 10.132176435304952 3.222989287865351 0 0 0
165 55 1 0.5897 7.7505399504425885 11.93103412781557 2.3993927931407466 0 0 0
264 88 1 0.5897 8.942217357415585 17.39412211572131 3.946503801349892 0 0 0
164 55 1 0.5897 6.693540086784203 12.433877660011971 1.4394705730747577 0 0 0
163 55 2 -1.1794 7.575063367257913 12.622397658167602 1.761118011343266 0 0 0
156 52 1 0.5897 8.996713871039573 10.922498092095086 3.78171964180769 0 0 0
285 95 1 0.5897 7.488201311965251 14.582183472820253 1.894414634927596 0 0 0
254 85 1 0.5897 8.644164789329542 16.050405565383528 0.2687842372851131 0 0 0
263 88 1 0.5897 7.513224984758561 17.658441889963612 4.370422850214094 0 0 0
271 91 2 -1.1794 7.517317399478716 19.093529878116712 1.4135734511954152 0 0 0
251 84 1 0.5897 5.9821326981789715 15.820314408168686 0.5102979580494055 0 0 0
283 95 2 -1.1794 7.416662168812087 15.51305102306049 1.6832910988891527 0 0 0
262 88 2 -1.1794 8.048756108194361 17.443387455314173 3.606803317096591 0 0 0
284 95 1 0.5897 7.669320700384433 15.96219509832928 2.4898847406907505 0 0 0
272 91 1 0.5897 7.4936085142566435 18.488922866528064 2.155246778363846 0 0 0