LAMMPS data file via write_data, version 30 Jul 2021, timestep = 5750000

864 atoms
2 atom types
576 bonds
1 bond types
288 angles
1 angle types

0.5017119417114575 17.70586045828768 xlo xhi
1.6824816666499807 21.946696133353534 ylo yhi
0.6120873970239273 21.60110840297432 zlo zhi

Masses

1 1.00794
2 15.9994

Pair Coeffs # lj/cut/tip4p/long/omp

1 0 0
2 0.21084 3.1668

Bond Coeffs # harmonic/omp

1 450 0.9572

Angle Coeffs # harmonic/omp

1 55 104.52

Atoms # full

231 1 1 0.5897 1.038187298967114 3.0415352710663037 3.2269791591824872 2 6 3
381 1 1 0.5897 4.6007266794063035 5.248056740705579 2.4151874180855355 9 5 -2
270 1 1 0.5897 1.2943943462375553 3.836760693683652 5.063392045912626 2 5 5
229 1 2 -1.1794 1.9372772923475667 2.8309484064246924 3.4792993255434697 2 6 3
460 1 2 -1.1794 1.8648460896419832 6.168733849071463 1.401770122562131 4 2 1
379 1 2 -1.1794 3.892045053227077 5.383770363291546 3.04424474279592 9 5 -2
770 1 1 0.5897 4.384319749593523 4.653451746051509 4.627273288468869 3 -1 2
230 1 1 0.5897 1.8994264795674023 1.9171922785690334 3.762118025747824 2 6 3
462 1 1 0.5897 2.52851299359029 5.804935863313437 1.987913089407289 4 2 1
461 1 1 0.5897 1.0414794615390117 6.068037516473015 1.8795904238328724 4 2 1
769 1 2 -1.1794 4.784128273370717 4.267877925517946 5.4069213991159115 3 -1 2
380 1 1 0.5897 4.143400403753837 6.174233147167854 3.522106812272775 9 5 -2
371 1 1 0.5897 2.497305804834224 4.769490585832228 10.889197896738432 1 9 1
87 1 1 0.5897 1.4307663946209992 4.709637948751988 7.443272477179685 -2 6 3
36 1 1 0.5897 3.961988172160089 6.433290567914007 6.599541937728673 -7 4 -1
403 1 2 -1.1794 4.670291034253582 5.827880674103488 8.186089619943877 5 -1 0
548 1 1 0.5897 2.8271581499292324 2.485342625923154 9.335368209933703 7 3 4
85 1 2 -1.1794 1.7443353238420891 5.171011511008032 8.22121040360928 -2 6 3
86 1 1 0.5897 2.6086798120850654 5.499462203242723 7.97335077781082 -2 6 3
220 1 2 -1.1794 2.7986860991179636 6.607654903501133 11.051144060102393 2 -2 3
268 1 2 -1.1794 0.8470841549199801 3.821568707807249 5.909590256160032 2 5 5
359 1 1 0.5897 4.709120667745386 2.607472120520794 8.508568097747329 6 0 -4
11 1 1 0.5897 3.2027360260694753 2.374847134876741 14.63263343937445 -1 1 5
477 1 1 0.5897 3.3391684666667363 5.322801348323109 15.464173248653845 1 -3 -1
475 1 2 -1.1794 2.5136172381033455 5.7568122440258085 15.248623752306711 1 -3 -1
77 1 1 0.5897 4.554604543921118 3.617945041735518 15.665593142815505 -6 -5 -6
401 1 1 0.5897 1.6129928527310766 6.423829305475839 13.879154291337413 -3 -4 1
476 1 1 0.5897 1.8393466447471847 5.189060046054053 15.621999558455167 1 -3 -1
12 1 1 0.5897 2.537369130058857 3.005712717827433 13.427840974777009 -1 1 5
671 1 1 0.5897 0.9324793563192055 2.449203210888892 11.537335399440275 4 4 0
10 1 2 -1.1794 2.7033146386982425 2.1601052187147696 13.844704980618873 -1 1 5
372 1 1 0.5897 3.453780660964218 3.7321624887850935 11.438129445853592 1 9 1
505 1 2 -1.1794 0.5780299309746421 3.8936890952234084 16.161598956117224 3 3 -1
76 1 2 -1.1794 3.927810178931986 3.0840147838168854 16.153891717542376 -6 -5 -6
400 1 2 -1.1794 1.1559700927526608 6.746692256661369 13.102456638614981 -3 -4 1
222 1 1 0.5897 2.3705632830349237 6.739434535485 11.897189014331923 2 -2 3
370 1 2 -1.1794 2.548766916814737 3.84962586389382 11.149138159472683 1 9 1
402 1 1 0.5897 0.9035336378847663 5.955534334194355 12.62631595429074 -3 -4 1
22 1 2 -1.1794 1.0576676076398956 3.843920973914612 20.58479901719667 -4 2 1
23 1 1 0.5897 1.8596481657845785 3.77084604521371 20.06725844972069 -4 2 1
421 1 2 -1.1794 3.4086293896224733 4.130943883959636 18.98266727338072 -5 2 2
423 1 1 0.5897 3.315766402533375 3.735411780135439 18.115888379681024 -5 2 2
422 1 1 0.5897 4.2913743936171596 3.889411757728255 19.263373407974566 -5 2 2
395 1 1 0.5897 3.730105282697039 5.807800337081611 18.377060429426926 0 2 4
506 1 1 0.5897 1.250620413319828 3.3365703850616555 16.55352599217612 3 3 -1
24 1 1 0.5897 1.2754006482547275 4.467001320130837 21.278143109222025 -4 2 1
394 1 2 -1.1794 3.728728572148097 6.728672934868598 18.115601685620376 0 2 4
571 1 2 -1.1794 1.7230531189367924 1.836612668144668 17.889103806118968 4 -2 -4
78 1 1 0.5897 4.435375968571956 2.3280468131255305 16.449351116490046 -6 -5 -6
604 1 2 -1.1794 2.5957134192700573 10.670403985859728 1.091097964804736 -4 1 0
492 1 1 0.5897 0.7114029809233858 7.8880310584278295 5.148759708320916 5 2 2
556 1 2 -1.1794 1.5078510184166831 8.495938002374041 3.3289637525762936 2 -2 3
558 1 1 0.5897 2.1079971024349664 8.01473785716895 2.759174886985774 2 -2 3
643 1 2 -1.1794 2.869138301057594 10.159664399240318 5.049209873718383 3 -3 1
654 1 1 0.5897 4.547738047410367 8.50490610824841 0.9009826287125982 1 -1 -2
294 1 1 0.5897 1.3736131379783623 11.271054846829582 5.256031954176346 -2 0 3
645 1 1 0.5897 3.189047279771809 11.023445884206364 5.309945773181221 3 -3 1
653 1 1 0.5897 4.0224379500583085 9.747553842448982 1.5881499342688337 1 -1 -2
35 1 1 0.5897 3.9455285264629034 7.371598626373071 5.411390643528981 -7 4 -1
652 1 2 -1.1794 4.7667232305236835 9.145620123897178 1.5776905776865977 1 -1 -2
557 1 1 0.5897 2.069155349140805 9.104699087434035 3.8092877849523674 2 -2 3
605 1 1 0.5897 1.6807186309096545 10.390602300799191 1.1205513206611823 -4 1 0
644 1 1 0.5897 3.217379964714806 9.564218982560037 5.713056134896486 3 -3 1
343 1 2 -1.1794 4.507288016878055 9.173735513045973 7.2934972865130145 -2 2 1
708 1 1 0.5897 2.5736795347242865 7.651699450399109 9.527116435233774 -1 -3 -4
706 1 2 -1.1794 2.5314431289771275 8.368049545005793 8.89353371515005 -1 -3 -4
95 1 1 0.5897 3.1655072776896653 10.246595914231913 8.793775881409761 -3 3 2
94 1 2 -1.1794 3.095784614890755 11.13837433177989 9.134722944078204 -4 3 2
96 1 1 0.5897 3.9147881841794407 11.278276835383766 9.610148807936763 -4 3 2
707 1 1 0.5897 1.5953974634302976 8.500230017902526 8.742780009308413 -1 -3 -4
753 1 1 0.5897 2.100736493894628 10.881826078077102 10.385912933685288 4 1 1
345 1 1 0.5897 3.906644257211955 8.672993209681403 7.845631795675243 -2 2 1
621 1 1 0.5897 1.433626785096474 11.701776463006386 8.468541790760032 2 -1 2
619 1 2 -1.1794 0.5216486421668792 11.802416126541731 8.195537875007002 2 -1 2
491 1 1 0.5897 1.2716660941522302 7.270588035709952 6.412522389601998 5 2 2
34 1 2 -1.1794 3.3762100219689026 6.8211828736559585 5.94929966780431 -7 4 -1
780 1 1 0.5897 0.949616271430618 9.298638789763782 15.133679119809287 -3 -1 1
682 1 2 -1.1794 4.188911972501602 7.799358365382021 14.743034573302623 7 0 -5
683 1 1 0.5897 3.674129113488708 8.356496313413725 14.159105894725307 7 0 -5
752 1 1 0.5897 1.1936516380534106 11.583106244279628 11.37468890449375 4 1 1
830 1 1 0.5897 4.4513841660867275 10.046971697118376 11.93077376546529 4 3 2
778 1 2 -1.1794 1.6319391153001621 9.443821707291127 15.789230080250737 -3 -1 1
829 1 2 -1.1794 3.8482998243692568 9.550182287471003 12.483813061137338 4 3 2
684 1 1 0.5897 3.5990021556855907 7.080695121583774 14.97085739317276 7 0 -5
768 1 1 0.5897 0.5613840927837921 9.312967858657103 11.265829425836221 1 0 2
831 1 1 0.5897 2.9790953357787955 9.76797604389441 12.147031720113471 4 3 2
751 1 2 -1.1794 1.6640649709902242 10.762147176586407 11.229335468149218 4 1 1
647 1 1 0.5897 2.4635926776341224 11.046693272589037 16.278113560338525 -2 -1 0
800 1 1 0.5897 4.641479712834063 10.578035615080822 13.780970982414683 -1 -3 3
221 1 1 0.5897 3.666844383072481 6.996468428356277 11.158331636340513 2 -2 3
272 1 1 0.5897 4.6100612116852595 9.79042045896442 17.799657938080898 -2 4 3
582 1 1 0.5897 0.6625549355422978 8.414080168689171 19.188439255863926 -3 -4 -2
609 1 1 0.5897 2.06964812878508 7.212517971685687 17.735106416664742 3 4 4
107 1 1 0.5897 3.226938246165958 8.874152038582743 20.121596896535426 -3 0 3
608 1 1 0.5897 0.6084616551462881 6.8306501262201635 17.84172786679512 3 4 4
126 1 1 0.5897 4.143621720842862 11.043116751472398 19.038122301742632 1 1 2
124 1 2 -1.1794 3.314163165757503 10.565272965279327 19.032397669206947 1 1 2
108 1 1 0.5897 2.5312607408169012 7.888326222635234 21.03617082347562 -3 0 3
125 1 1 0.5897 2.925880596190615 10.768638850723393 18.18136459882784 1 1 2
606 1 1 0.5897 2.7934983300991925 10.746497183237102 21.146596782271473 -4 1 -1
106 1 2 -1.1794 3.2933128271812615 7.98289773286038 20.464590820735175 -3 0 3
607 1 2 -1.1794 1.186419918984285 7.547357666389126 17.579663426146862 3 4 4
396 1 1 0.5897 3.627422891872944 7.211013267394356 18.936241188254822 0 2 3
779 1 1 0.5897 1.5611908995416743 8.693535985755044 16.379509371590288 -3 -1 1
273 1 1 0.5897 4.3627154721545764 8.869217538801607 16.62388695550501 -2 4 3
397 1 2 -1.1794 3.414997441984553 15.054503368758084 2.7779962957049604 7 1 -4
577 1 2 -1.1794 1.7129769262079941 12.93252182345819 2.526165149294264 -1 3 -2
399 1 1 0.5897 3.128187003191514 15.572582707653233 2.025868892035177 7 1 -4
347 1 1 0.5897 2.1496237373938687 16.195196207711376 5.585149638510174 -5 4 -5
398 1 1 0.5897 3.5682340869656826 15.699047030088572 3.468992999091548 7 1 -4
579 1 1 0.5897 2.471821361649848 13.496141731678877 2.6773960280102216 -1 3 -2
578 1 1 0.5897 2.0795117400652776 12.132477913813416 2.149387858159064 -1 3 -2
348 1 1 0.5897 1.5054400719163534 15.005630571446037 4.905307781800105 -5 4 -5
727 1 2 -1.1794 1.0415376431171275 15.372561673669916 0.6284707590306381 0 1 0
702 1 1 0.5897 0.8665683381454503 16.736821266058012 1.8136410435443124 1 0 3
346 1 2 -1.1794 2.2780467544032152 15.263187320212985 5.408403772919175 -5 4 -5
133 1 2 -1.1794 3.78768860637473 12.878684909650104 5.476801865739232 1 -5 -2
135 1 1 0.5897 3.262565331350957 13.667172660616007 5.339268831901598 1 -5 -2
185 1 1 0.5897 4.653720844292404 12.198144730405286 4.070658026324721 -4 8 5
542 1 1 0.5897 0.5349118315219971 13.563032962986371 3.669902637176727 -6 4 2
261 1 1 0.5897 2.4728756432098526 16.213285776564774 9.812413693408962 4 -1 3
525 1 1 0.5897 1.2647629607451063 14.719387991039245 6.683415481747047 1 -1 3
523 1 2 -1.1794 0.6751085710408922 14.586859640322386 7.4257856056861895 1 -1 3
524 1 1 0.5897 1.255029124236695 14.525375717160392 8.184928019410075 1 -1 3
844 1 2 -1.1794 2.788735764537012 14.366203882864871 9.211022662530082 2 2 6
134 1 1 0.5897 4.223308447178718 13.023943890589578 6.31676736490625 1 -5 -2
846 1 1 0.5897 2.799356760568621 14.005494272993943 10.097679552956322 2 2 6
845 1 1 0.5897 3.632537881939712 14.110912286204464 8.837935628664598 2 2 6
738 1 1 0.5897 2.5375706478203046 14.273356496864567 11.902108881517181 0 -2 -1
481 1 2 -1.1794 1.4709259739852212 12.330037771479764 13.856394811497417 -2 3 -3
736 1 2 -1.1794 3.2587725596770967 13.655564850132329 12.022831105235124 0 -2 -1
151 1 2 -1.1794 4.035048568977533 15.989510781681947 15.214195078094507 2 -2 -1
152 1 1 0.5897 3.171301360705003 15.85020963940796 14.825717762391873 2 -2 -2
737 1 1 0.5897 2.8832281165175417 12.947582106118734 12.546382530301702 0 -2 -1
511 1 2 -1.1794 1.1930065352015244 14.939038375486424 14.901095957997722 -1 2 -4
483 1 1 0.5897 1.2859642511137648 13.244357216866852 14.071348591117342 -2 3 -3
153 1 1 0.5897 4.528432703978897 16.45783011367247 14.540677155176576 2 -2 -1
190 1 2 -1.1794 1.1534622442410085 15.400849021980175 11.513368140821349 4 6 -5
513 1 1 0.5897 0.9627734284863929 14.85785363577779 15.826719410711071 -1 2 -4
482 1 1 0.5897 2.014550969265606 12.018547451242513 14.580155395479478 -2 3 -3
192 1 1 0.5897 0.720186296047623 14.586586714249048 11.257203115541813 4 6 -5
512 1 1 0.5897 0.6619155642912672 15.670015891972271 14.584903830155346 -1 2 -4
275 1 1 0.5897 4.659183352372251 14.346590129051801 15.852384518508316 -2 -1 -3
593 1 1 0.5897 2.0134898038529445 13.042368361079062 20.19076244019335 1 -3 -6
592 1 2 -1.1794 2.74878968964111 13.655346602255197 20.195764744244755 1 -3 -6
657 1 1 0.5897 4.492302720487455 13.819556162603568 20.564158307555132 -1 0 -1
594 1 1 0.5897 2.5720944041324585 14.247994729607184 19.465053491912307 1 -3 -6
457 1 2 -1.1794 2.5079896332862397 15.102053156747289 17.764910988203177 4 0 -3
458 1 1 0.5897 3.4076867207104864 15.275682080026277 17.487822541596714 4 0 -3
648 1 1 0.5897 1.6649588243705253 12.123934153986877 16.980947027607463 -2 -1 0
459 1 1 0.5897 2.06709936116596 15.948699570032662 17.693025266421227 4 0 -3
729 1 1 0.5897 1.6805427526949428 14.702912653475384 21.373350715839305 0 1 -1
276 1 1 0.5897 3.9946558769736398 13.147608920532688 16.495138082389673 -2 -1 -3
646 1 2 -1.1794 2.5389691311202793 11.92853044613638 16.64287526899772 -2 -1 0
728 1 1 0.5897 0.7031733629918463 15.69707046087021 20.78285734672062 0 1 -1
274 1 2 -1.1794 4.795071628689815 13.672197533925553 16.5180434470766 -2 -1 -3
279 1 1 0.5897 3.29274735701439 19.30338283893947 3.3750524771934383 0 -2 2
735 1 1 0.5897 3.2954039026231894 18.004604090954107 1.0708817125749346 -3 -1 -2
834 1 1 0.5897 1.8783455147701213 20.199758242343286 1.0792044101598142 -1 -6 0
664 1 2 -1.1794 1.5137762110414437 20.532558132437998 4.206293542036757 3 -2 3
617 1 1 0.5897 1.810888465136933 18.61350977555481 5.180901072416487 1 2 2
281 1 1 0.5897 4.4780770958122735 20.969430024273446 1.57701190686564 0 -1 3
278 1 1 0.5897 2.3387430728112935 18.13813918149458 3.2190101650498146 0 -2 2
695 1 1 0.5897 4.281616944495262 17.682065900853495 4.3191140440186135 6 -1 -1
277 1 2 -1.1794 3.2482247348001225 18.39705894706219 3.0700718125158204 0 -2 2
280 1 2 -1.1794 3.643478355255774 21.13685304169955 1.1390731761792456 0 -1 3
701 1 1 0.5897 0.7882689303144713 18.24739722571567 1.8790299155144365 1 0 3
666 1 1 0.5897 1.1217261099362776 20.7914180525547 5.040358692474042 3 -2 3
832 1 2 -1.1794 1.0092513000200407 19.803861855470544 1.013429986172551 -1 -6 0
262 1 2 -1.1794 4.717205652434183 20.295584576036912 5.067166296731432 1 -4 7
665 1 1 0.5897 0.7666624213489492 20.352318410874897 3.6355841969160108 3 -2 3
700 1 2 -1.1794 0.6957249450611703 17.460606329710366 2.4164021845860093 1 0 3
696 1 1 0.5897 4.518273128157175 17.103852481009163 5.698217326022488 6 -1 -1
282 1 1 0.5897 3.2898819414284395 21.907717819546434 1.5830518832073557 0 -1 3
536 1 1 0.5897 0.7209435298164413 17.2027582304805 8.900015969966974 2 6 1
283 1 2 -1.1794 4.720308459067127 17.429235382273983 7.655834402913303 9 -3 -1
813 1 1 0.5897 1.089076385608867 20.362421293823054 7.431422349758599 -6 5 -4
812 1 1 0.5897 2.0202999294874346 20.476231357266286 8.619747848108013 -6 5 -4
618 1 1 0.5897 1.6617062175927937 18.60054929284446 6.68748897002648 1 2 2
259 1 2 -1.1794 2.4840952600247492 17.132746407744754 9.546256684643588 4 -1 3
549 1 1 0.5897 3.396988604359426 21.611874544804568 10.155909531804479 7 2 4
811 1 2 -1.1794 1.5547771469785194 19.836057290617106 8.081377974567829 -6 5 -4
260 1 1 0.5897 3.0649451573935518 17.155364372622678 8.785688223326702 4 -1 3
547 1 2 -1.1794 3.2810592457403454 21.91063969117953 9.253870632874856 7 2 4
616 1 2 -1.1794 1.7051209890170054 18.02199141084308 5.926072622404571 1 2 2
47 1 1 0.5897 1.1492285455398632 17.427780010627195 13.385785204777543 4 -1 -1
65 1 1 0.5897 3.379083671093389 17.66151303121468 12.597493395441154 4 -1 -6
730 1 2 -1.1794 2.149274354415134 20.082837517337516 16.154673741142986 2 2 -6
155 1 1 0.5897 3.0284854783497246 19.73558378140218 12.081681304075808 3 2 -4
66 1 1 0.5897 2.6676618167470747 17.882175190561252 11.279373195514179 4 -1 -6
64 1 2 -1.1794 2.572364779045221 18.015113620861367 12.222562961047725 4 -1 -6
154 1 2 -1.1794 3.334148544058887 20.598789043365446 11.802740083000392 3 2 -4
156 1 1 0.5897 3.217574769008646 21.15512448916477 12.572989754075678 3 2 -4
731 1 1 0.5897 1.4117004903880679 20.13865784791175 15.547027943736719 2 2 -6
473 1 1 0.5897 3.795700551579812 20.284918649696994 15.132796132438573 1 0 -1
472 1 2 -1.1794 4.726320920541671 20.340082736324916 14.915337462573893 1 0 -1
741 1 1 0.5897 0.9007571386241416 21.068615061925463 13.373569794385741 0 0 2
810 1 1 0.5897 0.8080243091156873 17.321771877576275 15.996140738037328 2 1 -4
740 1 1 0.5897 0.6244919593401477 19.613596647987308 13.687943881134144 0 0 2
572 1 1 0.5897 0.9344301854429553 21.745190619657176 18.298942385203322 4 -3 -4
407 1 1 0.5897 3.4407539409090537 18.152519695489016 18.45224859641063 -5 -2 2
406 1 2 -1.1794 2.6931159307426937 18.542294184465185 18.905570100464313 -5 -2 2
408 1 1 0.5897 2.647010798919591 18.07385941908818 19.73912705377659 -5 -2 2
266 1 1 0.5897 3.4639362039637325 20.190069542500062 19.076261808167178 -3 2 -1
267 1 1 0.5897 3.923823532168456 21.218280867358757 20.087962402906225 -3 2 -1
265 1 2 -1.1794 3.8896046172439585 21.044558038344476 19.14721062777715 -3 2 -1
734 1 1 0.5897 4.453060708632062 17.225485851397956 21.47248203397567 -3 -1 -3
809 1 1 0.5897 1.381927166795914 17.96561695249683 17.240474215646874 2 1 -4
573 1 1 0.5897 2.4387161181313552 21.813306247943245 18.456144044351607 4 -3 -4
833 1 1 0.5897 0.7282700491087898 19.989205233646096 21.10630288238319 -1 -6 -1
291 1 1 0.5897 0.7074500569632508 19.464825540190002 19.065840123820397 -6 -5 -6
808 1 2 -1.1794 0.8347231489693324 17.23616551597206 16.94921812005833 2 1 -4
733 1 2 -1.1794 3.5165829307186933 17.38938560421777 21.360624888688367 -3 -1 -3
732 1 1 0.5897 2.0269126998279905 20.822986961520456 16.749296002017118 2 2 -6
299 1 1 0.5897 7.648233975274845 3.4144214753712 2.934616319051899 -5 0 4
771 1 1 0.5897 5.496042130340276 4.866738597723444 5.632674594785853 3 -1 2
128 1 1 0.5897 5.757765256378546 5.994391522632145 0.6492157135411925 1 2 -4
638 1 1 0.5897 7.7306186223455935 6.508645883155222 1.8485393503584633 -7 2 6
298 1 2 -1.1794 8.338641101635044 3.7423686411085813 2.3582905368118423 -5 0 4
300 1 1 0.5897 7.869895155218708 4.167623450943915 1.6401002866339878 -5 0 4
448 1 2 -1.1794 6.26456635886368 2.5807731934057982 4.105024881504383 5 0 -5
227 1 1 0.5897 8.101969070415274 5.481602020953005 5.207936908025901 1 -2 -1
639 1 1 0.5897 8.162578810483542 6.482575705914105 3.2994044057974588 -7 2 6
449 1 1 0.5897 6.810961390970312 2.4313997777857814 4.8767154466096185 5 0 -5
450 1 1 0.5897 5.6796106434046125 3.294475367772491 4.3596288750016665 5 0 -5
127 1 2 -1.1794 5.774739070311656 5.149344250174742 1.0986474864121016 1 2 -4
226 1 2 -1.1794 7.233994689519009 5.744470520038935 5.514368149950975 1 -2 -1
636 1 1 0.5897 7.635564442510098 5.647553465581678 9.559509115657002 -7 1 2
429 1 1 0.5897 8.234189970839964 2.331970045778598 11.045840781890123 -2 1 -1
358 1 2 -1.1794 5.40529767294178 3.172440696476517 8.17312649985368 6 0 -4
634 1 2 -1.1794 7.8919706155584 6.209367937854591 8.828084820090456 -7 1 2
468 1 1 0.5897 8.110961535269665 2.5784619411740026 6.985219758289831 3 -4 4
635 1 1 0.5897 8.092756202104965 5.600828341590364 8.116933288266106 -7 1 2
405 1 1 0.5897 4.983190123378367 4.935947129672705 8.33746743146304 5 -1 0
29 1 1 0.5897 6.78334585937251 2.469610975186168 9.002043145576145 -4 2 5
28 1 2 -1.1794 7.2619247533470555 1.9213795739078239 9.623977977728671 -4 2 5
466 1 2 -1.1794 7.690788985349525 1.8706039767444422 6.496574123165511 3 -4 4
97 1 2 -1.1794 9.032637895328323 4.118245768399113 7.3455997967382025 4 -9 6
404 1 1 0.5897 4.937937779255225 6.311947688999785 8.967384463275511 5 -1 0
360 1 1 0.5897 5.231469356863566 3.2356509595113003 7.233881475174555 6 0 -4
863 1 1 0.5897 8.99152641478213 4.542326025780371 10.783577405872967 0 0 3
228 1 1 0.5897 7.390836454142187 6.536041054707426 6.029323662607874 1 -2 -1
849 1 1 0.5897 7.1593098217413775 2.36114972299063 14.6277881775413 2 -1 1
419 1 1 0.5897 7.013703322996166 6.162200442706763 11.654575290028655 -6 -1 6
847 1 2 -1.1794 7.834430732189844 2.754183991598323 15.181076055355339 2 -1 1
859 1 2 -1.1794 5.487850128802149 5.0457773611339665 14.89449705625425 -5 -2 -1
861 1 1 0.5897 6.071166050701734 5.700915174308982 15.277772144904198 -5 -2 -1
663 1 1 0.5897 6.136692126348653 4.204363355686997 11.376233526032186 -4 -3 -1
662 1 1 0.5897 5.545188043297415 2.9672358404913477 12.018042138664503 -4 -3 -1
848 1 1 0.5897 8.332964764197968 3.31677420515326 14.58834761349817 2 -1 1
418 1 2 -1.1794 7.48867656964215 5.332244774268647 11.61043119270058 -6 -1 6
860 1 1 0.5897 5.800721180499207 4.942343453818644 13.995717815607511 -5 -2 -1
420 1 1 0.5897 8.021473814770653 5.318038647288224 12.405606210121697 -6 -1 6
70 1 2 -1.1794 6.127851132163989 1.91214739755986 13.319876666436489 5 2 -5
427 1 2 -1.1794 8.847381147219382 2.3661238780529414 11.780149439265909 -2 1 -1
661 1 2 -1.1794 5.368585672648842 3.6334623352578252 11.353716315005114 -4 -3 -1
470 1 1 0.5897 8.257826792731862 4.265788629266838 18.073624244284744 3 -3 3
144 1 1 0.5897 6.813080437229417 5.931681631966771 17.503740887282653 3 6 3
471 1 1 0.5897 7.380770262377759 3.6697086605672133 16.992999753034358 3 -3 3
614 1 1 0.5897 6.210340710524442 2.6252473682397808 20.177372452886093 -5 5 3
469 1 2 -1.1794 7.345435617959683 4.1946061299655355 17.792782762229812 3 -3 3
613 1 2 -1.1794 5.867681559366698 3.4848338864404163 19.932294773546836 -5 5 4
615 1 1 0.5897 6.455416403233474 3.7891968339833912 19.240678188946504 -5 5 4
142 1 2 -1.1794 6.392827895723051 6.692652422883356 17.102891355514092 3 6 3
129 1 1 0.5897 5.876646273965626 4.506292933061907 21.385905607400808 1 2 -5
764 1 1 0.5897 8.897627774348631 2.7488065867638594 19.383567721191046 -8 -2 -4
856 1 2 -1.1794 8.897288157426855 5.946313929494759 20.98661535147658 0 -2 -5
6 1 1 0.5897 7.229901440996654 6.691164807539994 20.640698343138105 1 2 1
186 1 1 0.5897 5.357334580219756 10.907119384924233 3.7095394406630353 -4 8 5
93 1 1 0.5897 6.210358219811893 7.458167071184803 3.6257885046771077 1 -7 1
393 1 1 0.5897 8.996395882676397 8.139257100257097 1.9848591996382585 2 -2 -2
92 1 1 0.5897 4.97118958317542 8.18392364346722 3.146242301218114 1 -7 1
91 1 2 -1.1794 5.297510758077802 7.631106697637287 3.8563646570433883 1 -7 1
80 1 1 0.5897 6.605537481146617 9.377509523187786 4.600542701609632 0 2 -4
81 1 1 0.5897 7.822816519172117 10.266168294609878 4.456379747239405 0 2 -4
79 1 2 -1.1794 6.882236730149329 10.293384050928925 4.632268203438912 0 2 -4
18 1 1 0.5897 6.454961667935041 9.830393821425822 0.9736801022028938 -3 3 0
184 1 2 -1.1794 4.870779543825784 11.636945789453693 3.3261412717019097 -4 8 5
392 1 1 0.5897 8.714045324407126 9.4371246235472 1.2581979377300283 2 -2 -2
637 1 2 -1.1794 7.720429524047156 7.030620190211244 2.65091940011405 -7 2 6
344 1 1 0.5897 5.234283024509962 8.574300986481694 7.124613399692264 -2 2 1
493 1 2 -1.1794 7.228682738143016 8.264872062567049 6.643264263332752 -4 0 -1
611 1 1 0.5897 5.680755859951576 10.519288650199073 7.265587528239302 4 2 -1
610 1 2 -1.1794 6.250942999946763 11.281138115503484 7.369725714970546 4 2 -1
455 1 1 0.5897 7.898168085284767 9.21460300191207 9.947684760379467 1 1 -1
454 1 2 -1.1794 7.07789940111659 9.374033507054174 9.480659973900913 1 1 -1
1 1 2 -1.1794 5.646157406646926 7.36439459605837 10.731084598371602 2 -6 4
54 1 1 0.5897 6.003399763610109 10.545931842082354 10.289730896465711 -5 0 3
456 1 1 0.5897 7.319778580922139 9.961150151917188 8.76431488531532 1 1 -1
2 1 1 0.5897 5.878743878351288 8.164907590355263 10.260481541447858 2 -6 4
494 1 1 0.5897 7.729916810439839 9.071940364855969 6.525879702408023 -4 0 -1
495 1 1 0.5897 7.345330117303845 8.042078331026307 7.566926489238142 -4 0 -1
52 1 2 -1.1794 5.306668560931206 11.053685989299659 10.705808687830006 -5 0 3
612 1 1 0.5897 6.544487836832199 11.48439705643453 6.481512370040929 4 2 -1
565 1 2 -1.1794 9.009284955465576 10.415301649025588 7.473355353029998 0 9 -6
567 1 1 0.5897 8.95234759507466 11.281304734744959 7.069404558071052 0 9 -6
799 1 2 -1.1794 5.262053365306194 10.936405332205132 14.415691385738505 -1 -3 3
163 1 2 -1.1794 6.426243183176552 7.245568674893448 13.310584127572666 -3 1 3
215 1 1 0.5897 8.604201899266112 9.262378393282079 12.37800827715851 -3 1 3
386 1 1 0.5897 7.9270515559766475 9.343323057882362 14.941845514194599 -7 0 -1
801 1 1 0.5897 5.025348952092989 10.519628216716743 15.24437139321846 -1 -3 3
164 1 1 0.5897 6.930609577894626 7.954884598732698 13.709140830010421 -3 1 3
385 1 2 -1.1794 7.777582780797293 9.648225449202233 14.046828555412432 -7 0 -1
387 1 1 0.5897 7.052714431997379 10.268872224863085 14.122614455499344 -7 0 -1
353 1 1 0.5897 8.068452303461623 7.130485774307841 16.241775275528603 6 5 -1
352 1 2 -1.1794 8.797261104580448 7.329430944316895 15.6538792577383 6 5 -1
165 1 1 0.5897 5.5856439842930135 7.262208712792227 13.768293983049945 -3 1 3
3 1 1 0.5897 5.629911970614234 7.623739261612884 11.65242004749775 2 -6 4
584 1 1 0.5897 7.187102563528697 8.466587680072044 17.81095523476426 4 -6 3
583 1 2 -1.1794 7.757631667840097 9.235158370710334 17.797495004003697 4 -6 3
16 1 2 -1.1794 7.150715631643886 10.012503326083085 21.330925200021415 -3 3 -1
17 1 1 0.5897 6.691132179338574 10.322482070218749 20.550485675213082 -3 3 -1
212 1 1 0.5897 6.477447434936435 11.651321092983645 18.56095858279571 4 2 2
4 1 2 -1.1794 6.507922652498929 7.27231060591541 20.401118998591404 1 2 1
585 1 1 0.5897 7.250705908206296 9.902319696515727 17.33449976517374 4 -6 3
271 1 2 -1.1794 4.819785976038603 9.672549931588975 16.873099484050158 -2 4 3
5 1 1 0.5897 6.770102125003327 8.130641559068017 20.7341254686983 1 2 1
211 1 2 -1.1794 5.968069575676793 11.40406489367886 19.33281848508793 4 2 2
510 1 1 0.5897 8.826745471087893 11.317423068415719 18.245334387303203 7 -3 5
782 1 1 0.5897 8.321556988181028 11.7340839787048 21.344753969468716 -2 0 2
143 1 1 0.5897 5.6052691786873465 6.836124613289396 17.62780933317596 3 6 3
316 1 2 -1.1794 8.17384960356535 14.224950117647655 4.08741912503303 -3 -6 0
628 1 2 -1.1794 5.946686668735001 14.08706480211014 2.657761457807921 5 -2 4
225 1 1 0.5897 7.178659230129932 14.948835779316923 5.4225001049908705 1 0 -7
224 1 1 0.5897 5.8646859211017235 15.6738625658223 5.622576855779954 1 0 -7
317 1 1 0.5897 8.67672703656165 14.918403354754853 3.660080826165133 -3 -6 -1
318 1 1 0.5897 7.411351006676695 14.09853704749741 3.5226159041413543 -3 -6 0
629 1 1 0.5897 5.131391910637484 14.58812438420371 2.682242155784879 5 -2 4
630 1 1 0.5897 5.6656174417708 13.172230816993489 2.6366383545823475 5 -2 4
656 1 1 0.5897 5.52589572006848 13.898681579035866 0.6786091256988809 -2 0 0
798 1 1 0.5897 8.906349331960833 15.532260893079371 1.5380982154671812 -2 -4 -2
704 1 1 0.5897 5.7970646245910125 14.320188776988003 7.253653292220274 2 -2 -3
223 1 2 -1.1794 6.603573129365279 15.299707533067302 6.1025934367341925 1 0 -7
123 1 1 0.5897 8.644354331724966 13.418806541182523 8.656600054932943 1 1 0
719 1 1 0.5897 7.036204197247394 16.50379451714268 10.01754943376918 9 3 -2
705 1 1 0.5897 5.601259371394162 12.891822852083797 7.715882640759704 2 -2 -3
173 1 1 0.5897 8.190686119834025 15.791712654739143 6.799321172837357 0 1 0
718 1 2 -1.1794 6.2438132726663 16.052220917517303 9.726734847435441 9 3 -2
720 1 1 0.5897 6.5590588523905815 15.225287806946103 9.361805051896571 9 3 -2
122 1 1 0.5897 8.432975495050783 13.353712324590855 10.154374963921262 1 1 0
121 1 2 -1.1794 8.145533959846507 13.819173640962715 9.368819985369155 1 1 0
172 1 2 -1.1794 9.02404842397162 16.211967369337593 7.0120531166880955 0 1 0
703 1 2 -1.1794 5.180063152247386 13.751447209840695 7.71431220530256 2 -2 -3
285 1 1 0.5897 5.265928822126581 16.82035983945405 8.153820686544229 9 -3 -1
53 1 1 0.5897 5.748865035477473 11.828506190864982 11.052907279725083 -5 0 3
51 1 1 0.5897 8.429843582253806 14.262686120826869 15.142027269919254 9 0 1
627 1 1 0.5897 5.89563996748284 15.598720366143477 11.59140266583978 -4 -3 2
551 1 1 0.5897 6.5823831791614476 13.307709208847514 12.490180060814673 -2 9 -6
550 1 2 -1.1794 6.858685735054829 12.397180422397378 12.59487871895476 -2 9 -6
171 1 1 0.5897 6.487204592271573 15.449240775047272 14.272441132103696 -5 5 -5
540 1 1 0.5897 8.743133742883293 16.10956196003476 13.804516544298373 -1 -5 2
170 1 1 0.5897 7.006022419196988 16.50007087715007 15.23098672780181 -5 5 -5
626 1 1 0.5897 4.877210770585483 14.593667680015493 12.08628233884561 -4 -3 2
169 1 2 -1.1794 7.265956252780004 15.703835943559483 14.767508349057625 -5 5 -5
625 1 2 -1.1794 5.698911148982456 15.020760132757792 12.328710918760251 -4 -3 2
49 1 2 -1.1794 8.807642194070445 13.456211062193821 15.493096100297596 9 0 1
552 1 1 0.5897 6.333063890378508 12.06927861885647 13.324654615513907 -2 9 -6
302 1 1 0.5897 5.578032887907397 14.599630496940982 17.75859413145283 -1 0 8
306 1 1 0.5897 7.8620202292507875 15.928839164887952 18.201556736493142 3 -2 -8
303 1 1 0.5897 5.790536048984795 14.557011162285194 19.25700839556937 -1 0 8
642 1 1 0.5897 8.24062961447006 14.318963900840952 20.91159607880812 2 0 -4
640 1 2 -1.1794 8.29813149366062 15.264390058348768 20.772928406398883 2 0 -4
301 1 2 -1.1794 5.984687657151575 15.080578357886855 18.47948392045981 -1 0 8
159 1 1 0.5897 6.885346900065562 16.428491082726914 21.453440123844846 1 2 -3
641 1 1 0.5897 8.944649442408576 15.365593330918845 20.074243283713415 2 0 -4
485 1 1 0.5897 6.245294446977266 12.222548763302262 16.509312695936075 3 1 -1
213 1 1 0.5897 5.871805001230085 12.217857790178233 19.827636004803946 4 2 2
484 1 2 -1.1794 7.085523660396987 12.061089192585081 16.938628071988354 3 1 -1
486 1 1 0.5897 7.732955733352606 12.458661826157824 16.356227531316442 3 1 -1
304 1 2 -1.1794 8.635137006993995 16.404591503130778 17.89772846792916 3 -2 -8
655 1 2 -1.1794 5.437163386194373 13.819264774369476 20.717798151413803 -2 0 -1
781 1 2 -1.1794 8.842117316595345 12.52301553104133 21.19319932286101 -2 0 2
167 1 1 0.5897 5.450953803797475 16.81581071315135 18.105477057801995 -1 -2 0
325 1 2 -1.1794 6.944309570049489 18.498259334624713 3.3412738614300155 2 -3 -3
326 1 1 0.5897 6.305509573571 18.383718241256314 4.044966064241944 2 -3 -3
327 1 1 0.5897 7.764138699458977 18.1630889117603 3.704462606105711 2 -3 -3
238 1 2 -1.1794 6.097562393204735 20.83911965992665 2.3162058265224967 -7 -7 0
157 1 2 -1.1794 6.482943147565154 17.255396265790342 0.7302592573254618 1 2 -2
314 1 1 0.5897 8.677994457702072 21.153839517983855 1.013557798636063 -2 -1 -1