LAMMPS data file via write_data, version 30 Jul 2021, timestep = 19000000

1920 atoms
2 atom types
1280 bonds
1 bond types
640 angles
1 angle types

-0.07326497717740565 24.80326597717984 xlo xhi
-0.024944112688308095 24.754945112684595 ylo yhi
-0.058147537917196956 22.868147537910666 zlo zhi

Masses

1 1.008
2 15.999

Pair Coeffs # lj/cut/tip4p/long/omp

1 0 0
2 0.21084 3.1668

Bond Coeffs # harmonic/omp

1 450 0.9572

Angle Coeffs # harmonic/omp

1 55 104.52

Atoms # full

1 1 2 -1.1794 4.452924355064338 1.4603864660014987 4.319441422053042 0 0 0
2 1 1 0.5897 4.549831888745288 2.2085457342611887 4.908518209992416 0 0 0
3 1 1 0.5897 5.169845428108995 1.5543280178298169 3.6922508799389706 0 0 0
4 2 2 -1.1794 2.95693319536013 1.4477966604597603 2.003694399713741 0 0 0
13 5 2 -1.1794 1.6698328241695684 2.6548560774689203 4.889328438780451 0 0 0
6 2 1 0.5897 2.0038063868135385 1.360093904352186 2.0085110714547003 0 0 0
7 3 2 -1.1794 6.064756110931444 4.557595454032512 3.5103719276004473 0 0 0
9 3 1 0.5897 5.1287419372366685 4.753028471741575 3.4673834559947125 0 0 0
10 4 2 -1.1794 3.344243440360845 4.671657717263082 3.6867538057723324 0 0 0
19 7 2 -1.1794 4.702535333720045 3.2007205647357626 0.596753674824571 0 0 0
12 4 1 0.5897 2.9392330037201035 4.902497533569817 2.8507833909592653 0 0 0
11 4 1 0.5897 2.780250061784945 5.075496282437707 4.346287284243218 0 0 0
26 9 1 0.5897 4.47193158493744 5.1508434665254486 0.745698642335868 0 0 0
24 8 1 0.5897 1.3513758112701946 5.242606283381824 0.8582156093852384 0 0 0
387 129 1 0.5897 4.131199420502379 0.434403553298974 1.0272241101802873 0 1 0
23 8 1 0.5897 0.5959665777146615 4.798964921682329 2.0928303927863956 0 0 0
16 6 2 -1.1794 0.24418238879393478 1.6716854914503352 1.88789895101278 0 0 0
14 5 1 0.5897 2.3711790408265268 2.840387176915327 4.264942321750747 0 0 0
22 8 2 -1.1794 1.402212876038785 4.6416961403256956 1.6015061846283185 0 0 0
5 2 1 0.5897 3.2228609988858845 1.2258531659705743 2.8959885958925575 0 0 0
20 7 1 0.5897 3.91618424352899 2.9822096011075665 1.0968247860158256 0 0 0
21 7 1 0.5897 5.413191925013398 2.759720718947418 1.0622097726018427 0 0 0
15 5 1 0.5897 1.5439494207863536 1.7076205492733052 4.8343278382767245 0 0 0
28 10 2 -1.1794 1.6042281925462456 0.008306174791201486 5.140792721225372 0 0 0
25 9 2 -1.1794 4.259003769285889 6.033070431920842 1.049782887729891 0 0 0
99 33 1 0.5897 0.2921667696205652 3.716706319136975 4.206034572958532 1 0 0
47 16 1 0.5897 6.044754764942271 0.8454922012486343 1.5963774546158467 0 0 0
1455 485 1 0.5897 1.5200464370934488 3.0088451821146958 0.38440471046117913 0 0 1
98 33 1 0.5897 0.3524870364433217 5.217077221157254 4.398073520132618 1 0 0
500 167 1 0.5897 3.794280773214747 2.5742201597745815 6.945086269110606 0 0 0
481 161 2 -1.1794 4.364287532798741 1.8198269068806936 9.836169116700498 0 0 0
503 168 1 0.5897 2.4101294368092523 4.412009581465166 7.678721663902594 0 0 0
488 163 1 0.5897 4.996099336880337 4.589021877068717 9.21928627419931 0 0 0
484 162 2 -1.1794 2.750174459709177 1.418026694408268 7.7643784829632265 0 0 0
485 162 1 0.5897 3.225806409452381 1.5731305266357314 8.58039677787308 0 0 0
578 193 1 0.5897 0.4549595040065545 5.06029263684954 8.458446152619313 1 0 0
528 176 1 0.5897 6.130334455433472 2.50880469583052 7.6961306966287735 0 0 0
482 161 1 0.5897 5.20539868382735 1.9233476387946578 9.391219285121402 0 0 0
490 164 2 -1.1794 2.989518761700809 4.4525708100574635 9.690780825529625 0 0 0
491 164 1 0.5897 2.399493850821934 3.724253499005634 9.884602770159836 0 0 0
497 166 1 0.5897 0.7970396371811045 1.5999380566601176 7.718749881927947 0 0 0
493 165 2 -1.1794 1.1492506319199765 2.708691299972526 10.648561368123174 0 0 0
579 193 1 0.5897 0.37411677821721917 4.055471307504853 9.5878217979646 1 0 0
483 161 1 0.5897 4.330612259859673 2.546794424465488 10.457885677377138 0 0 0
501 167 1 0.5897 4.149898439771619 3.945594880367089 6.411653623625758 0 0 0
494 165 1 0.5897 1.123433249088829 1.7948223120899458 10.365179872050074 0 0 0
486 162 1 0.5897 3.235761434666787 0.714649683774368 7.33355510840424 0 0 0
504 168 1 0.5897 1.7133004094422477 3.796885743268045 6.483826229422305 0 0 0
502 168 2 -1.1794 1.630381397543423 4.497865081032436 7.130275067993195 0 0 0
492 164 1 0.5897 2.604578767350204 5.201060004443649 10.146550857050942 0 0 0
629 210 1 0.5897 0.5900779250678252 5.859615002700604 10.744747578026294 0 0 0
499 167 2 -1.1794 4.495693856445857 3.058480235358198 6.509544801808484 0 0 0
527 176 1 0.5897 6.087875231862838 0.995777564976867 7.67225056130474 0 0 0
505 169 2 -1.1794 4.43653213242522 5.839469657199448 6.732891901793982 0 0 0
487 163 2 -1.1794 5.946876716116837 4.694146758170029 9.253054990876475 0 0 0
577 193 2 -1.1794 0.03470744493778315 4.904273246798453 9.30414917017097 1 0 0
150 50 1 0.5897 1.7208685103125119 5.934064426476784 5.882980743610047 0 0 0
865 289 2 -1.1794 4.8329162428595245 0.07571803399857932 6.615440081777419 0 1 0
507 169 1 0.5897 4.529654363646322 6.108250500738024 5.818970334462785 0 0 0
1347 449 1 0.5897 4.883025495082752 0.12138831393826072 11.037121484370621 0 1 0
867 289 1 0.5897 4.709599420299496 0.4801391111258231 5.7567206863927955 0 1 0
983 328 1 0.5897 2.44170282429146 4.313025769987479 13.854757302604204 0 0 0
961 321 2 -1.1794 4.675012534270571 1.5378233621252595 15.69431854436986 0 0 0
962 321 1 0.5897 5.3775236336785195 1.241155824777819 15.115847439014752 0 0 0
963 321 1 0.5897 4.664367321348613 0.8983531336460391 16.406436712645142 0 0 0
964 322 2 -1.1794 2.9964447880036627 1.1486118337284055 13.533561642642248 0 0 0
965 322 1 0.5897 3.237930278113138 1.265813346483537 14.452319048932846 0 0 0
966 322 1 0.5897 2.099969167025382 1.479208185758603 13.477004795957782 0 0 0
971 324 1 0.5897 4.21986512838177 4.6444429896604404 15.352624608198429 0 0 0
970 324 2 -1.1794 3.2894064643235295 4.863854029941786 15.30495766089534 0 0 0
988 330 2 -1.1794 1.4546689517518525 0.4029333522957335 16.255262272047577 0 0 0
972 324 1 0.5897 2.843279610082361 4.096841557504927 15.663846752670139 0 0 0
990 330 1 0.5897 1.4308905626706265 1.3596519154314866 16.239507129470507 0 0 0
981 327 1 0.5897 5.320839173756943 2.9171622686076137 12.826959642268596 0 0 0
976 326 2 -1.1794 0.16098527343152505 1.561742980779371 13.41625057624163 0 0 0
495 165 1 0.5897 1.3244623177650874 2.66363236117144 11.588476011060104 0 0 0
984 328 1 0.5897 1.8830440703421625 4.949623134570894 12.60002214312336 0 0 0
979 327 2 -1.1794 4.696645602855492 3.4257818653827603 12.309423452955071 0 0 0
982 328 2 -1.1794 2.0851904440722344 4.100282595031598 12.992315862788336 0 0 0
1110 370 1 0.5897 2.3503890116085286 6.017585720848106 16.353484851368155 0 0 0
975 325 1 0.5897 0.8177031004063601 3.621093942525034 15.968696223178501 0 0 0
973 325 2 -1.1794 1.5900455282424188 3.1519971145314143 16.28427670511803 0 0 0
980 327 1 0.5897 3.847984798028135 3.248725971112199 12.715132988703804 0 0 0
987 329 1 0.5897 4.56388784543505 5.183973693882521 12.135116102668054 0 0 0
1346 449 1 0.5897 4.175487232345003 0.4946773124162468 12.322341658062847 0 1 0
1109 370 1 0.5897 0.8647432734441514 6.158169278672969 16.098868689684252 0 0 0
1460 487 1 0.5897 4.818200103699444 2.6154164300256024 16.930601965931388 0 0 0
967 323 2 -1.1794 5.981993668996942 4.700140500475566 14.786278487935613 0 0 0
1345 449 2 -1.1794 4.932135962979243 0.013881914419131308 11.986965265176481 0 1 0
985 329 2 -1.1794 4.637983340822665 6.125978468389449 11.98259881679256 0 0 0
1058 353 1 0.5897 0.07449940994647264 5.145251127842371 14.059134792879897 1 0 0
1008 336 1 0.5897 5.9019225848172665 1.076375409634178 13.150428622000835 0 0 0
1465 489 2 -1.1794 4.3378305171316685 5.894734736117466 17.786878658881573 0 0 0
1463 488 1 0.5897 0.7825019684563497 4.392775464836894 19.125617643406 0 0 0
1441 481 2 -1.1794 4.766933949162869 1.5197370621999617 21.271843975670556 0 0 0
1442 481 1 0.5897 3.9329835629261947 1.5752739804363585 20.805358648717093 0 0 0
1487 496 1 0.5897 6.019645046276202 1.4505425553359477 19.933509315968717 0 0 0
1444 482 2 -1.1794 2.9104994457662112 1.4226928395475518 19.39200767369019 0 0 0
1454 485 1 0.5897 2.250067082237099 3.3089748320268946 22.018902049652468 0 0 0
1539 513 1 0.5897 -0.07309025121234627 4.909672614694178 21.093475207024717 1 0 0
1445 482 1 0.5897 3.1341568995037865 2.3330938823497935 19.19893319313941 0 0 0
1450 484 2 -1.1794 3.3357836308693307 4.417145985238363 20.899612466319358 0 0 0
1451 484 1 0.5897 4.275105034271963 4.586755468393694 20.970829960236465 0 0 0
1452 484 1 0.5897 3.137587192041435 4.549730633973557 19.972623396208746 0 0 0
1453 485 2 -1.1794 1.6662327302893931 2.6699876213238385 22.427534087114946 0 0 0
1443 481 1 0.5897 4.751003871419999 2.258152879926261 21.88063901923833 0 0 0
1459 487 2 -1.1794 4.814635060176265 3.0861384395356306 17.76401106646939 0 0 0
1461 487 1 0.5897 5.33784074685009 2.539799774625499 18.35045962982081 0 0 0
1488 496 1 0.5897 6.035283499222531 0.550984150217086 18.71601502744817 0 0 0
1462 488 2 -1.1794 1.6109931777754414 4.361817394623212 18.647276788384595 0 0 0
1464 488 1 0.5897 1.6208399003333913 5.168329582780052 18.131930501623376 0 0 0
1468 490 2 -1.1794 1.2236208682141827 0.03529051503074 22.07899556773642 0 0 0
1466 489 1 0.5897 4.655972884176603 4.992634561129941 17.753278716037094 0 0 0
1446 482 1 0.5897 1.9627525306332334 1.431563299024301 19.52565567474441 0 0 0
1469 490 1 0.5897 1.3324762782297173 0.9846267230480275 22.134103931224193 0 0 0
1588 530 2 -1.1794 1.5434655134193167 6.086363815061293 22.15367504646125 0 0 0
1447 483 2 -1.1794 6.112174503528762 4.560479490156998 20.48867857289087 0 0 0
1456 486 2 -1.1794 -0.06543675988673643 1.2720512034857974 19.32047433791857 0 0 0
386 129 1 0.5897 4.829514156553825 0.2124100668563676 22.628828239214208 0 1 -1
1826 609 1 0.5897 3.857815570625723 0.2183422269544829 17.936227593832147 0 1 0
1590 530 1 0.5897 2.2102003498224607 5.671487856689728 21.6064091346455 0 0 0
989 330 1 0.5897 1.5048298383360394 0.17940247302625778 17.184608933631537 0 0 0
974 325 1 0.5897 1.6550791494927946 3.3913281717985404 17.208752786428626 0 0 0
133 45 2 -1.1794 1.2964299769915737 9.059144885488731 4.983216036314633 0 0 0
121 41 2 -1.1794 4.56609990911461 7.567665067065924 4.294530204966911 0 0 0
122 41 1 0.5897 3.722086696300556 7.513171109175664 3.8463793529865544 0 0 0
145 49 2 -1.1794 4.999748461750112 12.263412748623491 1.2621434008772017 0 0 0
124 42 2 -1.1794 2.6579106661823935 7.888857150595364 2.368401511472423 0 0 0
127 43 2 -1.1794 6.0336723514309245 10.688742030665894 3.722574022658781 0 0 0
126 42 1 0.5897 3.288833815204161 8.447577955071662 1.914619362829373 0 0 0
144 48 1 0.5897 1.9835841462892851 10.466111669800659 2.3144138869305175 0 0 0
143 48 1 0.5897 1.5933739829103513 11.407960447066865 1.1953257082842752 0 0 0
130 44 2 -1.1794 3.223203668186802 10.650294863795752 3.7609351247082072 0 0 0
139 47 2 -1.1794 4.439773079146219 9.435049329166764 0.966439211794434 0 0 0
149 50 1 0.5897 1.3334427357131995 7.142464346424943 5.057536660237195 0 0 0
269 90 1 0.5897 1.0017143126966461 12.212122372590247 4.5336715645450685 0 0 0
132 44 1 0.5897 2.9644711888517734 11.473716980608934 4.174664677952206 0 0 0
131 44 1 0.5897 2.761147886259746 9.9759852357154 4.258892070829514 0 0 0
137 46 1 0.5897 0.8040895968378768 8.085847570748708 2.2648253710875794 0 0 0
123 41 1 0.5897 5.214453767193902 7.449433076487165 3.6003934557273007 0 0 0
148 50 2 -1.1794 1.5565361838156442 6.214686040033078 4.9827512147408335 0 0 0
142 48 2 -1.1794 1.398878378061481 10.544941121557498 1.5607066498024422 0 0 0
125 42 1 0.5897 2.7848327642156057 7.021783724242836 1.9834231004696012 0 0 0
135 45 1 0.5897 0.6543600373985636 9.494553548456622 4.422556558916407 0 0 0
128 43 1 0.5897 5.094492921450966 10.633357010985785 3.8987613206201175 0 0 0
27 9 1 0.5897 4.985032308164293 6.269740226008039 1.6268741131299365 0 0 0
140 47 1 0.5897 4.6091060127913 10.37580231987112 0.9170649435777308 0 0 0
1574 525 1 0.5897 1.6329973053114895 9.475944974130776 0.15059752369697363 0 0 1
141 47 1 0.5897 4.356956724015826 9.157916128747688 0.054023548697759355 0 0 0
167 56 1 0.5897 6.141768727305479 8.255652339299068 1.4149121898082706 0 0 0
219 73 1 0.5897 0.010596259685174525 10.699963652217626 2.9439703291697423 1 0 0
129 43 1 0.5897 6.094276001109936 10.785076068614494 2.772197483854875 0 0 0
621 207 1 0.5897 4.91794332726037 8.944829740040888 5.57316048882372 0 0 0
628 210 2 -1.1794 1.3035951393915033 6.255522514960671 11.245061338404545 0 0 0
625 209 2 -1.1794 4.778036776855152 12.127842613060196 6.416338387112099 0 0 0
601 201 2 -1.1794 4.687625473260383 7.881938469819569 9.537500775322085 0 0 0
609 203 1 0.5897 5.256795638132098 10.416148748355711 8.929440392124267 0 0 0
603 201 1 0.5897 3.964887695596814 7.704295645039315 8.935619544145586 0 0 0
604 202 2 -1.1794 2.7667346684038083 7.59753700101599 7.880893758686255 0 0 0
605 202 1 0.5897 3.051669357763241 8.36252259752712 7.3811451205394505 0 0 0
606 202 1 0.5897 1.8191997523843402 7.704486322221625 7.963995667504694 0 0 0
630 210 1 0.5897 1.083825339802051 7.186403622211743 11.280936971140793 0 0 0
610 204 2 -1.1794 3.5619987215441746 10.79825358721215 9.229450889420832 0 0 0
611 204 1 0.5897 3.130939888488268 10.925732648118926 8.384400965901902 0 0 0
602 201 1 0.5897 4.470146585774131 7.385919993106075 10.326694342949706 0 0 0
615 205 1 0.5897 0.6980283592016973 9.595427060004008 10.065453498995689 0 0 0
612 204 1 0.5897 3.0828898655703023 10.07668712651812 9.63680547178667 0 0 0
620 207 1 0.5897 5.49936816563463 8.906713779795396 6.97038365795466 0 0 0
647 216 1 0.5897 5.916411066283209 7.693346078150881 8.343135299592934 0 0 0
624 208 1 0.5897 1.6124859890824108 11.586017768612964 6.283819195631406 0 0 0
626 209 1 0.5897 4.878160501142495 11.176120963254647 6.434362133183702 0 0 0
622 208 2 -1.1794 1.5844228780501122 10.968518397285367 7.014615423813486 0 0 0
623 208 1 0.5897 0.8086021854642818 11.222956969542572 7.514142748233469 0 0 0
616 206 2 -1.1794 0.13532618217892117 8.035230608709512 7.783776145318085 0 0 0
619 207 2 -1.1794 4.819077228731528 9.327647517198033 6.444847314487272 0 0 0
614 205 1 0.5897 1.6729003964011924 9.394365985606745 11.206040198175959 0 0 0
613 205 2 -1.1794 1.3234314075198783 8.966117056641691 10.424603232205301 0 0 0
1101 367 1 0.5897 4.78112362031581 8.970123583037486 10.916381763038537 0 0 0
750 250 1 0.5897 1.67001567944874 12.170288062069986 11.399164266365414 0 0 0
749 250 1 0.5897 2.3266271098540807 11.963351270790097 10.05091396666225 0 0 0
506 169 1 0.5897 3.982605867804679 6.570041394325786 7.152842016177842 0 0 0
134 45 1 0.5897 1.2685492363772806 9.54882944211652 5.805158603931469 0 0 0
1094 365 1 0.5897 1.5418525354810777 8.167639555748945 16.10760034409776 0 0 0
1096 366 2 -1.1794 0.2044187051769601 7.824226692391766 13.56559053466013 0 0 0
1081 361 2 -1.1794 4.891186510356487 8.135318298860419 15.989340013500723 0 0 0
1107 369 1 0.5897 4.368212842984651 11.23033797460351 11.914718198947913 0 0 0
986 329 1 0.5897 4.059696857382953 6.520931190138907 12.635099399160088 0 0 0
1084 362 2 -1.1794 3.075512862801326 7.83151670033122 13.64745132178541 0 0 0
1099 367 2 -1.1794 4.700410191294503 9.464868427091668 11.731777696408262 0 0 0
1086 362 1 0.5897 3.6742165944013023 8.54180432563295 13.416810016093079 0 0 0
1085 362 1 0.5897 2.966309509781556 7.907946682641258 14.595292956060208 0 0 0
1178 393 1 0.5897 0.2614225680991082 11.443787993281035 15.263314191975045 1 0 0
1090 364 2 -1.1794 3.302347001716595 11.212605852684494 14.831119853313435 0 0 0
1083 361 1 0.5897 4.741639577570248 7.353172358963075 16.520405192662306 0 0 0
1103 368 1 0.5897 0.9581363727735719 10.83863273807934 13.205666705304205 0 0 0
1104 368 1 0.5897 2.443373585190148 10.962635056753422 12.940273253047447 0 0 0
1082 361 1 0.5897 5.1397610579396655 8.810241941855637 16.62087542505149 0 0 0
1092 364 1 0.5897 2.936730203850869 10.56160407529542 15.430021900505574 0 0 0
1100 367 1 0.5897 5.478387437693382 9.22582476306668 12.235537616497517 0 0 0
1097 366 1 0.5897 1.1441732994627956 7.864139162389136 13.388297544441233 0 0 0
1091 364 1 0.5897 4.24220227984565 11.204123866352182 15.01213361404287 0 0 0
1093 365 2 -1.1794 1.7837874624273293 9.084260756612949 15.97569078819652 0 0 0
1102 368 2 -1.1794 1.610198550438422 10.77568199661712 12.507794932715877 0 0 0
1087 363 2 -1.1794 6.066408707245644 11.029039271226262 15.188000637582519 0 0 0
1127 376 1 0.5897 5.800489370940903 7.722034755209084 14.423084697068154 0 0 0
1179 393 1 0.5897 0.3931151227079161 9.93958002384425 15.155414610161971 1 0 0
1105 369 2 -1.1794 4.467814885483042 12.174013583960482 12.039939805849336 0 0 0
1108 370 2 -1.1794 1.5573862039485251 6.423062849973994 16.70404832495571 0 0 0
1128 376 1 0.5897 6.05391115060142 6.9355898391145825 13.154626982111242 0 0 0
1095 365 1 0.5897 2.058821107148597 9.386791853507866 16.8411386718265 0 0 0
1177 393 2 -1.1794 -0.038199390629689134 10.69253203081858 14.751471291858895 1 0 0
1230 410 1 0.5897 2.1518958462241597 12.351961280695898 15.914649262775143 0 0 0
1581 527 1 0.5897 4.169093412989764 9.28152635556826 18.667720882522527 0 0 0
1562 521 1 0.5897 4.371165554748181 6.965133928715849 22.262016774020164 0 0 0
1572 524 1 0.5897 3.1303297149349927 10.698248280302865 20.30963425603967 0 0 0
1561 521 2 -1.1794 4.6529592004354585 7.638024973646435 21.642363653620325 0 0 0
1658 553 1 0.5897 0.48386722779731817 9.826046015528691 21.459608447067836 1 0 0
1563 521 1 0.5897 3.96535471441764 7.654352338886401 20.976706536806695 0 0 0
1564 522 2 -1.1794 3.0360297528755167 7.689889828381201 19.384859775273554 0 0 0
1565 522 1 0.5897 2.1027109175251115 7.704541967081069 19.173032914805102 0 0 0
1566 522 1 0.5897 3.3943635223365716 6.987842843654987 18.841835725760593 0 0 0
1579 527 2 -1.1794 5.012133638485652 9.602749199169788 18.34794042016676 0 0 0
1570 524 2 -1.1794 3.41825474658504 10.696530828458659 21.222467941595678 0 0 0
1583 528 1 0.5897 1.250726371170181 10.3981394614669 19.215895148864533 0 0 0
1576 526 2 -1.1794 0.31167107475260625 7.786459302855253 19.20864872789157 0 0 0
1584 528 1 0.5897 1.7833329501429642 11.298538137347819 18.12167856414286 0 0 0
1571 524 1 0.5897 4.368095851609834 10.80464549251127 21.174708467655787 0 0 0
1589 530 1 0.5897 1.647579278028238 7.023594044918813 21.98970200684673 0 0 0
1573 525 2 -1.1794 1.7673397006502458 8.917772026897595 22.311019504709023 0 0 0
1580 527 1 0.5897 5.652327319659534 8.9795470281629 18.691341210738173 0 0 0
1575 525 1 0.5897 2.408634854854149 9.389590666902913 21.77971075654863 0 0 0
1582 528 2 -1.1794 1.9744534254820167 10.489560506666349 18.596195088713117 0 0 0
1608 536 1 0.5897 5.850914142003278 7.498924678489929 20.038187090950384 0 0 0
1657 553 2 -1.1794 0.1688433314735445 10.449919619766458 20.805625634230278 1 0 0
1587 529 1 0.5897 4.864213517018925 11.376794646900922 18.21686218985576 0 0 0
1709 570 1 0.5897 2.3277594715194487 12.20212590961397 22.02297070646515 0 0 0
1585 529 2 -1.1794 4.6426924100639 12.293466141074994 18.053248702963746 0 0 0
1467 489 1 0.5897 5.104637143759877 6.410479615653205 18.036235327249578 0 0 0
263 88 1 0.5897 1.13738273766885 17.584469362403567 1.1306881936125568 0 0 0
256 86 2 -1.1794 0.20052801452125585 14.063897008750894 1.8546761798531728 0 0 0
241 81 2 -1.1794 4.859985235533279 13.991142184296956 4.390678934286218 0 0 0
270 90 1 0.5897 1.5896387009767887 13.595177266424578 4.715734207368954 0 0 0
243 81 1 0.5897 4.086052908107056 13.860918406928292 3.8427146301712796 0 0 0
244 82 2 -1.1794 3.0166469309570854 13.887189905230624 2.3925607842612635 0 0 0
245 82 1 0.5897 2.084442388636808 14.077233489285478 2.287486603593624 0 0 0
246 82 1 0.5897 3.443380994329571 14.38697086216732 1.6966634784259358 0 0 0
253 85 2 -1.1794 1.4438978080057379 15.336986435693543 4.667414186323892 0 0 0
250 84 2 -1.1794 3.2359497346442194 17.18611378427329 3.660412114001926 0 0 0
251 84 1 0.5897 3.0894868765657155 16.26940900366767 3.893509871544149 0 0 0
252 84 1 0.5897 4.180894836613356 17.250576366037713 3.5222549150825118 0 0 0
247 83 2 -1.1794 5.8608967148296855 17.147678120681036 3.497319252752382 0 0 0
288 96 1 0.5897 5.885946217028156 14.732678104544423 1.682620655730607 0 0 0
260 87 1 0.5897 4.64154131943623 16.413259319520442 0.5403498218792594 0 0 0
264 88 1 0.5897 2.247322217315109 17.158313725215315 2.0677875143396554 0 0 0
259 87 2 -1.1794 4.732954088504812 15.481472429287704 0.7392026804203619 0 0 0
242 81 1 0.5897 4.7130480198581415 13.428705450355654 5.151097220048328 0 0 0
262 88 2 -1.1794 1.497842832635909 16.819164285811794 1.5784821826909234 0 0 0
254 85 1 0.5897 0.6908534563321569 15.828937398650869 4.340205343325702 0 0 0
255 85 1 0.5897 1.4544643247365214 15.512091982766247 5.6083674137442 0 0 0
1695 565 1 0.5897 1.7498780430231144 15.625283181628795 -0.009419347790194162 0 0 1
390 130 1 0.5897 2.061528463625925 18.301190917669416 4.592084051125753 0 0 0
258 86 1 0.5897 0.008664973229102202 13.491233048341394 1.1121111125651897 0 0 0
265 89 2 -1.1794 4.545032773507238 18.526336582323886 0.8948678461014308 0 0 0
268 90 2 -1.1794 1.74366496981016 12.673798265845043 4.924211729926863 0 0 0
147 49 1 0.5897 4.259345434299394 12.695350361442031 1.6880435921650188 0 0 0
146 49 1 0.5897 5.7547447726960455 12.80924394599922 1.4817338791984915 0 0 0
287 96 1 0.5897 6.095817236009171 14.024692791400838 3.004151443173618 0 0 0
339 113 1 0.5897 0.2792578107154604 17.68878432221006 4.086915859669713 1 0 0
726 242 1 0.5897 3.4822652396273877 14.809717061874524 7.351799166126517 0 0 0
721 241 2 -1.1794 4.792513967801565 13.921141436632709 9.757500379978204 0 0 0
722 241 1 0.5897 4.010850281427462 13.824217393027062 9.21364493838832 0 0 0
739 247 2 -1.1794 4.946879348805092 15.537216067821403 6.61502997822305 0 0 0
724 242 2 -1.1794 2.822876737612019 14.333577183533349 7.856431307068603 0 0 0
725 242 1 0.5897 2.7747181443815285 13.474190566125381 7.437780857881939 0 0 0
734 245 1 0.5897 2.374115231728222 15.780353751892335 10.398612967019288 0 0 0
728 243 1 0.5897 5.291801167177006 16.94242307008976 9.442575318684659 0 0 0
744 248 1 0.5897 0.8977133945481275 16.91739076877564 7.697401918467043 0 0 0
730 244 2 -1.1794 3.3259503113100917 17.226847880924325 9.304632957953535 0 0 0
732 244 1 0.5897 3.0058071903871832 17.096285161745953 8.412091163655107 0 0 0
737 246 1 0.5897 0.9705980825470668 14.06511788276543 7.993803640720905 0 0 0
736 246 2 -1.1794 0.11200076792532268 13.6795069135941 7.819799997131949 0 0 0
723 241 1 0.5897 5.518970328976673 13.698293493374644 9.175460788254515 0 0 0
740 247 1 0.5897 5.12642704904049 15.2775110656941 5.711435048333013 0 0 0
870 290 1 0.5897 1.5387775028037989 18.230514653376176 11.19857454317834 0 0 0
748 250 2 -1.1794 1.7284735203918844 12.544805232862847 10.520255051326155 0 0 0
743 248 1 0.5897 1.5423142889909092 17.67962131508112 6.5593212674907235 0 0 0
742 248 2 -1.1794 1.6572753093118413 16.90882302162207 7.115019873098949 0 0 0
735 245 1 0.5897 1.717823262712196 14.416471460906054 10.371138434756372 0 0 0
731 244 1 0.5897 2.7781381091843116 17.928797478851457 9.655794076111107 0 0 0
733 245 2 -1.1794 1.6140715039083484 15.29936302240439 10.725928485355496 0 0 0
741 247 1 0.5897 4.891427757547406 16.492241305443635 6.583718309871925 0 0 0
745 249 2 -1.1794 4.607240465894536 18.250813921917924 6.614648237788496 0 0 0
627 209 1 0.5897 5.540578004561553 12.4583914210398 6.891132509141588 0 0 0
869 290 1 0.5897 0.8887960499466804 18.074350385694046 9.840315462717 0 0 0
1106 369 1 0.5897 4.750446127975788 12.500906180401799 11.18586890511734 0 0 0
1220 407 1 0.5897 4.326117784762405 15.06358935183105 11.268744257717008 0 0 0
747 249 1 0.5897 3.71420645345262 18.49134401283736 6.8612239155628325 0 0 0
1229 410 1 0.5897 1.4614775926673762 13.519351373813164 16.587102575218747 0 0 0
1201 401 2 -1.1794 4.696317681743887 14.056699667000785 15.565514060444869 0 0 0
1350 450 1 0.5897 2.2881423387045214 18.330383980086744 16.142793933190223 0 0 0
1247 416 1 0.5897 5.849342414004856 14.793545836899641 12.998798523698255 0 0 0
1204 402 2 -1.1794 2.974795083788031 13.918574821477382 13.653727705678516 0 0 0
1205 402 1 0.5897 3.5202065718566 14.034754740842487 14.431670128171126 0 0 0
1206 402 1 0.5897 3.4077314242024923 13.22304008977779 13.15881012547026 0 0 0
1221 407 1 0.5897 3.673491452768016 15.292962087326131 12.615294324786698 0 0 0
1210 404 2 -1.1794 2.7518161596850437 16.857326720867285 15.11410238996162 0 0 0
1227 409 1 0.5897 4.52704723146833 17.384699226875732 12.208610652795317 0 0 0
1212 404 1 0.5897 3.6898409011586093 16.714238596375253 15.239794687122872 0 0 0
1203 401 1 0.5897 4.631167020377907 13.228901829338556 16.041581791423706 0 0 0
1218 406 1 0.5897 1.0862766602924139 13.910957903157694 13.619514737403046 0 0 0
1215 405 1 0.5897 0.5435729939473994 15.544240615042076 16.257225576827263 0 0 0
1213 405 2 -1.1794 1.2831582244810062 15.253449529343 16.790726941425742 0 0 0
1228 410 2 -1.1794 1.4746783346548815 12.562758814944164 16.557383981464156 0 0 0
1211 404 1 0.5897 2.332654493817237 16.25224091202066 15.72592226406604 0 0 0
1202 401 1 0.5897 5.479997439783825 13.961257257445576 15.02430501859086 0 0 0
1222 408 2 -1.1794 1.2416635401252336 17.11189790686491 12.670771768157085 0 0 0
1219 407 2 -1.1794 4.231520547950882 15.715954889796663 11.962730774613751 0 0 0
1224 408 1 0.5897 1.7342071668163876 16.97906853344395 13.480666011110962 0 0 0
1223 408 1 0.5897 1.3755191765016883 16.305132666009357 12.173425634695029 0 0 0
1207 403 2 -1.1794 5.6480286817350205 16.8212646058158 15.070147822035427 0 0 0
1298 433 1 0.5897 -0.058431683869635265 16.766739535870208 14.117839874883979 1 0 0
1216 406 2 -1.1794 0.1496820732047343 13.718859139893686 13.6648262370737 0 0 0
1209 403 1 0.5897 5.841112949958141 17.64615961740146 15.515573271732935 0 0 0
1248 416 1 0.5897 5.875782485963063 13.282873911696191 12.904888449337516 0 0 0
1225 409 2 -1.1794 4.646585913968532 18.319974932107435 12.043979572379058 0 0 0
1683 561 1 0.5897 4.893557542345386 13.027257898258599 22.225414875100217 0 0 0
1708 570 2 -1.1794 1.5724981908385047 12.667074029945242 22.382918136043166 0 0 0
1681 561 2 -1.1794 4.5882594470524305 13.76539637734609 21.698073146921907 0 0 0
1699 567 2 -1.1794 4.526743844882969 15.546541062881145 17.97723335612139 0 0 0
1586 529 1 0.5897 5.363764574578009 12.787822294082185 18.44289057620708 0 0 0
1684 562 2 -1.1794 2.8662083855203018 13.711680639140079 19.529606517276367 0 0 0
1685 562 1 0.5897 3.266710326037565 13.12408679634436 18.88890411241073 0 0 0
1686 562 1 0.5897 3.3751545370118654 13.577729911096906 20.329106394362682 0 0 0
1696 566 2 -1.1794 0.11898449973494485 13.536490620059709 19.366686349693538 0 0 0
1689 563 1 0.5897 4.9117199290559554 17.375974033310804 20.528123025320703 0 0 0
1690 564 2 -1.1794 3.1865429055067334 17.24856411385054 20.606031479530884 0 0 0
1691 564 1 0.5897 2.5034532938548963 17.356606710028956 19.944304823024652 0 0 0
1728 576 1 0.5897 5.952535082321276 14.895524124918484 19.03196039966252 0 0 0
1682 561 1 0.5897 5.32732297915049 13.974105821724342 21.126762374832104 0 0 0
1701 567 1 0.5897 3.960045962475948 14.98961021619303 18.510930967933003 0 0 0
1697 566 1 0.5897 1.071003460946285 13.563388184007115 19.462084540412384 0 0 0
1693 565 2 -1.1794 1.8136746351357784 15.299074757870425 22.019278862656115 0 0 0
1706 569 1 0.5897 4.443645478601177 17.461002898749655 18.1560321649791 0 0 0
1703 568 1 0.5897 0.3893877060402115 17.00701281797449 19.411953228941716 0 0 0
1704 568 1 0.5897 1.0578731220274642 17.9054425322882 18.393302015546883 0 0 0
1702 568 2 -1.1794 1.0912286403762985 17.02249613292952 18.761301100508312 0 0 0
1692 564 1 0.5897 2.9684802070608884 16.425866299845396 21.043926787406214 0 0 0
1694 565 1 0.5897 1.807641263023561 14.346189305067677 22.109263335388015 0 0 0
1214 405 1 0.5897 1.2131983549828183 15.76464753146059 17.596915090129862 0 0 0
1830 610 1 0.5897 2.252689953712636 18.27259973487667 21.91549138429018 0 0 0
1687 563 2 -1.1794 5.817496889643066 17.201794632178675 20.783843306175243 0 0 0
1700 567 1 0.5897 4.614493848009473 15.075616529181463 17.14856552951573 0 0 0
1705 569 2 -1.1794 4.408371844103532 18.379765538677866 17.890014772423633 0 0 0
1778 593 1 0.5897 0.28509251672790575 16.12876900628357 21.197263282393415 1 0 0
1698 566 1 0.5897 -0.046770120065403376 13.919148708152516 18.505140853292744 0 0 0
1779 593 1 0.5897 0.33856410764548883 17.61219063481912 21.49429960900273 1 0 0
1710 570 1 0.5897 0.8409164441603081 12.40554539143372 21.82385205665938 0 0 0
261 87 1 0.5897 4.548589245102206 15.039973839371363 22.83648587436579 0 0 -1
458 153 1 0.5897 0.5357824265827228 24.064956602384115 4.024347280001909 1 0 0
373 125 2 -1.1794 1.544439870870996 21.48682859087196 4.837968667079877 0 0 0
361 121 2 -1.1794 5.023731529286062 20.069501626711023 4.520608216826843 0 0 0
362 121 1 0.5897 4.247469330901834 20.07917473123384 3.9607022777141347 0 0 0
383 128 1 0.5897 2.448016455490218 23.137889501430315 1.7886258839280387 0 0 0
364 122 2 -1.1794 3.1710302110198714 20.161499531630177 2.6067280989026003 0 0 0
365 122 1 0.5897 3.3929745306357812 20.799586430955806 1.9286913239528598 0 0 0
408 136 1 0.5897 6.104586753647172 20.350104057568068 3.078989280841851 0 0 0
388 130 2 -1.1794 1.2770443262103437 18.721793354917722 4.944001034986653 0 0 0
370 124 2 -1.1794 3.2629582658314997 23.289079625427377 3.604201203328494 0 0 0
371 124 1 0.5897 4.197002870809094 23.124206160617625 3.732810350779809 0 0 0
372 124 1 0.5897 2.8310371073369636 22.512058107390864 3.9589113495143735 0 0 0
363 121 1 0.5897 4.803948173820839 19.459886857903314 5.225033495987358 0 0 0
380 127 1 0.5897 4.688093593608385 22.76913027787389 0.7560556875728611 0 0 0
366 122 1 0.5897 2.2195956293534813 20.222624854521634 2.6915890097739936 0 0 0
379 127 2 -1.1794 4.532918834357565 21.82780518025087 0.8332072075701102 0 0 0