LAMMPS data file via write_data, version 30 Jul 2021, timestep = 10250000

1920 atoms
2 atom types
1280 bonds
1 bond types
640 angles
1 angle types

-0.15787784189074294 24.887878841891137 xlo xhi
-0.1451303390000369 24.875131338996816 ylo yhi
-0.09835702835383309 22.90835702835505 zlo zhi

Masses

1 1.008
2 15.999

Pair Coeffs # lj/cut/tip4p/long/omp

1 0 0
2 0.21084 3.1668

Bond Coeffs # harmonic/omp

1 450 0.9572

Angle Coeffs # harmonic/omp

1 55 104.52

Atoms # full

1 1 2 -1.1794 4.530890070794383 1.1120496286551316 4.239560946751466 0 0 0
2 1 1 0.5897 4.5688504464831015 1.8927074963947885 4.792089111177447 0 0 0
3 1 1 0.5897 5.2094135332207445 1.2522942877785914 3.5792019502743604 0 0 0
4 2 2 -1.1794 2.8458609086707445 1.39986088480024 1.9090654093933326 0 0 0
20 7 1 0.5897 3.9534015559475186 3.0314051580948034 1.2708237218598082 0 0 0
6 2 1 0.5897 1.893507040496293 1.4259161361122628 2.001725448244518 0 0 0
24 8 1 0.5897 1.1397179280232264 5.301886425050456 0.8513030364611571 0 0 0
11 4 1 0.5897 2.8713669763032748 5.203408994101996 3.9370948339728287 0 0 0
10 4 2 -1.1794 3.1619132989712075 4.398893486282331 3.5075304982773643 0 0 0
387 129 1 0.5897 3.859099902400353 -0.08928161145238173 0.9624292097664104 0 1 0
12 4 1 0.5897 2.6814898320514367 4.381871257303929 2.679902866092332 0 0 0
5 2 1 0.5897 3.1660379181707117 1.1773069667168603 2.783140761587874 0 0 0
14 5 1 0.5897 2.127107921386798 3.121454764380119 4.81361524015346 0 0 0
98 33 1 0.5897 0.09169917324709148 5.258250814989764 3.9638014249082607 1 0 0
21 7 1 0.5897 5.4326469863108935 2.7317015988218274 1.1527901614954714 0 0 0
16 6 2 -1.1794 0.06214619773761784 1.3852496416480813 2.045800150929749 0 0 0
27 9 1 0.5897 4.360993069858026 4.9978000364380595 0.37535069787429687 0 0 0
19 7 2 -1.1794 4.711547500474348 3.173010741661476 0.7039630603987583 0 0 0
22 8 2 -1.1794 1.3415153469379726 4.476232587813284 1.2914816375896334 0 0 0
9 3 1 0.5897 4.877094617216873 4.361750849582881 3.3888221039304147 0 0 0
13 5 2 -1.1794 1.2935553095807166 2.7309309815636187 5.076102214594249 0 0 0
23 8 1 0.5897 0.7604060001595777 4.461463579636645 2.0518662363142637 0 0 0
15 5 1 0.5897 1.4293558375236883 1.7882890410127135 4.98008261295304 0 0 0
7 3 2 -1.1794 5.815060795330685 4.1956131992137164 3.4829086812776104 0 0 0
99 33 1 0.5897 0.1846457325945972 3.752294170605759 4.087737902592579 1 0 0
25 9 2 -1.1794 4.128373872596121 5.8960649477532385 0.6103540980391369 0 0 0
1470 490 1 0.5897 1.5675225794047707 -0.13108846123714188 0.003601149298154749 0 0 1
47 16 1 0.5897 5.9483728533697455 0.5960629402903013 1.572381091989909 0 0 0
28 10 2 -1.1794 1.6959946471095786 0.12637668201118846 4.901668638747438 0 0 0
504 168 1 0.5897 1.4711020922568183 4.072819983206409 6.430705092891038 0 0 0
481 161 2 -1.1794 4.794685072781518 1.489661996048858 10.131176378256985 0 0 0
482 161 1 0.5897 5.468802444319854 1.524675003764608 9.452603963155177 0 0 0
483 161 1 0.5897 4.978559168143586 2.2438391517983702 10.691153483989316 0 0 0
484 162 2 -1.1794 2.8335320010934475 1.2420807041500823 7.891960145156737 0 0 0
485 162 1 0.5897 3.3787996689748665 1.2200027471610082 8.67826628168705 0 0 0
486 162 1 0.5897 3.2086622141389767 0.5716572080985257 7.321002141944168 0 0 0
578 193 1 0.5897 0.09197838313823456 5.1984428427565055 9.516238358813135 1 0 0
488 163 1 0.5897 4.872076811601347 4.551947833175309 9.322826917541928 0 0 0
490 164 2 -1.1794 3.1547409483605544 4.579841241042166 9.480951021452725 0 0 0
491 164 1 0.5897 2.810221616310447 4.665918280464495 8.592162552388407 0 0 0
492 164 1 0.5897 2.51747317362732 4.026710126522291 9.932746615672631 0 0 0
493 165 2 -1.1794 1.20741596165155 2.8064348229656684 10.666027455419027 0 0 0
579 193 1 0.5897 0.20215141799340752 3.7789151551628484 9.00181312178418 1 0 0
499 167 2 -1.1794 4.308200530509767 3.0346247463956098 6.35452448037263 0 0 0
498 166 1 0.5897 0.848884751988976 1.5851817091346638 7.931884364211058 0 0 0
505 169 2 -1.1794 4.472085390893549 5.88219957564979 6.667214729024103 0 0 0
629 210 1 0.5897 2.078503857278228 5.971616754710242 10.220457962016736 0 0 0
527 176 1 0.5897 5.77950646104934 0.7217323486972539 7.192058323978731 0 0 0
502 168 2 -1.1794 1.6193399315083632 4.720764676136855 7.119418008587294 0 0 0
500 167 1 0.5897 3.7604828149496323 2.479387741940715 6.909392168813482 0 0 0
503 168 1 0.5897 0.821767681678663 4.695773598673243 7.648026767048611 0 0 0
501 167 1 0.5897 4.125703266820806 3.9258818900405466 6.652158588873618 0 0 0
494 165 1 0.5897 1.1685364426357032 1.8903725406031224 10.940856601598469 0 0 0
528 176 1 0.5897 5.883009311294465 2.23078955524462 7.254866223125048 0 0 0
487 163 2 -1.1794 5.817311910035801 4.691207878137097 9.264755766998759 0 0 0
496 166 2 -1.1794 -0.0860840673593828 1.7713129508384844 7.845723475250972 0 0 0
628 210 2 -1.1794 1.2635028275718099 6.092548665082487 10.707624884564511 0 0 0
495 165 1 0.5897 0.8124854223468246 3.2913848899491756 11.390570988244056 0 0 0
1109 370 1 0.5897 0.577582923026845 5.905565838623612 16.031488395763738 0 0 0
961 321 2 -1.1794 4.3979636096346395 1.7548095418526317 15.93954221126611 0 0 0
962 321 1 0.5897 5.060560673428701 1.6839270172661922 15.252469490460529 0 0 0
1008 336 1 0.5897 5.668461455526833 0.916301260469357 13.1373954398464 0 0 0
964 322 2 -1.1794 2.8834987991482093 1.54391951588736 13.534558013106915 0 0 0
965 322 1 0.5897 3.1257597404253783 1.3580956236433208 14.441648175385003 0 0 0
966 322 1 0.5897 1.9272105157113466 1.5025391631692597 13.52824374112058 0 0 0
1347 449 1 0.5897 4.571364494763969 0.330902470015225 11.49027770381692 0 1 0
970 324 2 -1.1794 3.2606562661966207 4.611779302373423 14.982880781599452 0 0 0
971 324 1 0.5897 4.21621088133192 4.561623841284353 14.957660697874418 0 0 0
972 324 1 0.5897 2.991035137062198 3.820575258054005 15.449242312812792 0 0 0
979 327 2 -1.1794 4.622869198759587 3.366200913270026 12.07941246296593 0 0 0
975 325 1 0.5897 0.6845293810671522 3.44871743811507 16.022524514600732 0 0 0
981 327 1 0.5897 5.315205416280732 3.0871670329166743 12.678546949076168 0 0 0
967 323 2 -1.1794 5.988797530912394 4.599650560781548 15.262528147290062 0 0 0
980 327 1 0.5897 3.8241753278008574 2.9803423014765813 12.43913922258453 0 0 0
963 321 1 0.5897 4.448289033950069 0.9217647684572567 16.40824294836935 0 0 0
982 328 2 -1.1794 1.2198430255891728 4.590374055986819 12.944204547458156 0 0 0
983 328 1 0.5897 1.4347557837123568 5.149748036720624 12.197866398795547 0 0 0
984 328 1 0.5897 2.0164423602234613 4.581760554529621 13.474795201346904 0 0 0
990 330 1 0.5897 1.3290446332534978 1.1303510782423907 16.45774056825195 0 0 0
973 325 2 -1.1794 1.38164694868791 3.0069923409627926 16.50738065597517 0 0 0
987 329 1 0.5897 4.774320432306448 5.51524790812574 11.699443300222242 0 0 0
1110 370 1 0.5897 2.074677800109114 5.6922707518413675 15.959922125526004 0 0 0
1346 449 1 0.5897 3.782417314598227 0.4126194938142046 12.779609027809439 0 1 0
1345 449 2 -1.1794 4.412226522920325 -0.1350556923368167 12.311024114791726 0 1 0
976 326 2 -1.1794 -0.0961239195518947 1.4720689332108663 14.008057958463079 0 0 0
988 330 2 -1.1794 1.4686680582420766 0.18368844262691403 16.43391541663344 0 0 0
1058 353 1 0.5897 0.014549185947181797 4.481342045634249 14.31303873968445 1 0 0
1454 485 1 0.5897 2.1296575775581097 3.5104989619873304 21.523166017532326 0 0 0
1539 513 1 0.5897 -0.018987905386928572 5.523197305260621 21.238546577278335 1 0 0
1441 481 2 -1.1794 4.601219520096983 1.5162453672536056 21.287576401449215 0 0 0
1442 481 1 0.5897 3.821618706589036 1.5414303732794163 20.732828312408337 0 0 0
1464 488 1 0.5897 0.8602797073371347 4.76378092745236 19.22784462535992 0 0 0
1444 482 2 -1.1794 2.8529005889347157 1.492807451587896 19.25273280422963 0 0 0
1469 490 1 0.5897 1.715122902181851 1.081885179138203 22.116646959999883 0 0 0
1446 482 1 0.5897 3.2199868475761835 2.3327633059274704 18.977160268679704 0 0 0
1456 486 2 -1.1794 0.13375477865876978 1.2817127589415704 19.448143867667397 0 0 0
1450 484 2 -1.1794 3.1934161898901388 4.878155976018831 20.94416354799423 0 0 0
1451 484 1 0.5897 4.149497572240193 4.91615931808945 20.970811423853227 0 0 0
1452 484 1 0.5897 2.9743240869782426 4.993776526608292 20.01968816016798 0 0 0
1453 485 2 -1.1794 1.522813376948429 2.9916579432199235 22.051096740514886 0 0 0
1443 481 1 0.5897 4.3594957770147 2.0209187570075504 22.064085954859223 0 0 0
1459 487 2 -1.1794 4.670240408452839 3.3119625882162946 18.283689996857902 0 0 0
386 129 1 0.5897 4.816055466565765 -0.06814470668661396 22.796386481979575 0 1 -1
1461 487 1 0.5897 5.288487106661926 2.716833038787836 18.70770126305392 0 0 0
1462 488 2 -1.1794 1.6591725104689512 4.776104052814479 18.700782737815842 0 0 0
1466 489 1 0.5897 4.769713718001869 5.249493005669789 18.271083390445305 0 0 0
1463 488 1 0.5897 1.457292126235533 5.363879298784827 17.972864255722598 0 0 0
1445 482 1 0.5897 1.9381503585179582 1.6863466864755952 19.45767594760695 0 0 0
1538 513 1 0.5897 0.1279961937743569 4.031128978116032 21.028760808895335 1 0 0
1487 496 1 0.5897 5.865612275910493 1.3726217444103574 20.040639369467193 0 0 0
1488 496 1 0.5897 5.664514867825006 0.7039871361757889 18.69752503264958 0 0 0
1447 483 2 -1.1794 5.933655520352389 4.701809853589469 20.784231806382493 0 0 0
1468 490 2 -1.1794 1.4523482200181514 0.1615103023793817 22.10634737449432 0 0 0
1460 487 1 0.5897 4.454805797823357 2.8837733650111153 17.45525352174262 0 0 0
1455 485 1 0.5897 1.5237359990918142 3.419298683457849 22.9073554820973 0 0 0
974 325 1 0.5897 1.4939021425315917 3.533184798839159 17.298964168534432 0 0 0
1590 530 1 0.5897 1.9354760735180228 6.066481943917846 21.770131724080066 0 0 0
989 330 1 0.5897 1.6880188012526485 -0.04932352860872413 17.33592612467646 0 0 0
143 48 1 0.5897 1.1979523625862358 11.703426104713083 0.7370955457220121 0 0 0
121 41 2 -1.1794 4.514484471710003 7.554216037256566 4.2312564070860255 0 0 0
122 41 1 0.5897 3.637932480786429 7.431331912453464 3.8668967847656455 0 0 0
123 41 1 0.5897 5.102166743248378 7.451201393600854 3.482842758311567 0 0 0
124 42 2 -1.1794 2.5997431316481863 7.71021379377985 1.976692552152148 0 0 0
148 50 2 -1.1794 1.4869229137332707 6.340071220709744 4.6921011714121095 0 0 0
126 42 1 0.5897 3.0789015792790955 8.501174578164052 1.7296992959532678 0 0 0
125 42 1 0.5897 3.047991582541505 7.003256391002271 1.5125113283875111 0 0 0
129 43 1 0.5897 5.013419028738206 10.746147970317764 3.463687027341094 0 0 0
130 44 2 -1.1794 3.21476018569674 10.830087691700593 3.4282652212396947 0 0 0
150 50 1 0.5897 1.2541676905228902 7.263159538563445 4.592288375581954 0 0 0
132 44 1 0.5897 2.7387839074486724 10.087274169368103 3.7995765819892435 0 0 0
133 45 2 -1.1794 1.1417083543746775 9.112721405528745 4.855790013295291 0 0 0
135 45 1 0.5897 0.504867089056761 9.563294027876449 4.301194834973244 0 0 0
149 50 1 0.5897 1.5433731926196266 6.20778629692641 5.638319075217791 0 0 0
137 46 1 0.5897 0.887757914467215 7.771967335263554 2.2055564840254167 0 0 0
139 47 2 -1.1794 4.640497900454821 9.793000309589072 0.7373328455464012 0 0 0
140 47 1 0.5897 4.5907745700486 10.732936311276786 0.5633325889189923 0 0 0
142 48 2 -1.1794 1.3698134657072403 10.970436728449206 1.3281534754143018 0 0 0
168 56 1 0.5897 5.758386608473651 8.615301539478944 1.698238034381684 0 0 0
144 48 1 0.5897 0.5992751126209436 10.933397291491353 1.8947701108567883 0 0 0
127 43 2 -1.1794 5.922674737525738 10.491358074791611 3.620418996403047 0 0 0
131 44 1 0.5897 2.7992319921956974 10.981168048013876 2.579399306583529 0 0 0
621 207 1 0.5897 4.524435952107465 9.010217890681313 5.365901986963861 0 0 0
26 9 1 0.5897 4.960038174681892 6.3041217718808555 0.8512810961972473 0 0 0
166 56 2 -1.1794 6.031337060060699 7.717214716390543 1.8857636818790287 0 0 0
134 45 1 0.5897 1.2621869742812992 9.695805779487335 5.605185019816534 0 0 0
136 46 2 -1.1794 -0.050874443665108515 7.944784163491587 2.132457721040652 0 0 0
270 90 1 0.5897 2.0110683235051465 12.13394808987569 4.1886316487507775 0 0 0
612 204 1 0.5897 2.6846522521070173 11.3641850593784 9.637330237390126 0 0 0
620 207 1 0.5897 5.293485406976911 8.952787703573682 6.668493645989385 0 0 0
601 201 2 -1.1794 4.353244886132177 8.268558069073494 10.010627022570313 0 0 0
602 201 1 0.5897 4.313780107847553 7.496748230974295 10.575344393224151 0 0 0
603 201 1 0.5897 3.6767390203747765 8.117696239643227 9.350545504554342 0 0 0
604 202 2 -1.1794 2.904794656932476 7.664052428535749 7.801056824472567 0 0 0
605 202 1 0.5897 3.2408646733013926 8.45028595099039 7.370845620733855 0 0 0
606 202 1 0.5897 1.952907381143695 7.754609104220405 7.756932671792247 0 0 0
615 205 1 0.5897 0.6911188121937342 9.37959602102569 10.042156401355788 0 0 0
610 204 2 -1.1794 3.048217539940152 10.854129338602363 8.913606306620519 0 0 0
611 204 1 0.5897 3.9519537217834904 10.67727280787237 9.174784477890066 0 0 0
619 207 2 -1.1794 4.612056635564192 9.447089312494542 6.212969167056982 0 0 0
616 206 2 -1.1794 0.08118183409275395 7.567840084061664 7.7255002955623855 0 0 0
647 216 1 0.5897 5.7407035748521835 7.271585131368369 7.180043449928804 0 0 0
614 205 1 0.5897 2.196974852830112 9.534937955050033 10.029004630335464 0 0 0
624 208 1 0.5897 1.308185973126114 11.653313328548139 6.342579578356936 0 0 0
625 209 2 -1.1794 4.3550147145983695 12.170776530288162 6.290106423951796 0 0 0
613 205 2 -1.1794 1.4961620603528856 8.980587424028455 10.372168645816059 0 0 0
622 208 2 -1.1794 1.3224390048056336 10.872675256677292 6.896262976713987 0 0 0
623 208 1 0.5897 1.9886982830231617 11.059691121896316 7.557515456404395 0 0 0
630 210 1 0.5897 1.1656052848962282 7.04200189689565 10.779686592882308 0 0 0
506 169 1 0.5897 3.714875874767419 6.379538625003264 6.9762594337424915 0 0 0
648 216 1 0.5897 5.6112255722501505 7.8721479753431804 8.563520299456545 0 0 0
626 209 1 0.5897 4.445191613578267 11.218834220853184 6.246400683717572 0 0 0
607 203 2 -1.1794 5.783859349372287 10.843406340792287 9.323845414687243 0 0 0
507 169 1 0.5897 4.566343371704456 6.13463996688724 5.748838107318507 0 0 0
699 233 1 0.5897 0.015250330455802014 10.378731335363572 8.304489466432758 1 0 0
698 233 1 0.5897 0.05656496431424432 11.407246818334006 9.414466923595008 1 0 0
1085 362 1 0.5897 3.319135297922906 6.994934040989523 13.398778078108906 0 0 0
1083 361 1 0.5897 4.385217904372146 7.0444362962360385 16.849351287059022 0 0 0
1081 361 2 -1.1794 4.5234188873759535 7.6688113283098645 16.137191510284076 0 0 0
1082 361 1 0.5897 4.455914561750582 8.527635886362475 16.554386547560668 0 0 0
1095 365 1 0.5897 0.47033428676478295 9.194084492816973 15.973342165804207 0 0 0
1084 362 2 -1.1794 2.86877742627728 7.683059790199231 13.888510157139033 0 0 0
1096 366 2 -1.1794 0.15771156896380817 7.522171189724149 13.347365376513057 0 0 0
1086 362 1 0.5897 3.240714043449133 7.633523479634569 14.768993998578106 0 0 0
1097 366 1 0.5897 1.0751955123323116 7.3016332778663 13.50804046110345 0 0 0
1089 363 1 0.5897 4.973639494654025 10.744537175879877 15.021536593017318 0 0 0
1090 364 2 -1.1794 3.0229422324874418 10.690255426845537 15.078001582941273 0 0 0
1091 364 1 0.5897 2.69720343029726 11.568216093084558 15.276275903057192 0 0 0
1092 364 1 0.5897 2.5369944872782395 10.11487467152136 15.668726984858449 0 0 0
1128 376 1 0.5897 5.695260678373435 8.680420836422353 13.235115008323985 0 0 0
1087 363 2 -1.1794 5.917618131452796 10.587162794405648 15.040875971053286 0 0 0
1100 367 1 0.5897 3.734371803466339 8.98955995095549 13.05023493104343 0 0 0
1107 369 1 0.5897 4.470914509443978 11.471152925189113 12.48521872228255 0 0 0
1127 376 1 0.5897 5.5935997852011194 7.63335400538778 14.323654425831128 0 0 0
1099 367 2 -1.1794 4.193035204226256 9.589873566819838 12.462526616702773 0 0 0
1103 368 1 0.5897 1.5686659650554067 10.145373874131469 12.324597720063094 0 0 0
1102 368 2 -1.1794 1.3512402667970322 10.819670520210344 12.968195073806063 0 0 0
1094 365 1 0.5897 1.2170472882881758 7.903620928412854 16.23602761234691 0 0 0
1104 368 1 0.5897 2.000531752683778 10.707017411846472 13.662351821870503 0 0 0
1093 365 2 -1.1794 1.2590696412558389 8.847365560898707 16.390324058469105 0 0 0
1178 393 1 0.5897 0.11195055272504106 11.336463961310681 15.515243927660272 1 0 0
1108 370 2 -1.1794 1.4083203375480402 6.255898405971485 16.352975530254064 0 0 0
986 329 1 0.5897 5.162005023521686 6.836443256442715 12.328681206231007 0 0 0
1179 393 1 0.5897 -0.02488316113605557 10.728375209929009 14.1357627190949 1 0 0
1101 367 1 0.5897 4.237691343322696 9.121973527460755 11.628778145437769 0 0 0
750 250 1 0.5897 1.3921968621356735 12.01728782437315 11.59962253165105 0 0 0
985 329 2 -1.1794 4.435014437442372 6.388352757989892 11.896374996975792 0 0 0
1230 410 1 0.5897 1.5879198087609299 12.208123946409929 17.07060769909625 0 0 0
1126 376 2 -1.1794 6.056733391140955 7.838306735773036 13.51151109067382 0 0 0
1465 489 2 -1.1794 4.424855938520099 6.137445606618914 18.365144079697764 0 0 0
1589 530 1 0.5897 1.1116146525539716 7.304942995233463 22.051840262632055 0 0 0
1580 527 1 0.5897 3.681125642057845 9.379129050929826 18.37975190717505 0 0 0
1561 521 2 -1.1794 4.297236855485079 7.910740606815292 21.732859329437424 0 0 0
1562 521 1 0.5897 4.006028227161512 7.175950976090678 22.272721123020382 0 0 0
1563 521 1 0.5897 3.617978063201906 8.001501891340096 21.064654550866386 0 0 0
1564 522 2 -1.1794 2.6482288731279597 8.0359288934123 19.400199055502668 0 0 0
1565 522 1 0.5897 1.7447207876326285 7.7285980644115195 19.474054763212266 0 0 0
1566 522 1 0.5897 3.143336896987561 7.262764527682018 19.129460967889074 0 0 0
1584 528 1 0.5897 1.27989238873705 10.014531261859474 17.893932986842884 0 0 0
1570 524 2 -1.1794 3.1975836101110526 11.149874718390159 20.544269451219336 0 0 0
1571 524 1 0.5897 2.814474404200893 11.14473643736159 19.667201891243977 0 0 0
1572 524 1 0.5897 4.142321645434953 11.117591481895332 20.393742314740635 0 0 0
1576 526 2 -1.1794 0.02032190058915967 7.665413204333297 19.186546646322896 0 0 0
1575 525 1 0.5897 2.128491290583227 9.852982234580876 21.600512379107926 0 0 0
1579 527 2 -1.1794 4.523313037545639 9.66903887570986 18.02920650426011 0 0 0
1581 527 1 0.5897 5.174788013770966 9.208752468783585 18.558265031225538 0 0 0
1573 525 2 -1.1794 1.4028930826886763 9.386984519400436 22.015919473789737 0 0 0
1588 530 2 -1.1794 1.2059072008970548 6.385625713731144 22.30121223404148 0 0 0
1582 528 2 -1.1794 1.5465109838020688 10.810864885357091 18.353222350348688 0 0 0
1583 528 1 0.5897 0.7780764258168482 11.060572127506966 18.866374079537593 0 0 0
1574 525 1 0.5897 1.333352526252991 9.778580583795927 22.88648074126243 0 0 0
1587 529 1 0.5897 4.855210974922691 11.511670774395407 17.905639790220015 0 0 0
1658 553 1 0.5897 0.2734934713044178 10.412664716621276 20.907455176101855 1 0 0
1467 489 1 0.5897 5.124903513754995 6.621637109189271 18.802962089541637 0 0 0
1608 536 1 0.5897 5.9945587178342095 8.015656983443003 20.63266250993742 0 0 0
1709 570 1 0.5897 0.8338175621806025 12.211663259519856 21.861950431150582 0 0 0
141 47 1 0.5897 4.4612049567492695 9.382499167025443 22.898227981333733 0 0 -1
268 90 2 -1.1794 1.230931334877789 12.561987037575708 4.541308826574094 0 0 0
264 88 1 0.5897 1.6221550749914908 17.739184737419638 0.9872198586920615 0 0 0
241 81 2 -1.1794 4.7868074522424315 13.82104469876497 4.243328734880444 0 0 0
242 81 1 0.5897 4.58160432118561 13.169118157630745 4.913413511134467 0 0 0
243 81 1 0.5897 3.966007107500152 13.940692999444178 3.765679740476888 0 0 0
244 82 2 -1.1794 2.761306216865265 13.684940803240634 2.2192673528424725 0 0 0
245 82 1 0.5897 1.8258948015771448 13.560654288531852 2.3798601780836015 0 0 0
246 82 1 0.5897 2.8142210161475973 14.508759564724791 1.734798574967209 0 0 0
338 113 1 0.5897 0.054599839802410816 17.235373635146544 2.6009824082616557 1 0 0
250 84 2 -1.1794 3.0472503464875533 17.393383668409797 3.8507376261878434 0 0 0
251 84 1 0.5897 2.629281631929712 17.36625841263144 2.990143420227583 0 0 0
252 84 1 0.5897 3.975677594609131 17.244640552600995 3.671482766709837 0 0 0
253 85 2 -1.1794 1.286877761240727 15.45980021569787 4.7078691424774375 0 0 0
255 85 1 0.5897 2.0698030848708133 15.932176164365938 4.424836733086009 0 0 0
254 85 1 0.5897 0.5613485457009396 15.929493765129159 4.296528966986887 0 0 0
260 87 1 0.5897 4.723038183833143 16.52198582328792 1.0092661970618293 0 0 0
259 87 2 -1.1794 4.413388180268066 15.616379062161204 0.9941804870349757 0 0 0
145 49 2 -1.1794 4.448077528700004 12.441988236618027 0.432558358232507 0 0 0
262 88 2 -1.1794 1.3425440910145252 16.905494996269773 1.3653399014571161 0 0 0
263 88 1 0.5897 1.3441142117608997 16.295005161154556 0.6281804136472554 0 0 0
389 130 1 0.5897 1.6321596672015872 18.58868252391337 4.691545338174757 0 0 0
257 86 1 0.5897 0.03677964692226965 14.978183492872327 1.8305373381140537 0 0 0
269 90 1 0.5897 1.483225231201995 13.480476310112065 4.635980204353893 0 0 0
247 83 2 -1.1794 5.642627540653745 16.799316370523538 3.5589687084947563 0 0 0
147 49 1 0.5897 3.784444908750511 12.817940267114283 1.0108424810303138 0 0 0
256 86 2 -1.1794 -0.07430734566882455 14.078889038008755 2.1389871870288566 0 0 0
146 49 1 0.5897 5.2670653941514995 12.525260189088144 0.92092180584992 0 0 0
261 87 1 0.5897 4.433826644602325 15.371135669999408 0.06926432442364092 0 0 0
740 247 1 0.5897 4.268721575904195 15.234692797381129 5.573083487829504 0 0 0
265 89 2 -1.1794 4.769563451755012 18.430008675726164 0.861008105502423 0 0 0
249 83 1 0.5897 6.091160709223419 17.036790367433586 2.7474840311155178 0 0 0
287 96 1 0.5897 6.091097748226937 13.575326782676541 2.912434982340175 0 0 0
870 290 1 0.5897 1.9821276645019346 18.341855409000946 10.114463081556325 0 0 0
721 241 2 -1.1794 4.283275852796212 13.656138487494573 9.868936846258695 0 0 0
722 241 1 0.5897 3.44686051096512 13.629891237988398 9.404282598092774 0 0 0
766 256 2 -1.1794 6.087618048980954 13.579835582904675 7.747000873324104 0 0 0
724 242 2 -1.1794 2.6268540769289532 13.760695798390588 7.488145251780482 0 0 0
725 242 1 0.5897 3.217052099602494 14.514271824198971 7.483081992566244 0 0 0
726 242 1 0.5897 3.1842980003137646 13.017723056200133 7.2569137601353315 0 0 0
768 256 1 0.5897 5.634710570359912 14.27368844155677 7.267816531698627 0 0 0
728 243 1 0.5897 4.929215049327351 16.96687837039471 9.10634350613791 0 0 0
730 244 2 -1.1794 3.1989410913651457 16.889540092581854 9.377635592892828 0 0 0
749 250 1 0.5897 1.166230913113421 13.30698989903253 10.839780874976002 0 0 0
732 244 1 0.5897 2.8810799326297545 16.160778352060433 9.91058505693149 0 0 0
733 245 2 -1.1794 1.3008494048681223 15.114705755867991 10.497844022839962 0 0 0
741 247 1 0.5897 4.510991152750676 16.491598739875432 6.38130780429905 0 0 0
723 241 1 0.5897 4.941028403669351 13.519208277538683 9.187220779253229 0 0 0
737 246 1 0.5897 0.8557504404300285 14.0460845056707 7.644942438918034 0 0 0
727 243 2 -1.1794 5.865669437534665 16.77185586508108 9.070911084405196 0 0 0
731 244 1 0.5897 2.8683691712713064 16.705803384130913 8.498423901793293 0 0 0
742 248 2 -1.1794 1.3147997652841659 16.77053609396517 7.133826563011183 0 0 0
739 247 2 -1.1794 4.36544672828273 15.549846031662769 6.47161394431816 0 0 0
744 248 1 0.5897 1.3783633216085325 16.180239935243552 6.383089041849692 0 0 0
743 248 1 0.5897 1.4285868242408497 17.645118288423337 6.761865535245095 0 0 0
735 245 1 0.5897 0.5190793930873395 15.52148741344572 10.124262165035535 0 0 0
1221 407 1 0.5897 4.414386954190435 15.020032562446456 11.191671533307082 0 0 0
745 249 2 -1.1794 4.458864083032921 18.46158019799102 6.610009092863574 0 0 0
818 273 1 0.5897 -0.1380327438466229 16.850630208441796 8.415956969707665 1 0 0
869 290 1 0.5897 0.6002815709128336 17.828584936477068 10.459329197335553 0 0 0
736 246 2 -1.1794 -0.097152794256369 13.99166516462591 7.572483807616695 0 0 0
868 290 2 -1.1794 1.2728805274765214 18.445019843982042 10.748864864889486 0 0 0
627 209 1 0.5897 5.128425686477516 12.463215236850514 6.7722985089532735 0 0 0
748 250 2 -1.1794 1.3058537711010605 12.36848753211281 10.713483167081826 0 0 0
1229 410 1 0.5897 1.7012045097897404 13.576215101756896 16.43241236983016 0 0 0
1201 401 2 -1.1794 4.431694859498351 14.18114374479966 15.530671675698057 0 0 0
1219 407 2 -1.1794 4.320023882952174 15.644364404518717 11.910983972350149 0 0 0
1216 406 2 -1.1794 -0.1446276148191916 13.601441418290893 13.538454234335669 0 0 0
1204 402 2 -1.1794 2.6159171450160383 13.92758193846277 13.480966717184234 0 0 0
1205 402 1 0.5897 3.01847130545396 14.136828009888015 14.323715341893207 0 0 0
1206 402 1 0.5897 3.3276866190787304 13.554155227744266 12.961240832472056 0 0 0
1215 405 1 0.5897 2.3585944464163653 16.07482266184008 16.213748211084038 0 0 0
1210 404 2 -1.1794 3.0634631905627026 17.187438360577143 14.967554985786379 0 0 0
1211 404 1 0.5897 2.691228269684198 17.967784300761785 15.378280439629945 0 0 0
1212 404 1 0.5897 3.999117743742497 17.376620479142634 14.896819832241501 0 0 0
1214 405 1 0.5897 0.8627001118130981 15.847103102813357 16.262217668904107 0 0 0
1213 405 2 -1.1794 1.6950816049189668 15.472932411682786 16.550922754887075 0 0 0
1225 409 2 -1.1794 4.532871853762648 18.43881128332987 12.201678785663615 0 0 0
1202 401 1 0.5897 5.106563826836304 14.153148869521367 14.852520743886586 0 0 0
1218 406 1 0.5897 0.7870875418316717 13.816680850049714 13.495860524819237 0 0 0
1203 401 1 0.5897 4.5720307509020435 13.384160606518188 16.041838764336134 0 0 0
1220 407 1 0.5897 3.544133767002455 15.347283193743651 12.38628974340916 0 0 0
1222 408 2 -1.1794 1.535637336829365 16.668027803178244 12.799626122105469 0 0 0
1223 408 1 0.5897 1.6461376653258184 17.45124982979387 12.260634465985685 0 0 0
1224 408 1 0.5897 2.071505114804236 16.833070266163475 13.57531633267352 0 0 0
734 245 1 0.5897 1.28030954527365 15.360133491698445 11.422726282974477 0 0 0
1228 410 2 -1.1794 1.3737065067476357 12.691109563270201 16.272534188570987 0 0 0
1227 409 1 0.5897 4.6139554897781405 17.48757415468516 12.271035855296011 0 0 0
1298 433 1 0.5897 0.3161143755977061 16.93236185139001 14.408071381263307 1 0 0
1700 567 1 0.5897 4.564659437029246 15.50090011911185 16.92199039552287 0 0 0
1248 416 1 0.5897 5.9109746282277325 13.60981685997446 12.968230410997355 0 0 0
1350 450 1 0.5897 0.8434958185420531 18.489676430473533 15.934037696450483 0 0 0
1297 433 2 -1.1794 -0.09538410201285785 17.07875976488678 15.25971297766699 1 0 0
1106 369 1 0.5897 4.683915995283849 12.514663980338039 11.409422848770904 0 0 0
1207 403 2 -1.1794 6.028811127540347 17.03620517803424 15.049350435257626 0 0 0
1247 416 1 0.5897 5.7451575076853105 15.113001463686592 13.037889226137022 0 0 0
1105 369 2 -1.1794 4.76876826118466 12.371001762509119 12.351855160399275 0 0 0
1697 566 1 0.5897 1.2997669231282352 14.260940587959425 19.18007880936758 0 0 0
1586 529 1 0.5897 5.453731623939408 12.855575782017441 18.262798020882293 0 0 0
1681 561 2 -1.1794 4.5702578779909775 14.466761691931426 21.507912796683144 0 0 0
1696 566 2 -1.1794 0.3463636646021765 14.175935058692875 19.173865069891335 0 0 0
1683 561 1 0.5897 4.404119209842999 13.577246821859573 21.819953260712104 0 0 0
1684 562 2 -1.1794 3.048348787322139 14.173218807985313 19.12158357284337 0 0 0
1693 565 2 -1.1794 1.5312706573097086 15.45482387493945 22.20721530599284 0 0 0
1686 562 1 0.5897 3.497521844583901 14.128094386483777 19.96554248368175 0 0 0
1695 565 1 0.5897 1.4738212404883686 14.500936457496119 22.15211859289392 0 0 0
1689 563 1 0.5897 4.985606024022367 17.097104899284375 20.80446993208551 0 0 0
1690 564 2 -1.1794 3.206679035658869 17.1692995560425 20.756773649610274 0 0 0
1691 564 1 0.5897 2.867654563464088 16.451065180723685 21.290969001665182 0 0 0
1692 564 1 0.5897 2.62500417164177 17.198643667779386 19.997235409458177 0 0 0
1699 567 2 -1.1794 4.764944478629235 15.700636554702228 17.836333690626283 0 0 0
1685 562 1 0.5897 3.434120239386843 13.464796580311798 18.606329287820678 0 0 0
1682 561 1 0.5897 5.329686182518827 14.380972397093126 20.931663296320274 0 0 0
1779 593 1 0.5897 0.11007683414759095 17.8719090309962 21.270384018925114 1 0 0
1694 565 1 0.5897 0.8196308568264212 15.770662712718268 21.650452397519253 0 0 0
1707 569 1 0.5897 4.872276481700364 17.525503058410344 17.942469021901147 0 0 0
1701 567 1 0.5897 4.048514057935165 15.303148078937737 18.3312160825639 0 0 0
1702 568 2 -1.1794 1.3789935355319476 17.13788714906862 18.684077470571268 0 0 0
1703 568 1 0.5897 1.7062332261190278 16.42190537510613 18.13960961845379 0 0 0
1704 568 1 0.5897 1.4687307233494733 17.91705523486868 18.135440429400504 0 0 0
1778 593 1 0.5897 0.07591032680267468 17.075436277728834 19.983546427323382 1 0 0
1708 570 2 -1.1794 1.524005471883045 12.704788859177123 22.30541483623697 0 0 0
1687 563 2 -1.1794 5.918865038271738 17.234153955326192 20.967206699846784 0 0 0
1728 576 1 0.5897 5.8923850779782025 14.754898226779916 18.781916774724678 0 0 0
1698 566 1 0.5897 0.03518513781178867 14.99222247650307 18.782661244012175 0 0 0
1830 610 1 0.5897 2.2071856679396897 18.5945077987474 21.896856498231855 0 0 0
1705 569 2 -1.1794 4.66399392722418 18.45968528966947 17.954924414206204 0 0 0
1710 570 1 0.5897 2.3356694950143506 12.398261508549183 21.901138367341403 0 0 0
1585 529 2 -1.1794 4.866590504775184 12.430528318256176 17.63770859324893 0 0 0
385 129 2 -1.1794 4.647890451356553 24.50940402547964 0.6214101748861516 0 0 0
363 121 1 0.5897 4.678422698623086 20.850059282289013 5.011696623547032 0 0 0
361 121 2 -1.1794 4.845427593228795 20.179104265404124 4.349838117955014 0 0 0
362 121 1 0.5897 4.015085736780574 20.091914795997543 3.8817416982055977 0 0 0
384 128 1 0.5897 1.4767045386757647 22.893792604797465 0.7549357216685699 0 0 0
364 122 2 -1.1794 3.064158745088333 20.113897902248052 2.2903653682903675 0 0 0
365 122 1 0.5897 3.484794070053856 20.87217042734829 1.8850435700525159 0 0 0
380 127 1 0.5897 4.700180787882058 22.637749582505855 0.7267591723165925 0 0 0
366 122 1 0.5897 2.135194619242769 20.21549647205428 2.083174155875416 0 0 0