LAMMPS data file via write_data, version 30 Jul 2021, timestep = 41750000

1008 atoms
2 atom types
672 bonds
1 bond types
336 angles
1 angle types

-3.1718047979630946 14.781803797513643 xlo xhi
0.08433535913547807 22.49566364085817 ylo yhi
0.09157349008267701 19.138424509914493 zlo zhi
-0.1574311254104644 -6.657336010285656 0.1008645523558694 xy xz yz

Masses

1 1.008
2 15.999

Pair Coeffs # lj/cut/tip4p/long/omp

1 0 0
2 0.21084 3.1668

Bond Coeffs # harmonic/omp

1 450 0.9572

Angle Coeffs # harmonic/omp

1 55 104.52

Atoms # full

55 19 2 -1.1794 -0.5881178086161483 4.231773710958588 3.5704077275245916 0 0 0
56 19 1 0.5897 -1.2810761408137026 3.7956327220397292 3.0744060481357787 0 0 0
57 19 1 0.5897 0.11807738312718374 4.357513579129547 2.9365785874108816 0 0 0
121 41 2 -1.1794 -2.5471285254957965 2.68432798837652 2.5425690707403232 1 0 0
122 41 1 0.5897 -2.4946297141909106 2.2497899555825756 1.6913223448338595 1 0 0
21 7 1 0.5897 1.2099254987243135 2.429854929616025 0.9094808115222088 0 0 0
31 11 2 -1.1794 1.3255030914519113 1.331422009649537 2.375331224622087 0 0 0
86 29 1 0.5897 -2.4031876488733017 1.7813138133662527 4.105413502520323 1 0 0
32 11 1 0.5897 1.2678289559134797 1.6721130339964667 3.2679806307886614 0 0 0
46 16 2 -1.1794 1.8088159360957121 4.768536576571987 2.281639440057124 0 0 0
401 134 1 0.5897 2.3354829773062935 0.4337525911302613 9.028559600855017 0 1 0
70 24 2 -1.1794 3.801412297895327 0.5753768205550638 1.4617072371900386 0 0 0
669 223 1 0.5897 -5.30608667045866 1.739557984282136 9.115296109519141 1 0 0
71 24 1 0.5897 3.0080395397001425 0.7164978388834788 1.9783192799647555 0 0 0
527 176 1 0.5897 4.0284107491378265 2.0013662631642832 0.4406608688580133 0 0 1
123 41 1 0.5897 -3.466158084524633 2.938904137124849 2.625627441476288 1 0 0
47 16 1 0.5897 1.997568582644278 5.209631550056992 1.4533649269223798 0 0 0
54 18 1 0.5897 3.07862142506814 3.7068760613846257 2.9348670647444437 0 0 0
5 2 1 0.5897 3.1322447023720894 0.4115101028499184 5.080529598614769 0 0 0
522 174 1 0.5897 2.0756176341526755 5.630259873853414 9.169130176696415 0 0 0
48 16 1 0.5897 1.8584860140843196 5.461918594158703 2.939607610218518 0 0 0
52 18 2 -1.1794 3.697400038407027 3.267903266698569 3.5186059573459434 0 0 0
158 53 1 0.5897 -4.341238465434188 4.661801166214949 4.359048811782427 1 0 0
33 11 1 0.5897 0.6034525954826426 0.7063444891186548 2.3098636166070223 0 0 0
44 15 1 0.5897 -0.4236470252425022 5.324139718597944 8.19355876385148 0 0 0
124 42 2 -1.1794 -4.995260281741464 2.4796517568283654 7.420529070932552 1 0 0
6 2 1 0.5897 3.549364495597266 1.818648033509875 4.709457879376269 0 0 0
159 53 1 0.5897 -3.2915183569936004 4.684702944358188 5.4499102468137695 1 0 0
87 29 1 0.5897 -3.4590438881402132 1.0860604002434264 4.938366448644111 1 0 0
85 29 2 -1.1794 -2.5356385444687417 1.3385132054567723 4.943634973266696 1 0 0
45 15 1 0.5897 0.6580032766591897 4.9556146074342164 7.200559211093398 0 0 0
78 26 1 0.5897 0.34173955207799267 2.993547002458528 4.537256803474693 0 0 0
76 26 2 -1.1794 1.0053856182212284 2.392645098193317 4.876012037769642 0 0 0
59 20 1 0.5897 1.8101609753125816 3.6923096804223023 5.80987818964705 0 0 0
43 15 2 -1.1794 -0.2886979222623576 5.073384852613216 7.279705702701208 0 0 0
60 20 1 0.5897 2.871415827354241 3.8607824345730526 6.876552685306652 0 0 0
34 12 2 -1.1794 0.006014766648482883 1.4998143621405768 7.299091432720978 0 0 0
35 12 1 0.5897 0.14527089664717208 2.1020799478762373 8.029914980539026 0 0 0
36 12 1 0.5897 -0.8665154219441891 1.1362705491085052 7.450473586768534 0 0 0
482 161 1 0.5897 -1.1099260328943532 0.23297429791793958 1.0917750842582046 1 1 0
67 23 2 -1.1794 -2.428864739874588 0.6257904298489437 8.267656497592773 0 0 0
157 53 2 -1.1794 -3.821095550924569 5.259018329791994 4.896758213162406 1 0 0
58 20 2 -1.1794 2.1997943704079432 4.34288024290582 6.394025058565307 0 0 0
602 201 1 0.5897 -0.4887056034451658 5.333706663443893 0.6666952080276198 1 0 1
53 18 1 0.5897 4.485523931932717 3.1501864853913633 2.9882668481203223 0 0 0
135 45 1 0.5897 -1.6587534601338039 3.979969375008896 6.869046619960968 1 0 0
126 42 1 0.5897 -4.123615222451218 2.845981001752247 7.270758287143723 1 0 0
77 26 1 0.5897 0.62122185198856 2.038162362095977 5.677881738991819 0 0 0
134 45 1 0.5897 -2.2990754261856026 2.791877132976536 6.1831899473654826 1 0 0
133 45 2 -1.1794 -2.5053255875778535 3.5603774871567486 6.715128666827427 1 0 0
69 23 1 0.5897 -2.655767455554384 1.309536263055854 8.897820662509135 0 0 0
16 6 2 -1.1794 5.374570371828531 4.892165003081078 0.4200254904061229 0 0 0
98 33 1 0.5897 -4.190085056957304 5.16977755354745 8.694776180503007 1 0 0
22 8 2 -1.1794 0.2983231556367616 2.9845424027041525 9.595292310412331 0 0 0
4 2 2 -1.1794 3.782575943115372 1.085390253572016 5.278786688455049 0 0 0
97 33 2 -1.1794 -4.219967502099455 4.730891678874237 9.5449107314668 1 0 0
125 42 1 0.5897 -5.596914632432659 3.16453811520097 7.128744217403663 1 0 0
18 6 1 0.5897 4.892482727257844 4.089238918416105 0.22213909258034395 0 0 0
402 134 1 0.5897 1.361939589965817 0.3025563167144234 7.876436063095409 0 1 0
68 23 1 0.5897 -3.27146689026927 0.2660741122337079 7.990010088261222 0 0 0
101 34 1 0.5897 -2.5700593790319317 4.5433091215619426 0.18720460374741643 1 0 0
11 4 1 0.5897 2.280173789900431 5.706767546098811 5.059064526866744 0 0 0
163 55 2 -1.1794 -2.069937378950041 1.3582573711377 0.12304519247324168 1 0 0
548 183 1 0.5897 -3.669289821927289 5.6540270745058745 16.225752300646896 0 0 0
626 209 1 0.5897 -5.78820731787893 2.0026222270080765 12.685203077171138 1 0 0
23 8 1 0.5897 0.5244040894497131 2.2437843853356876 10.157736929720441 0 0 0
508 170 2 -1.1794 0.5460356873743812 1.1426602076533046 14.578749064850188 0 0 0
536 179 1 0.5897 -2.1341762735617387 1.700606446129092 13.09966098206666 0 0 0
525 175 1 0.5897 -1.6275724560055624 2.934139201406038 9.782027126904877 0 0 0
576 192 1 0.5897 -0.25832035197510184 0.846835395634621 11.744439863578629 0 0 0
628 210 2 -1.1794 -8.157579190529244 2.5764553507936663 16.77421583221903 1 0 0
535 179 2 -1.1794 -2.008959237718166 1.2128186650552912 12.285682912063407 0 0 0
601 201 2 -1.1794 -7.409886517152852 4.833184038012689 19.017139720602923 1 0 0
537 179 1 0.5897 -2.2563786158328236 1.8288635548558232 11.596115581424836 0 0 0
561 187 1 0.5897 -3.803062241850152 3.8616341358999713 13.82905199925989 0 0 0
587 196 1 0.5897 -1.2653772322698624 5.636227409246301 10.577650487301481 0 0 0
164 55 1 0.5897 -8.359173416918301 1.8792428542364046 18.39257309085773 1 0 -1
627 209 1 0.5897 -6.883983232841951 2.9288605541531787 12.202159734219292 1 0 0
557 186 1 0.5897 0.24471083907607838 2.7408590393010095 13.569480752273016 0 0 0
558 186 1 0.5897 -0.39269996695676124 3.8035821546785202 12.699902771270658 0 0 0
559 187 2 -1.1794 -4.232008799118718 4.4779063431532045 13.235366384348353 0 0 0
560 187 1 0.5897 -4.878504338211032 3.949685196474977 12.766938916428321 0 0 0
625 209 2 -1.1794 -5.974131063742075 2.681659045976829 12.03670620434082 1 0 0
668 223 1 0.5897 -5.790195837266593 1.7815385970502724 10.549081083282182 1 0 0
556 186 2 -1.1794 0.41692820149890064 3.5907217813677565 13.164230059371103 0 0 0
580 194 2 -1.1794 -2.5022740275388387 2.7496641120931398 14.526370139448163 0 0 0
552 184 1 0.5897 -2.6862470809453978 4.812145964687382 12.296271951774669 0 0 0
589 197 2 -1.1794 -5.796957631694791 1.0313886548807187 14.2789092263596 1 0 0
550 184 2 -1.1794 -1.7725783518174483 5.056041711184092 12.147519896208609 0 0 0
165 55 1 0.5897 -9.326295735049797 0.7973518282175205 18.82409409869917 1 0 -1
629 210 1 0.5897 -8.794257428193408 3.2783031958387494 16.63919062336876 1 0 0
630 210 1 0.5897 -8.334546921988146 1.953304013816451 16.069523296429068 1 0 0
582 194 1 0.5897 -1.9395719128731104 3.3649095581519046 14.996684845574624 0 0 0
523 175 2 -1.1794 -2.516364711155391 2.6778791089863736 10.028511390959746 0 0 0
547 183 2 -1.1794 -3.6699547761881988 4.994089908337679 16.91906248053759 0 0 0
639 213 1 0.5897 -5.985784945164967 4.029284797684106 15.268132372738815 1 0 0
538 180 2 -1.1794 -3.256316762458371 1.3090527666771827 16.716123383206416 0 0 0
540 180 1 0.5897 -4.186266009502494 1.084002114196898 16.74729912748173 0 0 0
591 197 1 0.5897 -5.182867238862965 0.3255356837214849 14.48103884788479 1 0 0
539 180 1 0.5897 -3.1146110565678473 1.8522284622937335 17.491440622727126 0 0 0
638 213 1 0.5897 -6.448467845966471 3.054420811305123 16.329925611657664 1 0 0
549 183 1 0.5897 -4.314343545352207 4.346469697972394 16.63320779245573 0 0 0
562 188 2 -1.1794 -1.0936543648975432 4.396807814099778 16.249519169294025 0 0 0
99 33 1 0.5897 -4.076164387088249 5.430935215989731 10.181658871376602 1 0 0
564 188 1 0.5897 -1.9314958082953897 4.515360893726945 16.697005111963396 0 0 0
593 198 1 0.5897 -7.607079516604123 0.8063804464914732 14.465397404955167 1 0 0
526 176 2 -1.1794 -2.7769182704843134 2.7993747916198024 18.848537345890936 0 0 0
637 213 2 -1.1794 -5.677014928122551 3.3165471170770995 15.827476660450493 1 0 0
663 221 1 0.5897 -7.615509378659016 4.751879698947431 14.151392833965248 1 0 0
581 194 1 0.5897 -2.901549097262312 2.21616462565429 15.213527290926798 0 0 0
590 197 1 0.5897 -5.575600810182567 1.726581703821314 14.898527267869616 1 0 0
563 188 1 0.5897 -1.00447459248445 5.173494058061839 15.697273848296268 0 0 0
524 175 1 0.5897 -3.069394697251671 3.3898212907546017 9.70684177515359 0 0 0
20 7 1 0.5897 -5.6073655694529 2.129605984047493 18.50529418400787 0 0 -1
661 221 2 -1.1794 -6.973983187991273 5.325471517415595 14.570704590679492 1 0 0
574 192 2 -1.1794 0.5167791968847721 0.8019706043590249 11.18455364689101 0 0 0
571 191 2 -1.1794 -5.745635616738545 0.549734312240657 17.60739804895702 0 0 0
528 176 1 0.5897 -3.7160644175831044 2.977307666177946 18.900647801981485 0 0 0
551 184 1 0.5897 -1.5467083923252032 5.608667974092324 12.895750155855774 0 0 0
667 223 2 -1.1794 -5.5291211619629825 1.1754962368701882 9.855772672194984 1 0 0
986 329 1 0.5897 -4.538736259973493 0.22412492812013823 10.952363634497473 1 1 0
603 201 1 0.5897 -6.772344778009229 4.120616632756348 19.0613395261913 1 0 0
520 174 2 -1.1794 2.2323850334990407 4.917481924057463 9.78845642687451 0 0 0
19 7 2 -1.1794 -5.476694631151216 2.891247303534586 19.070091258340938 0 0 -1
905 302 1 0.5897 -2.0359079160245868 0.19582819915798033 17.370736953757266 0 1 0
24 8 1 0.5897 1.0222602760050306 3.600721226424032 9.707600794260411 0 0 0
606 202 1 0.5897 -6.041578936081875 4.829538935315254 9.677800362243461 1 0 0
575 192 1 0.5897 1.150726548126011 0.29549115852791175 11.692383755611994 0 0 0
289 97 2 -1.1794 -2.5948235804747086 10.151938863187475 2.4539707209391683 1 0 0
332 111 1 0.5897 -2.279542857412829 9.091675672569691 0.9929401261453853 1 0 0
255 85 1 0.5897 -2.3080115479564 9.158970797719089 3.9566679574556187 1 0 0
147 49 1 0.5897 -0.7581350129981583 7.424160766702751 1.0167540204917713 1 0 0
146 49 1 0.5897 -1.2805871441472942 6.596113474653755 2.17142232169034 1 0 0
145 49 2 -1.1794 -0.47139053240674933 6.852495098850386 1.7289447013928614 1 0 0
174 58 1 0.5897 3.5590043945575562 9.199193124594668 4.539564169738195 0 0 0
112 38 2 -1.1794 -3.088706432579742 6.404947722632873 2.5520952214708887 1 0 0
65 22 1 0.5897 2.3006411896074193 7.65865716905358 8.619597743200254 0 0 0
189 63 1 0.5897 1.8169505444280238 10.588402255850871 0.37158065244726696 0 0 0
837 279 1 0.5897 -6.0621723496003375 8.278845242085128 9.24095409011783 1 0 0
588 196 1 0.5897 -1.529673541618911 6.628672323328783 9.465413967968885 0 0 0
201 67 1 0.5897 2.0919226488935836 8.510621131108469 2.461235896108084 0 0 0
188 63 1 0.5897 0.8434891955048665 9.794405883118795 1.216530859338953 0 0 0
200 67 1 0.5897 0.6482500005178813 8.060137726428056 2.388497518417518 0 0 0
303 101 1 0.5897 -1.5253267459730422 11.191853129235147 7.102880279401895 1 0 0
199 67 2 -1.1794 1.1971948347910732 8.80645190086406 2.629284021453918 0 0 0
239 80 1 0.5897 3.8250599253540853 8.891819262466003 1.364256477552776 0 0 0
238 80 2 -1.1794 3.744525680884056 8.087148366159512 1.8762921145397617 0 0 0
173 58 1 0.5897 3.1654196947018223 7.773425752374648 4.862016096150462 0 0 0
10 4 2 -1.1794 2.049313998942802 6.444500165832778 4.494586697203087 0 0 0
240 80 1 0.5897 3.442233411248451 7.431856011262775 1.2474254259293125 0 0 0
245 82 1 0.5897 0.9468877775781381 9.662485817900313 4.181739956339062 0 0 0
228 76 1 0.5897 1.8245630910767225 11.269389767086087 5.864649612393294 0 0 0
291 97 1 0.5897 -3.496993333537372 10.413985617537485 2.637601016848722 1 0 0
113 38 1 0.5897 -3.271542606925705 5.979586335088306 3.389868236247002 1 0 0
12 4 1 0.5897 1.158251238620788 6.676958827853802 4.7558740421672665 0 0 0
221 74 1 0.5897 4.289773317442981 10.701105736134707 2.8657683504571825 0 0 0
110 37 1 0.5897 -4.344596979836329 6.1963285227084155 6.376712301576218 1 0 0
301 101 2 -1.1794 -2.339736558952606 10.80765320353557 6.777950961771979 1 0 0
694 232 2 -1.1794 3.6529746388893773 10.445548927584397 0.21834193411619124 0 0 1
8 3 1 0.5897 -0.5911884144630775 6.2712282559115 5.865870377823904 0 0 0
254 85 1 0.5897 -1.7992989193841995 8.041780911511296 4.842629876812334 1 0 0
253 85 2 -1.1794 -2.326352153464474 8.840565209637155 4.859182322441121 1 0 0
302 101 1 0.5897 -2.059694242734682 10.048440309253701 6.266817609525866 1 0 0
244 82 2 -1.1794 0.7003077939888991 10.234947614920548 4.908113557951286 0 0 0
220 74 2 -1.1794 3.5688675122870865 10.703914482850085 3.4954800143152376 0 0 0
294 98 1 0.5897 -5.083226806375189 9.861892254343678 8.298447865846192 1 0 0
109 37 2 -1.1794 -4.425440122378575 6.447206125233079 7.296901505818326 1 0 0
7 3 2 -1.1794 -0.6698145565667226 6.5757673074623995 4.9617998285823885 0 0 0
64 22 2 -1.1794 2.043803584735656 6.993124601148352 7.981361818038803 0 0 0
237 79 1 0.5897 -2.3915420642051943 8.515879748733628 8.672567898612987 0 0 0
257 86 1 0.5897 -4.167488041045482 8.471480712039346 4.860807796900733 1 0 0
290 97 1 0.5897 -2.066966142485463 10.90425603460209 2.721710240249163 1 0 0
292 98 2 -1.1794 -4.968326469331155 10.174490474192037 7.40104860846826 1 0 0
191 64 1 0.5897 0.5066483458947895 9.78629849217715 8.868591783168217 0 0 0
293 98 1 0.5897 -4.02945086620987 10.345101201434503 7.32476346030146 1 0 0
202 68 2 -1.1794 0.3014317056737639 8.902213591874508 7.1588352536449475 0 0 0
203 68 1 0.5897 -0.5425239818195919 8.52178561917982 7.402528596485951 0 0 0
204 68 1 0.5897 0.9253976545305633 8.182538705692645 7.2531865912942095 0 0 0
246 82 1 0.5897 0.44194590151390756 9.636077762679749 5.608695877345111 0 0 0
235 79 2 -1.1794 -2.0971268943512817 7.822698671114243 8.081879803557158 0 0 0
236 79 1 0.5897 -2.9008811647474535 7.3741390956179265 7.818790505697136 0 0 0
111 37 1 0.5897 -5.3007241378920105 6.828596758133574 7.365530526339451 1 0 0
696 232 1 0.5897 4.2101757980350305 11.223727023219125 0.20278479422849033 0 0 1
66 22 1 0.5897 2.847774553249293 6.800656669815337 7.498835090212664 0 0 0
187 63 2 -1.1794 0.8945357776634735 10.339412657912243 0.43130452087055765 0 0 0
258 86 1 0.5897 -5.107485102114758 8.983203895903538 5.931449067986399 1 0 0
114 38 1 0.5897 -3.274949671725837 5.7332053471955575 1.896138625772489 1 0 0
172 58 2 -1.1794 3.696033155876897 8.503036817871937 5.182050013463258 0 0 0
82 28 2 -1.1794 2.47123409872923 6.341288864202316 0.1813476013686132 0 0 0
9 3 1 0.5897 -0.8096822338737959 5.7783471116727965 4.451188186754811 0 0 0
222 74 1 0.5897 2.8870093364047857 11.22980068976675 3.0773767284816156 0 0 0
331 111 2 -1.1794 -1.9716850997827662 8.643378739828195 0.20529044477455433 1 0 0
224 75 1 0.5897 -0.3457171677972335 11.303146836398229 3.9440466736991358 0 0 0
570 190 1 0.5897 -0.35996135632483117 6.993520509437279 17.39653200417122 0 0 0
798 266 1 0.5897 -8.233465301673922 9.773332571880225 16.43682162495439 1 0 0
759 253 1 0.5897 -5.998508501343425 8.87175727954579 13.675317493610464 1 0 0
651 217 1 0.5897 -5.019265304291339 6.902128103077058 11.6550943707629 1 0 0
192 64 1 0.5897 1.1225085186407755 10.804387390310152 9.804663239464531 0 0 0
797 266 1 0.5897 -7.117647846037135 10.704779524749659 16.86067786309191 1 0 0
795 265 1 0.5897 -5.757586020395527 9.733896214471104 11.393731351661607 1 0 0
693 231 1 0.5897 -2.409567230591552 9.352615966600109 10.764007182546614 0 0 0
649 217 2 -1.1794 -4.200557648296041 6.925261049855338 11.159650304392413 1 0 0
650 217 1 0.5897 -3.570882294031849 7.3317593818488005 11.755206947172818 1 0 0
742 248 2 -1.1794 0.35544147337828935 7.8877416528047855 11.50148264275188 0 0 0
793 265 2 -1.1794 -5.899391547955696 9.98020057097609 12.307756598461197 1 0 0
743 248 1 0.5897 0.4882408739303208 8.660260153783112 10.95216150139701 0 0 0
744 248 1 0.5897 0.011012955480354858 7.2244235474036715 10.903442551894837 0 0 0
741 247 1 0.5897 -5.905345229076092 9.028337446071482 18.145398899639083 0 0 0
83 28 1 0.5897 -4.75295458245593 7.111141017289231 18.844319179770928 0 0 -1
703 235 2 -1.1794 -2.246464366469576 8.367917362644235 12.290763589271327 0 0 0
704 235 1 0.5897 -1.3193559567299848 8.16369618069573 12.167850126043094 0 0 0
705 235 1 0.5897 -2.2731316365446155 8.887437359307528 13.094236657815571 0 0 0
835 279 2 -1.1794 -5.525453558031642 8.856232375923108 9.784014374210647 1 0 0
706 236 2 -1.1794 -2.9300110165996536 9.068781597953288 16.907180786868945 0 0 0
707 236 1 0.5897 -3.8307547581570436 8.75809558517998 16.99963947818234 0 0 0
750 250 1 0.5897 -3.2122678346497358 10.642704964538447 14.147063400486031 0 0 0
333 111 1 0.5897 -8.423397016179871 9.450004993842548 18.639109161180702 1 0 -1
807 269 1 0.5897 -4.836032199104793 11.35129603231052 16.319250619001693 1 0 0
796 266 2 -1.1794 -8.01775152093659 10.4564370545236 17.071690638490107 1 0 0
748 250 2 -1.1794 -2.4944445857830777 10.082096655253775 14.44152993158551 0 0 0
514 172 2 -1.1794 -1.1068112473486957 6.393902568142149 14.482559203073126 0 0 0
708 236 1 0.5897 -2.391225860535208 8.333013202854206 17.19793999582238 0 0 0
749 250 1 0.5897 -2.822527126047225 9.672863262942592 15.242230211746087 0 0 0
618 206 1 0.5897 -6.840519255158009 5.874674627209559 11.415345648931785 1 0 0
512 171 1 0.5897 -4.574461864982771 7.341868422779552 14.694119315735897 0 0 0
511 171 2 -1.1794 -3.831798526090947 6.743260989180006 14.77379165614149 0 0 0
515 172 1 0.5897 -1.938677172401647 6.8364062950818605 14.651197158644134 0 0 0
516 172 1 0.5897 -0.457731244233468 7.097435521536925 14.475088314747824 0 0 0
724 242 2 -1.1794 0.5506468594698717 10.871327699931028 12.859175007305161 0 0 0
757 253 2 -1.1794 -5.957413844444619 8.448302003386747 14.53278545700371 1 0 0
695 232 1 0.5897 -2.8897720781216396 10.151896305322907 18.400658582681334 0 0 0
758 253 1 0.5897 -5.692715444168158 9.145774171831935 15.132539101315643 1 0 0
616 206 2 -1.1794 -6.745254310790623 6.551877863026184 12.085054472144781 1 0 0
762 254 1 0.5897 -7.793240566334444 8.35863181655873 14.83996506546891 1 0 0
568 190 2 -1.1794 -1.1314081953867836 7.273709496951762 17.88906610928916 0 0 0
676 226 2 -1.1794 0.5746850875036689 8.598176054857447 14.611756963698111 0 0 0
836 279 1 0.5897 -4.88536156017693 8.274181187082824 10.193613274655851 1 0 0
678 226 1 0.5897 0.3936975647347465 9.260412061595527 13.944751696916079 0 0 0
739 247 2 -1.1794 -5.526119818016941 8.283720202426462 17.678699598919806 0 0 0
613 205 2 -1.1794 -7.520202020515724 6.580503896182566 16.926623606287077 1 0 0
740 247 1 0.5897 -6.2819224226629045 7.789294861593672 17.361316880781555 0 0 0
794 265 1 0.5897 -5.263364875815556 10.676964154406969 12.470014363024049 1 0 0
569 190 1 0.5897 -1.3331289930694945 6.533128442549902 18.460934239860602 0 0 0
805 269 2 -1.1794 -5.490883195055208 10.840397574241322 15.843268194602555 1 0 0
615 205 1 0.5897 -7.343491680834695 6.197561320269363 16.067370618354083 1 0 0
662 221 1 0.5897 -6.713136590833692 5.937353397449926 13.882395882986653 1 0 0
513 171 1 0.5897 -4.010326229337516 6.053292992192603 14.134820616044495 0 0 0
692 231 1 0.5897 -1.3768047504914533 10.060577900936284 9.913005318468782 0 0 0
809 270 1 0.5897 -7.605222981340347 10.521571900777277 12.624222883304839 1 0 0
586 196 2 -1.1794 -0.8430139533577004 6.0772431511157805 9.840527728962092 0 0 0
190 64 2 -1.1794 0.5178307297354454 10.062593925007388 9.78498813195585 0 0 0
617 206 1 0.5897 -7.306627628326983 7.266674134493202 11.784862940940254 1 0 0
691 231 2 -1.1794 -2.3040343582538916 9.823778261883874 9.937508581437106 0 0 0
731 244 1 0.5897 -1.600588048052753 11.354082980104739 15.298746864229523 0 0 0
614 205 1 0.5897 -7.482960908343823 5.839857603504069 17.531797450505298 1 0 0
84 28 1 0.5897 -3.9247622609515593 5.895303883769333 18.48739653616951 0 0 -1
280 94 2 -1.1794 -3.4638130079129423 13.952043585764182 2.535021437499496 1 0 0
340 114 2 -1.1794 3.663347457800394 16.299341096688785 5.161734943027882 0 0 0
184 62 2 -1.1794 5.374713822174451 12.497327232031227 0.28557712756335296 0 0 0
756 252 1 0.5897 -1.6977579367215956 14.414213455766236 9.132348070712837 0 0 0
223 75 2 -1.1794 -0.8100255398786471 11.952023719166977 3.4152574065908357 0 0 0
232 78 2 -1.1794 1.867769803821993 14.43106185543688 8.216301056431009 0 0 0
423 141 1 0.5897 -2.609890531739375 16.42239852077929 3.954101496264018 1 0 0
277 93 2 -1.1794 -4.399677160655387 13.698374766591538 7.33829414088215 1 0 0
326 109 1 0.5897 -3.119675876080775 11.928171309599508 5.4081516376429875 1 0 0
226 76 2 -1.1794 2.140190147306285 11.921673418398473 6.4900872510565835 0 0 0
408 136 1 0.5897 3.82555197124534 16.325010069241614 1.2728527433040588 0 0 0
281 94 1 0.5897 -3.4568506928625 13.601018735837949 3.4255215413979063 1 0 0
369 123 1 0.5897 1.0664506549953554 16.67302240740976 3.5062832950392 0 0 0
499 167 2 -1.1794 -2.623981224612467 16.311488831626882 0.19259261563500243 1 0 0
341 114 1 0.5897 3.1465179047345817 15.497945756223146 5.078561878221427 0 0 0
227 76 1 0.5897 1.388603399995576 12.093317696221892 7.0574409198419055 0 0 0
407 136 1 0.5897 4.478865638918904 15.259344159594209 2.126901926801144 0 0 0
234 78 1 0.5897 1.2860348709894858 15.043045798001378 7.765391841258631 0 0 0
404 135 1 0.5897 -1.7964491628999038 15.946229540303293 7.733938520590229 0 0 0
403 135 2 -1.1794 -2.630660276553605 15.67677176218349 8.118399321202704 0 0 0
282 94 1 0.5897 -2.5788798067617145 14.293071878644234 2.404647902393011 1 0 0
178 60 2 -1.1794 2.074529251667787 14.158792766636802 4.899691479126635 0 0 0
180 60 1 0.5897 2.0072991678842804 13.7078174202082 4.0580697769742855 0 0 0
368 123 1 0.5897 1.9816401872680363 15.979361831826724 2.519899183528492 0 0 0
314 105 1 0.5897 -0.17350350582836604 15.183671776350801 2.061493330398845 1 0 0
175 59 2 -1.1794 -0.7220126246489809 13.963958076064698 5.319504346948024 0 0 0
313 105 2 -1.1794 -0.9334555950500456 14.70746012098589 1.7266539228294198 1 0 0
315 105 1 0.5897 -0.5612913486728495 14.016275343188331 1.1790788268670611 1 0 0
225 75 1 0.5897 -0.9527247698411871 12.688326310503871 4.009903593682289 0 0 0
278 93 1 0.5897 -3.901545616495339 14.478335172150963 7.582831632289767 1 0 0
279 93 1 0.5897 -5.301934602316355 13.902754052571838 7.584199148493941 1 0 0
252 84 1 0.5897 2.8128141813262113 14.424853662472257 0.6973300589572167 0 0 0
214 72 2 -1.1794 1.6964481881189624 12.623097910833009 2.6279613492197695 0 0 0
215 72 1 0.5897 1.8054378245118894 12.927108516315803 1.7268823471811154 0 0 0
216 72 1 0.5897 0.7594348744464163 12.444757110025845 2.709332359193648 0 0 0
176 59 1 0.5897 -1.2503498873329022 14.747613849190095 5.16826156385453 0 0 0
406 136 2 -1.1794 3.627502530932315 15.55200471339264 1.8014494203298972 0 0 0
500 167 1 0.5897 -1.9100271920214402 15.824544754064851 0.60426391904657 1 0 0
177 59 1 0.5897 0.17188193585783473 14.232296654536212 5.106593027559663 0 0 0
367 123 2 -1.1794 1.0917767950781228 16.31833676774822 2.617586597829109 0 0 0
421 141 2 -1.1794 -2.4760690811182338 16.077970022202763 4.8371245345341904 1 0 0
179 60 1 0.5897 2.143898751497951 13.454755321574806 5.54444887797257 0 0 0
690 230 1 0.5897 1.852485833801203 12.998483793494426 9.314110189094416 0 0 0
425 142 1 0.5897 -4.268007434557255 15.830408668724925 5.045250944346661 1 0 0
327 109 1 0.5897 -4.143891839370617 13.00064895628114 5.712168007890356 1 0 0
211 71 2 -1.1794 -0.3406161433832193 12.319260095742804 7.493752375019471 0 0 0
212 71 1 0.5897 -0.519990634970064 12.871093490242382 8.254971300661031 0 0 0
213 71 1 0.5897 -0.48042722939694427 12.894734315666225 6.741745740298096 0 0 0
370 124 2 -1.1794 0.03067847479395036 16.30664449119127 7.392482991085586 0 0 0
267 89 1 0.5897 -3.8973674747367 12.41990418498653 8.735363942612352 1 0 0
325 109 2 -1.1794 -3.715301211755209 12.547401225890093 4.986208695172487 1 0 0
405 135 1 0.5897 -2.8474178421535683 16.375696779781393 8.735344676224294 0 0 0
250 84 2 -1.1794 2.258504975464512 13.808306557612243 0.21882935063649742 0 0 0
372 124 1 0.5897 0.18050253488596768 16.752698411459008 6.558927118917684 0 0 0
233 78 1 0.5897 2.6554170469345557 14.40405929844104 7.673020681463702 0 0 0
1004 335 1 0.5897 -5.397512214137402 16.559988832609967 9.034351715093967 1 0 0
770 257 1 0.5897 -1.51364922658813 12.333079621131876 0.1694521968167574 1 0 1
771 257 1 0.5897 -0.10487188430130745 11.778637815905993 0.17372823235654272 1 0 1
422 141 1 0.5897 -2.407396454457708 16.85598408602278 5.39041442881847 1 0 0
462 154 1 0.5897 -5.045045752052262 16.84038810098027 6.759362358623887 1 0 0
269 90 1 0.5897 -3.5113515401472193 12.895496506006603 1.108430233339495 1 0 0
910 304 2 -1.1794 0.5084891248665642 15.669864463873242 11.015428853792015 0 0 0
251 84 1 0.5897 -5.066917054853211 14.45686728135623 18.853403673499766 0 0 -1
727 243 2 -1.1794 -3.950817159393063 11.860168555581614 12.982743590318645 0 0 0
718 240 2 -1.1794 -1.4581479594308364 12.494087469109411 12.013977358062688 0 0 0
688 230 2 -1.1794 2.080796945408067 12.279204754794948 9.902922405624098 0 0 0
720 240 1 0.5897 -1.2556821326153509 13.131655811874223 12.698624174065623 0 0 0
911 304 1 0.5897 -0.27344239716871677 15.88315371536807 11.524666155612024 0 0 0
873 291 1 0.5897 -2.5977582385517124 15.55884266037876 11.892885099195855 0 0 0
830 277 1 0.5897 -7.373181958169648 13.109885567882142 15.055494546938455 1 0 0
875 292 1 0.5897 -3.201970548288984 16.60723421332468 16.00081056528566 0 0 0
729 243 1 0.5897 -4.03447809524013 12.692044612543098 13.448661432900023 0 0 0
755 252 1 0.5897 -0.47007103429152997 14.477263909286506 10.016261637247482 0 0 0
831 277 1 0.5897 -7.620812316141836 12.08828196553798 13.966071434199948 1 0 0
784 262 2 -1.1794 -6.537632223515374 13.761382360423918 11.956722259831572 1 0 0
829 277 2 -1.1794 -6.929690628716589 12.616808115876157 14.365334528133005 1 0 0
719 240 1 0.5897 -1.4146965067598205 12.99471767510864 11.199292713490289 0 0 0
786 262 1 0.5897 -6.617060135285156 13.441271544216738 12.855314288727339 1 0 0
817 273 2 -1.1794 -3.9981876072705793 14.472275511204172 11.195516387262531 1 0 0
818 273 1 0.5897 -4.798578519592317 14.235962546707079 11.664391248200484 1 0 0
819 273 1 0.5897 -3.7629402914530536 13.682263497511364 10.709080664896407 1 0 0
930 310 1 0.5897 -7.604696744100535 16.013202173664855 14.539442135252914 1 0 0
730 244 2 -1.1794 -1.1403274654473563 11.987865559538394 15.849015508353931 0 0 0
679 227 2 -1.1794 -4.015058189842069 14.096168263598756 14.550699316126128 0 0 0
783 261 1 0.5897 -8.665969785827244 14.146495101039871 16.823212721719457 1 0 0
684 228 1 0.5897 -0.6141199560761281 14.948626491463848 14.314942748143912 0 0 0
682 228 2 -1.1794 -1.2420991535377137 14.238844534803997 14.180107893290172 0 0 0
754 252 2 -1.1794 -1.1168081504275986 13.867312044568301 9.66120290216131 0 0 0
683 228 1 0.5897 -0.9494288773211332 13.54435206831898 14.770215613754107 0 0 0
926 309 1 0.5897 -5.245342653350839 15.396651541792473 14.380557630693158 1 0 0
737 246 1 0.5897 -0.847280022332261 15.465563458852115 18.301361864302535 0 0 0
876 292 1 0.5897 -2.599486570652025 15.642102342091688 16.999546964507747 0 0 0
681 227 1 0.5897 -4.015560357784756 13.666919921550903 15.406265404274953 0 0 0
907 303 2 -1.1794 -5.967881013410964 15.687022528346269 17.854022737194875 0 0 0
925 309 2 -1.1794 -5.843114378129528 16.119202376430586 14.188792841582053 1 0 0
680 227 1 0.5897 -3.0915442361251007 14.273846428379398 14.371954692930466 0 0 0
908 303 1 0.5897 -6.592456818674358 15.210541764870266 17.30695988335363 0 0 0
728 243 1 0.5897 -3.1333940615717255 11.941564392822036 12.491320586131263 0 0 0
1005 335 1 0.5897 -4.9893813082647895 15.665414273067013 10.18548357926139 1 0 0
715 239 2 -1.1794 -3.7461775327441984 12.632054085973902 16.923561742384187 0 0 0
716 239 1 0.5897 -3.8421166539491907 13.021534230812918 17.79264338099705 0 0 0
871 291 2 -1.1794 -1.9836486115678724 16.27968124993142 12.03281785794196 0 0 0
874 292 2 -1.1794 -3.3565510745813807 16.210525508415998 16.858108902208823 0 0 0
736 246 2 -1.1794 -1.1476421426108798 14.772085184410603 17.713894218547953 0 0 0
912 304 1 0.5897 1.070983292123385 15.19460817011022 11.627023602037067 0 0 0
773 258 1 0.5897 -6.687765821797905 12.653096726595331 10.638777842857865 1 0 0
909 303 1 0.5897 -5.190489814926423 15.782265849210873 17.303678596271965 0 0 0
781 261 2 -1.1794 -7.767667000128787 13.857043643900475 16.663378423537313 1 0 0
782 261 1 0.5897 -7.549584750680287 13.319611731089697 17.424864693270752 1 0 0
772 258 2 -1.1794 -6.6758364164333255 12.062024162525724 9.886003390985133 1 0 0
717 239 1 0.5897 -2.819401944865315 12.3994260974519 16.865942770708873 0 0 0
806 269 1 0.5897 -5.919296766537279 11.474876885464909 15.268689101004973 1 0 0
501 167 1 0.5897 -8.889760516275043 16.793889841873643 18.453728743413535 1 0 -1
927 309 1 0.5897 -5.572186280380269 16.818784839325268 14.783281916990168 1 0 0
185 62 1 0.5897 -1.360692977512656 13.375106874501002 18.778829700042586 0 0 -1
785 262 1 0.5897 -7.2121536399230814 14.43636036239727 11.881888999080957 1 0 0
1003 335 2 -1.1794 -5.751926322275773 16.08270489166584 9.78456456716947 1 0 0