LAMMPS data file via write_data, version 30 Jul 2021, timestep = 1000000

1296 atoms
2 atom types
864 bonds
1 bond types
432 angles
1 angle types

-10.76421163511424 12.74421163511424 xlo xhi
-9.3283827630687 12.3183807630687 ylo yhi
-0.040793588882319654 21.900792588882638 zlo zhi
-9.167116583691337 1.847476520542951 2.4538326418689755 xy xz yz

Masses

1 1.008
2 15.999

Pair Coeffs # lj/cut/tip4p/long/omp

1 0 0
2 0.21084 3.1668

Bond Coeffs # harmonic/omp

1 450 0.9572

Angle Coeffs # harmonic/omp

1 55 104.52

Atoms # full

281 94 1 0.5897 -9.45443399838856 -3.8901901414948066 1.5558875286234344 1 1 0
270 90 1 0.5897 -8.56154814257472 -7.433418082850371 1.9900211249343287 1 1 0
269 90 1 0.5897 -9.568425354265253 -6.319970672222796 2.185023632125315 1 1 0
268 90 2 -1.1794 -9.23072347857681 -7.115725003072166 2.5960723136882184 1 1 0
163 55 2 -1.1794 -7.248001979371562 -7.949805767908713 0.5908411737267241 1 1 0
164 55 1 0.5897 -6.423554092173904 -8.388584073980418 0.8003244352100437 1 1 0
261 87 1 0.5897 -7.028222999187374 -4.989674708444805 0.7654795229629123 1 1 0
299 100 1 0.5897 -6.675633422970511 -7.959299747624852 3.6168134237837197 1 1 0
313 105 2 -1.1794 -8.739768305166344 -6.3904981959343 5.289082391209208 1 1 0
314 105 1 0.5897 -8.879471442441083 -6.921877118134998 4.505280758266621 1 1 0
280 94 2 -1.1794 -9.993881001725885 -4.674709654781867 1.4573043055388444 1 1 0
73 25 2 -1.1794 -8.563011732215072 -3.7231761580687657 4.485012986572888 1 0 0
298 100 2 -1.1794 -6.073812122798767 -7.217959907843546 3.5505297656125943 1 1 0
275 92 1 0.5897 -10.446738423270352 -8.246086867021008 3.380038039589163 1 1 0
282 94 1 0.5897 -10.892539280275278 -4.346312948484109 1.432077634694141 1 1 0
324 108 1 0.5897 -7.302596735262307 -4.404886149184876 3.0881142481849593 1 1 0
322 108 2 -1.1794 -6.543063891757251 -4.740665315952196 2.6123208753258362 1 1 0
323 108 1 0.5897 -6.490638641016538 -5.6627240774292975 2.86391528304838 1 1 0
315 105 1 0.5897 -8.82323880086928 -5.486911916397957 4.98445220973759 1 1 0
300 100 1 0.5897 -5.2076585189311535 -7.598349102700194 3.6960573259755654 1 1 0
633 211 1 0.5897 -5.853150063039636 -6.0840848574863955 5.3932771654217415 1 1 0
419 140 1 0.5897 -9.291843066199943 -5.509097988036126 8.904434405173495 1 0 0
418 140 2 -1.1794 -9.864614001172145 -6.0558331243239305 9.442111109356087 1 0 0
616 206 2 -1.1794 -7.689735120436752 -8.125078525250826 7.2303691998451205 1 1 0
429 143 1 0.5897 -6.553175918420493 -7.302035099947583 8.76117202356115 1 0 0
427 143 2 -1.1794 -5.988396511779832 -7.261966112176116 9.532960353172435 1 0 0
420 140 1 0.5897 -9.272599308122825 -6.49765920535217 10.050819543125751 1 0 0
414 138 1 0.5897 -7.230573944578916 -5.146941755450769 7.574997883573044 1 0 0
413 138 1 0.5897 -8.001949570287838 -3.844516287339234 7.595409691715114 1 0 0
412 138 2 -1.1794 -7.885953422718235 -4.663240114410292 8.077555449961888 1 0 0
428 143 1 0.5897 -6.592583118273824 -7.295138678119485 10.2745106555179 1 0 0
350 117 1 0.5897 -7.398432512374446 -4.200766393614912 9.748434736848072 0 0 0
618 206 1 0.5897 -8.082884005304553 -7.667411022590446 6.487262408529511 1 1 0
627 209 1 0.5897 -10.328218890733329 -6.816733544209238 6.359544993145076 1 1 0
349 117 2 -1.1794 -7.248885978688014 -4.025561077053263 10.677500472825317 0 0 0
626 209 1 0.5897 -10.579281840027935 -6.9145110901516755 7.849217132630438 1 1 0
351 117 1 0.5897 -6.896728247738384 -3.135797458571509 10.700302635438451 0 0 0
661 221 2 -1.1794 -9.442598603334323 -4.809112210504762 12.452074537770761 0 0 0
740 247 1 0.5897 -11.007599484525057 -3.8073334343240086 12.090033782552654 1 0 0
780 260 1 0.5897 -7.233431743574572 -4.305244353376322 15.421174302177418 0 0 0
779 260 1 0.5897 -7.090170604085248 -3.282492010227916 14.314246513748527 0 0 0
778 260 2 -1.1794 -7.736739740310303 -3.8289286994832903 14.760845634076835 0 0 0
768 256 1 0.5897 -9.455873557779215 -2.771360688011309 15.154464612040483 0 0 0
662 221 1 0.5897 -9.072347552091905 -4.592858667936248 13.307874668350276 0 0 0
652 218 2 -1.1794 -5.685238559366525 -5.67907311111519 12.792499667814358 0 0 0
654 218 1 0.5897 -6.122874833717749 -5.125596336160735 12.14568451353013 0 0 0
653 218 1 0.5897 -6.398590927894796 -6.0597695570660495 13.304600614256268 0 0 0
767 256 1 0.5897 -10.84628369385589 -3.278755865864368 14.836752624301408 0 0 0
729 243 1 0.5897 -8.224300657038839 -7.571329655061156 12.068068169670108 1 0 0
684 228 1 0.5897 -8.620045430706838 -7.14945803445004 14.502562321417628 0 0 0
727 243 2 -1.1794 -8.264080239855929 -7.665062711292186 11.116314243750683 1 0 0
663 221 1 0.5897 -8.687083510279551 -4.843787123261218 11.865562792600253 0 0 0
766 256 2 -1.1794 -10.369838047541915 -2.492086685423967 15.1020366296756 0 0 0
788 263 1 0.5897 -4.989204080396286 -5.197958141970357 15.583695886962339 0 0 0
682 228 2 -1.1794 -7.983851746943778 -7.450226417591361 13.853854201396379 0 0 0
739 247 2 -1.1794 -11.71341614963349 -3.363627240521245 11.61979764398823 1 0 0
758 253 1 0.5897 -9.615079186534722 -5.7263345856381305 16.259772240384518 0 0 0
1089 363 1 0.5897 -6.333225712684014 -5.2647659386591235 17.4379254928551 0 0 0
1097 366 1 0.5897 -8.955979773542335 -5.713846424000769 18.76652780892285 0 0 0
1227 409 1 0.5897 -8.994092850651414 -3.254121846961006 20.66016537203447 0 0 0
1219 407 2 -1.1794 -10.413307562109663 -2.4039896916948695 20.544946822923254 0 0 0
1129 377 2 -1.1794 -7.690725486854516 -2.0480820273113878 17.564680249828097 0 0 0
1221 407 1 0.5897 -10.863285544592783 -2.5308465276017564 19.709685319937385 0 0 0
1152 384 1 0.5897 -6.798273649735563 -4.391946180341255 19.68981150401792 0 0 0
1088 363 1 0.5897 -6.839512855261089 -6.497431294274087 16.71950258043722 0 0 0
1151 384 1 0.5897 -5.922974829914374 -5.6121248685103 19.49824670151078 0 0 0
1150 384 2 -1.1794 -5.9949200580593605 -4.687425127416631 19.261645509569032 0 0 0
1109 370 1 0.5897 -8.898256730534529 -3.466414691797974 17.664963263504053 0 0 0
1108 370 2 -1.1794 -9.416671354532049 -4.271005098005983 17.67395357307893 0 0 0
1225 409 2 -1.1794 -8.15135765059703 -3.703990271615094 20.719197665403033 0 0 0
1110 370 1 0.5897 -10.316385471840812 -3.9751529070347553 17.811857830899775 0 0 0
1142 381 1 0.5897 -8.79706123456938 -6.4542703979008005 20.903000507612955 0 0 0
1248 416 1 0.5897 -6.180091331144714 -1.7165177263780542 20.61763440183758 0 0 0
1141 381 2 -1.1794 -8.852629507833974 -6.21015065548915 21.8268523988295 0 0 0
1143 381 1 0.5897 -8.755005349085742 -5.2579418906596604 21.82976878745846 0 0 0
260 87 1 0.5897 -5.315184684662393 -3.7983118561770706 21.882452188606152 1 1 -1
1226 409 1 0.5897 -7.584692464533903 -3.0914331427233694 21.188116897035354 0 0 0
1096 366 2 -1.1794 -8.870879266451668 -6.5665207338379075 19.1930656004259 0 0 0
1098 366 1 0.5897 -8.30209625520351 -7.070319526401547 18.611061363917077 0 0 0
1087 363 2 -1.1794 -6.578396681874311 -5.58856668633344 16.571175166726892 0 0 0
259 87 2 -1.1794 -5.40273172406067 -2.8466013442349993 21.829357025669797 1 1 -1
165 55 1 0.5897 -5.7422621484248815 -5.97496790075183 21.777428276821514 1 1 -1
74 25 1 0.5897 -8.275757163740089 -3.2414639482701926 5.260695627489791 1 0 0
82 28 2 -1.1794 -9.281635054851638 0.11168736553964287 3.832201763170319 1 0 0
272 91 1 0.5897 -9.550551651604694 -1.4259700743987596 1.2644541822794608 1 1 0
271 91 2 -1.1794 -10.245601104319196 -0.8556305725609281 0.9361997151509076 1 1 0
59 20 1 0.5897 -13.650203808047307 -0.8643394531308477 3.581236600936768 1 0 0
83 28 1 0.5897 -9.898380043693827 -0.6202059042005157 3.8438284045009588 1 0 0
107 36 1 0.5897 -9.53857971438056 1.696513899463353 3.0279836180281494 1 0 0
258 86 1 0.5897 -12.994494410129441 -2.724868995690061 0.9082112796197773 1 1 0
98 33 1 0.5897 -11.900348167706776 0.4962395267822277 4.46721619688448 1 0 0
54 18 1 0.5897 -11.456147844805557 -0.2870109264147409 2.1154967705988983 1 0 0
53 18 1 0.5897 -12.281112698968887 0.9764945290542624 2.2366870078053975 1 0 0
52 18 2 -1.1794 -12.079903588581006 0.15748616991391806 2.6894309582272324 1 0 0
67 23 2 -1.1794 -10.724489908620653 -2.4427961310290423 3.649522843259064 1 0 0
68 23 1 0.5897 -11.359349586871218 -2.67061904919876 4.3285603447586904 1 0 0
256 86 2 -1.1794 -12.454908477576575 -3.27542211223935 1.475632041712516 1 1 0
69 23 1 0.5897 -11.187975287284699 -2.596650191967158 2.82626035003231 1 0 0
301 101 2 -1.1794 -8.130601129467022 -2.4564405201412676 1.122873278324555 1 1 0
97 33 2 -1.1794 -11.958313081668669 0.871553304557029 5.345832953915781 1 0 0
99 33 1 0.5897 -11.693322590273418 1.7845955369298974 5.234782596785157 1 0 0
75 25 1 0.5897 -9.282842230253916 -3.2009308467183573 4.1310808511742625 1 0 0
273 91 1 0.5897 -10.421757222030777 -1.1765309260973886 0.05177523990217281 1 1 0
84 28 1 0.5897 -8.426350924266098 -0.2974000760352489 3.70108415479061 1 0 0
44 15 1 0.5897 -10.186042644590717 0.8828358916234187 0.1368892135267551 1 0 0
426 142 1 0.5897 -8.983051050860045 -1.4964712332160577 6.650244636202641 1 0 0
411 137 1 0.5897 -13.477364040222627 0.36714395935939237 6.505115392887295 1 0 0
528 176 1 0.5897 -12.291578679363743 0.4359838776450431 9.952837013200842 1 0 0
402 134 1 0.5897 -11.152785002786446 0.019078728618035612 6.600693096249208 1 0 0
401 134 1 0.5897 -11.344760804661734 -1.0545551203340242 7.650587943924429 1 0 0
400 134 2 -1.1794 -10.67462851945125 -0.5070631155101388 7.241611268968755 1 0 0
527 176 1 0.5897 -12.010323898575246 1.6373131946150838 9.075610843359426 1 0 0
526 176 2 -1.1794 -12.724458788573521 1.0946102232072157 9.409646814264244 1 0 0
424 142 2 -1.1794 -8.243254928692355 -2.090752391173851 6.7752208351563885 1 0 0
537 179 1 0.5897 -9.36648648908998 -0.2670911435636558 8.788462842340117 1 0 0
536 179 1 0.5897 -9.716371765582304 -0.32077012471737376 10.26032149847845 1 0 0
535 179 2 -1.1794 -9.035940945313273 -0.027803299226022204 9.65432882658038 1 0 0
522 174 1 0.5897 -10.03928521947214 1.9623613242471407 7.66551193439691 1 0 0
435 145 1 0.5897 -7.679787690635226 -1.1988590573510614 9.941307744306261 0 0 0
458 153 1 0.5897 -10.23082099808543 2.5269661618468096 9.870834100468091 0 0 0
417 139 1 0.5897 -9.197915861989959 1.208151395858179 5.456660442716115 1 0 0
410 137 1 0.5897 -13.6896973264756 0.26550392332371153 8.000544365396497 1 0 0
425 142 1 0.5897 -7.516044268333427 -1.51977012668692 7.022817321265605 1 0 0
369 123 1 0.5897 -12.626705860692041 -2.871723763710496 6.572961068601252 1 0 0
760 254 2 -1.1794 -8.81291185301964 1.5035630293448818 12.89371424152611 0 0 0
790 264 2 -1.1794 -10.98581608255702 -0.10953719311623367 13.674095483741624 0 0 0
791 264 1 0.5897 -10.726422859993924 -0.9952714945096552 13.927912567382974 0 0 0
769 257 2 -1.1794 -12.363439775023018 2.487921752684871 12.473233120034736 0 0 0
762 254 1 0.5897 -9.139578725107492 1.9770859807561791 12.128659549723713 0 0 0
761 254 1 0.5897 -9.542508012400914 0.9437187362315509 13.158983676486297 0 0 0
770 257 1 0.5897 -11.87858906419488 2.6210802513260685 13.28774410315589 0 0 0
792 264 1 0.5897 -11.670418348438824 0.12840478982969472 14.299176708785701 0 0 0
837 279 1 0.5897 -11.470359231579321 -0.4207362227248357 11.850307055907354 1 0 0
865 289 2 -1.1794 -12.810770154838064 0.7540751942991548 15.633096787734097 0 0 0
896 299 1 0.5897 -8.173677921690343 2.096777525844198 15.710970847220896 0 0 0
888 296 1 0.5897 -10.614577528732568 2.833851473182854 15.339838529447382 0 0 0
866 289 1 0.5897 -12.29491510908379 1.375818247701984 16.146478566906346 0 0 0
835 279 2 -1.1794 -11.373966622186728 -0.7478687462128999 10.95596416492628 1 0 0
771 257 1 0.5897 -11.688533734024274 2.4494150373532975 11.795716246309787 0 0 0
836 279 1 0.5897 -11.492006168340222 -1.694662454748694 11.032693082495244 1 0 0
857 286 1 0.5897 -13.486992977989765 0.9385999549554604 12.286697313527046 1 0 0
1249 417 2 -1.1794 -11.936582156070454 0.8388986294884209 21.569228431390602 0 0 0
1260 420 1 0.5897 -9.566077418354581 3.1454862527367187 19.726147269205807 0 0 0
1235 412 1 0.5897 -9.5961268913548 -0.6798644384399992 20.674433927875075 0 0 0
1259 420 1 0.5897 -9.000692166558183 1.7426659002267204 19.661151497245896 0 0 0
1258 420 2 -1.1794 -8.915468776277029 2.612054008826247 19.269840653576942 0 0 0
1236 412 1 0.5897 -8.251523774359727 -0.30651471358909177 20.087924520690432 0 0 0
1246 416 2 -1.1794 -6.507476297214347 -1.144182665684239 19.923746799089226 0 0 0
1205 402 1 0.5897 -12.374247357625078 0.7973854298822758 18.49406094692841 0 0 0
1234 412 2 -1.1794 -9.03724834155015 0.07281258613343766 20.481327574801604 0 0 0
1009 337 2 -1.1794 -11.07020687983174 3.56943982482815 20.76830142971471 0 -1 0
1195 399 2 -1.1794 -9.55342390800293 1.8433322625114865 16.618423539980853 0 0 0
1216 406 2 -1.1794 -12.401610438843468 2.281019688226511 17.798315406628234 0 0 0
1100 367 1 0.5897 -9.220615440941323 -1.2812839126912472 17.493234499506098 0 0 0
1196 399 1 0.5897 -9.604472155886299 0.9127430287443445 16.83666836908126 0 0 0
1197 399 1 0.5897 -9.607437179146967 2.291151863044341 17.462655779334206 0 0 0
1206 402 1 0.5897 -11.256901245487436 -0.19317141097720203 18.743088245803655 0 0 0
1099 367 2 -1.1794 -10.053344809020237 -0.8450722953328373 17.31323692446241 0 0 0
1218 406 1 0.5897 -13.296869105211442 2.6165307010700882 17.75339990470205 0 0 0
1217 406 1 0.5897 -11.853360913840543 3.064681311726538 17.836955773509118 0 0 0
1250 417 1 0.5897 -12.109833659488212 0.5184797990353243 20.684047350890935 0 0 0
1251 417 1 0.5897 -11.476740882904373 1.6681565439470258 21.438605531527752 0 0 0
1130 377 1 0.5897 -7.264039570836356 -1.6705933551098884 18.333892873400377 0 0 0
1204 402 2 -1.1794 -12.152147781981537 0.019764626692929 19.00612747186868 0 0 0
1101 367 1 0.5897 -10.465095149760456 -1.3834064475552381 16.63728859118062 0 0 0
1010 337 1 0.5897 -10.84455780018509 3.888726403181243 21.642012921918518 0 -1 0
1131 377 1 0.5897 -7.039372750319169 -1.9722839834098043 16.867525853969404 0 0 0
40 14 2 -1.1794 -15.210106334667948 3.7907491540511824 1.9027412353460642 1 0 0
66 22 1 0.5897 -13.69231000276892 2.9874572176084584 1.5970258399814323 1 0 0
42 14 1 0.5897 -15.724685769428412 4.304143366646235 1.2799492446374532 1 0 0
192 64 1 0.5897 -11.31634724719063 6.646706692077439 4.114378966925199 1 0 0
65 22 1 0.5897 -12.273983374558876 3.430746895712021 1.3084522111479089 1 0 0
64 22 2 -1.1794 -12.830853707431565 2.653220186645621 1.3476138444246928 1 0 0
177 59 1 0.5897 -14.419526384872484 4.571869376938235 3.337753131710048 1 0 0
181 61 2 -1.1794 -11.398416801641536 3.7012049079717233 4.736144527623821 1 0 0
56 19 1 0.5897 -12.787758891950578 6.0021896833151605 1.1243395283585749 1 0 0
190 64 2 -1.1794 -12.161417891300944 7.064444993010145 4.279905374349603 1 0 0
176 59 1 0.5897 -14.73609692173224 4.72084210309332 4.810598832413367 1 0 0
191 64 1 0.5897 -12.806995886771864 6.384565145613946 4.087059646462472 1 0 0
162 54 1 0.5897 -15.048601756450232 6.701323227188613 1.7216789076309227 1 0 0
160 54 2 -1.1794 -15.764747210616543 7.019195047694737 2.2713276515289205 1 0 0
55 19 2 -1.1794 -13.604371240352979 6.322642495459089 0.7414375820614795 1 0 0
175 59 2 -1.1794 -14.005009065582517 4.649925367361549 4.197013312980945 1 0 0
183 61 1 0.5897 -12.269904712955697 4.079085138581187 4.618635872994251 1 0 0
86 29 1 0.5897 -10.912678671869202 4.816764430724923 2.2819203701966093 1 0 0
85 29 2 -1.1794 -11.345147874357302 4.900134242797675 1.4320568152930195 1 0 0
108 36 1 0.5897 -10.308756731498386 2.9574044901049916 3.357624561261854 1 0 0
45 15 1 0.5897 -10.085081757103465 2.196213142715008 0.8830270708497807 1 0 0
106 36 2 -1.1794 -9.730890290170393 2.5741652334718115 2.697886164008493 1 0 0
57 19 1 0.5897 -13.779369270407834 5.7250340372386965 0.014474369000541783 1 0 0
43 15 2 -1.1794 -10.213137434212303 1.830880314738348 0.007615179870872776 1 0 0
508 170 2 -1.1794 -13.705960631807176 6.43522515675836 7.09360769495289 1 0 0
533 178 1 0.5897 -10.567526672900781 5.8978527520673065 6.854365120323033 1 0 0
510 170 1 0.5897 -14.197106412526644 6.870768883352547 6.396971903406273 1 0 0
509 170 1 0.5897 -14.376367619359478 6.125691580077607 7.7025350090309175 1 0 0
645 215 1 0.5897 -12.719065055444027 6.802340834524156 8.663269385239808 1 0 0
644 215 1 0.5897 -13.17450349228454 6.679954394962806 10.101739466213633 1 0 0
643 215 2 -1.1794 -12.388145813255075 6.719878791732466 9.557662715643758 1 0 0
521 174 1 0.5897 -10.976659640938522 3.144269453674273 7.538656116846627 1 0 0
538 180 2 -1.1794 -15.523316605229656 4.747515664246443 8.467051321586329 1 0 0
532 178 2 -1.1794 -11.10301673926252 5.125546741105847 7.035928587313015 1 0 0
534 178 1 0.5897 -11.98013352026896 5.473866989597564 7.195231285589119 1 0 0
543 181 1 0.5897 -10.712259898405247 5.491933892805367 9.37634140119513 0 0 0
636 212 1 0.5897 -16.1460961572431 7.491075248074022 9.626644788529184 1 0 0
520 174 2 -1.1794 -10.614901119843408 2.5302140850654133 8.17763675514523 1 0 0
541 181 2 -1.1794 -10.028694933279212 5.267517889527172 10.007685077409265 0 0 0
542 181 1 0.5897 -10.094581067902547 5.942709203731177 10.682938871604726 0 0 0
519 173 1 0.5897 -16.841960609609423 7.486183047606058 5.966501640116863 1 0 0
459 153 1 0.5897 -10.051037510705555 3.669057252788777 10.84817764461406 0 0 0
182 61 1 0.5897 -11.070474255466364 4.100172765779881 5.542074947880599 1 0 0
457 153 2 -1.1794 -10.174752058112558 2.7207976751984546 10.806510302173335 0 0 0
880 294 2 -1.1794 -9.367443381141923 4.908859184998024 13.377418876525551 0 0 0
898 300 2 -1.1794 -14.17027061143106 6.9397394396360745 13.936697541820092 0 0 0
944 315 1 0.5897 -14.70819206648067 5.551537748092382 11.099543825367451 1 0 0
887 296 1 0.5897 -10.457852350193084 3.896774768194051 14.273322828573622 0 0 0
899 300 1 0.5897 -14.005752789212814 6.107531593133508 14.380089901673939 0 0 0
848 283 1 0.5897 -13.820469450262127 3.578029302450039 12.182232984754487 1 0 0
874 292 2 -1.1794 -13.485803090457278 4.620222344915669 15.278285066872517 0 0 0
876 292 1 0.5897 -12.633525627010217 4.260313128860609 15.033113742410377 0 0 0
945 315 1 0.5897 -14.428539697291342 6.641679289747527 12.112107979048941 1 0 0
900 300 1 0.5897 -14.956101991886937 7.285696917719388 14.359529960537968 0 0 0
875 292 1 0.5897 -14.083609008600796 3.8741163392430877 15.231976805941033 0 0 0
943 315 2 -1.1794 -14.592182290570566 6.498275295265204 11.1799704707904 1 0 0
886 296 2 -1.1794 -11.11870595249712 3.418621489667647 14.774040516729398 0 0 0
869 290 1 0.5897 -12.800412693910665 8.283668197199791 13.028377645392863 0 0 0
847 283 2 -1.1794 -14.690910031231901 3.8246179325114866 11.869741336525665 1 0 0
881 294 1 0.5897 -9.683560267231712 5.707424452272242 12.954811949969974 0 0 0
1043 348 1 0.5897 -12.372758062354709 8.655688997485985 19.656777067533774 0 -1 0
1208 403 1 0.5897 -12.238396088429251 5.900138273078099 17.715442533531874 0 0 0
1207 403 2 -1.1794 -13.114031667439686 6.205057288300694 17.477950798460956 0 0 0
1032 344 1 0.5897 -9.09906473022715 5.670158996306592 20.931739819619274 0 -1 0
1018 340 2 -1.1794 -12.077217949456879 7.01902272778295 20.497135823849888 0 -1 0
1019 340 1 0.5897 -12.564357063820871 6.195124828400811 20.506805626135893 0 -1 0
1020 340 1 0.5897 -11.15800185554904 6.754662659570151 20.532151649346886 0 -1 0
1030 344 2 -1.1794 -9.406873016203452 6.135277587375462 20.15382101854085 0 -1 0
1003 335 2 -1.1794 -13.768628695838718 4.739039268158848 20.479221809722432 0 -1 0
990 330 1 0.5897 -14.631682084811043 6.901808273217515 18.288400183857632 0 -1 0
1034 345 1 0.5897 -15.111724273691689 7.485938756017589 20.721058115742117 0 -1 0
1238 413 1 0.5897 -10.39548054917109 5.2588211519831844 18.617252171460333 0 0 0
1239 413 1 0.5897 -10.130626688687569 4.859092296125352 17.181361890195213 0 0 0
1237 413 2 -1.1794 -10.784759543851274 4.793374373316567 17.876934625339626 0 0 0
1035 345 1 0.5897 -15.096272166210895 8.609437913617626 21.735636576698322 0 -1 0
989 330 1 0.5897 -15.401620951957625 8.193875374437987 18.46006008725903 0 -1 0
988 330 2 -1.1794 -15.308954105661456 7.313729165629887 18.824731305140897 0 -1 0
1011 337 1 0.5897 -11.82837059725172 4.093323170223751 20.50968882996269 0 -1 0
980 327 1 0.5897 -12.788081509784567 7.975163656408249 16.69354228107369 0 -1 0
1209 403 1 0.5897 -13.360733114914503 5.665188954346769 16.727005118476733 0 0 0
174 58 1 0.5897 -16.609740818487765 10.191148849380113 1.460850550045358 1 0 0
173 58 1 0.5897 -15.117328862934109 10.43106497597066 1.3796088535655642 1 0 0
172 58 2 -1.1794 -15.773369036086562 9.734114298652898 1.3733302700539198 1 0 0
161 54 1 0.5897 -15.882638255429228 7.931835588120467 2.007838190501962 1 0 0
193 65 2 -1.1794 -14.191116614010989 12.205789460320783 1.381402815654177 1 0 0
205 69 2 -1.1794 -15.180730005328442 7.869399850852883 4.8364512996977735 1 0 0
148 50 2 -1.1794 -18.175598164741196 11.089346082236673 1.4419399093267429 1 0 0
153 51 1 0.5897 -12.913572893362787 9.510883766767364 0.8763410039968613 1 0 0
216 72 1 0.5897 -13.327537103147638 9.84936226691325 3.357837908777528 1 0 0
291 97 1 0.5897 -15.480481434896618 10.91284645940533 4.236974335410148 1 0 0
150 50 1 0.5897 -18.61009174160243 11.772361522128755 0.9311215588348817 1 0 0
285 95 1 0.5897 -17.330320242805293 11.890215163477656 3.0235779070730895 1 0 0
284 95 1 0.5897 -17.693897004403283 11.796325507703095 4.490088124289906 1 0 0
283 95 2 -1.1794 -17.003429329859017 12.09664038567221 3.8992325050937073 1 0 0
289 97 2 -1.1794 -14.643918736136545 10.518298453548535 4.483183812274939 1 0 0
149 50 1 0.5897 -18.889196763403852 10.62992973245537 1.8844170142955081 1 0 0
215 72 1 0.5897 -12.39527161889305 8.659078414828095 3.281717372239195 1 0 0
206 69 1 0.5897 -15.281730416109156 7.728001147897977 3.8951665469417507 1 0 0
214 72 2 -1.1794 -12.68039712630316 9.429888501397851 2.7910084542707136 1 0 0
290 97 1 0.5897 -14.359072811738827 11.017590704350173 5.248565844588923 1 0 0
207 69 1 0.5897 -14.909208817636806 8.783999611635998 4.913993534649387 1 0 0
635 212 1 0.5897 -15.60185989950182 8.760125365036995 9.006079234000435 1 0 0
525 175 1 0.5897 -11.992947126021525 8.08231722141953 5.908926331553489 1 0 0
566 189 1 0.5897 -13.907126340932455 10.11993625745464 9.70674596398138 0 0 0
630 210 1 0.5897 -13.471589685281131 9.157220584209472 7.590445786660366 1 0 0
629 210 1 0.5897 -14.263856868394535 10.446980020201945 7.566196323427644 1 0 0
628 210 2 -1.1794 -14.21618600447924 9.595929440187536 8.001715135301069 1 0 0
617 206 1 0.5897 -17.595816374082858 13.106074194055168 7.674506141499767 1 0 0
640 214 2 -1.1794 -14.465274717676632 12.035911447176513 6.8591411215405875 1 0 0
565 189 2 -1.1794 -13.510811863009355 10.330031402950596 10.55234320924401 0 0 0
634 212 2 -1.1794 -16.38487959113384 8.210886605960209 9.042619197188339 1 0 0
642 214 1 0.5897 -15.298730391669503 12.48944172293497 6.984471461981155 1 0 0
567 189 1 0.5897 -13.217501964834186 11.236615253719414 10.46131289736503 0 0 0
641 214 1 0.5897 -13.817647654521686 12.737726073459193 6.794380584413421 1 0 0
523 175 2 -1.1794 -11.858286151136376 8.737840722646464 6.593290695307222 1 0 0
327 109 1 0.5897 -13.692924776959224 13.337092196922189 9.786880461424628 0 -1 0
659 220 1 0.5897 -17.00974148629266 11.046361982724047 15.40415035502096 0 -1 0
870 290 1 0.5897 -12.575513688258997 9.375663844453367 12.004288071387055 0 0 0
877 293 2 -1.1794 -15.675359460306588 9.59802322498114 12.321570270987316 0 0 0
658 220 2 -1.1794 -16.42478249790465 11.76273471794833 15.15762649472254 0 -1 0
672 224 1 0.5897 -13.549585225267382 9.759874653416858 15.341742798999473 0 -1 0
671 224 1 0.5897 -13.403560151850344 10.931381169382998 14.394061927975638 0 -1 0
670 224 2 -1.1794 -14.024280004197363 10.260480771565032 14.678202901633485 0 -1 0
660 220 1 0.5897 -15.563693695872015 11.352608353509272 15.077721745217762 0 -1 0
683 228 1 0.5897 -17.026734615009588 13.268343996695798 14.05196634260251 0 -1 0
878 293 1 0.5897 -15.310500388290162 9.684048752204799 13.2023228011252 0 0 0
728 243 1 0.5897 -17.596180277617236 13.049682657323398 10.97363105292885 1 -1 0
879 293 1 0.5897 -14.988728021530012 9.930863829377564 11.743824292717065 0 0 0
868 290 2 -1.1794 -12.109290558448501 8.785099879766985 12.595963492800184 0 0 0
956 319 1 0.5897 -17.050334491216592 10.85235494276197 12.167389630951595 1 0 0
680 227 1 0.5897 -11.232731824488447 9.16120195199375 15.440762763431259 0 -1 0
955 319 2 -1.1794 -17.81683342320413 11.24340836716214 11.748189755068525 1 0 0
664 222 2 -1.1794 -12.250617198899445 12.172236771089963 13.571691911370252 0 -1 0
1022 341 1 0.5897 -13.574840809908546 12.436235932837306 18.65692267707754 0 -1 0
1126 376 2 -1.1794 -15.214008587271948 14.540078276146456 20.378964612558416 0 -1 0
992 331 1 0.5897 -15.554305616970597 13.230531245722247 17.71387890846691 0 -1 0
1117 373 2 -1.1794 -14.3411963753637 10.594222911327531 20.814619822920356 0 -1 0
1119 373 1 0.5897 -15.084206915691704 11.08538163736931 20.46408978147481 0 -1 0
1138 380 2 -1.1794 -12.490092703803324 13.180224771832496 20.01184407397217 0 -1 0
1128 376 1 0.5897 -14.33362832637931 14.173531904668039 20.460493045956678 0 -1 0
1111 371 2 -1.1794 -16.665317352995316 12.10900866832992 20.323601884580626 0 -1 0
1127 376 1 0.5897 -15.765450961642975 13.79151564865753 20.15141385880766 0 -1 0
1140 380 1 0.5897 -11.898367770937982 12.617145332029185 20.51086184498061 0 -1 0
1023 341 1 0.5897 -13.18091984609639 12.40944995573481 17.195502932444054 0 -1 0
1000 334 2 -1.1794 -15.664815782546437 9.690377283000306 17.538090838798116 0 -1 0
1002 334 1 0.5897 -16.484752657225574 10.089124720713649 17.829179180506497 0 -1 0
1044 348 1 0.5897 -12.979796848509974 10.04237724392273 19.677068182191707 0 -1 0
991 331 2 -1.1794 -16.386958641027633 13.573550270558297 17.38957212858781 0 -1 0
1021 341 2 -1.1794 -13.864547905342294 12.121880625994962 17.800482888903908 0 -1 0
1042 348 2 -1.1794 -12.317473274049323 9.512504523309623 19.233645887398634 0 -1 0
1001 334 1 0.5897 -15.08610636852542 10.432386172179296 17.362981699846333 0 -1 0
1118 373 1 0.5897 -14.078900645034022 11.08091373930219 21.596011449763708 0 -1 0
981 327 1 0.5897 -12.506178123919055 9.140466272638985 17.61793225967553 0 -1 0
979 327 2 -1.1794 -12.51336776344694 8.892090254684934 16.69356859183365 0 -1 0
1013 338 1 0.5897 -10.96571167368942 10.536730453872938 18.50709701733133 0 -1 0
993 331 1 0.5897 -16.649556562154444 12.95844878777985 16.704790134352486 0 -1 0
151 51 2 -1.1794 -11.112301234113144 11.721869624137337 21.893214728194177 1 0 -1
152 51 1 0.5897 -11.388100227117999 10.805285583933966 21.89926193424078 1 0 -1
311 104 1 0.5897 -2.8669545156079437 -8.162222427510894 3.16726444927368 1 1 0
310 104 2 -1.1794 -3.57937182297184 -8.57905565154644 3.6517977876991266 1 1 0
305 102 1 0.5897 -1.5298186778654888 -6.393836699319139 2.0491092072880313 1 1 0
304 102 2 -1.1794 -1.3732083346774697 -7.181138971390908 2.570511359925998 1 1 0
316 106 2 -1.1794 -1.657210775485776 -4.8265059984168435 1.1712580390874139 1 1 0
318 106 1 0.5897 -2.4051307715258883 -4.249597243337577 1.3257021310021182 1 1 0
306 102 1 0.5897 -0.8334803851500752 -7.737438737227459 2.008990795122901 1 1 0
242 81 1 0.5897 -1.1554485989992358 -6.8950070189581645 4.533639361600231 0 1 0
201 67 1 0.5897 0.5698598776349488 -8.845871960739382 0.08352646043368077 1 1 0
404 135 1 0.5897 -5.370469069988718 -3.683742574760074 4.965014699724627 1 0 0
241 81 2 -1.1794 -1.1685017271458964 -6.573671764243931 5.435168844587671 0 1 0
243 81 1 0.5897 -1.0269416469861259 -5.630328821647608 5.355800745936569 0 1 0
293 98 1 0.5897 -5.056080035722041 -3.9920511870716595 2.005738342761047 1 1 0
199 67 2 -1.1794 0.6699814501200461 -8.341421698282081 0.890817807861819 1 1 0
348 116 1 0.5897 -1.5996905044673575 -6.7960860530370875 9.782685795832341 0 0 0
347 116 1 0.5897 -1.193698940449913 -6.073425195914645 8.515969817098728 0 0 0
346 116 2 -1.1794 -1.9377268376012307 -6.215323555283924 9.101034455608978 0 0 0
336 112 1 0.5897 -3.3950844270518132 -5.1647844072228 9.098978594192713 0 0 0
555 185 1 0.5897 -2.8211792518470276 -7.208419322888943 6.2865877630710685 0 1 0
334 112 2 -1.1794 -4.281657923893835 -4.809209440150974 9.159068567236707 0 0 0
631 211 2 -1.1794 -5.514065025180388 -5.571130588916806 6.126845891250204 1 1 0
546 182 1 0.5897 -0.03824324259242218 -7.826238144842735 6.268930549378087 0 1 0
554 185 1 0.5897 -3.1694957635464966 -7.016487765301536 7.747241446555828 0 1 0
632 211 1 0.5897 -4.780656834018887 -6.087012072939378 6.461726621454002 1 1 0
553 185 2 -1.1794 -3.493529039794386 -7.410221810309492 6.937166427766717 0 1 0
669 223 1 0.5897 -3.9646332668225437 -3.8877264556858977 10.792701689611855 0 0 0
359 120 1 0.5897 -4.928933164926924 -3.375857224228673 8.252178606191961 0 0 0
544 182 2 -1.1794 0.35443838654012616 -8.267653202778963 7.0220572409558235 0 1 0
335 112 1 0.5897 -4.839508121516007 -5.576217034029129 9.288197078169151 0 0 0
356 119 1 0.5897 1.2162409177274416 -7.471161123278597 9.830396175600582 0 0 0
386 129 1 0.5897 0.3123516764761547 -4.765891094048723 9.79077404159804 0 0 0
667 223 2 -1.1794 -3.7256545950326885 -3.510007658674022 11.63913971207262 0 0 0
657 219 1 0.5897 -0.64690835430671 -7.381607711681998 11.970486106796887 0 0 0
718 240 2 -1.1794 0.0977621066477603 -7.371963237240935 13.936835656025345 0 0 0
795 265 1 0.5897 -2.7891037056722965 -5.787666899859893 15.316172196188148 0 0 0
787 263 2 -1.1794 -4.305516291232611 -4.84887546484798 15.01206606355782 0 0 0
668 223 1 0.5897 -2.901537017312907 -3.9389390151836903 11.869311433082055 0 0 0
699 233 1 0.5897 -0.9626411089739744 -4.970367769013457 11.803874616645142 0 0 0
697 233 2 -1.1794 -1.6133462681015622 -5.069956968348898 12.498637912716005 0 0 0
816 272 1 0.5897 0.4901013028753489 -4.208279466273033 15.189691209725167 0 0 0
677 226 1 0.5897 -2.6979938276142477 -6.584570760323176 12.325013247094368 0 0 0
676 226 2 -1.1794 -3.3976603316352474 -7.205962604524846 12.123732322108664 0 0 0