LAMMPS data file via write_data, version 30 Jul 2021, timestep = 9750000

1920 atoms
2 atom types
1280 bonds
1 bond types
640 angles
1 angle types

-0.1425535980342083 24.872554598033283 xlo xhi
-0.05665576437345621 24.786656764363933 ylo yhi
-0.05902111190689574 22.869021111911998 zlo zhi

Masses

1 1.008
2 15.999

Pair Coeffs # lj/cut/tip4p/long/omp

1 0 0
2 0.21084 3.1668

Bond Coeffs # harmonic/omp

1 450 0.9572

Angle Coeffs # harmonic/omp

1 55 104.52

Atoms # full

1 1 2 -1.1794 4.47777588313067 1.7834492220940827 3.91522630401473 0 0 0
2 1 1 0.5897 4.560535498319483 2.422689077039241 4.622836057456213 0 0 0
3 1 1 0.5897 5.301188678095819 1.8523566565498515 3.432080666828243 0 0 0
4 2 2 -1.1794 2.718188950858186 1.3377896791994304 1.8834468320748188 0 0 0
5 2 1 0.5897 3.0767345678575184 1.5187671984417563 2.752270125381081 0 0 0
6 2 1 0.5897 1.7692513517418238 1.3490946410965818 2.0083018899391827 0 0 0
10 4 2 -1.1794 2.964646742658535 4.826992780484371 3.6311975733835387 0 0 0
11 4 1 0.5897 2.5111372244670123 5.520989754403645 4.1096406625697055 0 0 0
12 4 1 0.5897 2.5607565462714605 4.830341760504456 2.76343200623477 0 0 0
13 5 2 -1.1794 1.2816778142886998 2.9668976651690278 4.998935038103787 0 0 0
14 5 1 0.5897 2.0288922467154498 3.3875133559906514 4.573542971372224 0 0 0
15 5 1 0.5897 1.3768654451784255 2.0381293533216747 4.7878371163154565 0 0 0
22 8 2 -1.1794 1.3154397518313208 4.436842241877687 1.3184401188707804 0 0 0
24 8 1 0.5897 1.2588361864258673 5.217766871685146 0.7678393376220479 0 0 0
23 8 1 0.5897 0.5476450249376591 4.488407723265721 1.887663621704486 0 0 0
20 7 1 0.5897 3.6314430451787696 2.5940124693759636 0.9473702446363015 0 0 0
9 3 1 0.5897 4.906634920198504 4.782767533894962 3.7607478103834624 0 0 0
21 7 1 0.5897 5.123250669063373 2.851377985546007 0.937793197969014 0 0 0
19 7 2 -1.1794 4.304273149812742 3.130881311693445 0.528711137769449 0 0 0
27 9 1 0.5897 4.130697944592326 4.991071331985099 0.4420979562935945 0 0 0
7 3 2 -1.1794 5.81843883263074 4.676687816267315 3.489526442088969 0 0 0
867 289 1 0.5897 4.125514664773842 0.16632019485159857 5.258402239217488 0 1 0
387 129 1 0.5897 4.127502355289958 0.06151768309718092 0.9089754393430266 0 1 0
98 33 1 0.5897 0.17686935325489667 5.521947998628918 3.6250854036158775 1 0 0
99 33 1 0.5897 0.18381272150208894 4.066773634344228 4.042606625138108 1 0 0
25 9 2 -1.1794 4.176047228160827 5.946573897319576 0.40744012443809796 0 0 0
16 6 2 -1.1794 -0.041374977866705576 1.4297495290367102 1.7775099562215175 0 0 0
28 10 2 -1.1794 1.4892149138227129 0.27451531635129967 4.519450846420504 0 0 0
416 139 1 0.5897 10.309418859132519 0.39993286660309396 0.8906843327512954 0 1 0
37 13 2 -1.1794 12.152230753947793 4.430528241599306 3.587494632422479 0 0 0
47 16 1 0.5897 6.198394842760209 0.9605387158602636 1.184331973292775 0 0 0
8 3 1 0.5897 6.2971892706641155 5.333429268185775 3.995188845644366 0 0 0
46 16 2 -1.1794 6.400123408972635 1.7210917864371027 1.72937750332048 0 0 0
31 11 2 -1.1794 10.393891644606816 1.3704901951369044 4.001636874022023 0 0 0
32 11 1 0.5897 10.778179186308718 1.9331873590434443 4.6738660406314905 0 0 0
34 12 2 -1.1794 9.211233350495545 1.850782491677876 1.5930365109228832 0 0 0
36 12 1 0.5897 9.897113482840673 2.4370885824567767 1.2736266388036561 0 0 0
39 13 1 0.5897 11.208317284048304 4.4013706145776785 3.431343062354757 0 0 0
40 14 2 -1.1794 9.373956030487573 4.57719892873297 3.3986821503672817 0 0 0
41 14 1 0.5897 8.913761461683675 4.688331287290766 2.566798899785796 0 0 0
42 14 1 0.5897 8.904219805401627 3.869601844174244 3.8401166296517704 0 0 0
43 15 2 -1.1794 7.574362806137536 3.051976539548823 4.741173507898927 0 0 0
45 15 1 0.5897 6.769485249304098 3.3726701134971724 4.334328704765908 0 0 0
48 16 1 0.5897 7.3552037209676095 1.7821497264167572 1.7121412594843795 0 0 0
49 17 2 -1.1794 11.231394809078711 3.4410135298173907 0.6300978756452182 0 0 0
52 18 2 -1.1794 7.613062885295618 4.913054406336063 1.3986091285017768 0 0 0
53 18 1 0.5897 7.63245186543779 4.129478385656736 0.8492031274475704 0 0 0
54 18 1 0.5897 6.838283279842771 4.800856694919232 1.9493520793558976 0 0 0
35 12 1 0.5897 9.400369668702758 1.7457102081152496 2.5254189680914076 0 0 0
33 11 1 0.5897 10.301651715561592 0.5176975901571284 4.426438673632148 0 0 0
59 20 1 0.5897 7.403588719008802 1.3035217341761438 5.098254843876344 0 0 0
50 17 1 0.5897 11.882475982522383 2.8943867948940034 1.069979062686628 0 0 0
56 19 1 0.5897 10.75854498965514 5.225541561391634 0.8253140453218341 0 0 0
58 20 2 -1.1794 7.323365279422413 0.3625450863300848 4.942146822487599 0 0 0
44 15 1 0.5897 7.708767139112508 3.6278997073346866 5.493788657901308 0 0 0
38 13 1 0.5897 12.301696024103626 5.28327082103421 3.995799853934865 0 0 0
78 26 1 0.5897 12.088189919617404 1.5566649788309341 2.9360376061029716 0 0 0
415 139 2 -1.1794 11.17795651896736 0.049624459604483626 0.6928718389782985 0 1 0
180 60 1 0.5897 8.120074529740513 6.089012508225491 4.363543486644684 0 0 0
60 20 1 0.5897 7.985546910783739 0.17219575306037527 4.277721355779752 0 0 0
1347 449 1 0.5897 4.643417032659371 0.1517523772220229 11.335570678363634 0 1 0
865 289 2 -1.1794 4.225696176629622 -0.05261428857180601 6.184785247815797 0 1 0
496 166 2 -1.1794 -0.10161088580388679 1.7738059800695745 7.954415505246553 0 0 0
629 210 1 0.5897 1.7561400784046672 5.857905762681452 10.146541881766769 0 0 0
504 168 1 0.5897 1.4092999325108164 4.190313333605334 6.5078026258653345 0 0 0
501 167 1 0.5897 4.552751818422947 4.330704544461846 6.5402832839207825 0 0 0
499 167 2 -1.1794 4.54404974563073 3.393548903240357 6.3455867211386385 0 0 0
483 161 1 0.5897 4.648451248210353 1.9078165801119515 10.221972470995262 0 0 0
492 164 1 0.5897 3.001091928861685 3.9777579729821646 9.64832341102136 0 0 0
493 165 2 -1.1794 1.6184896111120797 2.776630302055535 10.342596508429729 0 0 0
491 164 1 0.5897 2.722919677781059 4.968939987382411 8.538383788176919 0 0 0
485 162 1 0.5897 3.2960772665390268 1.610932220147545 8.533008667632817 0 0 0
481 161 2 -1.1794 4.586021933937757 1.1777828608450984 9.606055248415993 0 0 0
482 161 1 0.5897 5.221879733489795 1.3862192756228595 8.921648308255252 0 0 0
502 168 2 -1.1794 1.4515586866851986 4.946548439661566 7.0930677942961715 0 0 0
500 167 1 0.5897 3.8456691389166653 3.040406721452581 6.89672031591086 0 0 0
490 164 2 -1.1794 3.2218037762939633 4.859373785226132 9.347876027560547 0 0 0
503 168 1 0.5897 0.5808350352676431 4.993431542774858 7.487825117139129 0 0 0
498 166 1 0.5897 0.8532486225510827 1.7354725986590602 8.00895309671275 0 0 0
484 162 2 -1.1794 2.7818135141015583 1.6620412040580013 7.727350632384685 0 0 0
489 163 1 0.5897 4.935562400753978 4.721220591248922 9.355258347623455 0 0 0
494 165 1 0.5897 1.4368529764754656 1.8413959928299672 10.249961431115366 0 0 0
486 162 1 0.5897 3.093844796315251 0.9291371810752256 7.196600767667261 0 0 0
527 176 1 0.5897 5.6310619634478964 0.820982609609888 6.988437031924749 0 0 0
528 176 1 0.5897 5.87742200758253 2.310614818862211 6.87785305188961 0 0 0
487 163 2 -1.1794 5.878607034901117 4.5610621818223205 9.32030922481875 0 0 0
508 170 2 -1.1794 1.2814414284370725 0.059642259166997336 10.529245013404363 0 0 0
488 163 1 0.5897 6.0335173754979 3.893160424511708 9.988221199435657 0 0 0
505 169 2 -1.1794 4.5108343297827656 6.093436399033121 6.584896929115541 0 0 0
495 165 1 0.5897 1.2184375788901618 3.017178860006337 11.178213380214636 0 0 0
518 173 1 0.5897 12.320759078742313 3.8400973936180787 9.552897881647171 0 0 0
1377 459 1 0.5897 10.728332718355881 0.6859559697066961 11.262132485688383 0 1 0
558 186 1 0.5897 12.187475256887208 1.8672228678298148 7.063243003383516 0 0 0
517 173 2 -1.1794 11.908342390237669 4.535890077525174 9.041043168186073 0 0 0
520 174 2 -1.1794 9.211690989227023 4.260550582480835 9.578188719667628 0 0 0
535 179 2 -1.1794 10.834329600843407 5.829004674638236 6.344623987308372 0 0 0
538 180 2 -1.1794 7.655895204397858 0.05520301100070242 10.70076944868516 0 0 0
529 177 2 -1.1794 11.11934928259384 3.0444349753179827 6.122861061874889 0 0 0
516 172 1 0.5897 9.314971976505085 0.9478172569491328 7.223794222986961 0 0 0
530 177 1 0.5897 10.326803558805413 2.7615902418516667 6.579003740681884 0 0 0
525 175 1 0.5897 7.370148627371724 1.8423690287674472 10.755782530657985 0 0 0
511 171 2 -1.1794 10.37606365793104 1.6353610525377191 9.88230942887296 0 0 0
513 171 1 0.5897 11.218966184670832 1.5816220706810091 9.431951944250253 0 0 0
522 174 1 0.5897 8.896424651933744 4.241806279728089 8.67463617907701 0 0 0
519 173 1 0.5897 10.975387723175293 4.460354375086581 9.24128278984816 0 0 0
524 175 1 0.5897 7.937065785749928 3.218513540663097 10.478794152507863 0 0 0
523 175 2 -1.1794 7.21408000982091 2.7724107733097063 10.919799229116268 0 0 0
659 220 1 0.5897 6.918697234166602 5.892463278430646 10.160029859297456 0 0 0
515 172 1 0.5897 8.048530405843414 1.6808269345880191 7.611980259982826 0 0 0
531 177 1 0.5897 11.24166933570208 3.9537630992701898 6.395614968459512 0 0 0
521 174 1 0.5897 8.708700119580108 4.961152758074147 9.99336081820344 0 0 0
512 171 1 0.5897 9.748524380977612 1.850258083324689 9.192246032774133 0 0 0
532 178 2 -1.1794 7.79471169676451 4.477686480247391 7.031582843805698 0 0 0
514 172 2 -1.1794 9.001757860589485 1.767615569429931 7.605966436267499 0 0 0
526 176 2 -1.1794 6.181484498070476 1.5247433831695552 7.331918244580296 0 0 0
533 178 1 0.5897 7.675484954378606 5.273104337256713 6.512626391081207 0 0 0
534 178 1 0.5897 7.049428939362458 4.469030316725239 7.632136411027382 0 0 0
537 179 1 0.5897 9.94297951846638 5.944629314878135 6.673746163696898 0 0 0
1010 337 1 0.5897 10.477997368052678 2.9827167020568552 11.287640519355536 0 0 0
961 321 2 -1.1794 4.437069570657015 1.7013694652323261 15.42665893269374 0 0 0
962 321 1 0.5897 5.194365424890522 1.7221075328572784 14.84163527543648 0 0 0
963 321 1 0.5897 4.655960999021909 1.036016290570469 16.07903268103781 0 0 0
964 322 2 -1.1794 2.7903651747775093 1.3609548769563447 13.32810562992415 0 0 0
965 322 1 0.5897 3.1307726763240047 1.2656188273305566 14.217593509107699 0 0 0
966 322 1 0.5897 1.8404934291563086 1.4042146401807498 13.438003145759334 0 0 0
970 324 2 -1.1794 3.233663510337551 4.685417743045465 14.385501268751005 0 0 0
971 324 1 0.5897 4.152136051501749 4.7090177699099 14.653922084525037 0 0 0
972 324 1 0.5897 2.871346606081476 3.92283388593994 14.836509021284128 0 0 0
973 325 2 -1.1794 1.6297145267799829 2.722692390302549 16.219560917810924 0 0 0
975 325 1 0.5897 0.8845850587980033 3.052371276282323 15.717281992348019 0 0 0
982 328 2 -1.1794 1.188925966846185 4.354209819852029 12.649276322397048 0 0 0
983 328 1 0.5897 1.2208767797030065 5.016583936986673 11.959026127357479 0 0 0
984 328 1 0.5897 1.9260785040171609 4.567914888154244 13.221224496327883 0 0 0
980 327 1 0.5897 3.7346263448980777 2.748909754062954 12.450592122845482 0 0 0
981 327 1 0.5897 5.232219804576505 2.730213774074872 12.229955446617222 0 0 0
979 327 2 -1.1794 4.427448252439135 3.1496452836689928 11.925614639490083 0 0 0
990 330 1 0.5897 1.5686323337592338 0.8355735406906968 16.455853558503186 0 0 0
986 329 1 0.5897 4.650551710444824 5.006842524733061 12.006668696528948 0 0 0
967 323 2 -1.1794 5.991319196876039 4.972293791170384 15.426573444232616 0 0 0
1008 336 1 0.5897 6.0177475234572775 0.7091339960540736 13.193455790584471 0 0 0
1058 353 1 0.5897 -0.08419345388228991 4.286484128189358 14.00070759630898 1 0 0
1110 370 1 0.5897 2.105701556003188 6.031670470360017 15.592528600129798 0 0 0
974 325 1 0.5897 1.6354824945574151 3.253020225462037 17.016362444084855 0 0 0
985 329 2 -1.1794 4.705063413495059 5.957009548270934 12.108889741235457 0 0 0
1460 487 1 0.5897 4.400472339192397 2.7883132192276956 16.917148163440864 0 0 0
1109 370 1 0.5897 0.6571409734577692 5.663298939830205 15.83294356396545 0 0 0
976 326 2 -1.1794 0.0448598937951043 1.2629999368360394 13.713985271487335 0 0 0
1346 449 1 0.5897 4.018093514331933 0.2232595182534851 12.712365580401146 0 1 0
1108 370 2 -1.1794 1.3874185075142247 6.150981450812421 16.213827379766933 0 0 0
1038 346 1 0.5897 12.01668321779066 0.7615613717613134 13.003556495437905 0 0 0
997 333 2 -1.1794 12.015706188173189 4.789544901237356 15.144384408686332 0 0 0
1006 336 2 -1.1794 6.356243000685226 1.5264265875452285 13.559074839165277 0 0 0
969 323 1 0.5897 6.34316641608386 4.179092914743511 15.830621960795103 0 0 0
968 323 1 0.5897 6.549788739728524 5.676921411123193 15.754946917441302 0 0 0
991 331 2 -1.1794 10.86725073454621 1.6223243720804825 15.712149397083321 0 0 0
992 331 1 0.5897 11.280643008473552 1.6929383627815047 14.851754952454176 0 0 0
993 331 1 0.5897 11.146567699171838 0.7687596349459893 16.043261904018756 0 0 0
994 332 2 -1.1794 9.20039866074857 1.3571188935633696 13.595944033106516 0 0 0
995 332 1 0.5897 9.573749917805197 2.0143748980833807 13.008720735821143 0 0 0
998 333 1 0.5897 11.09181220208553 4.588306758839603 14.99564053447168 0 0 0
1000 334 2 -1.1794 9.260295928577749 4.618118525716623 14.953375307890296 0 0 0
1001 334 1 0.5897 8.83341961284128 3.9409693083960753 15.478207312323566 0 0 0
1002 334 1 0.5897 8.733141355240129 4.67182050372966 14.156263258083857 0 0 0
1003 335 2 -1.1794 7.985609481496539 2.8564529517958945 16.494896654665858 0 0 0
1004 335 1 0.5897 8.09551302517439 1.9058252986554236 16.473212072885623 0 0 0
1007 336 1 0.5897 7.307296465817744 1.4188619953322599 13.547288658882293 0 0 0
1012 338 2 -1.1794 7.468489406378359 4.844291896014839 12.992941823489058 0 0 0
1014 338 1 0.5897 7.538861283076813 4.008605284559569 12.531536425365719 0 0 0
1011 337 1 0.5897 11.291896060105577 2.7325096209575084 12.539316566722743 0 0 0
1009 337 2 -1.1794 10.517563990247384 3.1957762913750525 12.219946629216052 0 0 0
996 332 1 0.5897 9.588896249522046 1.5494301892843516 14.449318741527804 0 0 0
1013 338 1 0.5897 6.837374650807773 4.679254899417364 13.69339314772447 0 0 0
1017 339 1 0.5897 10.619473599675368 5.238280814222011 11.963064067904945 0 0 0
1490 497 1 0.5897 10.895133578399122 2.9990264280206933 17.129507976731958 0 0 0
1376 459 1 0.5897 10.1274721049761 0.10941120562708853 12.526372254084185 0 1 0
1018 340 2 -1.1794 7.74081148041955 0.14998029033527674 16.342349680763213 0 0 0
660 220 1 0.5897 7.456763305248794 5.787704923736936 11.571132449921178 0 0 0
1139 380 1 0.5897 8.46289943291432 5.895176810633511 15.858206849175888 0 0 0
1375 459 2 -1.1794 10.84067255733458 -0.0180545604533755 11.900847758344456 0 1 0
1826 609 1 0.5897 3.8507947345810196 0.1473559215718678 17.99477494010133 0 1 0
1455 485 1 0.5897 1.3298061875758878 3.216148414741813 22.85155078123175 0 0 0
1456 486 2 -1.1794 0.05312937635109988 1.3195767581137658 19.267081658362272 0 0 0
386 129 1 0.5897 4.845753255796032 0.3491101340319721 22.535815969041295 0 1 -1
1538 513 1 0.5897 0.4143170358517635 3.7705322664120033 21.02899405223583 1 0 0
1454 485 1 0.5897 1.9819028926170903 3.2723784056254495 21.48651656296942 0 0 0
1464 488 1 0.5897 1.0782202764927824 4.811305045129515 19.04919114939755 0 0 0
1443 481 1 0.5897 4.385469597186693 2.283418761104735 21.852160821256824 0 0 0
1450 484 2 -1.1794 3.1397381106411695 4.5873675600002 20.84205582555893 0 0 0
1469 490 1 0.5897 1.398235642084318 1.0478808091005711 22.07973518345051 0 0 0
1442 481 1 0.5897 3.784421595915789 1.6114447071492783 20.636044975302113 0 0 0
1453 485 2 -1.1794 1.372342063044516 2.7557138813486524 22.013481595686088 0 0 0
1444 482 2 -1.1794 2.7120309493629184 1.2241536008298386 19.18821936675888 0 0 0
1463 488 1 0.5897 1.748282804458565 5.307895631479008 17.785805046814637 0 0 0
1452 484 1 0.5897 2.913961106893527 4.737230383603725 19.924058461523146 0 0 0
1441 481 2 -1.1794 4.5284394398702075 1.5646697355215888 21.23640206706898 0 0 0
1451 484 1 0.5897 4.086536682150341 4.7223769861248694 20.8814586824041 0 0 0
1445 482 1 0.5897 1.7788118696117132 1.2091357000062657 19.40052604481329 0 0 0
1446 482 1 0.5897 2.864729600243916 2.102435262603072 18.839608182546392 0 0 0
1461 487 1 0.5897 5.191316117462002 2.9662012246049363 18.19568090594948 0 0 0
1459 487 2 -1.1794 4.513004851431582 3.3794349779945496 17.661522874763676 0 0 0
1462 488 2 -1.1794 1.7728150117164172 4.597117592163469 18.42642186659478 0 0 0
1466 489 1 0.5897 4.605144156253354 5.1306699343742395 17.822216002591773 0 0 0
1487 496 1 0.5897 6.109484812483604 1.5024355493906811 19.713603244694646 0 0 0
1447 483 2 -1.1794 5.950175801298885 4.631476597557456 20.558820477702973 0 0 0
1539 513 1 0.5897 0.22787347633326327 5.271686812818676 20.96829928684948 1 0 0
1468 490 2 -1.1794 1.5508725739374571 0.12172020717056142 21.892209299774535 0 0 0
1537 513 2 -1.1794 -0.02631581086555812 4.459048867609161 20.53100094864473 1 0 0
1488 496 1 0.5897 6.001559145371438 0.8814941206143738 18.337192306746168 0 0 0
1590 530 1 0.5897 2.0388515346592415 5.939760068862901 21.82176189093635 0 0 0
1465 489 2 -1.1794 4.464206709080434 6.064532300745026 17.97807347978111 0 0 0
51 17 1 0.5897 11.210125021348945 3.112569699095098 22.659344093953756 0 0 -1
1856 619 1 0.5897 11.720958290206807 0.1332526825525136 18.208421150646743 0 1 0
1472 491 1 0.5897 10.947621272385458 0.837338259683032 21.901386181567332 0 0 0
1517 506 1 0.5897 12.318209748855729 2.110956596914379 18.717471546774355 0 0 0
1496 499 1 0.5897 10.966403974906179 5.014488589872106 17.952001196757593 0 0 0
1480 494 2 -1.1794 9.63277654074047 5.09326231640035 20.956020730451613 0 0 0
1483 495 2 -1.1794 7.604885293485307 3.100822824497459 22.036161687584396 0 0 0
1477 493 2 -1.1794 12.268896166235269 4.740844863374112 20.569206495462574 0 0 0
1475 492 1 0.5897 8.307047578951595 1.4545283501021908 18.733620169923974 0 0 0
1473 491 1 0.5897 10.210115659146132 1.3930441943648217 20.70179272041821 0 0 0
1498 500 2 -1.1794 7.796978067545122 0.25676951985095703 21.889064135040606 0 0 0
1518 506 1 0.5897 12.333436702265336 1.4311111529309466 20.069990101007285 0 0 0
1493 498 1 0.5897 7.871010150482901 5.299494439803669 18.06892499293634 0 0 0
1485 495 1 0.5897 7.64584178589807 2.145840210619555 22.0868826929536 0 0 0
1449 483 1 0.5897 6.12688352477722 3.8188045560847783 21.0326927900756 0 0 0
1448 483 1 0.5897 6.3615479531683405 5.313316950790608 21.089924069639366 0 0 0
1495 499 2 -1.1794 10.83682833547251 5.956084825069464 18.06534209668942 0 0 0
1471 491 2 -1.1794 10.946050601979733 1.5715179433373214 21.287227379991997 0 0 0
1489 497 2 -1.1794 11.042681467648913 3.312837200278695 18.021647812079614 0 0 0
1474 492 2 -1.1794 9.193162223382776 1.5015343877548286 19.092491823675054 0 0 0
1492 498 2 -1.1794 7.9306213237164975 4.617807837220441 18.73821037412852 0 0 0
1005 335 1 0.5897 8.175110671153577 3.0993372482711963 17.4011278604968 0 0 0
1486 496 2 -1.1794 6.4207976611416235 1.5981020924478513 18.813556242294446 0 0 0
1491 497 1 0.5897 10.331331201399767 2.926668974315512 18.53257911510302 0 0 0
1484 495 1 0.5897 8.451859840872352 3.3583591797376986 21.67214755197947 0 0 0
1476 492 1 0.5897 9.659766981773403 0.7773227519454629 18.675338696020596 0 0 0
1481 494 1 0.5897 10.548474220133006 4.966496234971404 20.707774644237155 0 0 0
1494 498 1 0.5897 7.126329887839495 4.7116423992364105 19.248598795307444 0 0 0
1482 494 1 0.5897 9.138737513337581 4.893991805462009 20.16079714121733 0 0 0
121 41 2 -1.1794 4.4361186247717725 7.616643393443129 4.264117175438413 0 0 0
122 41 1 0.5897 3.7499204312500103 7.571174813582874 3.5983534546065603 0 0 0
123 41 1 0.5897 5.25418290369086 7.586238753587194 3.768083887622733 0 0 0
124 42 2 -1.1794 2.453325454957025 7.566163820165343 1.963845917627367 0 0 0
125 42 1 0.5897 2.8821080287259964 6.989822149239923 1.3312533773976531 0 0 0
126 42 1 0.5897 2.9226836458691214 8.396966684952483 1.8882074046252388 0 0 0
129 43 1 0.5897 5.075406743127974 10.974794236367297 3.6626478113752756 0 0 0
130 44 2 -1.1794 3.324050698357964 11.00247833386793 3.4933273442844373 0 0 0
132 44 1 0.5897 3.0112162307319306 10.1878657310207 3.886724526996338 0 0 0
133 45 2 -1.1794 1.3244802662143793 9.272978936192587 4.967936888066435 0 0 0
135 45 1 0.5897 0.6216450196928173 9.808674577371953 4.600161810852416 0 0 0
137 46 1 0.5897 0.7649111717743499 7.597375688917293 2.062969290862126 0 0 0
139 47 2 -1.1794 4.512235288219103 9.51784198584179 0.9428612794203264 0 0 0
142 48 2 -1.1794 1.4287187358348072 10.793647469435454 1.401181216128415 0 0 0
143 48 1 0.5897 2.0374592600233767 11.021647598752919 2.103769252663363 0 0 0
144 48 1 0.5897 1.4318024933053304 11.557118700868328 0.8238505801997931 0 0 0
149 50 1 0.5897 1.3631350475190054 7.474514744470253 4.917399486365847 0 0 0
131 44 1 0.5897 2.9051685517914043 11.693282187236766 4.0066905798822505 0 0 0
140 47 1 0.5897 4.532068567368148 10.464238582894996 0.8007735241132806 0 0 0
127 43 2 -1.1794 5.962820548197548 10.643098905691854 3.799366047822927 0 0 0
621 207 1 0.5897 4.427910956097695 8.84850451623237 5.573644249365182 0 0 0
168 56 1 0.5897 5.691429228169117 8.18470018029494 1.6902343329331335 0 0 0
148 50 2 -1.1794 1.3390322455469388 6.527812775201911 4.7780534441379094 0 0 0
141 47 1 0.5897 4.564414886206574 9.142073911748906 0.06409049430061685 0 0 0
166 56 2 -1.1794 6.025799607790672 7.342118947958003 1.9976093831809236 0 0 0
218 73 1 0.5897 0.0253921513048066 10.732014201284375 2.7398423553090026 1 0 0
270 90 1 0.5897 0.5090894351148868 12.31139216452845 4.642532854530794 0 0 0
1574 525 1 0.5897 1.3993986163063201 9.480716985615807 0.008355652279283074 0 0 1
145 49 2 -1.1794 4.780973630186755 12.233375053254596 1.1136897860964294 0 0 0
26 9 1 0.5897 4.829669158972641 6.179871365936847 1.0666347698855143 0 0 0
150 50 1 0.5897 1.3081560457412706 6.156176996109203 5.65958665142791 0 0 0
170 57 1 0.5897 10.321876840302007 9.046621515378947 0.3777007106123726 0 0 0
197 66 1 0.5897 12.156007540942236 8.493228545517871 1.7499977794075061 0 0 0
128 43 1 0.5897 6.425661088729607 11.364513548228654 4.225459909402586 0 0 0
1739 580 1 0.5897 7.559918158461994 12.335174486616852 0.24841881555761708 0 0 1
178 60 2 -1.1794 7.393028334598803 6.248375286472782 4.965367978548603 0 0 0
151 51 2 -1.1794 10.913892083281578 7.632694029957052 4.308266657419349 0 0 0
152 51 1 0.5897 10.099724148057554 7.509224984441942 3.8203364190666287 0 0 0
153 51 1 0.5897 10.939408901349653 6.8987343798525815 4.922149688195037 0 0 0
154 52 2 -1.1794 8.803078542278307 7.530386598827783 2.2650128244005936 0 0 0
155 52 1 0.5897 9.10713210149423 8.437525010616401 2.235209218266108 0 0 0
156 52 1 0.5897 9.433413995446005 7.048282051372455 1.729803612696935 0 0 0
158 53 1 0.5897 11.214424227369186 10.790100389585405 3.6693240106298437 0 0 0
160 54 2 -1.1794 9.37970453183015 10.989320289215541 3.8599410237388394 0 0 0
161 54 1 0.5897 9.06910626382364 10.925887282701286 2.9568032113015303 0 0 0
162 54 1 0.5897 8.993214502061926 10.232424471451498 4.3003351366083615 0 0 0
163 55 2 -1.1794 7.799464948607379 9.078313996097243 4.974460427184466 0 0 0
164 55 1 0.5897 6.997561899685159 9.549675233384828 4.748640262406752 0 0 0
167 56 1 0.5897 6.976199639533799 7.414699900351888 1.9100178311772829 0 0 0
169 57 2 -1.1794 10.650769544095715 9.502515348817465 1.1524096723970934 0 0 0
172 58 2 -1.1794 7.664977780585359 10.951990805385702 1.4933670311182494 0 0 0
173 58 1 0.5897 7.686190041977444 10.295792692495668 0.7968349976530346 0 0 0
174 58 1 0.5897 6.816164168715136 10.82480942415273 1.9170845418545983 0 0 0
179 60 1 0.5897 7.392441992806929 7.196730933674292 5.095228256629212 0 0 0
171 57 1 0.5897 10.683656618412943 10.42334365937955 0.893114805720279 0 0 0
650 217 1 0.5897 11.047611775379233 8.993995128810452 5.520766668741594 0 0 0
57 19 1 0.5897 11.551794249505143 6.459747772748937 1.1986276360506658 0 0 0
198 66 1 0.5897 12.144207103147739 7.771854073254072 3.0808713951158406 0 0 0
157 53 2 -1.1794 12.171279193757908 10.768101842097101 3.6813940522927706 0 0 0
175 59 2 -1.1794 10.890924291514601 12.227230527982394 0.6778364986177131 0 0 0
300 100 1 0.5897 8.219718337447075 12.222894255198515 4.724364768160666 0 0 0
55 19 2 -1.1794 10.699756607226846 6.180160916505613 0.8638648991950535 0 0 0
1619 540 1 0.5897 7.637233530537725 6.264663945051194 0.09743549450207006 0 0 1
1101 367 1 0.5897 4.518659468609809 9.073807117593097 11.361266167838938 0 0 0
134 45 1 0.5897 1.430789450855208 9.597565961308716 5.862087750923622 0 0 0
698 233 1 0.5897 0.4285727720494572 11.42047625525945 9.993752639611929 1 0 0
699 233 1 0.5897 0.24712362157722761 11.097752968191024 8.525889047136404 1 0 0
507 169 1 0.5897 4.43081767778389 6.541399658725502 5.7428205334418 0 0 0
630 210 1 0.5897 1.0093025398848212 7.109348124897474 10.55642964681628 0 0 0
604 202 2 -1.1794 2.6547530922490257 7.644008892694751 8.153389674351164 0 0 0
614 205 1 0.5897 2.0297151885841496 9.239140491555453 10.16330076529589 0 0 0
612 204 1 0.5897 3.0438881974947622 11.46577536518326 9.705504684515658 0 0 0
623 208 1 0.5897 2.1881515568233953 10.918088036468957 7.833881565833095 0 0 0
605 202 1 0.5897 2.809945128273682 8.454545002858733 7.668453005724814 0 0 0
619 207 2 -1.1794 4.410652067411794 9.345241662709954 6.391645297276942 0 0 0
620 207 1 0.5897 5.079452367326166 8.931865467606661 6.937555094763835 0 0 0
624 208 1 0.5897 1.692869636126771 11.672535663874013 6.618442830354557 0 0 0
626 209 1 0.5897 4.37407853982521 11.163294804951914 6.429761670105134 0 0 0
601 201 2 -1.1794 4.572175474629486 7.738551033935088 9.973676450878076 0 0 0
606 202 1 0.5897 1.7015849697298384 7.562931698803536 8.18652791337039 0 0 0
615 205 1 0.5897 0.5589369638035158 9.383283475039466 10.491700261133191 0 0 0
603 201 1 0.5897 3.849799576742329 7.640979744779692 9.353328976690943 0 0 0
602 201 1 0.5897 4.4078250059369 7.071534281656807 10.640212441924003 0 0 0
613 205 2 -1.1794 1.3486753464553445 8.907143880578788 10.748236342021356 0 0 0
611 204 1 0.5897 4.2739812790127365 10.706964733185384 9.255039815026544 0 0 0
610 204 2 -1.1794 3.3174288118764945 10.676805585792671 9.237617828103293 0 0 0
622 208 2 -1.1794 1.4854848680928994 10.928668389867752 7.1840059121848014 0 0 0
648 216 1 0.5897 5.99091146399873 7.123713312618245 7.240477531968806 0 0 0
607 203 2 -1.1794 5.97830811257525 10.76651567789642 9.51802772053579 0 0 0
647 216 1 0.5897 5.717657921267161 7.675064253319105 8.623614821508236 0 0 0
506 169 1 0.5897 3.8446914222510005 6.501486683744943 7.138014234907494 0 0 0
625 209 2 -1.1794 4.434823448474857 12.112822945656873 6.325115495708421 0 0 0
628 210 2 -1.1794 0.9349784047275691 6.155205486412931 10.538340767185762 0 0 0
637 213 2 -1.1794 11.988189390827003 10.737784654811032 9.457434168652659 0 0 0
652 218 2 -1.1794 7.802985698047302 11.033289759788671 7.22556578766 0 0 0
658 220 2 -1.1794 7.609582490680705 6.2245149888991165 10.733272025445396 0 0 0
609 203 1 0.5897 6.3572662273106495 9.985151822698459 9.920615766870666 0 0 0
631 211 2 -1.1794 10.710795955706425 7.945246538386677 10.011278720471921 0 0 0
608 203 1 0.5897 6.498258448927365 11.49145028229625 9.864927749845494 0 0 0
654 218 1 0.5897 8.477387341885024 10.997072952311218 7.903831439229837 0 0 0
649 217 2 -1.1794 11.064911654062112 9.278692901048327 6.4344423013307415 0 0 0
635 212 1 0.5897 9.485899076237843 7.952968364711531 8.592141437329358 0 0 0
633 211 1 0.5897 10.843684744234945 7.171100670649864 10.558313253992084 0 0 0
640 214 2 -1.1794 9.352558057097786 11.093658773782117 9.375540501441618 0 0 0
642 214 1 0.5897 9.028627235505043 10.418191597446171 9.97136996415975 0 0 0
632 211 1 0.5897 11.389156966767693 7.8832317962444725 9.338854706245552 0 0 0
678 226 1 0.5897 11.971730335848683 8.148315014466048 7.289495666797921 0 0 0
634 212 2 -1.1794 9.114077344235234 7.826451362994265 7.719271545216721 0 0 0
655 219 2 -1.1794 10.697788729756802 12.127858464359626 6.531226597582591 0 0 0
653 218 1 0.5897 6.984490919609128 10.862782887869852 7.691597458387091 0 0 0
641 214 1 0.5897 10.291427934724204 10.921199335583768 9.304946541340911 0 0 0
646 216 2 -1.1794 6.2968125232021 7.778056023210143 7.868536899890991 0 0 0
657 219 1 0.5897 10.932261123847924 11.206509792693552 6.4199869382371695 0 0 0
165 55 1 0.5897 7.918410317335471 9.241624791386162 5.910062942353784 0 0 0
651 217 1 0.5897 10.332272857027275 8.817927860655649 6.843267313234784 0 0 0
643 215 2 -1.1794 7.721275585372165 9.091922474166214 10.882004686957155 0 0 0
645 215 1 0.5897 7.586487288759857 8.147416608686747 10.959354419436933 0 0 0
636 212 1 0.5897 8.169374929986796 7.914394352957853 7.845775074177508 0 0 0
536 179 1 0.5897 11.378837736732624 6.343245448339805 6.940665071923641 0 0 0
1081 361 2 -1.1794 4.503661351845655 7.737577647913496 15.851173820229276 0 0 0
1082 361 1 0.5897 4.490891729151474 8.49947995290344 16.430451293935043 0 0 0
1083 361 1 0.5897 4.5138400991827 6.985796716685408 16.44356313422884 0 0 0
1084 362 2 -1.1794 2.827032387281628 7.705087402907457 13.643735000935724 0 0 0
1085 362 1 0.5897 3.250332935762277 7.798848618850427 14.49707568162568 0 0 0
1086 362 1 0.5897 3.326669009192016 8.279562257557648 13.063614052079805 0 0 0
1089 363 1 0.5897 5.039075311069813 10.539445076326475 15.343915855871826 0 0 0
1090 364 2 -1.1794 3.211629908179522 10.468923835650752 15.178079001385504 0 0 0
1091 364 1 0.5897 2.967218529845985 11.285840344710788 15.612979401071044 0 0 0
1092 364 1 0.5897 2.5882457616442056 9.823638570668964 15.511574392641249 0 0 0
1095 365 1 0.5897 0.6982657550580242 9.512146192706412 16.002229766704012 0 0 0
1097 366 1 0.5897 1.085363743197784 7.333058076392414 13.42726326409604 0 0 0
1099 367 2 -1.1794 4.567297195343762 9.423459150380742 12.250949052494217 0 0 0
1102 368 2 -1.1794 1.6094984723394676 10.582172699705614 12.850438782074992 0 0 0
1104 368 1 0.5897 2.4097736091228583 10.455931627879997 13.360152578290839 0 0 0
1093 365 2 -1.1794 1.29432276063392 9.04269218334106 16.585776354782787 0 0 0
1103 368 1 0.5897 1.6738615035123325 9.943334999348194 12.140554515926306 0 0 0
1100 367 1 0.5897 5.298963150775281 8.955325911891803 12.653088544198305 0 0 0