#include		in.partitions
include		in.temp
variable        temperature equal 215.77
variable	tempDamp equal 100.0
include		in.pressure
variable        pressure equal 8318.0
variable        pressureDamp equal 1000.0 # This is 1 ps
include		in.seed
variable        seed equal 745823

units		real
atom_style	full
read_restart	restart.lmp.${pid}
read_restart	restart.lmp.0
Reading restart file ...
  restart file = 30 Jul 2021, LAMMPS = 30 Jul 2021
  restoring atom style full from restart
  orthogonal box = (-0.056445062 -0.057651531 -0.14353237) to (24.786446 24.787653 22.953532)
  2 by 4 by 2 MPI processor grid
  restoring pair style lj/cut/tip4p/long/omp from restart
  restoring bond style harmonic/omp from restart
  restoring angle style harmonic/omp from restart
  1920 atoms
  1280 bonds
  640 angles
Finding 1-2 1-3 1-4 neighbors ...
  special bond factors lj:    0        0        0       
  special bond factors coul:  0        0        0       
     2 = max # of 1-2 neighbors
     1 = max # of 1-3 neighbors
     1 = max # of 1-4 neighbors
     2 = max # of special neighbors
  special bonds CPU = 0.001 seconds
  read_restart CPU = 0.008 seconds
include 	in.setup
variable	out_freq equal 1000
variable	out_freq2 equal 10000
variable	out_freq3 equal 1000

timestep	2.0

neigh_modify    delay 7 every 1

include		in.tip4p
# This is TIP4P/Ice

# create groups ###
group ox type 2
640 atoms in group ox
group hy type 1
1280 atoms in group hy

# set charges - beside manually ###
set group ox charge -1.1794
Setting atom values ...
  640 settings made for charge
set group hy charge 0.5897
Setting atom values ...
  1280 settings made for charge

# ### TIP3P Potential Parameters ###
pair_style lj/cut/tip4p/long/omp 2 1 1 1 0.1577 8.5
pair_coeff 1 1*2 0.000 0.000
pair_coeff 2 2 0.21084 3.1668
bond_style  harmonic
bond_coeff  1 450 0.9572
angle_style harmonic
angle_coeff 1 55 104.52
kspace_style pppm/tip4p/omp 1.0e-5
pair_modify tail yes

thermo          ${out_freq}
thermo          1000
thermo_style    custom step temp pe etotal epair emol press lx ly lz vol pxx pyy pzz pxy pxz pyz enthalpy

restart 	${out_freq3} restart.lmp.${pid} restart2.lmp.${pid}
restart 	1000 restart.lmp.${pid} restart2.lmp.${pid}
restart 	1000 restart.lmp.0 restart2.lmp.${pid}
restart 	1000 restart.lmp.0 restart2.lmp.0


include         in.dump
dump            myDump all atom ${out_freq2} dump.water.${pid}
dump            myDump all atom 10000 dump.water.${pid}
dump            myDump all atom 10000 dump.water.0
dump            myDump2 all dcd ${out_freq2} dump.dcd
dump            myDump2 all dcd 10000 dump.dcd
dump_modify     myDump append yes
dump_modify     myDump2 append yes


variable natoms 	equal  "count(all)"                        # NUMBER ATOMS
variable H      	equal  "enthalpy/v_natoms"                 # ENTHALPY-per-atom
variable Vol      	equal  "vol/v_natoms"                 # volume-per-atom
fix AVG all 		ave/time ${out_freq} 1 ${out_freq} v_Vol v_H file vol_enthalpy.dat
fix AVG all 		ave/time 1000 1 ${out_freq} v_Vol v_H file vol_enthalpy.dat
fix AVG all 		ave/time 1000 1 1000 v_Vol v_H file vol_enthalpy.dat




fix 		1 all shake 1e-6 200 0 b 1 a 1
       0 = # of size 2 clusters
       0 = # of size 3 clusters
       0 = # of size 4 clusters
     640 = # of frozen angles
  find clusters CPU = 0.000 seconds
fix             2 all nph aniso ${pressure} ${pressure} ${pressureDamp}
fix             2 all nph aniso 8318 ${pressure} ${pressureDamp}
fix             2 all nph aniso 8318 8318 ${pressureDamp}
fix             2 all nph aniso 8318 8318 1000
fix             3 all temp/csvr ${temperature} ${temperature} ${tempDamp} ${seed}
fix             3 all temp/csvr 215.77 ${temperature} ${tempDamp} ${seed}
fix             3 all temp/csvr 215.77 215.77 ${tempDamp} ${seed}
fix             3 all temp/csvr 215.77 215.77 100 ${seed}
fix             3 all temp/csvr 215.77 215.77 100 745823


run             250000
PPPM initialization ...
  extracting TIP4P info from pair style
  using 12-bit tables for long-range coulomb (../kspace.cpp:340)
  G vector (1/distance) = 0.37458626
  grid = 30 30 30
  stencil order = 5
  estimated absolute RMS force accuracy = 0.0032515855
  estimated relative force accuracy = 9.7920532e-06
  using double precision FFTW3
  3d grid and FFT values/proc = 7920 1800
Last active /omp style is kspace_style pppm/tip4p/omp
Neighbor list info ...
  update every 1 steps, delay 7 steps, check yes
  max neighbors/atom: 2000, page size: 100000
  master list distance cutoff = 10.8154
  ghost atom cutoff = 10.8154
  binsize = 5.4077, bins = 5 5 5
  1 neighbor lists, perpetual/occasional/extra = 1 0 0
  (1) pair lj/cut/tip4p/long/omp, perpetual
      attributes: half, newton on, omp
      pair build: half/bin/newton/omp
      stencil: half/bin/3d
      bin: standard
Per MPI rank memory allocation (min/avg/max) = 12.55 | 12.55 | 12.55 Mbytes
Step Temp PotEng TotEng E_pair E_mol Press Lx Ly Lz Volume Pxx Pyy Pzz Pxy Pxz Pyz Enthalpy 
 9500000     222.0268    -9288.729   -8442.2616    -9288.729            0    8448.9653    24.842891    24.845304    23.097065    14256.182    7800.2358    9349.6096    8197.0506    337.96106   -103.26258    877.01562    -6685.622 
 9501000    209.29241   -9283.1071    -8485.189   -9283.1071            0    8894.0187    24.847198    24.767272    23.095315    14212.795    9602.4098    8814.1279    8265.5183   -124.20614    1377.3452   -439.73568   -6641.6454 
 9502000    214.61697   -9296.3746   -8478.1568   -9296.3746            0    7685.7523    24.854134    24.901483     23.01094    14241.581    8382.7902    7861.2599    6813.2066   -12.234174     122.7749   -162.05678   -6881.8349 
 9503000    214.09055   -9293.6625   -8477.4517   -9293.6625            0    8529.1425    24.848523    24.940076    22.889466    14185.152    8854.6636    8744.4369     7988.327   -648.52657   -1088.6647   -441.11473   -6712.9777 
 9504000    209.36188   -9314.6775   -8516.4945   -9314.6775            0    7742.8998    24.940509    24.999454    22.816657    14226.165    7936.9912    7026.3321    8265.3761    241.03048    152.84296    53.924514   -6910.0439 
 9505000    215.64714     -9287.56   -8465.4148     -9287.56            0    8272.2054    24.966344    24.882406     22.89591    14223.459    6574.6503    9166.8669    9075.0991    256.14462   -184.76746   -275.02973   -6749.4735 
 9506000     219.4368   -9281.2782   -8444.6851   -9281.2782            0    8650.2546    24.955504    24.955397    22.786904    14191.103    8302.1402    8701.8122    8946.8114   -293.79971     1098.353    510.90187   -6654.4052 
 9507000    217.86691   -9327.6398   -8497.0317   -9327.6398            0    8208.7979    24.840456    25.001686     22.85787    14195.955    8473.9902    7590.1524     8562.251   -385.47942    64.903451    448.42027    -6797.536 
 9508000    211.67699   -9303.9147   -8496.9055   -9303.9147            0    7493.5517    25.007887    24.888735    22.867446    14233.034    6362.6581     8030.353     8087.644   -1064.8674    654.20134    278.84015   -6941.4375 
 9509000     218.9532    -9276.448   -8441.6986    -9276.448            0    8494.1551     24.89704    24.869029    22.972347    14223.678    8045.6996    9534.7841    7901.9816    131.09886    208.53109    100.56696   -6679.6901 
 9510000    218.39589   -9300.9709   -8468.3461   -9300.9709            0    7498.3288    24.901334    24.861404    23.058247    14274.948    7187.5581    8401.2511    6906.1773   -340.40613    219.72345    -512.1842   -6907.3029 
 9511000    213.03765   -9294.8341   -8482.6374   -9294.8341            0    9009.1988    24.812109    24.852192    22.996797    14180.637    9185.7817    9025.5926     8816.222    320.27792    753.95362   -1634.2115   -6619.4446 
 9512000    221.18244   -9285.0762   -8441.8279   -9285.0762            0    8045.9637    24.835779    24.882943    23.086724    14267.302    8783.7234    7853.1896    7500.9781   -92.161878   -772.07141    432.81793   -6767.6723 
 9513000    216.80643   -9281.4837   -8454.9187   -9281.4837            0    9799.5476    24.835804    24.870841    22.956739    14180.087    9392.5706    9617.4019     10388.67    688.91264   -334.78158   -882.99099   -6428.3525 
 9514000    209.53634   -9310.5276   -8511.6795   -9310.5276            0    8645.9231      25.0339    24.933716    22.712623     14176.95    8351.2501    8075.5494    9510.9697    315.54355   -1006.1549    324.13888   -6724.0807 
 9515000    212.71471   -9289.9006   -8478.9351   -9289.9006            0    8385.7324    24.943543    24.912806    22.890538    14224.493    7383.0524    8556.3209    9217.8239   -1364.9393   -1779.2357    1147.7711    -6739.318 
 9516000    216.61446   -9292.6955   -8466.8624   -9292.6955            0    8703.5452    24.797663    25.012382    22.896248    14201.366    9263.4286    8110.4154    8736.7917   -488.05978   -202.33003    1630.0018   -6664.2506 
 9517000    218.49669   -9302.6867   -8469.6777   -9302.6867            0    8000.4969    24.836721     24.93641    22.965336     14223.32    8394.9413    7624.2478    7982.3016    740.18769   -632.21548    593.50283   -6810.1143 
 9518000    218.52677   -9338.0718   -8504.9481   -9338.0718            0     8736.541    24.974089    24.860126    22.823024     14169.88    7672.8916    9706.4193    8830.3121   -538.54615   -1675.7574   -11.085723   -6699.5143 
 9519000    212.12233   -9297.4313   -8488.7242   -9297.4313            0     8769.453    24.952989    24.852663    22.882128    14190.311    9253.0661    8447.9029    8607.3899    210.84101   -453.29882   -183.92199    -6673.876 
 9520000    216.59462   -9326.3064   -8500.5489   -9326.3064            0    7430.4423    24.912044    24.945333    22.918224    14242.283    7306.0423    7648.8135    7336.4712   -784.36872     515.7033    699.07187   -6957.1785 
 9521000    221.54869   -9336.2883   -8491.6436   -9336.2883            0    8762.8018    24.739336    24.968457    22.941184    14170.839    9792.3372    7964.8887    8531.1796   -903.85167    -827.3943     1095.128   -6680.6603 
 9522000    213.50685   -9269.5972   -8455.6117   -9269.5972            0    9374.3204    24.877778    24.940422    22.839523    14171.062    9033.3838    8738.0368     10351.54   -827.54559    262.80915    519.58592   -6518.2171 
 9523000     212.9512   -9333.9878   -8522.1208   -9333.9878            0     8293.425     24.94923    24.862772    22.893123    14200.764    7842.1682    8147.7218    8890.3851   -583.23343    329.66932    300.03565   -6804.5227 
 9524000    222.60913   -9274.6615    -8425.974   -9274.6615            0     7718.129    24.960613    24.850299    22.951798    14236.511    7173.1006    8457.5173    7523.7692   -488.54282    64.614631    93.012873   -6823.4981 
 9525000    219.78078   -9306.1768   -8468.2722   -9306.1768            0    8741.8957    24.923527    24.859692    22.880896    14176.802    8378.2326    8781.2096     9066.245   -272.47356   -824.50029   -30.471617   -6660.8493 
 9526000    221.43401   -9291.6301   -8447.4227   -9291.6301            0    8318.9584    24.803311    24.954646    22.950403    14205.332    8795.6571    7491.6415    8669.5766   -17.508604   -232.16202      151.118   -6723.9824 
 9527000    215.52037   -9287.4413   -8465.7794   -9287.4413            0    8710.0112    24.913777    24.831886    22.947933    14196.878    9143.1273    8289.2767    8697.6297    142.58272   -38.223419   -1016.6614   -6662.3985 
 9528000    222.22999   -9347.0961    -8499.854   -9347.0961            0    7646.2203      24.9248    24.811935     23.00285     14225.71    5928.6438    9752.5227    7257.4944    657.35628     -847.915     13.91303   -6913.5126 
 9529000    209.93854   -9305.8245    -8505.443   -9305.8245            0    8043.4942    24.812043    24.994511    22.922954    14216.011    9033.6058    6132.9295    8963.9473   -373.92454   -657.62152    572.16549    -6837.818 
 9530000    223.15214   -9301.5834   -8450.8257   -9301.5834            0    8800.4958    24.933918    24.921647    22.867933    14210.003     9612.967    8065.6963    8722.8241    678.08458   -729.31693    299.74521   -6627.0257 
 9531000    219.64678   -9270.7624   -8433.3687   -9270.7624            0    9435.5645    24.984585    24.798208    22.891651    14183.047    8094.2198    11809.896    8402.5774   -963.75506   -837.07818    8.6529899   -6481.6675 
 9532000    213.82836   -9273.3391   -8458.1278   -9273.3391            0    7748.4132    25.015098    24.934644    22.863224    14260.766    6533.1639    8502.9833    8209.0923   -702.40101   -352.01497   -951.71163   -6846.6234 
 9533000     217.3568   -9294.7066   -8466.0434   -9294.7066            0    8554.5988    24.861737    24.968897    22.889098    14208.869    8115.4115    8929.5456    8618.8394    199.16113   -404.05741    207.30506   -6693.3441 
 9534000    213.00104   -9322.6658   -8510.6087   -9322.6658            0    8268.4542    24.827392    24.942916     22.90755    14185.903    8631.1907    8743.3891    7430.7829   -447.73324    -835.5656   -608.52929   -6799.9744 
 9535000    206.14885   -9320.4589   -8534.5255   -9320.4589            0    7259.8519    24.983009    24.908042    22.910292    14256.566     7268.738    7235.2481    7275.5697    -559.4192   -1119.2576   -104.37879    -7025.076 
 9536000    214.58294   -9305.3842   -8487.2962   -9305.3842            0    7781.9003    24.942828    24.891428    22.936535    14240.437     7196.574    8072.0213    8077.1057   -295.49296   -570.57226    754.80081   -6871.1343 
 9537000    216.22892   -9293.6736   -8469.3103   -9293.6736            0    9080.0582    24.713496    24.987924    22.950754    14172.985    11505.017    6939.5935    8795.5643    -489.5285    1099.4046    274.18756   -6592.4764 
 9538000    221.25064   -9305.6298   -8462.1214   -9305.6298            0    7927.5129    24.824158    24.982008    22.938727    14225.619    8881.7486    6590.5056    8310.2843   -124.94896    -416.1132    339.98184   -6817.4315 
 9539000    215.95216   -9319.0109   -8495.7028   -9319.0109            0    7757.7021    25.038604    24.862225    22.861527    14231.652     6786.425    8461.9288    8024.7525   -165.75256   -911.76477    1491.9222   -6885.5603 
 9540000    210.46414   -9302.8245   -8500.4392   -9302.8245            0    8648.3077    24.888707    24.944918    22.863541    14194.755    7875.1827    9220.4327    8849.3076    -261.6611   -356.53292   -105.87611   -6710.1016 
 9541000    212.34502   -9333.1939   -8523.6379   -9333.1939            0    8531.4206    24.793379    25.048319    22.862631    14198.436    8642.4072     7370.507    9581.3475    186.42188    278.75797    620.16905   -6757.0398 
 9542000    222.86026   -9338.3931   -8488.7482   -9338.3931            0    8414.0539    24.900884    24.886511    22.894626    14187.711    7234.2609     9434.572    8573.3289    122.28933   -1130.5009   -566.24632   -6747.7693 
 9543000    225.23698   -9331.6146   -8472.9085   -9331.6146            0    6446.5435     24.97151    24.888112    23.013117    14302.508    6610.7024    6460.1777    6268.7506    1339.7065   -364.29051   -360.48977   -7128.2406 
 9544000     216.2186   -9308.2713   -8483.9474   -9308.2713            0    9130.0792      24.9501    24.806828    22.911655    14180.776     8080.952    9767.2697    9542.0159    402.41088    708.07667   -494.27044   -6595.7368 
 9545000    206.35209    -9315.645   -8528.9367    -9315.645            0    9080.2262    24.864054    24.896367     22.88793    14168.192    10336.655    8212.0489    8691.9749    179.65285    43.262853    347.58594   -6652.7028 
 9546000    225.07997   -9304.4173   -8446.3098   -9304.4173            0    8082.0579    24.862056    24.982668    22.877953    14209.965    8007.8788    7364.3103    8873.9847    574.63576   -203.95575    472.52284   -6771.4022 
 9547000    220.56884   -9344.4214   -8503.5124   -9344.4214            0    7100.0751    25.030264    24.874541    22.839945    14220.523    6095.6882    7664.4054    7540.1316     -807.527   -202.67971    483.55802   -7031.0155 
 9548000    218.40829   -9325.8446   -8493.1726   -9325.8446            0    7644.7415    24.971127    24.876319    22.929884    14243.808    7229.1687    8124.9978    7580.0581    912.71104    342.84486    456.93662   -6905.1203 
 9549000    219.72771   -9297.0495   -8459.3473   -9297.0495            0    8710.7748    24.776372    24.922835    23.006661    14206.554    8607.7016     9018.318    8506.3049   -654.10731   -916.89453    174.33869   -6654.5792 
 9550000    214.97198   -9272.8539   -8453.2826   -9272.8539            0    8791.6325    24.774068    24.943009    23.035428    14234.508    9016.7788    8555.6959    8802.4228   -405.46944   -90.400724    195.30525   -6628.1776 
 9551000    216.78361   -9300.1342   -8473.6562   -9300.1342            0    7868.8493    24.890663    24.849137    23.024227    14240.749    7497.9013    9046.6733    7061.9732   -60.946725    633.42549    748.03289   -6839.4007 
 9552000    210.07114   -9284.7159   -8483.8289   -9284.7159            0    9616.3831     24.83796    24.792166    22.994357    14159.622    9636.4342    10214.114    8998.6013    287.69554   -403.60875    261.91958   -6498.0115 
 9553000    213.34216   -9300.8778   -8487.5202   -9300.8778            0    8122.6472    24.851598    24.909737    22.972278    14220.915    8105.1251     7984.847    8277.9696   -244.30358   -222.83229    242.10171   -6802.9039 
 9554000    215.11382   -9283.1738   -8463.0618   -9283.1738            0    8362.1132     24.74551    25.029176    22.974991    14229.784    10972.254    6963.3372    7150.7484     380.7188   -41.406548    1200.2537   -6727.6991 
 9555000    221.29791   -9299.4449   -8455.7563   -9299.4449            0    8580.6658    24.788328    25.005291    22.904492    14197.106    8516.4722    7806.5838    9418.9414    74.525457   -346.33573   -197.28543   -6679.1275 
 9556000    222.58535   -9302.9708   -8454.3739   -9302.9708            0    7548.3182    24.897605    24.976277    22.900644    14240.754    6774.9417    8044.2431    7825.7699    92.697017   -74.169242    805.72101    -6886.688 
 9557000    218.74949   -9303.9274   -8469.9545   -9303.9274            0    9507.2092    24.902002     24.88079    22.842877    14153.024    8938.9404    9740.6986    9841.9887   -264.19856   -753.63001    1643.4845   -6507.5968 
 9558000    213.16498    -9310.037   -8497.3549    -9310.037            0    8055.7362    25.064175    24.826472    22.855181    14221.752    7653.3442    9288.0117    7225.8528     213.5793   -420.96771   -63.120184   -6826.5173 
 9559000     214.7454   -9298.6389   -8479.9315   -9298.6389            0    8429.1266    24.914891    24.913983    22.881973    14203.508    9259.8389    6907.8527    9119.6883   -55.092392   -46.086167     241.3367    -6733.892 
 9560000    209.79018   -9319.4733   -8519.6575   -9319.4733            0    8177.0977    24.909236    25.044966    22.781262    14212.112    7353.4055    8652.0604    8525.8273    248.49382    79.752644   -237.78507    -6824.798 
 9561000    212.59639   -9305.3355   -8494.8211   -9305.3355            0    9261.8409    24.900444    24.908046     22.84652      14169.9    9125.7984    8028.1779    10631.546   -695.86467   -428.96856    575.38469   -6580.8296 
 9562000    221.58893   -9331.6053   -8486.8073   -9331.6053            0    7459.3339    24.917121    24.891962    22.963415    14242.738    7076.4569    8173.1842    7128.3607   -553.46581    273.31094   -1192.8892   -6937.3864 
 9563000    223.06203   -9284.0279   -8433.6137   -9284.0279            0    9270.1603    24.838197    24.842673    22.956083    14164.987    9480.7525    10127.678    8202.0508   -208.51745   -1095.1294   -1066.7415   -6518.5673 
 9564000    220.63433    -9304.686   -8463.5273    -9304.686            0    9941.2423    24.867371    24.783628    22.921833     14126.81    10441.895    9350.3141    10031.518    223.30858    421.62322    720.06335   -6415.3826 
 9565000    213.14676   -9336.3554   -8523.7427   -9336.3554            0    7765.0466    24.864579     24.80129    23.062589    14222.091    8341.3442    8106.4198    6847.3759    672.45745   -234.84309    223.80541   -6913.1587 
 9566000    227.71501   -9290.8722   -8422.7188   -9290.8722            0     8850.858    24.833321    24.876629    22.994614    14205.367     8814.604    8813.8438    8924.1264   -289.55683   -261.98066    18.665158   -6589.0802 
 9567000    215.91471   -9335.8153     -8512.65   -9335.8153            0    8067.2935    24.739705    24.910837    23.056538    14209.439    9257.5305    7328.0603    7616.2896     20.87175    625.21904    1096.0906    -6840.864 
 9568000    209.40165   -9312.7031   -8514.3685   -9312.7031            0    8420.4586    24.825708     24.84162    23.014133    14193.064    9560.8029    8133.4861    7567.0869   -30.171393   -149.80009    308.31796    -6771.407 
 9569000    211.87925   -9326.8716   -8519.0912   -9326.8716            0    8440.7339    24.872336    24.827874     23.01545    14212.667    8295.2159    9497.8679     7529.118   -38.274541   -649.41653   -399.29656   -6769.5198 
 9570000    216.54174   -9333.7631   -8508.2072   -9333.7631            0    7107.4264    24.938069    24.896999    22.933623    14239.098    5341.8384    7815.7631    8164.6777    415.12667    216.95235    1.3449737   -7032.2603 
 9571000    217.41942   -9299.7717   -8470.8697   -9299.7717            0     9261.149    24.934024    24.896243    22.835024     14175.15    8862.4719    9682.7727    9238.2023   -148.88053    567.25076    512.69107   -6556.3122 
 9572000    220.84593   -9298.1566   -8456.1912   -9298.1566            0    8392.8258    24.896738    24.948109    22.898944    14223.142    7669.7043    8297.5499    9211.2234     244.5796   -153.96303    182.60624   -6715.2679 
 9573000      214.075   -9349.0569   -8532.9054   -9349.0569            0    9441.1783    24.815828    24.943906     22.80921    14118.985     9580.871    8293.3427    10449.321    485.49508   -548.03429   -59.734662   -6588.8638 
 9574000    219.10955   -9303.7925    -8468.447   -9303.7925            0    7542.0155    24.997919    24.935128    22.862799    14250.984    7381.8486    6986.7746    8257.4233    265.34747   -691.53707    271.24604   -6900.9447 
 9575000    221.04207   -9278.3537   -8435.6405   -9278.3537            0    10321.341    24.921282    24.951598    22.693681    14111.517     9220.038    10451.611    11292.375    93.130912   -466.22891    1030.6675   -6311.4879 
 9576000    217.41215   -9319.3361   -8490.4618   -9319.3361            0    7425.3953    24.950286    24.938008    22.876468    14233.977    6976.9217    7628.1413    7671.1228    457.00146   -785.81627    443.15146   -6949.0393 
 9577000    215.00499   -9332.8958   -8513.1987   -9332.8958            0    10000.639     24.95048    24.856898    22.788678    14133.345    8354.5263     9849.771    11797.621   -958.21019   -539.47391    25.737948   -6451.8635 
 9578000    212.47666   -9263.7912   -8453.7333   -9263.7912            0    7870.1918    24.930197    24.917506    22.969961    14268.901     8346.354    7747.6729    7516.5485   -285.22004    -84.35485   -574.03146   -6815.9677 
 9579000    215.41365   -9300.9992   -8479.7441   -9300.9992            0    9535.9326    24.808793    24.730487    23.053276    14143.958    9520.0469     10121.64    8966.1108   -1086.2686    131.05224    332.96621   -6512.7184 
 9580000    209.01534   -9275.9209   -8479.0591   -9275.9209            0    8158.2458    24.830481    24.891981    23.043785    14242.899    7455.9892    9681.5594    7337.1888    345.63699   -75.677509   -838.19286    -6784.444 
 9581000    218.59044   -9290.4589   -8457.0925   -9290.4589            0    7945.0768    24.986714    24.900412    22.850137    14216.886    6703.9116    8788.7174    8342.6014    439.57015     616.0102   -12.200585   -6809.7706 
 9582000    217.12147   -9310.1451    -8482.379   -9310.1451            0    8914.7825    24.861498    24.943111    22.842036    14164.874    9035.8009    8230.8984    9477.6482   -70.687609   -924.00683    494.82903   -6640.7618 
 9583000    210.67628   -9340.7883   -8537.5943   -9340.7883            0    7106.7652    24.852529    25.023786    22.936741     14264.46    7188.9036    6324.7699    7806.6222   -120.86209   -692.14583   -792.15361    -7059.156 
 9584000    217.37176   -9266.5594   -8437.8391   -9266.5594            0    9701.9266    24.827534    24.905358    22.917869    14171.003    9858.1933    10042.153    9205.4338    281.89427   -372.38103    1267.9816   -6432.7463 
 9585000    205.47727   -9290.5749   -8507.2018   -9290.5749            0      7150.47    24.951797    24.971679    22.913396    14277.068    7362.1362    6865.1866     7224.087   -733.48091   -534.31542     640.7338   -7018.3568 
 9586000    216.44741   -9287.7473   -8462.5511   -9287.7473            0     10108.79    24.877282    24.922026    22.787569    14128.117    10682.143    9572.0877     10072.14    133.80515   -576.48244   -456.42234   -6379.6946 
 9587000    217.56544   -9320.1426   -8490.6839   -9320.1426            0    7380.7107    24.927205    25.001543    22.863125    14248.724    6219.4299      7229.39    8693.3122    265.01785   -532.15882   -426.07796   -6956.9499 
 9588000    223.04043    -9298.328   -8447.9962    -9298.328            0    8882.5418    24.936479    24.955774    22.800004    14188.651    8332.7933    7962.2501    10352.582   -466.60462   -277.74791    521.76824   -6609.9591 
 9589000    204.84734   -9315.2401   -8534.2686   -9315.2401            0    8392.3703    24.931243     24.89026    22.888463    14203.324    8618.3261    8705.5989    7853.1859   -125.56303    190.89879    341.57465   -6795.8654 
 9590000    214.43252   -9287.2547   -8469.7401   -9287.2547            0      8500.13    24.921542    24.860385      22.9439    14215.103    8679.2119    8035.7518    8785.4263    168.81952    475.50671    520.94897   -6707.5553 
 9591000    210.83625   -9327.4328   -8523.6288   -9327.4328            0    8262.9211    24.848943    24.898166     22.94068    14193.241    8852.2502    8263.3722    7673.1408    100.55331   -470.28714    877.86887   -6813.2549 
 9592000    219.01856   -9307.4632   -8472.4646   -9307.4632            0    7832.8032    24.788653    24.993586    22.950901    14219.399    9080.4893     7527.702    6890.2184    -44.56658   -225.47384    149.57257   -6848.1343 
 9593000    218.76626   -9302.1288    -8468.092   -9302.1288            0    8478.0285    24.863202    24.843979    22.989199    14200.448    9399.3794     7955.932     8078.774    114.40668   -125.40201    317.18383   -6712.3011 
 9594000    220.76219   -9329.5509   -8487.9048   -9329.5509            0    7928.5953    24.908866    24.816235    22.992975    14212.976    7201.5182    8791.2382    7793.0293   -186.98851    642.11652    1301.8528   -6844.4523 
 9595000    213.83747   -9354.0786   -8538.8326   -9354.0786            0    8410.5373    24.874428    24.796431    22.990854     14180.69     8578.468    8542.8621    8110.2816   -389.25116    994.65862   -264.93686   -6799.4425 
 9596000    217.72262   -9313.6001   -8483.5422   -9313.6001            0    7897.9118    24.854196    24.899604    23.013753    14242.283    7349.1238    8460.5067    7884.1049   -485.97201    322.21998    1340.2279   -6843.0742 
 9597000    218.43278   -9302.3531   -8469.5878   -9302.3531            0    8320.1445    24.865584    24.920127    22.934029    14211.151    7785.8768    8947.8422    8226.7147   -77.112279   -60.744438    495.72934   -6745.1956 
 9598000     206.8639   -9322.0074   -8533.3478   -9322.0074            0    8416.4322    24.980099    24.838395    22.896173    14206.287    6731.4806     9594.706    8923.1101   -953.32779    29.920075   -502.77904   -6789.5967 
 9599000    217.81111   -9294.3526   -8463.9573   -9294.3526            0    8441.1727    25.006715    24.895815    22.849645    14225.334    7145.7885    8454.1755     9723.554    627.57325    946.56555    -1714.866   -6712.7356 
 9600000    213.37865   -9331.7077    -8518.211   -9331.7077            0    8000.2055    24.884806    24.986859    22.869825      14220.3    7735.6434    8059.1801    8205.7931   -75.897789    24.020872   -74.796865   -6859.0605 
 9601000    213.65008    -9295.486   -8480.9545    -9295.486            0    11498.018    24.812685    24.942928    22.748633    14079.152    11111.586    10410.701    12971.766   -964.14785   -1613.8453      43.9185   -6120.0666 
 9602000    219.36874   -9289.5327    -8453.199   -9289.5327            0    8921.7613    24.899046    24.986082    22.832548    14204.805    9219.3453     8266.449    9279.4897    572.94912   -264.86113    509.23706   -6604.9445 
 9603000      219.689   -9309.6543   -8472.0996   -9309.6543            0    8084.8636    24.993597    24.831981    22.906104    14216.456    7824.3644    8692.9356    7737.2908    348.93734   -1035.7702    -547.1256   -6795.8452 
 9604000    208.71255   -9274.4323   -8478.7249   -9274.4323            0    9966.0448    24.923016    24.824409     22.89389     14164.43    9289.5571    10457.948    10150.629   -223.49312   -421.81958   -340.36268   -6420.0022 
 9605000     217.8866   -9306.3951    -8475.712   -9306.3951            0    6993.9068     24.84497    24.942397    23.031207     14272.28     7629.875    7345.2032    6006.6422      631.189    837.29256    34.348177   -7019.9543 
 9606000    215.40379   -9325.4259   -8504.2085   -9325.4259            0    9080.4522    24.752488    24.815599    23.094138    14185.524    9703.1184    9861.5795    7676.6587   -236.87247   -420.79937    104.00777   -6625.6325 
 9607000    212.30473   -9293.7548   -8484.3524   -9293.7548            0    8089.7349    24.846326    24.895478    22.994849    14223.721    8913.8238     8571.164    6784.2169    254.64458   -375.37038    78.248519   -6806.2309 
 9608000    219.10545   -9316.4674   -8481.1375   -9316.4674            0    9069.8923    24.755916    24.774799    23.126082    14183.754    9882.2659    10206.841    7120.5695   -194.47775    339.49961   -648.73604   -6604.9803 
 9609000    216.11465   -9321.0838   -8497.1562   -9321.0838            0    7045.8196    24.914688    24.838064    23.029924    14251.668    6779.7453    8033.7858    6323.9275   -70.536741   -489.88009    801.23623    -7032.711 
 9610000    214.43988   -9318.2513   -8500.7087   -9318.2513            0    9040.4868    24.907846    24.823513    22.918056     14170.24    9106.1919    8709.3411    9305.9274   -514.32675    819.86133   -1010.0776   -6632.4161 
 9611000    220.31329   -9314.5386   -8474.6038   -9314.5386            0       8150.7    24.955905    24.922202     22.82169    14194.089    6924.7906    7740.6714    9786.6379   -296.80506   -520.15702   -884.33726   -6787.3581 
 9612000    219.32338   -9308.8939   -8472.7331   -9308.8939            0    8679.7635    24.931009    24.966702    22.800463    14192.036    8659.7715    8065.3243    9314.1947    124.01534   -43.693774   -35.148954   -6676.2279 
 9613000    213.68512   -9294.2483   -8479.5832   -9294.2483            0    7785.2678    24.900257     24.97798     22.88214    14231.733    8211.2178    7252.7798    7891.8057   -269.32837   -766.29711    14.102519   -6863.7102 
 9614000     227.7519   -9292.0536   -8423.7594   -9292.0536            0    9308.7955    24.866992    25.005254    22.801366    14178.014    8032.8196    8468.1628    11425.404    212.91303    170.58041   -106.25069   -6498.9631 
 9615000    220.62071   -9281.9301   -8440.8233   -9281.9301            0    8173.8584    25.025686    24.821837    22.903039     14226.99     7867.213    8555.4151     8098.947   -803.46977   -558.83857    883.12506   -6744.8617 
 9616000     214.7823   -9321.4146   -8502.5665   -9321.4146            0     7783.772    24.877937    24.887063    22.963843    14217.806    8114.1534    7710.6486     7526.514   -119.85677   -18.070018     861.3121   -6888.5849 
 9617000    204.96739   -9317.8229   -8536.3937   -9317.8229            0    7348.9488     24.86722    24.816011    23.133197    14275.616    7161.3558    7988.7403    6896.7501    -1116.159     60.57909   -282.64547   -7006.3778 
 9618000    210.51148   -9329.4644   -8526.8987   -9329.4644            0    8435.8719    24.820684    24.884966    22.990144    14200.135    8795.7069    8454.8758    8057.0332    430.92193   -65.558095   -266.33814   -6779.8768 
 9619000    215.22329   -9303.6057   -8483.0764   -9303.6057            0    8783.0445    24.661658    25.084834    22.950632    14198.032    11009.483    6834.6216    8505.0294    208.05596   -435.27416    135.46868   -6664.4264 
 9620000    209.93364   -9290.4369   -8490.0741   -9290.4369            0    7696.8947    24.873429    25.019756    22.856207    14224.038    7785.9521    6963.3085    8341.4235    642.55445   -149.47008   -386.68675   -6893.4071 
 9621000    212.13718   -9309.5436   -8500.7799   -9309.5436            0    8794.1777    24.938529    24.833838    22.909088    14188.042    9243.5689    8206.3123     8932.652    372.42808   -147.87086   -159.29189   -6681.1059 
 9622000    222.48546   -9309.6635   -8461.4475   -9309.6635            0    7999.7798    24.874165    24.878896    23.012246    14240.939    7538.4649    7998.5644    8462.3102    496.78036   -516.28979    1166.7092   -6799.9773 
 9623000    214.78965   -9323.5326   -8504.6565   -9323.5326            0    8677.8212    24.746947    24.825365    23.098802    14190.795    9391.0049    9131.1731    7511.2854    253.18475   -522.96419   -533.85203   -6708.7103 
 9624000    222.88163   -9301.3414    -8451.615   -9301.3414            0    8869.1167    24.794318    24.917822    22.965884    14188.792    9472.5904    9278.3942    7856.3655   -303.75601   -253.41114    540.79107   -6616.3378 
 9625000    215.00665   -9265.4438   -8445.7404   -9265.4438            0    8176.6464    24.849957    24.897514    22.950445     14199.49    8644.9257     8967.291    6917.7226   -280.81498   -255.55003    -966.2113   -6752.4795 
 9626000    214.78706   -9307.6068   -8488.7406   -9307.6068            0    7921.5822    24.959488    24.875641    22.887984    14210.766    7197.5458    8218.5847    8348.6163   -638.62048   -337.10906   -352.65709   -6846.9971 
 9627000    218.91006   -9304.7735   -8470.1885   -9304.7735            0    8950.9913    24.982398    24.912071    22.746218     14156.41    7548.1752    9358.5522    9946.2465    733.97826   -635.13248    283.61247   -6622.1962 
 9628000    217.28535   -9324.8794   -8496.4885   -9324.8794            0    8084.9323    24.968659    24.970622    22.791691    14210.231     7316.121    7911.9937    9026.6822   -333.68217    -881.6431    638.43647   -6820.9539 
 9629000    219.54487    -9313.731   -8476.7258    -9313.731            0    7996.4978    24.901491     25.02386    22.856847    14242.819    8685.2052    6708.9801     8595.308   -333.25197    1011.8803   -640.92694    -6815.718 
 9630000    207.53396   -9298.1502   -8506.9361   -9298.1502            0    9670.2515    24.886576    24.828641     22.88712    14141.948    9661.7691    9763.4986     9585.487   -192.21303    308.12111    488.21185   -6512.4873 
 9631000     217.0074   -9343.9399   -8516.6087   -9343.9399            0    8120.0535    24.831791    24.811345    23.058719     14206.71    8349.1142    8384.6698    7626.3765    299.13454   -509.75697   -895.32346   -6834.2124 
 9632000    217.11824   -9306.4501   -8478.6964   -9306.4501            0    8619.2326    24.839395    24.906393    22.933518    14188.044    8952.2889     9179.672    7725.7369   -220.81269   -1042.1619    1039.3724   -6695.2214 
 9633000    213.16845   -9299.4614   -8486.7661   -9299.4614            0    8953.6744    24.819573    24.733804    23.114851    14189.801    8365.7947    11219.441    7275.7875    181.48531   -355.95058   -626.83706   -6633.8596 
 9634000    215.53291   -9342.0914   -8520.3816   -9342.0914            0     8704.027    24.864879     24.81169    23.010655    14196.186    8380.2775     8946.669    8785.1346    571.78327    368.22533   -811.06528   -6718.3276 
 9635000    211.94469   -9346.2676   -8538.2378   -9346.2676            0    7069.6997    24.926056    24.782775    23.048922    14238.168    6653.9279    8204.3523    6350.8188    -186.1506   -493.54127   -262.85608   -7070.2211 
 9636000    222.42616   -9318.5819   -8470.5919   -9318.5819            0    8930.8494    24.811255    24.916506    22.875557    14141.893    9137.2776    9313.3629    8341.9079    242.82018   -919.72683    614.87234   -6628.6489 
 9637000    215.61216   -9333.9894   -8511.9775   -9333.9894            0    7170.8262    24.870782    24.952493    23.012452    14281.252    6803.3658     7363.847     7345.266   -1105.9141    1339.9164   -714.08543   -7018.4564 
 9638000    224.01649   -9326.9277   -8472.8747   -9326.9277            0    8550.8529     24.92996     24.84928    22.873823    14170.141    6782.9999    10471.942    8397.6171   -13.696838   -89.199788    1208.3374   -6705.7814 
 9639000    210.29085   -9320.8414   -8519.1168   -9320.8414            0    8321.6209    24.953423    24.925623    22.804245    14183.775    7198.5837     9580.747    8185.5318   -1131.4128   -114.49334    259.88401   -6797.7411 
 9640000    214.31066   -9289.1986   -8472.1486   -9289.1986            0    9413.9526    24.827262    24.940429    22.868522    14160.247    9460.3886    8168.1857    10613.284   -666.30047    616.66399    557.22728    -6528.048 
 9641000    215.56531   -9345.0376   -8523.2043   -9345.0376            0    7310.8356    24.853988     24.99262    22.916311     14234.84    7474.9163    6996.1275    7461.4632   -678.20344   -680.31327    258.28905   -7005.4709 
 9642000    215.00821    -9336.922   -8517.2127    -9336.922            0    7692.2577    24.903142    24.865862    22.981154    14230.806    6962.1319     8482.361    7632.2804    548.35045    368.85982    401.93468   -6920.7483 
 9643000    215.20419    -9289.216   -8468.7595    -9289.216            0    9667.7234    24.803475    24.793426    22.999908    14144.095    9392.6231    10741.005    8869.5415   -371.39289    788.22523    945.44313   -6474.5294 
 9644000    220.29114   -9334.5907   -8494.7404   -9334.5907            0    8366.7542    24.776531    24.819463    23.090254    14199.126    8542.9888    9238.1108     7319.163   -388.94154    622.17239   -865.39434   -6762.1556 
 9645000    228.30647   -9307.1199   -8436.7115   -9307.1199            0    7882.4032    24.785695    24.941629     23.02067    14231.277     9366.956    8202.7057    6077.5481   -346.47606   -1049.0798   -11.193907     -6800.73 
 9646000    212.99926   -9300.7447   -8488.6944   -9300.7447            0     9052.163    24.833937     24.89024    22.944858    14182.736    9399.8075    8248.7227     9507.959    466.88115    357.25026   -151.33317    -6616.339 
 9647000    216.08354   -9318.4059   -8494.5969   -9318.4059            0    9022.3029    24.894847    24.867915    22.873926    14160.857    8810.4457     9100.384     9156.079    215.03013   -656.71654    934.30229   -6631.2966 
 9648000    210.44188    -9326.817   -8524.5166    -9326.817            0    7924.1369    24.982534    24.993954    22.766511     14215.69    7326.9613     7045.633    9399.8165   -761.21543     473.3683   -616.98288   -6881.6745 
 9649000    216.44744   -9307.3107   -8482.1144   -9307.3107            0    7898.8876    24.923507    24.966132    22.865234    14227.745    8553.5621    6709.7681    8433.3327    794.09229   -411.41175     970.7258   -6843.1183 
 9650000    209.86127   -9307.8737   -8507.7868   -9307.8737            0    8351.7063    24.844385    24.974292     22.89258    14204.181    8063.1506    8298.3274    8693.6408    689.63389    186.36429   -222.38731   -6777.7024 
 9651000    218.37654   -9322.8769   -8490.3259   -9322.8769            0    6609.3449    24.831946    24.946478    23.088382    14302.551     5908.859    7040.9389     6878.237   -882.98988   -867.29305    1068.2538   -7111.6957 
 9652000    212.30289   -9311.1548   -8501.7594   -9311.1548            0    8702.1952    24.856506    24.881811    22.919736    14175.281    8379.6656    9464.4273    8262.4928    85.102512    239.36948   -407.33253   -6702.7378 
 9653000    216.91105   -9301.6069    -8474.643   -9301.6069            0    7065.5642    24.864145    24.936045    23.050831    14291.826    7591.1762    7412.4332    6193.0831    85.236514    43.120891   -676.61166   -7001.9561 
 9654000    209.21199   -9318.5607   -8520.9491   -9318.5607            0    7753.2906    24.809699     24.92321    23.011877    14229.103    7933.6046    8271.5774      7054.69   -989.02193    -95.64268   -469.50475   -6912.0106 
 9655000    213.37632   -9298.5634   -8485.0755   -9298.5634            0    8849.0575    24.693018    24.901179    23.073003    14187.249     9633.147     8962.357    7951.6687   -1036.1296    -664.7907    271.43494   -6654.1482 
 9656000    204.26285   -9343.0683   -8564.3252   -9343.0683            0    8920.2945    24.785728    24.860325    22.985113    14162.996     8773.102    10004.166    7983.6151   -647.84913   -454.79869     121.0543   -6721.8137 
 9657000    213.38335   -9318.6536    -8505.139   -9318.6536            0    7359.7935    24.934374    24.881617    22.945008    14235.256    7142.5559    7459.8614    7476.9633   -49.255827   -471.38074    917.17185   -6977.1972 
 9658000    219.99422    -9317.264   -8478.5457    -9317.264            0    8665.2942    24.897071    24.847161    22.943524    14193.358    8663.3187    8896.0368     8436.527    438.93292   -26.931797    43.106209   -6684.8682 
 9659000    220.65434   -9314.7192   -8473.4842   -9314.7192            0    7148.7835    24.951386    24.990655    22.876406    14264.616    6878.7211    7060.4002    7507.2291    348.94217    91.860993   -393.92812   -6986.2885 
 9660000    213.82784   -9298.3951   -8483.1858   -9298.3951            0     9491.813    24.908755    24.900724    22.775305    14126.292    9425.1085    9068.4056    9981.9249    228.76851    1784.3597   -102.76475   -6527.7064 
 9661000    207.64171   -9323.1356   -8531.5108   -9323.1356            0    8345.0777    24.868712    24.923403    22.886627    14185.427    8107.5623    8500.3143    8427.3566   -33.413883   -121.31765    296.61291   -6805.0819 
 9662000    215.57277   -9313.3539   -8491.4921   -9313.3539            0     8494.524    24.732986    25.042487    22.902984    14185.547    9516.8089    7855.4253    8111.3379    192.97004   -921.19417    -463.2689    -6734.131 
 9663000    216.18698   -9296.9239   -8472.7205   -9296.9239            0    7859.2613    24.844518    24.860262    23.035041    14227.391    7464.3651     9363.371    6750.0476   -48.665181   -214.33828    -788.1807   -6841.9874 
 9664000    210.55713   -9312.7141   -8509.9743   -9312.7141            0    8343.0084      24.8593    24.829522    23.032323    14216.575    8019.3959     9090.163    7919.4663   -477.89205    271.83534   -325.33497   -6780.1836 
 9665000    210.54748   -9292.1372   -8489.4342   -9292.1372            0    9350.8314    24.766671    24.854864    23.031535    14177.574    9071.8959    9483.6096    9496.9886   -1192.7662   -1677.2101   -885.91446   -6556.0061 
 9666000    213.78403   -9275.1704   -8460.1282   -9275.1704            0    7668.1986     24.99445    24.872807    22.933396    14257.283    7021.6526    8154.1666    7828.7765    352.96154   -334.99274    462.42961   -6865.6962 
 9667000    206.31525   -9317.8001   -8531.2322   -9317.8001            0    8324.0384    24.889203    24.980584    22.819367     14187.87    7425.4191    8728.8376    8817.8584   0.69809443    341.61801   -35.721383   -6808.8595 
 9668000    217.92676   -9272.9302   -8442.0941   -9272.9302            0    8415.9135    24.849785    25.039316    22.865366    14227.325    9185.9455    7207.6577    8854.1372    778.06639   -684.24871    1212.8729   -6695.8682 
 9669000     217.4427   -9301.3756   -8472.3848   -9301.3756            0    8823.6503    24.987931    24.844874    22.842591    14181.183    7973.0129     8735.647    9762.2912    314.96451   -1065.5698    1327.8793    -6647.495 
 9670000    212.83521    -9308.804   -8497.3792    -9308.804            0    8361.1365    24.833238    24.878426    22.971156    14191.853    9795.8355    7789.2774    7498.2967    143.67817    1045.5735   -268.03483   -6766.8444 
 9671000    219.44815   -9336.9502   -8500.3137   -9336.9502            0    7182.3862    24.747562    24.926346    23.108804    14255.043    7092.1087    8529.1699    5925.8801   -391.34612    250.12967    459.64506   -7007.1303 
 9672000    213.53026   -9309.5223   -8495.4476   -9309.5223            0    9332.6672    24.825126    24.825264    22.970026    14156.204    10261.217    8824.5657    8912.2193    199.61579    -413.7988    1034.4852   -6568.6837 
 9673000    209.18945   -9301.9646    -8504.439   -9301.9646            0    7451.1768    24.884672    24.899507    23.065751     14291.91     7912.588    7970.8654    6470.0772    203.67121    369.05665   -314.12403    -6951.369 
 9674000    214.10113   -9312.1085   -8495.8574   -9312.1085            0    9558.4033    24.752108    24.903435    22.906774    14120.022    9776.4066    8745.2562    10153.547   -800.01362   -77.724378    157.12018   -6527.5333 
 9675000     217.0256    -9325.796   -8498.3954    -9325.796            0    7684.5354    24.916153     24.88919    22.989528    14256.792    6488.9324    8266.5183    8298.1557    475.85564    223.98325   -527.56259   -6900.6215 
 9676000    216.68529   -9334.6042    -8508.501   -9334.6042            0    7635.1923     24.85762    24.766694    23.115264    14230.706    6795.1901    9564.4102    6545.9765   -16.411076    1073.6431    617.54892   -6923.8913 
 9677000    211.85375   -9281.1724   -8473.4893   -9281.1724            0    8042.2495    24.859173    24.884115    23.005278    14231.031    9210.1029     7319.571    7597.0745    12.436866   -1352.0502    938.47048   -6804.3608 
 9678000    210.73177   -9289.1432   -8485.7376   -9289.1432            0    9319.8974    24.731509     24.95093    22.978541    14179.464    10355.858    9078.6066    8525.2281    1073.7107   -557.52922    10.174639   -6558.4487 
 9679000    214.83446   -9318.2996   -8499.2526   -9318.2996            0    7096.9399    24.832094    25.010737    22.976274    14269.851    7028.0739    7293.7059    6969.0399    51.666394     356.7698    355.17129   -7022.3004 
 9680000    212.58763   -9327.2974   -8516.8165   -9327.2974            0    7960.5804    24.885777    24.837618    22.994995    14213.286    7906.7934    8703.2557    7271.6921     210.5963    589.90332   -123.44032    -6866.698 
 9681000    213.80432   -9296.8978   -8481.7782   -9296.8978            0    9698.5106    24.888594    24.820935    22.859612    14121.712    9665.1397    9710.7479    9719.6442    131.51778   -973.27812   -1046.8336   -6484.3633 
 9682000    212.24458   -9266.8981    -8457.725   -9266.8981            0    8869.0628    24.912361    24.946544    22.854376    14203.476    8053.8788    8582.7376    9970.5718    310.94329   -1276.8543     121.9834   -6620.5596 
 9683000    220.18255   -9321.6158   -8482.1795   -9321.6158            0    8451.6353    24.923451    24.960602    22.818957    14195.773    7922.5785    8089.9364    9342.3911   -361.47322    677.35465   -814.10798   -6732.4308 
 9684000    217.09708   -9305.9009   -8478.2278   -9305.9009            0    8592.5844    24.867927    24.882437    22.905059     14173.07    8958.1714    7752.2015    9067.3803     370.3881    -392.1898    -905.5265   -6702.1434 
 9685000    214.55818   -9263.5876    -8445.594   -9263.5876            0    7198.9288    24.966133    24.858108    23.010117    14280.328    7129.0723    7282.2856    7185.4285   -433.29912    510.32403     598.2564   -6946.3168 
 9686000    214.46232   -9264.3125   -8446.6844   -9264.3125            0    8840.4371    24.942554    24.884545     22.90477    14216.626    8408.6407    8858.7066    9253.9639      571.952   -569.94623     -88.9339   -6613.7531 
 9687000    211.84766   -9328.7823   -8521.1224   -9328.7823            0    7952.1587    24.801318    24.963264     22.95942    14214.678    7839.8323    7413.2046    8603.4393    630.61536    -57.89172    209.36075   -6872.5882 
 9688000    218.03842   -9289.2714   -8458.0095   -9289.2714            0    8746.8299    24.765079     24.97806    22.925363    14181.255    9667.7141    8064.3678    8508.4078   -787.18076     -1321.43   -650.36886   -6648.9984 
 9689000    209.78867   -9330.6539   -8530.8439   -9330.6539            0    8135.6797    24.844423    24.962197    22.919961    14214.304     8051.635    8450.5596    7904.8446    365.42679    628.83865    464.18727   -6844.3089 
 9690000    223.46865   -9293.3855   -8441.4211   -9293.3855            0    8777.5619    24.943102    24.716303    23.015254    14188.933    8767.1333    10602.197     6963.356   -507.51287   -524.07626   -591.90592   -6625.0712 
 9691000    211.67486   -9290.9586   -8483.9575   -9290.9586            0    7490.5934    24.926335    24.881929    23.001618    14265.955    7743.8833    8138.2739     6589.623    269.43563   -13.399719    204.21483   -6925.5072 
 9692000    211.87904   -9266.1768   -8458.3973   -9266.1768            0    9828.3067    24.789533    24.913265    22.915264    14152.197    10520.331    9319.8948    9644.6946   -433.14921   -94.461465    1056.8959   -6429.8813 
 9693000    210.37481   -9294.6113   -8492.5666   -9294.6113            0    8266.2546    24.892272    24.934278    22.913977    14222.038    7836.3893    7531.4218    9430.9526   -206.83949   -511.44448    814.30477   -6778.0311 
 9694000    212.97107   -9314.9226   -8502.9797   -9314.9226            0    7142.5043    24.917015    24.925447    22.992233    14279.734    7917.3865    5983.6634    7526.4631    150.95048   -1426.0432    252.93793   -7015.5155 
 9695000    213.06779   -9280.9645   -8468.6529   -9280.9645            0    9554.1877    24.943855     24.75644    22.908194    14146.292    8669.1808     10705.19     9288.192   -266.01932    506.68653   -633.88614   -6497.5364 
 9696000    219.00545   -9307.1091   -8472.1604   -9307.1091            0    8417.6868      24.8409    24.897079    22.957436     14198.39     9600.028    8135.8989    7517.1336    164.31896   -172.80585   -714.10303   -6729.1188 
 9697000    214.29841   -9300.3178   -8483.3145   -9300.3178            0    8982.2911    24.769543    24.977436    22.914716    14176.869    10412.509    7372.0764    9162.2874    816.70283    157.25568    704.56962   -6626.1801 
 9698000      220.844   -9308.5976   -8466.6395   -9308.5976            0    8333.9487    24.914549    24.793103    22.997425    14205.716     8717.016    8660.8226    7624.0076   -102.29431    708.79421    172.77212   -6740.0471 
 9699000    216.52485   -9283.9829   -8458.4915   -9283.9829            0    8566.6922    24.924768    24.810543    22.968746    14203.804     8006.117    9084.9952    8608.9645   -850.94066   -1168.9154   -130.82816    -6683.919 
 9700000    211.00692   -9299.6035   -8495.1489   -9299.6035            0    7342.5531     24.91547    24.956439    22.928781    14257.148    7479.7109     7270.114    7277.8342    180.25125    718.83585    624.56468   -6968.4421 
 9701000    221.62739   -9300.0091   -8455.0644   -9300.0091            0    9138.7021    24.716387    25.025553    22.949909    14195.466    9877.2461      7700.59    9838.2703     351.9647    154.77645    854.99924   -6563.1127 
 9702000    216.86701   -9328.0468   -8501.2509   -9328.0468            0    7483.4261    24.855396    24.970648     22.94066    14238.243    7874.9369    7033.8058    7541.5356    74.881361    22.581568    46.720825   -6947.3162 
 9703000    214.80838   -9347.7856    -8528.838   -9347.7856            0    8923.7042    24.929022    24.915063    22.776255    14146.518    7819.2103    9378.3226    9573.5795   -273.25096   -1562.0021   -76.017361   -6687.7668 
 9704000    213.75163   -9280.0243   -8465.1056   -9280.0243            0    9092.4144    24.994489    24.875807    22.827412    14193.128    7576.5476     9608.029    10092.667   -4.5776157   -867.31274   -220.66728   -6583.0466 
 9705000    210.02799   -9321.8977   -8521.1752   -9321.8977            0    7245.9623    24.928871    24.995693    22.855863    14241.817    6656.9605    7486.5103     7594.416    473.93852   -493.11153    443.34508   -7016.1722 
 9706000    207.85023   -9338.2171   -8545.7972   -9338.2171            0    9348.4573    24.762387    24.903441    22.931345    14141.041     10022.02    9092.4299    8930.9217    1115.8686   -445.39577    201.28799   -6617.8407 
 9707000    211.29202   -9299.1081   -8493.5666   -9299.1081            0    7565.1482    24.882095    24.964038    22.919726    14236.762    8723.1365    6913.7114    7058.5967   -149.39964    438.10091    631.20461   -6922.8258 
 9708000     212.5659   -9295.4971   -8485.0989   -9295.4971            0    7610.6728    24.846219    24.901346    23.083887    14282.099    7146.8118    8358.2677    7326.9389    154.10834    110.83854     1218.034   -6899.8737 
 9709000    215.61019   -9276.2728   -8454.2684   -9276.2728            0    8875.7688    24.846795    24.824924    23.016748    14197.186    9215.8523    9271.6297    8139.8244    341.50471   -1358.6646    702.43273   -6616.5281 
 9710000    216.06941   -9301.2943   -8477.5392   -9301.2943            0    8339.4931    24.800662    24.974948    22.973667     14229.78     10396.12    7597.6192    7024.7398    65.584623    526.82453    569.97202   -6746.8713 
 9711000    222.50277   -9307.4129   -8459.1308   -9307.4129            0    8419.3075     24.75474     24.99964    22.952816     14204.57    9832.6983    6628.9061    8796.3179   -383.01787   -773.84423   -773.48868   -6714.9948 
 9712000     221.7253   -9345.1111   -8499.7931   -9345.1111            0    7867.3907    24.959802    24.844159    22.914961    14209.689    7708.7292    7950.8793    7942.5636    310.23277   -469.01182   -467.33125   -6869.4044 
 9713000    209.96731   -9293.1384   -8492.6473   -9293.1384            0    8924.7327    24.949002    24.985024    22.742386    14176.498    8220.0282    9352.9171     9201.253     707.2984   -535.80844   -851.42345   -6647.4616 
 9714000     211.9715   -9278.3396   -8470.2076   -9278.3396            0    8301.4763    24.924036    24.951041    22.827063    14195.709    7944.2536    8516.4616    8443.7137    205.20131   -237.50117    825.07254   -6751.5542 
 9715000    211.81207   -9314.5704   -8507.0462   -9314.5704            0    7764.0906     24.93106    24.913439    22.905452    14226.998    6895.7346    9016.3305    7380.2066   -496.28713   -591.55161    806.24828   -6896.1047 
 9716000    220.18883   -9342.1022   -8502.6419   -9342.1022            0    8981.8399    24.769477    24.777196    23.074859    14161.461     10670.28    8460.5961    7814.6432   -776.87885    774.47079    262.32417   -6647.6192 
 9717000    219.31827    -9306.185   -8470.0438    -9306.185            0     8335.254    24.797095    24.832503    23.055001    14196.669    9496.7125    7655.1266    7853.9228   -225.33705    134.55732    831.84053   -6744.2807 
 9718000    214.73892   -9298.0893   -8479.4066   -9298.0893            0    8780.3711    24.821426    24.849067    23.036473    14208.649    9352.9316    9083.1242    7905.0577    212.04654    860.16337    211.28622   -6659.9506 
 9719000    206.72096   -9305.2549   -8517.1403   -9305.2549            0    8351.3444    24.880476    24.915221    22.905888    14199.419    8736.2542    8700.9087    7616.8703    192.72377   -973.91409    300.05169   -6787.7108 
 9720000    221.81878   -9339.3275   -8493.6531   -9339.3275            0    7608.4447    25.016553    24.872563    22.842321    14213.081    6697.8409    7753.6421    8373.8512   -518.62732   -527.00982      290.237   -6916.5502 
 9721000    210.85698     -9300.98   -8497.0971     -9300.98            0    8492.0575    24.847066     24.99886    22.866663    14203.589    8168.2599    8287.6123    9020.3004   -304.05854   -173.78204   -391.08451   -6738.0117 
 9722000    208.77606   -9303.7586   -8507.8091   -9303.7586            0    9328.6502    24.849977    24.837514    22.933548    14154.854     8862.314    9242.3923    9881.2443   -196.80824     231.1822    334.66924   -6582.0583 
 9723000    215.98671   -9313.2893   -8489.8495   -9313.2893            0    8004.1496    24.803897    24.875984    23.065848    14232.121    8485.9293    8648.7326    6877.7869   -811.70897    -143.6562    389.67026   -6828.5011 
 9724000    218.38041   -9263.8218   -8431.2561   -9263.8218            0    9045.0145    24.749882    24.859949    23.068006    14193.301    10600.339     8853.233    7681.4715    1179.2758    -841.7642    -937.8458   -6558.9857 
 9725000    213.28322   -9306.0153   -8492.8824   -9306.0153            0     8915.682    24.887533    24.788961    23.005332     14192.82    8896.0934    9546.4276    8304.5251   -1372.0768   -298.33707    37.513474   -6647.4457 
 9726000    215.91345   -9319.7854   -8496.6248   -9319.7854            0    8253.6294    24.860683    24.896355    22.929864    14192.219    7974.8482    8892.8737    7893.1663    -130.9499    1164.1729   -641.53745   -6788.2972 
 9727000    216.97185   -9287.4299   -8460.2343   -9287.4299            0    7855.3142    24.872786    24.956264    22.947651    14244.337     8385.653    7666.2967    7513.9931    160.72746    590.78726   -997.27714   -6828.3788 
 9728000    215.76668   -9291.6066   -8469.0056   -9291.6066            0    8274.4355    24.924182     24.91616    22.912179    14228.805    8853.0747    7245.1046    8725.1273    502.22373    144.81447    250.41551   -6751.9566 
 9729000    217.06177   -9326.5057   -8498.9672   -9326.5057            0     8943.286     24.79195    24.901879    22.948434    14167.586    10934.125    7780.3031    8115.4298      258.399    332.55777   -610.78577   -6651.1081 
 9730000    215.39945   -9300.2433   -8479.0424   -9300.2433            0    7526.7048    24.794848    24.837914    23.137164    14249.076    8143.2129    8064.2627    6372.6388   -604.83847    289.70431    51.127344   -6914.9317 
 9731000    209.59135   -9258.0682   -8459.0104   -9258.0682            0     7478.827    24.911241     24.86569    23.045008    14274.889    7659.4733    7187.9933    7589.0144   -270.39084   -228.94494    24.147588   -6902.0336 
 9732000    214.18826   -9284.1904   -8467.6071   -9284.1904            0    8275.5336    24.850344     24.92141    22.931518    14201.618    9176.9045    7435.2411    8214.4553   -1132.4389   -506.12797   -162.94609   -6753.6114 
 9733000    219.83839    -9298.286   -8460.1618    -9298.286            0    7929.3611    24.942152    24.972427    22.875684    14248.487    7994.2474    7908.9617    7884.8742   -89.715356   -411.65728    906.40641    -6812.444 
 9734000    212.03697   -9271.2934   -8462.9118   -9271.2934            0    8787.6601    24.917048    24.994121    22.809816    14205.491    7326.4293    8595.0306    10441.521    203.85146    128.62885    597.91959   -6642.3502 
 9735000    213.82943    -9317.154   -8501.9387    -9317.154            0    9342.5793    24.884349    24.846932    22.833765    14118.111    9233.5293     9791.275    9002.9338   -90.577301    1242.1646     461.9635   -6578.3188 
 9736000    214.70095   -9292.5935   -8474.0555   -9292.5935            0     7837.163    24.982835    24.913228    22.859515    14227.832    6163.6426    8654.9959    8692.8505   -974.94933    57.733198    38.215139   -6847.8572 
 9737000    216.95664   -9320.4796   -8493.3419   -9320.4796            0    8879.3121      24.8721    24.944159    22.841204    14170.994    9194.7081    7676.0163     9767.212   -398.14807   -48.376119     776.4667   -6658.2597 
 9738000    223.25214   -9290.2274   -8439.0884   -9290.2274            0    8195.1123      24.8337    24.931012     23.02144    14253.248    8377.5479     8338.195    7869.5941     283.2549   -377.50332     990.0001   -6735.5786 
 9739000    217.63902   -9302.8212    -8473.082   -9302.8212            0     8644.257    24.783284    24.881276    23.067111    14224.097    9469.5846    8490.7678    7972.4185      392.789    301.33644   -183.10392   -6679.8839 
 9740000    223.98901   -9304.4993    -8450.551   -9304.4993            0    9124.8447    24.812668    24.795381    23.023855    14165.186    9487.4935    10806.394     7080.647    272.74841   -778.31521    274.74811   -6565.4976 
 9741000    216.19832   -9294.7434   -8470.4968   -9294.7434            0     8525.898    24.885428    24.843642    22.994468    14216.207    9336.9873    7950.9672    8289.7393   -1361.0402   -634.31855    1039.5342   -6702.8326 
 9742000    226.18669   -9306.8426   -8444.5158   -9306.8426            0    10038.822    24.777737    24.831511    22.959563    14126.299    10812.619    10064.503    9239.3439   -9.2413368    140.98132     -443.037    -6376.342 
 9743000    208.69987   -9285.9173   -8490.2582   -9285.9173            0    8662.2243     24.85623    24.873317    23.000081    14219.958    8306.6146    9312.3216    8367.7368    255.69722   -271.44353    209.18663   -6693.8557 
 9744000    208.30539   -9305.8513   -8511.6961   -9305.8513            0    7868.4731    24.971906    24.964631    22.812063    14221.369    8182.7199    7437.8752    7984.8242   -13.566649    562.66228   -629.21631   -6879.7427 
 9745000    221.34156   -9323.6788   -8479.8238   -9323.6788            0    8355.6274    24.877132    24.980478    22.825598      14184.8    8081.2934    8264.4587    8721.1302    347.16501    252.48684   -1691.6946   -6751.2889 
 9746000    218.57849   -9333.8977   -8500.5768   -9333.8977            0     7790.186    25.032284    24.885698     22.81432    14212.086    7269.6992    7446.5569    8654.3018   -811.80115   -42.882537    212.81206    -6885.915 
 9747000    214.67982   -9264.7869   -8446.3296   -9264.7869            0    8398.0357    24.949615    24.925278    22.897569    14239.451    8713.7775    7147.8118    9332.5178   -375.97136    150.12032    196.81471   -6702.3281 
 9748000    209.19762   -9309.5466   -8511.9899   -9309.5466            0    8674.4754    24.889314    24.964191    22.850527    14197.982    8329.1132    8600.0095    9094.3035   -170.14102    453.54963    595.81126   -6715.8269 
 9749000    208.52546   -9332.7708   -8537.7766   -9332.7708            0    9571.9882    24.866412    24.878098    22.835526    14126.719     8823.432    10024.629    9867.9034    809.81595   -582.77236    474.87589   -6565.7201 
 9750000    217.17008   -9290.7758   -8462.8244   -9290.7758            0    7415.0824    25.015108    24.843313    22.928042    14248.819    6692.8836    8566.2336    6986.1301    -648.8413     379.2644     93.74517   -6921.9376 
Loop time of 510.991 on 64 procs for 250000 steps with 1920 atoms

Performance: 84.542 ns/day, 0.284 hours/ns, 489.245 timesteps/s
385.2% CPU use with 16 MPI tasks x 4 OpenMP threads

MPI task timing breakdown:
Section |  min time  |  avg time  |  max time  |%varavg| %total
---------------------------------------------------------------
Pair    | 75.171     | 77.115     | 81.074     |  16.0 | 15.09
Bond    | 1.5691     | 1.7595     | 2.3831     |  13.8 |  0.34
Kspace  | 248.93     | 254.94     | 258.31     |  13.4 | 49.89
Neigh   | 2.9563     | 3.038      | 3.1082     |   2.4 |  0.59
Comm    | 65.692     | 69.617     | 73.988     |  23.1 | 13.62
Output  | 0.5172     | 0.51741    | 0.51881    |   0.1 |  0.10
Modify  | 73.651     | 85.786     | 89.545     |  44.2 | 16.79
Other   |            | 18.22      |            |       |  3.57

Nlocal:        120.000 ave         123 max         116 min
Histogram: 2 0 1 0 4 1 0 3 4 1
Nghost:        4104.81 ave        4145 max        4069 min
Histogram: 1 1 1 5 1 3 2 0 1 1
Neighs:        42641.4 ave       43806 max       40910 min
Histogram: 2 0 0 1 3 2 0 1 4 3

Total # of neighbors = 682262
Ave neighs/atom = 355.34479
Ave special neighs/atom = 2.0000000
Neighbor list builds = 6405
Dangerous builds = 0

unfix		3
unfix		2
unfix		1

write_data	data.final.${pid}
write_data	data.final.0
System init for write_data ...
PPPM initialization ...
  extracting TIP4P info from pair style
  using 12-bit tables for long-range coulomb (../kspace.cpp:340)
  G vector (1/distance) = 0.37450904
  grid = 30 30 30
  stencil order = 5
  estimated absolute RMS force accuracy = 0.0032661119
  estimated relative force accuracy = 9.8357989e-06
  using double precision FFTW3
  3d grid and FFT values/proc = 7920 1800
Last active /omp style is kspace_style pppm/tip4p/omp
WARNING: Not all mixed pair coeffs generated from mixing. Use write_data with 'pair ij' option to store all pair coeffs. (../write_data.cpp:312)

write_restart   restart.lmp.${pid}
write_restart   restart.lmp.0
System init for write_restart ...
PPPM initialization ...
  extracting TIP4P info from pair style
  using 12-bit tables for long-range coulomb (../kspace.cpp:340)
  G vector (1/distance) = 0.37450904
  grid = 30 30 30
  stencil order = 5
  estimated absolute RMS force accuracy = 0.0032661119
  estimated relative force accuracy = 9.8357989e-06
  using double precision FFTW3
  3d grid and FFT values/proc = 7920 1800
Last active /omp style is kspace_style pppm/tip4p/omp
Total wall time: 0:08:31
