#include		in.partitions
include		in.temp
variable        temperature equal 192.00
variable	tempDamp equal 100.0
include		in.pressure
variable        pressure equal 3767.8
variable        pressureDamp equal 1000.0 # This is 1 ps
include		in.seed
variable        seed equal 745823

units		real
atom_style	full
read_restart	restart.lmp.${pid}
read_restart	restart.lmp.1
Reading restart file ...
  restart file = 30 Jul 2021, LAMMPS = 30 Jul 2021
  restoring atom style full from restart
  orthogonal box = (0.42097363 1.5873826 0.51358684) to (17.786599 22.041795 21.699609)
  2 by 4 by 4 MPI processor grid
  restoring pair style lj/cut/tip4p/long/omp from restart
  restoring bond style harmonic/omp from restart
  restoring angle style harmonic/omp from restart
  864 atoms
  576 bonds
  288 angles
Finding 1-2 1-3 1-4 neighbors ...
  special bond factors lj:    0        0        0       
  special bond factors coul:  0        0        0       
     2 = max # of 1-2 neighbors
     1 = max # of 1-3 neighbors
     1 = max # of 1-4 neighbors
     2 = max # of special neighbors
  special bonds CPU = 0.002 seconds
  read_restart CPU = 0.007 seconds
include 	in.setup
variable	out_freq equal 1000
variable	out_freq2 equal 10000
variable	out_freq3 equal 1000

timestep	2.0

neigh_modify    delay 7 every 1

include		in.tip4p
# This is TIP4P/Ice

# create groups ###
group ox type 2
288 atoms in group ox
group hy type 1
576 atoms in group hy

# set charges - beside manually ###
set group ox charge -1.1794
Setting atom values ...
  288 settings made for charge
set group hy charge 0.5897
Setting atom values ...
  576 settings made for charge

# ### TIP3P Potential Parameters ###
pair_style lj/cut/tip4p/long/omp 2 1 1 1 0.1577 8.5
pair_coeff 1 1*2 0.000 0.000
pair_coeff 2 2 0.21084 3.1668
bond_style  harmonic
bond_coeff  1 450 0.9572
angle_style harmonic
angle_coeff 1 55 104.52
kspace_style pppm/tip4p/omp 1.0e-5
pair_modify tail yes

thermo          ${out_freq}
thermo          1000
thermo_style    custom step temp pe etotal epair emol press lx ly lz vol pxx pyy pzz pxy pxz pyz enthalpy

restart 	${out_freq3} restart.lmp.${pid} restart2.lmp.${pid}
restart 	1000 restart.lmp.${pid} restart2.lmp.${pid}
restart 	1000 restart.lmp.1 restart2.lmp.${pid}
restart 	1000 restart.lmp.1 restart2.lmp.1


include         in.dump
dump            myDump all atom ${out_freq2} dump.water.${pid}
dump            myDump all atom 10000 dump.water.${pid}
dump            myDump all atom 10000 dump.water.1
dump            myDump2 all dcd ${out_freq2} dump.dcd
dump            myDump2 all dcd 10000 dump.dcd
dump_modify     myDump append yes
dump_modify     myDump2 append yes


variable natoms 	equal  "count(all)"                        # NUMBER ATOMS
variable H      	equal  "enthalpy/v_natoms"                 # ENTHALPY-per-atom
variable Vol      	equal  "vol/v_natoms"                 # volume-per-atom
fix AVG all 		ave/time ${out_freq} 1 ${out_freq} v_Vol v_H file vol_enthalpy.dat
fix AVG all 		ave/time 1000 1 ${out_freq} v_Vol v_H file vol_enthalpy.dat
fix AVG all 		ave/time 1000 1 1000 v_Vol v_H file vol_enthalpy.dat


timer           timeout 23:50:00 every 1000
New timer settings: style=normal  mode=nosync  timeout=23:50:00

fix 		1 all shake 1e-6 200 0 b 1 a 1
       0 = # of size 2 clusters
       0 = # of size 3 clusters
       0 = # of size 4 clusters
     288 = # of frozen angles
  find clusters CPU = 0.001 seconds
fix             2 all nph iso ${pressure} ${pressure} ${pressureDamp}
fix             2 all nph iso 3767.8 ${pressure} ${pressureDamp}
fix             2 all nph iso 3767.8 3767.8 ${pressureDamp}
fix             2 all nph iso 3767.8 3767.8 1000
fix             3 all temp/csvr ${temperature} ${temperature} ${tempDamp} ${seed}
fix             3 all temp/csvr 192 ${temperature} ${tempDamp} ${seed}
fix             3 all temp/csvr 192 192 ${tempDamp} ${seed}
fix             3 all temp/csvr 192 192 100 ${seed}
fix             3 all temp/csvr 192 192 100 745823

run             250000
PPPM initialization ...
  extracting TIP4P info from pair style
  using 12-bit tables for long-range coulomb (../kspace.cpp:340)
  G vector (1/distance) = 0.37394785
  grid = 24 24 25
  stencil order = 5
  estimated absolute RMS force accuracy = 0.0031068566
  estimated relative force accuracy = 9.3562065e-06
  using double precision FFTW3
  3d grid and FFT values/proc = 3822 576
Last active /omp style is kspace_style pppm/tip4p/omp
Neighbor list info ...
  update every 1 steps, delay 7 steps, check yes
  max neighbors/atom: 2000, page size: 100000
  master list distance cutoff = 10.8154
  ghost atom cutoff = 10.8154
  binsize = 5.4077, bins = 4 4 4
  1 neighbor lists, perpetual/occasional/extra = 1 0 0
  (1) pair lj/cut/tip4p/long/omp, perpetual
      attributes: half, newton on, omp
      pair build: half/bin/newton/omp
      stencil: half/bin/3d
      bin: standard
Per MPI rank memory allocation (min/avg/max) = 10.20 | 10.20 | 10.22 Mbytes
Step Temp PotEng TotEng E_pair E_mol Press Lx Ly Lz Volume Pxx Pyy Pzz Pxy Pxz Pyz Enthalpy 
15500000    195.68143    -4113.407   -3778.0158    -4113.407            0    3640.6711    17.365625    20.454413    21.186022    7525.3526    2687.5342    3972.6279    4261.8513    957.93897   -892.01578    447.69617   -3378.4538 
15501000    193.29902   -4146.9964   -3815.6885   -4146.9964            0    3410.0339    17.372281    20.462252    21.194142    7534.0085    4372.3733    2921.9726    2935.7559    -413.6478   -850.82737    1178.0938   -3441.0083 
15502000    195.03748   -4155.0534   -3820.7659   -4155.0534            0    3518.8631       17.385    20.477234     21.20966    7550.5695    3332.2936    4559.8403    2664.4554    185.80545   -1844.1049    236.99563   -3433.2781 
15503000    191.24937   -4145.8466   -3818.0517   -4145.8466            0    3653.9225     17.39422    20.488093    21.220908    7562.5882    4264.7615    2825.6805    3871.3256   -542.59742    235.66145   -996.72979   -3415.0511 
15504000    185.70672   -4166.6304   -3848.3354   -4166.6304            0    2569.9562    17.417633     20.51567    21.249471    7593.1672    2794.0073    2609.0368    2306.8246    1588.7589   -161.40563   -893.72152   -3563.7422 
15505000    193.60298   -4135.0595   -3803.2306   -4135.0595            0     4379.036    17.378623    20.469722    21.201879    7542.2626    5274.9308    3474.4174    4387.7597    170.06145   -131.36423    -607.7364   -3321.5534 
15506000    199.95356   -4152.8895    -3810.176   -4152.8895            0    4455.1777    17.357419    20.444747     21.17601    7514.6891    4398.4807    4695.5853     4271.467    1290.9573   -60.562291   -1130.4187   -3321.9151 
15507000    198.41325   -4158.7277   -3818.6542   -4158.7277            0     3406.663    17.371213    20.460995     21.19284    7532.6198    3528.5522    4492.7909    2198.6459   -432.52986    -261.9656    1585.5768   -3444.4134 
15508000    191.52843   -4137.9791   -3809.7059   -4137.9791            0    4408.7323    17.412617    20.509762    21.243352    7586.6091    5422.0251    3942.3931    3861.7788   -685.05203   -1122.8553    58.589829   -3321.9109 
15509000    194.19839   -4125.9307   -3793.0813   -4125.9307            0    5475.2398    17.355748    20.442779    21.173972    7512.5193    5812.7995    5838.3068     4774.613   -909.40609    2.5991607   -1289.8125   -3193.2009 
15510000    197.82836   -4155.5806   -3816.5096   -4155.5806            0    2492.3791    17.403846    20.499431    21.232651    7575.1502    3024.8901    2714.1091    1738.1382   -730.07306    843.47146   -216.94663    -3541.162 
15511000    192.50046   -4153.5453   -3823.6061   -4153.5453            0    2395.6169    17.412967    20.510175    21.243779    7587.0666    1742.8736    3384.3224    2059.6546    164.05418     409.5303   -229.45454   -3558.5321 
15512000    205.47344    -4137.132   -3784.9576    -4137.132            0    4347.7353     17.37495    20.465397    21.197399    7537.4824    5156.3768    4865.2237    3021.6054   -94.662095    347.98889   -773.67719   -3307.0265 
15513000    201.13531   -4140.9035   -3796.1645   -4140.9035            0    4844.2178    17.379903     20.47123    21.203441    7543.9299    4458.9956    6442.0182    3631.6396   -397.96865   -648.88746     891.1769   -3263.2013 
15514000    186.02123   -4150.0508   -3831.2167   -4150.0508            0    3869.1055     17.38491    20.477128     21.20955    7550.4521    4442.1158    4442.2902    2722.9103    765.74909    222.21611    139.78953   -3405.1679 
15515000    186.49971   -4135.8194   -3816.1653   -4135.8194            0    5275.4422    17.369731    20.459249    21.191032    7530.6923    5459.5841    6345.3463    4021.3963   -648.25235     65.07634   -692.92363   -3236.7771 
15516000    196.37106   -4150.3563   -3813.7831   -4150.3563            0    5434.6515    17.377204    20.468051    21.200149    7540.4162    6229.3577    5412.7389     4661.858    911.35711   -41.448011    627.10155   -3216.1386 
15517000    189.65975   -4140.5437   -3815.4733   -4140.5437            0     3032.045    17.426574    20.526202    21.260379     7604.867    1991.3497    3036.2879    4068.4975   -459.27096    328.26499   -1537.4025   -3479.1917 
15518000    178.60926   -4151.6002   -3845.4701   -4151.6002            0    3159.2727    17.433036    20.533813    21.268263    7613.3299    2948.3684    4748.4354    1781.0144   -416.29712   -1268.8302    359.34717   -3494.6878 
15519000    193.57397   -4148.6518   -3816.8727   -4148.6518            0    3619.9148     17.41262    20.509766    21.243356    7586.6133    4327.8335    3253.3734    3278.5376   -23.428105    423.06183   -290.53845   -3416.3545 
15520000    186.13236   -4152.5139   -3833.4894   -4152.5139            0     3689.464    17.420824     20.51943    21.253365    7597.3418    3247.8504    3681.9289    4138.6125   -329.90931   -220.12775    562.60399   -3424.6988 
15521000    192.30033    -4152.984   -3823.3878    -4152.984            0     4766.872    17.372432     20.46243    21.194326    7534.2053    5314.0905    4358.6215     4627.904   -1242.7296   -75.361831    923.93781   -3299.6103 
15522000    193.16233   -4129.7242   -3798.6506   -4129.7242            0      3195.35    17.435483    20.536696    21.271248    7616.5365    2728.5217    3737.9607    3119.5676   -764.58898      2345.97   -854.47054   -3443.7131 
15523000    193.76873    -4167.259    -3835.146    -4167.259            0    4431.5546      17.3514    20.437657    21.168667    7506.8741     5333.397    4195.6544    3765.6125     2171.888   -927.54893   -282.26512   -3349.9792 
15524000      202.468   -4126.7133   -3779.6901   -4126.7133            0    4041.6455    17.422879     20.52185    21.255872    7600.0308    4011.9977    3394.2403    4718.6984    691.78435    731.06976     933.9097   -3331.7195 
15525000    190.33486    -4142.439   -3816.2116    -4142.439            0    1884.7282    17.459388    20.564853    21.300413    7647.9082    2406.8652    859.85166    2387.4676   -332.60846   -307.63878    242.41655   -3605.9949 
15526000    199.37033   -4135.4652   -3793.7513   -4135.4652            0    3487.9329    17.390853    20.484128      21.2168    7558.1981    3792.0976    3600.7308    3070.9704    368.28525   -687.66772   -490.21057   -3409.2815 
15527000    199.01345   -4136.3971   -3795.2949   -4136.3971            0    3638.8707    17.423604    20.522704    21.256756    7600.9799    3708.0007    4476.8181    2731.7934   -262.06495   -1929.7556   -1458.2002    -3391.917 
15528000    184.27894   -4152.6233   -3836.7755   -4152.6233            0    3165.7756    17.454331    20.558897    21.294243    7641.2645     3300.275    3707.0956    2489.9562    245.60542   -1158.5221   -182.31138   -3483.9814 
15529000    191.76059    -4166.025   -3837.3539    -4166.025            0    4312.1415    17.392529    20.486102    21.218845    7560.3831    3703.4186    5158.9437    4074.0621      123.467   -328.39959   -908.39881   -3361.8953 
15530000    204.63819   -4153.0286   -3802.2857   -4153.0286            0    3381.2769    17.403096    20.498548    21.231736    7574.1715    3131.0784    4619.6786    2393.0736    1420.1762    695.31961   -393.88096   -3428.7847 
15531000    192.03306   -4125.3288   -3796.1907   -4125.3288            0    3202.4663    17.403919    20.499517     21.23274    7575.2458    1757.1065     4976.929    2873.3634   -21.129957   -81.333174    515.75985   -3442.3912 
15532000    195.46379   -4143.2919   -3808.2736   -4143.2919            0    4085.4637    17.381425    20.473022    21.205297    7545.9112    2323.7689    7389.9368    2542.6853    873.55759   -502.00426    887.33623   -3358.6709 
15533000    189.01317   -4138.3413   -3814.3792   -4138.3413            0    4106.2698    17.389264    20.482256    21.214862    7556.1262    2126.5656    5978.5687     4213.675    763.35562    551.43999   -277.18702    -3361.875 
15534000    187.92314   -4161.2173   -3839.1234   -4161.2173            0    4379.6912    17.349464    20.435377    21.166306    7504.3624    4228.6749    4453.5889    4456.8099   -243.22735    369.60732    -915.8272    -3359.795 
15535000     175.3746   -4145.4283   -3844.8422   -4145.4283            0    4890.0255    17.339665    20.423835    21.154351    7491.6536    4189.9139    6332.5754    4147.5871   -317.79519   -235.07389   -556.16671   -3310.5674 
15536000    190.02618   -4161.6763   -3835.9779   -4161.6763            0    4687.9875    17.378206    20.469231    21.201371      7541.72    5015.4316      5302.51    3746.0209    1381.8368     -345.381   -351.73492   -3320.3544 
15537000    209.56092   -4173.5724   -3814.3921   -4173.5724            0    5565.4505    17.360416    20.448277    21.179668    7518.5832    6445.6694    4954.4675    5296.2145    96.885769    411.17035    1200.2592   -3204.1359 
15538000    194.94254   -4155.0734   -3820.9485   -4155.0734            0    1374.2507    17.459216    20.564651    21.300203    7647.6823    330.65784    3443.5422    348.55212    765.52758   -413.25624    -1344.757   -3667.6734 
15539000    188.47099   -4133.8256   -3810.7927   -4133.8256            0    2820.2064    17.394696    20.488654    21.221488     7563.209    2106.9217    3544.2875      2809.41    256.85919   -204.29177    127.18477   -3499.7193 
15540000    187.83152   -4147.8847   -3825.9479   -4147.8847            0    4028.5288    17.383032    20.474916    21.207259    7548.0051    4903.9499    4120.2694    3061.3671    765.19654    578.10921   -337.27424   -3382.4878 
15541000    191.07093   -4140.7364   -3813.2474   -4140.7364            0    3236.6822    17.379896    20.471222    21.203432    7543.9205     1986.184    4791.0455    2932.8173   -727.02835   -424.53729    -338.7022   -3457.1465 
15542000    185.75431   -4144.9745   -3826.5979   -4144.9745            0    4292.4692    17.391448    20.484828    21.217526    7558.9733    3118.0227    5520.4659    4238.9188    -82.78094    183.79119    273.93809   -3353.3967 
15543000    190.11912   -4139.5398   -3813.6821   -4139.5398            0    2807.2537    17.444277    20.547054    21.281977    7628.0672    3130.8952    2728.5316    2562.3345     -166.767   -575.71598    380.65198    -3501.382 
15544000    194.90473   -4142.8664   -3808.8063   -4142.8664            0     5193.975    17.338748    20.422755    21.153232     7490.465    4386.0109    5738.1921    5457.7219     19.30878   -642.28018   -271.38106   -3241.4126 
15545000    189.19709    -4170.849   -3846.5717    -4170.849            0    6232.1217     17.32282    20.403994      21.1338    7469.8412     6841.347    6862.6972    4992.3209    842.62325   -1318.6351     197.6753   -3167.6445 
15546000    191.13985   -4124.5098   -3796.9026   -4124.5098            0    3974.0936    17.362201    20.450379    21.181845     7520.902    2653.8165    5025.7631    4242.7011   -163.42873    285.60613    425.60929   -3361.0056 
15547000    189.63347     -4145.41   -3820.3847     -4145.41            0    4046.8488    17.351517    20.437795    21.168811    7507.0267    4847.4438    5062.2626      2230.84   -190.85948   -480.96283   -1069.0684   -3377.3264 
15548000    200.96285    -4153.326   -3808.8825    -4153.326            0    4089.0175    17.386482    20.478979    21.211467    7552.4998    3719.7586    3497.6083    5049.6856   -59.444687    1630.0748    55.175927   -3358.4958 
15549000     194.5832   -4142.8953   -3809.3863   -4142.8953            0    3863.1228     17.38764    20.480343     21.21288    7554.0094    3846.0601    4114.9454    3628.3629   -616.80189   -247.95959   -1007.1796   -3383.7959 
15550000    193.38959   -4159.9425   -3828.4793   -4159.9425            0    4249.3294    17.344347    20.429349    21.160062    7497.7236    3768.6634    5477.6097    3501.7152    107.76834    1369.1622   -267.78124   -3363.8296 
15551000     194.6419   -4135.4776    -3801.868   -4135.4776            0    2644.8312    17.447134     20.55042    21.285463    7631.8163      3079.02    3500.4901    1354.9836    596.08818   -487.80224     1088.205   -3507.4925 
15552000    191.33428    -4142.867   -3814.9266    -4142.867            0    4878.5209    17.366516    20.455462    21.187109     7526.511    5636.7023    4635.9605       4362.9    117.68663    -607.9655   -445.46455   -3279.4287 
15553000     185.0241   -4147.2706   -3830.1457   -4147.2706            0    4661.9171    17.370178    20.459775    21.191577    7531.2733    4569.6873    4697.9831    4718.0809   -247.36905    284.84358   -368.70585   -3318.0998 
15554000    198.99092   -4140.1302   -3799.0666   -4140.1302            0    5232.7972    17.362468    20.450694    21.182171    7521.2496    3249.1641    6493.4925    5955.7351    1172.4753   -663.73726   -1494.9704   -3225.0826 
15555000    192.56094   -4148.5836   -3818.5407   -4148.5836            0    3883.3914    17.375301     20.46581    21.197827    7537.9391     5399.432    3017.4578    3233.2842    1088.3674   -196.49648    669.94168   -3391.6274 
15556000    195.20026   -4132.8386    -3798.272   -4132.8386            0    2941.5707     17.34704    20.432522    21.163349    7501.2175    2078.9168    4236.5998    2509.1955    427.23716    1072.2214    278.51935   -3476.4714 
15557000    191.87209   -4147.3108   -3818.4486   -4147.3108            0    4381.5705    17.354363    20.441148    21.172283    7510.7213    3377.0741    4690.0001    5077.6372   -672.20325    100.27442    914.65736   -3338.5082 
15558000    196.39717   -4161.2694   -3824.6514   -4161.2694            0    3336.9994    17.398967    20.493684    21.226699    7568.7812    3612.5427    3483.6503    2914.8052    42.166706    579.78123   -1418.3002   -3456.3037 
15559000    192.77908   -4145.9422   -3815.5255   -4145.9422            0     3642.828    17.374988    20.465441    21.197445    7537.5319     3231.042    3284.6737    4412.7683      138.719    211.65765   -957.23468   -3415.0797 
15560000    182.53229   -4158.1899   -3845.3358   -4158.1899            0    3594.9935     17.36188    20.450001    21.181453    7520.4848    4341.7237    1910.2632    4532.9936    440.64765    467.97941    744.89834   -3451.0421 
15561000    182.58966   -4132.0787   -3819.1263   -4132.0787            0    3158.2492    17.451449    20.555502    21.290727    7637.4794    2819.9634    2803.7773    3851.0068   -409.46226    333.29973   -777.79378   -3467.3453 
15562000    200.88499   -4147.8957   -3803.5857   -4147.8957            0    5037.7171    17.368204    20.457451    21.189169    7528.7063    3886.2536    6436.9545    4789.9433    1069.1903    -338.0282   -257.16073   -3250.4521 
15563000    207.69579   -4148.4973   -3792.5138   -4148.4973            0    3981.1139    17.393807    20.487607    21.220404      7562.05      3764.25    5036.2143    3142.8775    275.72714   -424.15945     502.2403   -3353.4577 
15564000    189.56501   -4143.3623   -3818.4544   -4143.3623            0    5800.2601    17.349781     20.43575    21.166692    7504.7735    5525.7608    6250.3314    5624.6881    978.17771   -598.67657   -1391.4149   -3183.6193 
15565000      186.712   -4165.9516   -3845.9337   -4165.9516            0    3368.4749    17.401497    20.496665    21.229785    7572.0837    4460.4928    3450.4149     2194.517   -377.31722    1153.5912   -70.972985   -3473.9494 
15566000    194.58176    -4131.973   -3798.4665    -4131.973            0    3274.8266    17.438218    20.539918    21.274585    7620.1217    3158.3963     3825.263    2840.8204   -812.30642   -353.86789   -1093.8927   -3434.5296 
15567000    180.39364   -4159.8016   -3850.6131   -4159.8016            0    2304.4995    17.453293    20.557674    21.292977    7639.9008    3374.2492    2119.1829    1420.0664   -202.48442   -345.62337    441.48795   -3593.8455 
15568000    201.36278   -4175.9332   -3830.8043   -4175.9332            0    3807.8715    17.403467    20.498985    21.232189    7574.6561    3569.4044     3013.378     4840.832   -550.67633   -238.70563   -1226.9927   -3410.1541 
15569000    190.67725   -4182.5156   -3855.7013   -4182.5156            0    2500.7161    17.433399    20.534241    21.268706    7613.8057     2796.477    3326.2908    1379.3805    284.92471    -139.0248   -409.63117   -3578.0229 
15570000    191.80188   -4151.8821   -3823.1402   -4151.8821            0     4978.829     17.40728    20.503476    21.236841    7579.6357     4803.085    5658.7899     4474.612    147.79875    194.06416    406.76637   -3272.7744 
15571000    195.95977   -4159.0752   -3823.2069   -4159.0752            0    3988.0343     17.39054    20.483759    21.216418    7557.7897    3553.7273    3761.7553    4648.6203    462.04213   -195.06206   -203.77671   -3383.6353 
15572000    203.21385   -4121.6483   -3773.3467   -4121.6483            0    5331.9982     17.37972    20.471014    21.203218    7543.6914    4956.6368    5924.3258    5115.0319    1470.1911    52.851989   -1973.4997   -3186.7363 
15573000    182.87889   -4154.6998   -3841.2517   -4154.6998            0    4795.9085    17.327503     20.40951    21.139514    7475.9013    4902.3705    5403.3402    4082.0147    62.635573    788.12181   -1270.5883   -3318.3617 
15574000    189.03775   -4150.3006   -3826.2963   -4150.3006            0    3693.0072     17.40899    20.505491    21.238927      7581.87    2846.7729    3827.0809     4405.168   -923.81889    51.022587   -1171.0597   -3417.9465 
15575000    191.67907   -4152.4466   -3823.9152   -4152.4466            0    5109.2026    17.373478    20.463663    21.195603    7535.5669    3919.8676    7350.9005    4056.8397    1135.9897   -406.43964   -106.29105   -3262.4215 
15576000    180.41848   -4129.7755   -3820.5444   -4129.7755            0    5110.8164    17.370794    20.460501    21.192328    7532.0744     4063.314    6612.5746    4656.5606    533.50076    1033.1333   -573.23613   -3259.1336 
15577000    188.48861   -4163.8618   -3840.7988   -4163.8618            0    3288.4203    17.390175    20.483329    21.215973    7557.3133    2517.9318    4435.2197    2912.1093    1118.8002   -163.82758    660.47257   -3478.3634 
15578000    207.90698   -4140.9339   -3784.5885   -4140.9339            0    3800.6214    17.372058     20.46199     21.19387     7533.719    3517.7223    4225.3573    3658.7847    772.54845    848.16199   -855.55475   -3367.0082 
15579000    189.52759    -4144.192   -3819.3482    -4144.192            0    3583.3002    17.417506    20.515521    21.249316    7593.0013     3913.546    3567.6517    3268.7029    1338.8129   -605.94827   -965.44528   -3422.5473 
15580000    197.41615   -4132.6341   -3794.2696   -4132.6341            0    2177.2889    17.425873    20.525377    21.259524    7603.9495    2453.3748     2294.495    1783.9969    24.057865   -591.76697    339.04293   -3552.8174 
15581000     196.9188   -4151.2022   -3813.6901   -4151.2022            0     4019.197    17.373336    20.463495     21.19543    7535.3819    5227.6933    3562.5864    3267.3113    1594.9521    181.55582   -488.04929   -3371.9971 
15582000    187.90482   -4153.3768   -3831.3144   -4153.3768            0    3932.9218    17.348343    20.434057    21.164939    7502.9081    4450.8351    4547.4414    2800.4888    266.80651   -149.07327   -765.69984   -3400.9654 
15583000    188.12741   -4163.2996   -3840.8556   -4163.2996            0    3332.2461    17.397023    20.491395    21.224327    7566.2449    3657.8765    2909.4377    3429.4241    604.19685   -1.6504549   -478.83591   -3473.1559 
15584000    201.86144   -4134.0224   -3788.0388   -4134.0224            0    3408.5973    17.362516     20.45075    21.182229    7521.3113    3035.2802    3823.3485    3367.1632    1221.1835   -874.64331   -656.88556   -3414.1477 
15585000    193.11982   -4155.6438    -3824.643   -4155.6438            0     2896.607    17.399845    20.494719     21.22777    7569.9274    1515.8064     3311.343    3862.6717    589.78344    205.28945    125.16235   -3504.8587 
15586000    192.57658   -4142.5692   -3812.4995   -4142.5692            0    2235.5131    17.384073    20.476142    21.208528     7549.361    2241.9949    1502.4749    2962.0693    454.32085    12.810959    -218.8483   -3566.3702 
15587000    187.04835   -4152.2748   -3831.6804   -4152.2748            0    1910.2346     17.42435    20.523583    21.257666    7601.9557    2185.2499     517.5716    3027.8824     1236.024   -101.27868    644.75387   -3619.8989 
15588000    197.09113   -4128.6802   -3790.8727   -4128.6802            0    4038.6508    17.371107    20.460869     21.19271    7532.4813    5218.2818    3726.8925     3170.778    371.09917   -1548.0827    623.64293   -3347.2127 
15589000    181.33669   -4146.9781   -3836.1732   -4146.9781            0    4498.0144    17.321416     20.40234    21.132087    7468.0252    4381.6528    4468.3802    4644.0102     1574.795    575.32697     169.2796   -3346.2788 
15590000    197.51308   -4147.8878   -3809.3571   -4147.8878            0    3993.4947     17.31643    20.396467    21.126004    7461.5775     4333.024    3631.3617    4016.0986   -480.60009   -1182.0769   -1521.6063   -3374.7872 
15591000    186.15647   -4144.5827   -3825.5169   -4144.5827            0    4604.0128    17.349887    20.435876    21.166822    7504.9115    4111.2999    4054.3598    5646.3787    914.11589    488.46403    665.57221   -3321.6011 
15592000    197.51213   -4133.0951   -3794.5661   -4133.0951            0     4957.929     17.26572    20.336738    21.064138    7396.2178     3284.807    6358.0642    5230.9158   -1103.6815   -842.10113   -717.60553   -3259.7729 
15593000    196.40674   -4173.9529   -3837.3185   -4173.9529            0    2773.4479    17.384856    20.477064    21.209484    7550.3813    1439.8037    4342.5072    2538.0326    448.06836    257.10779    473.54167   -3531.9214 
15594000    193.18681   -4153.1021   -3821.9865   -4153.1021            0    2778.0247    17.374276    20.464603    21.196577    7536.6053    2914.2307    3803.2177    1616.6258    161.15099   -453.28633   -154.29832   -3516.6436 
15595000    193.07219   -4161.3103   -3830.3912   -4161.3103            0    4864.4623    17.319295    20.399842      21.1295    7465.2825    6315.8114    4162.9114    4114.6642   -614.06673    113.65711    1277.4943   -3300.7802 
15596000     197.8504   -4144.4124   -3805.3036   -4144.4124            0    3033.7007    17.392961    20.486611    21.219372    7560.9466    2890.9033    4426.1693    1784.0294    459.38502    214.84395    97.699735   -3470.7815 
15597000    193.55696   -4148.8574   -3817.1074   -4148.8574            0    2861.0555    17.405512    20.501394    21.234684    7577.3267    3145.3733    4205.2047    1232.5885    930.01583    -770.0428   -765.37292   -3500.9392 
15598000    188.44564   -4161.0218   -3838.0325   -4161.0218            0    3728.1109    17.358188    20.445653    21.176949    7515.6881    4330.3918    3700.2006    3153.7402     1263.871   -4.7417659    1010.4182   -3429.3994 
15599000    192.60238   -4142.1403   -3812.0265   -4142.1403            0    3848.7651     17.35541     20.44238    21.173559    7512.0798     4153.711    3542.4249    3850.1592    308.48898    1463.5761   -1290.4876   -3390.3712 
15600000    186.32378   -4153.7212   -3834.3686   -4153.7212            0    2681.9302    17.394932    20.488932    21.221776    7563.5167    3254.7885    1988.6792    2802.3227    738.77814    1231.7534   -397.20631   -3538.5353 
15601000    195.39014   -4176.3515   -3841.4595   -4176.3515            0    4131.4925    17.299115    20.376072     21.10488    7439.2173    4333.8759    4430.2895    3630.3122    1204.8227   -255.17544    -481.6906     -3393.22 
15602000    203.56318   -4147.5214   -3798.6211   -4147.5214            0    3323.1563    17.349858    20.435841    21.166786    7504.8732    2885.9966    3425.1876    3658.2847   -42.422212    297.56636   -671.58885   -3434.8987 
15603000    194.19582   -4137.5909   -3804.7459   -4137.5909            0    3896.8567    17.359486    20.447182    21.178533    7517.3745    2611.3231    4945.3739    4133.8731   -44.590085   -277.65317    4.0411151    -3377.521 
15604000    195.95324    -4158.868   -3823.0109    -4158.868            0    3474.3814    17.361751     20.44985    21.181296    7520.3174    3514.4753    4257.3472    2651.3216    654.38291    -288.8049   -699.76058   -3441.9542 
15605000    195.46299   -4139.3134   -3804.2965   -4139.3134            0    5127.7268    17.381551    20.473171    21.205452    7546.0761     4907.207    6208.2751    4267.6983    2179.5789   -284.88048    -245.3515   -3239.9811 
15606000    185.37139   -4161.5384   -3843.8182   -4161.5384            0     4382.884    17.310787    20.389821     21.11912    7454.2857     5671.799    4282.0273    3194.8257    473.28188   -114.87554    170.38747   -3367.3413 
15607000    186.89139   -4157.1684    -3836.843   -4157.1684            0    2970.3575    17.364716    20.453341    21.184912    7524.1701    3710.2608    3219.3393    1981.4723     178.2362    247.12481    1021.9475   -3510.8988 
15608000    193.53343   -4147.2014   -3815.4918   -4147.2014            0    4878.6045    17.299914    20.377013    21.105854    7440.2476     4548.664    5737.2358    4349.9138    659.15574   -1182.4848    2363.7876   -3286.1223 
15609000    199.35376   -4166.8527   -3825.1671   -4166.8527            0    5053.5151    17.351575    20.437863    21.168881    7507.1017    4756.2397    5146.1299    5258.1757    776.59913   -72.675718    -211.1278   -3271.8912 
15610000    193.61227   -4154.7693   -3822.9245   -4154.7693            0    5177.9231    17.326692    20.408554    21.138523    7474.8508    5468.6268    5499.0701    4566.0723    1878.4086   -42.761812    -482.1977   -3258.4634 
15611000    194.07231   -4147.7658   -3815.1325   -4147.7658            0    3925.6456    17.355562    20.442559    21.173745    7512.2774    3185.1433    4982.5733    3609.2201    602.40639     488.6682    304.01292   -3385.0432 
15612000     193.5055   -4151.6564   -3819.9946   -4151.6564            0    1683.8455    17.397121    20.491511    21.224447    7566.3733    2122.2411    1197.1263    1732.1692       616.78   -35.981475   -926.84707    -3634.186 
15613000    192.13674   -4159.1448    -3829.829   -4159.1448            0    2936.9214    17.355655    20.442669    21.173858    7512.3984    2686.0138    2729.4732    3395.2773    1038.0631    2124.4049   -1381.4732   -3508.0581 
15614000    197.93873   -4128.3993   -3789.1391   -4128.3993            0    4891.7243    17.311895    20.391125    21.120471    7455.7169    4931.2688    3678.5012    6065.4029    837.23215    244.49112   -768.99819   -3257.2425 
15615000    199.14858   -4140.0147   -3798.6808   -4140.0147            0    4629.3015    17.341462    20.425951    21.156543    7493.9829    6136.1802     4245.031    3506.6934    1519.3856   -1206.1291    127.55738    -3292.735 
15616000     180.0235   -4134.6078   -3826.0537   -4134.6078            0    4927.3028     17.28142     20.35523    21.083292     7416.412     4719.435    6253.5846    3808.8888    608.22984    284.77748   -1528.5563   -3293.1129 
15617000    182.94816   -4156.0865   -3842.5196   -4156.0865            0     4508.584    17.312346    20.391657    21.121021    7456.2994    2537.2487    6299.0938    4689.4096    874.61536   -251.48247   -267.27403    -3352.245 
15618000     188.2741   -4152.1494    -3829.454   -4152.1494            0    4162.8624    17.281126    20.354884    21.082934     7416.034    3770.0242     3836.716    4881.8471    747.46055   -599.02463   -937.96923   -3379.2186 
15619000    197.26357   -4140.9209   -3802.8179   -4140.9209            0    5123.0792    17.313961    20.393559    21.122992     7458.387    4858.8533    4777.8224    5732.5618    1259.1682    -179.8962   -1734.3092   -3245.5656 
15620000    186.34965   -4139.5014   -3820.1045   -4139.5014            0    2998.6404    17.298704    20.375588    21.104378    7438.6866    2571.3812    4804.9729    1619.5672    1276.3005    879.27835    138.75015   -3494.7951 
15621000    198.42904   -4158.7274   -3818.6268   -4158.7274            0    3375.4603    17.290385     20.36579    21.094229    7427.9604     1203.049    4462.8382    4460.4938    751.90584    291.06799    -409.6593   -3452.9659 
15622000    195.61093   -4121.0808   -3785.8104   -4121.0808            0     4322.369    17.309445     20.38824    21.117482    7452.5519    4622.8631    4217.3093    4126.9347    60.219116   -949.80063   -32.882878   -3316.0215 
15623000    186.04725   -4159.0249   -3840.1463   -4159.0249            0    4421.6321    17.267569    20.338915    21.066394    7398.5938    3078.6904    5907.7322    4278.4737     1585.685   -97.857209   -250.92053   -3363.0482 
15624000    199.71587   -4135.7968   -3793.4906   -4135.7968            0    6134.2823    17.269588    20.341294    21.068857    7401.1898    5395.3171     6216.169    6791.3607    558.85478    20.188272   -247.95489   -3131.3638 
15625000    198.05775   -4124.4254   -3784.9612   -4124.4254            0    5545.5207    17.274287    20.346829     21.07459    7407.2331    3956.1259     6975.893    5704.5431    1598.7188   -786.07601   -1188.5209   -3185.8958 
15626000    198.37778   -4149.4938   -3809.4811   -4149.4938            0    4988.8023    17.301552    20.378943    21.107853    7442.3617    5349.3928    4742.3359    4874.6783    257.25061    152.52985   -1489.7746   -3268.0004 
15627000    193.10475   -4140.8791   -3809.9042   -4140.8791            0    3427.4413    17.358048    20.445488    21.176779    7515.5069    4532.9797    2292.9182    3456.4258   -129.90002   -198.19436    430.63005   -3434.2362 
15628000    198.40732   -4154.8181   -3814.7548   -4154.8181            0    3853.9891    17.336462    20.420062    21.150443    7487.5027    3243.4828    4839.0453    3479.4393    1156.9243   -79.606027   -889.33922   -3393.9086 
15629000    200.38251   -4142.9643   -3799.5155   -4142.9643            0    2373.6761    17.398703    20.493375    21.226378    7568.4379    2943.8956    2948.1655     1228.967    44.976438   -160.53171   -4.9147903   -3537.5141 
15630000    184.65892   -4154.6067   -3838.1076   -4154.6067            0    3845.4925    17.334409    20.417645    21.147939    7484.8438     2386.354    3518.9085     5631.215    772.92389   -405.52981   -343.74251   -3418.3384 
15631000    191.18567   -4171.2287   -3843.5431   -4171.2287            0    3161.8153    17.306261    20.384489    21.113598    7448.4399    1531.0032    5209.7119    2744.7308     792.1428   -867.07077   -1099.0806   -3500.0818 
15632000    197.48664   -4131.1983    -3792.713   -4131.1983            0       6285.3    17.301278     20.37862    21.107519    7442.0082    5428.6278    7147.1806    6280.0915    1091.4362   -696.98836   -218.48102   -3110.5439 
15633000    188.54239   -4147.6866   -3824.5314   -4147.6866            0    3318.6607    17.349005    20.434836    21.165745    7503.7662    3471.1034    3486.6398    2998.2388   -646.70265   -127.73762    336.57895   -3461.3547 
15634000    187.22282   -4156.0789   -3835.1854   -4156.0789            0     2123.027    17.356735    20.443942    21.175177    7513.8014    2528.4164    2700.6451    1140.0196    1039.2066    1032.6208   -602.74444   -3602.5418 
15635000    180.86756   -4146.1625   -3836.1617   -4146.1625            0    4074.4882     17.26882    20.340389     21.06792    7400.2018     4694.447    3691.2667    3837.7508    18.699141    397.68213   -514.28919   -3396.4252 
15636000    190.74156   -4134.3705    -3807.446   -4134.3705            0    2769.5047    17.279367    20.352812    21.080787    7413.7695    2584.3651     3058.773     2665.376    530.68383   -486.60406    -914.8046    -3508.001 
15637000    193.14657   -4155.7468   -3824.7002   -4155.7468            0    2874.9696    17.292158    20.367878    21.096393     7430.246    2144.0602    3018.7577    3462.0909    417.51341    183.65034    619.47936   -3513.1612 
15638000    197.47915   -4139.6254    -3801.153   -4139.6254            0    5448.7778    17.242198    20.309032    21.035441    7366.0299    6107.4565    5872.2238    4366.6532   -181.16163   -968.25368    1325.4894   -3215.8126 
15639000     181.1803    -4163.069   -3852.5321    -4163.069            0    2964.4589    17.360354    20.448203    21.179591    7518.5014    3212.1417    2675.9843    3005.2508   -854.17233   -820.03436      126.505   -3527.4803 
15640000    191.29939   -4143.1411   -3815.2605   -4143.1411            0    3323.1192    17.337412    20.421181    21.151602    7488.7339    3277.9536    3810.5423    2880.8616    794.61423   -1540.2974    214.00588   -3452.3243 
15641000    191.02479   -4157.8917   -3830.4817   -4157.8917            0    5532.9065    17.253246    20.322045     21.04892    7380.1981    5779.2497    4682.9533    6136.5164   -121.97107    868.45624   -58.739882   -3234.9605 
15642000    182.73231    -4137.625    -3824.428    -4137.625            0    3264.4486    17.358025     20.44546     21.17675     7515.476    4091.3041    3748.2091    1953.8327   -367.92191    75.765982   -777.75196   -3466.6265 
15643000    190.22356   -4144.7461   -3818.7094   -4144.7461            0    5604.5934    17.278865    20.352221    21.080175    7413.1232    5686.5274    5404.6834    5722.5693    564.73819    417.35528    1308.3228   -3212.7812 
15644000    185.00687   -4140.2982   -3823.2028   -4140.2982            0    3074.4476    17.376635     20.46738    21.199454    7539.6745     3848.095    2744.0761    2631.1717    267.53823    1039.5538    862.10488   -3485.1414 
15645000    194.32669   -4126.6752   -3793.6059   -4126.6752            0    3478.7788    17.319839    20.400482    21.130163     7465.985     2253.608     4470.352    3712.3764    96.049134   -301.41808   -1099.2036   -3414.8234 
15646000    188.81711   -4156.0792   -3832.4531   -4156.0792            0    4319.0444    17.344166    20.429137    21.159842    7497.4897    3258.9928    5750.4278    3947.7127    1213.3905   -1175.4272    288.17101    -3360.195 
15647000    188.96741   -4161.7593   -3837.8756   -4161.7593            0    5139.8197    17.262675    20.333151    21.060423     7392.305    5695.9689    4138.8763    5584.6139    156.07277    21.210799   -376.33211   -3283.7558 
15648000    186.38783   -4170.2169   -3850.7545   -4170.2169            0    3511.7014    17.345427    20.430622     21.16138    7499.1246    3608.4168    3798.8881    3127.7995   -397.17242   -935.75787   -158.09061   -3466.6901 
15649000    206.84939   -4143.5493   -3789.0165   -4143.5493            0    3507.0199    17.344048    20.428998    21.159698    7497.3365    3577.2337     3765.449     3178.377    278.97392    603.28366    343.35259   -3405.5556 
15650000    186.56688   -4148.7177   -3828.9485   -4148.7177            0    3148.7654     17.35886    20.446445    21.177769    7516.5616    2954.2825    2725.9165    3766.0971    157.65208    114.05707    278.22913   -3483.7766 
15651000    190.47821   -4129.0084   -3802.5352   -4129.0084            0    4803.9086    17.347046    20.432529    21.163356    7501.2251    3577.3572    5748.1084    5086.2601    -160.8765   -581.19038    1814.2676   -3276.9988 
15652000    181.30911   -4149.5845   -3838.8269   -4149.5845            0    4081.2605    17.323161    20.404396    21.134216    7470.2826     4299.703     4013.373    3930.7053   -181.55125    380.59936   -337.04617   -3394.1882 
15653000    196.79341   -4153.5709   -3816.2738   -4153.5709            0    3367.1127     17.34526    20.430425    21.161176    7498.9078    3336.7484    4122.7357    2641.8541      786.358    373.72099   -416.42848   -3448.0332 
15654000    183.73763   -4146.3713   -3831.4513   -4146.3713            0    3303.5109    17.370496     20.46015    21.191964    7531.6866    2235.5524    4059.2733    3615.7069    473.40599     4.018062   -371.60006   -3468.5873 
15655000     187.9466   -4136.5026   -3814.3686   -4136.5026            0    4609.9643    17.288774    20.363892    21.092263    7425.8837     2888.133    4992.5408    5949.2192    690.96987    1575.0971    1356.8611   -3315.1145 
15656000    179.12689   -4146.6832   -3839.6658   -4146.6832            0    4044.4519    17.316405    20.396438    21.125973    7461.5453    4549.9558    3454.2263    4129.1734    134.87286   -746.16221   -385.52841   -3399.5527 
15657000    193.20635   -4149.7954   -3818.6464   -4149.7954            0    3565.7445    17.320084    20.400771    21.130462    7466.3025    2700.2961    3601.1253    4395.8122    108.03457    705.98942    -711.1824   -3430.3783 
15658000    195.64844   -4162.0284   -3826.6937   -4162.0284            0    3557.3189    17.367193    20.456259    21.187935    7527.3912    2340.3096    5031.3945    3300.2527   -802.77422   -1297.7576   -784.93032   -3436.1738 
15659000    188.33756   -4137.2522   -3814.4481   -4137.2522            0    4119.6029    17.317439    20.397655    21.127235     7462.882    3671.0431    4372.4766    4315.2889   -146.78346   -465.72591    894.72318   -3366.0768 
15660000    201.80243   -4138.5333   -3792.6509   -4138.5333            0    4569.6949     17.31918    20.399706    21.129359    7465.1328    5858.0752     4306.527    3544.4825    853.77887   -210.21186   -95.649646   -3295.1422 
15661000    184.44065   -4157.5724   -3841.4475   -4157.5724            0    2820.5113    17.383728    20.475736    21.208108    7548.9118    2043.6704    3482.6892    2935.1744    157.83555   -761.31035   -619.69169   -3530.9285 
15662000    197.60491   -4161.1806   -3822.4926   -4161.1806            0    3042.4535    17.342714    20.427426     21.15807    7495.6059    3202.6187    3120.3547    2804.3871   -206.79777   -816.16514   -555.73159   -3489.9046 
15663000    186.59742   -4136.1319   -3816.3103   -4136.1319            0    3473.9979    17.286979    20.361778    21.090074    7423.5721    1963.5275    3768.9978    4689.4684    483.91222    110.72089    122.84235   -3440.1972 
15664000    198.53359   -4163.8209   -3823.5411   -4163.8209            0    4079.3508    17.308286    20.386874    21.116068    7451.0547    2950.8882    5229.6802    4057.4841   -369.33882    687.97185    169.91338   -3380.2544 
15665000    193.28847   -4143.9071   -3812.6172   -4143.9071            0    4544.8404    17.277035    20.350066    21.077943    7410.7688    5269.4837    3417.2444    4947.7931    1209.6545   -984.01469   -52.625639   -3321.4179 
15666000      191.241   -4135.0899   -3807.3094   -4135.0899            0    3744.3786    17.345075    20.430208    21.160951    7498.6686     3407.889    3256.9727    4568.2742   -228.47642    32.288643   -861.08401   -3397.8227 
15667000    184.45583   -4152.8824   -3836.7314   -4152.8824            0    3900.6499     17.33253    20.415431    21.145646    7482.4091    3577.1465    4141.6261     3983.177   -851.31198   -79.876277    756.50536   -3411.0798 
15668000    211.91109   -4137.0064    -3773.798   -4137.0064            0    4993.0004    17.264018    20.334733    21.062062    7394.0309    5821.2976    5153.9467    4003.7567   -1097.8965    936.76652    678.51796   -3235.3811 
15669000    199.99489   -4133.2975   -3790.5131   -4133.2975            0    3859.5116     17.30248    20.380036    21.108986    7443.5599    4301.7206    3881.3036    3395.5108    1196.5549    28.683992    508.30785   -3371.5373 
15670000    189.05699   -4137.0208   -3812.9836   -4137.0208            0    3833.2782    17.324893    20.406436    21.136329    7472.5235    4795.6027    2871.5455    3832.6863    419.04517    825.07686   -325.68395   -3395.2364 
15671000    180.70488   -4137.3578   -3827.6359   -4137.3578            0    4201.7579    17.324434    20.405895     21.13577    7471.9299    3511.2703    4702.7114    4391.2922    1252.5976   -963.21397   -430.68082   -3369.7685 
15672000    182.75695    -4139.747   -3826.5078    -4139.747            0    4104.9252    17.356406    20.443554    21.174775     7513.374     3739.872    4512.3018    4062.6017    1350.2448    465.62959    950.71849   -3376.7112 
15673000    196.23301   -4163.1488   -3826.8121   -4163.1488            0    3718.2347    17.325495    20.407144    21.137063    7473.3018    3622.5396    3881.7213    3650.4431   -1003.7426    -672.9578   -290.82204   -3421.5601 
15674000    185.44211   -4153.4541   -3835.6127   -4153.4541            0    4451.4939     17.31316    20.392615    21.122014    7457.3512     4675.272    4502.4532    4176.7564    1802.1132   -265.71977    113.13941   -3351.4779 
15675000     201.7996   -4153.3364   -3807.4588   -4153.3364            0    5139.1112    17.295925    20.372315    21.100988    7435.1023    5913.7331    6375.5729    3128.0277   -304.00919   -189.46944    746.19233   -3250.2078 
15676000    189.41714   -4155.8428   -3831.1883   -4155.8428            0    4833.3005    17.292175    20.367898    21.096413    7430.2677     4656.722     5042.079    4801.1005    1041.4755    1124.4811    679.06425   -3307.4382 
15677000    192.41483   -4122.6513   -3792.8588   -4122.6513            0    4517.8438    17.298757    20.375651    21.104443    7438.7558    5194.8772    3483.2283    4875.4257    950.58944   -727.73872    596.49038   -3302.7332 
15678000    192.98928   -4129.7942   -3799.0171   -4129.7942            0    4804.1223    17.276901    20.349907    21.077779    7410.5957    5092.9755    6129.4746    3189.9169    736.36232   -1000.1382    749.94065   -3279.8071 
15679000    194.04474   -4152.4268   -3819.8407   -4152.4268            0    3362.2086    17.364367    20.452931    21.184488    7523.7176    2019.4128     4645.317    3421.8959    775.82121     830.1794   -246.67984     -3450.92 
15680000    195.37063   -4155.0876    -3820.229   -4155.0876            0    4576.3993    17.261675    20.331973    21.059203      7391.02    4646.7371    4548.2116    4534.2493   -565.91142   -1369.7192   -200.53359   -3326.9369 
15681000    186.84649   -4131.9142   -3811.6657   -4131.9142            0    2862.0267    17.372433    20.462432    21.194328    7534.2071    2528.8394    3709.4352    2347.8056    420.42437   -84.152621   -727.63555   -3497.1899 
15682000    200.86926   -4144.2699   -3799.9869   -4144.2699            0     3490.056    17.358995    20.446603    21.177934    7516.7366    2999.7097    3912.5146    3557.9436    219.25053   -730.37511    435.56102   -3417.3933 
15683000    187.72875   -4153.7955   -3832.0348   -4153.7955            0    2635.7044     17.37573    20.466314    21.198349    7538.4965    3601.4476    2669.8422    1635.8233    402.17659    176.42379    -507.0943   -3542.2622 
15684000    195.77535   -4168.3386   -3832.7863   -4168.3386            0    3460.1239    17.340304    20.424588     21.15513     7492.482    3725.6624     3464.756    3189.9534    740.28482   -148.62898    93.483758    -3454.698 
15685000    203.84825   -4149.3708   -3799.9818   -4149.3708            0    5304.8167    17.267821    20.339212    21.066701    7398.9177    4832.8342    6139.9669     4941.649    321.10408     571.6879   -241.88168   -3227.5623 
15686000    197.24185   -4140.1067   -3802.0409   -4140.1067            0    3468.5902    17.336729    20.420377    21.150769    7487.8489    3077.8166    3981.2345    3346.7197    600.55807   -123.48719   -1159.3909   -3423.2618 
15687000    182.04599   -4141.8556    -3829.835   -4141.8556            0    3033.6214    17.311256    20.390373    21.119692    7454.8919    2231.1489    2933.7835    3935.9319    22.111125   -98.013352   -304.32746   -3500.0138 
15688000    194.31122   -4131.7674   -3798.7246   -4131.7674            0    2702.4993    17.368954    20.458333    21.190083    7529.6806    5097.3458    1956.9493    1053.2029    729.14478   -255.07308    33.836972   -3501.9559 
15689000    182.58954   -4159.1212    -3846.169   -4159.1212            0    3581.7767    17.335938    20.419445    21.149804    7486.8242    4149.2794    2304.1692    4291.8816    688.75144    198.64117   -868.89838   -3455.0832 
15690000    195.53293   -4124.1236   -3788.9869   -4124.1236            0    1491.6263    17.401159    20.496267    21.229374    7571.6432    1429.4673    1810.8783    1234.5333    188.08884    612.98131    171.86379   -3624.2746 
15691000     192.3539   -4138.4741    -3808.786   -4138.4741            0    4143.3682    17.323372    20.404644    21.134474    7470.5556    4101.1833    5019.2229    3309.6984    -8.979696   -520.62391    134.86947   -3357.3645 
15692000    191.72449   -4138.0977   -3809.4885   -4138.0977            0    4115.1849    17.351604    20.437898    21.168917    7507.1398     4071.663    5099.9825    3173.9092    820.08503    193.00579   -632.79786   -3358.9419 
15693000    188.13128   -4146.7512   -3824.3006   -4146.7512            0    4320.9527    17.344675    20.429736    21.160463     7498.149    3629.7939     5392.445    3940.6191     1453.975    1146.8081   -300.34826   -3351.7923 
15694000    199.75493   -4144.6066   -3802.2334   -4144.6066            0    3659.0023    17.355916    20.442976    21.174177    7512.7369    4638.7066    3561.6051    2776.6951    1279.0505    555.99737    432.75045   -3401.3328 
15695000    194.78884   -4158.7448   -3824.8834   -4158.7448            0    2702.3022    17.321036    20.401893    21.131624    7467.5336    2529.1988    3933.3738    1644.3341   -11.445404    53.210837    336.81954   -3530.5856 
15696000    194.76206   -4151.2444   -3817.4289   -4151.2444            0    3280.7986    17.326305    20.408099    21.138052    7474.3504     4274.112    1491.0075    4077.2765    19.559441    600.35352   -446.63906   -3459.8031 
15697000     188.2951   -4140.5112   -3817.7799   -4140.5112            0    2678.8797     17.37475    20.465161    21.197155    7537.2217    2747.2546    2776.3345      2513.05   -577.39944    709.24974   -65.714429   -3523.3103 
15698000    193.42957   -4138.8585   -3807.3268   -4138.8585            0    4362.0281    17.326579    20.408422    21.138386    7474.7052    5344.8548     3137.986    4603.2435    403.20951    1241.8607    521.14565   -3331.8181 
15699000    210.37549   -4154.9307   -3794.3543   -4154.9307            0    4530.5329    17.288824    20.363951    21.092325    7425.9488    4486.2166    4669.0992    4436.2828     61.43081   -1129.2312   -1225.4718   -3303.6983 
15700000     195.5476   -4163.5092   -3828.3473   -4163.5092            0    2682.9378     17.39368    20.487457    21.220249    7561.8839    2359.2092    2335.9986    3353.6056    315.42289   -933.40725   -411.37146   -3532.4667 
15701000    194.52734   -4150.4036   -3816.9904   -4150.4036            0    4169.9636    17.313099    20.392544    21.121941    7457.2731    4614.2796    4582.4553     3313.156    967.26022    18.749408    -82.04338    -3363.479 
15702000    191.27284   -4138.0271    -3810.192   -4138.0271            0    3324.7489    17.385857    20.478243    21.210705    7551.6858    4705.9419    2502.9107     2765.394    1008.4801   -216.61635    23.744567   -3444.0255 
15703000    189.49717    -4155.931   -3831.1394    -4155.931            0    3013.0713     17.28539    20.359906    21.088136     7421.525    3343.6843    4443.4014    1252.1281    44.028491    166.82256   -412.45146   -3505.0186 
15704000    191.88412   -4164.5068    -3835.624   -4164.5068            0    5243.2407    17.293698    20.369692    21.098271    7432.2308    6468.5047    5529.0802    3732.1373    478.18102   -220.08989    -283.5934   -3267.3014 
15705000     181.3664   -4145.6755   -3834.8197   -4145.6755            0    3472.0892     17.33607      20.4196    21.149964    7486.9946    4039.7898    3046.0756    3330.4021   -937.57472    174.15941   -44.995398   -3455.7018 
15706000    187.61149   -4159.3766   -3837.8169   -4159.3766            0    3071.5272    17.365707    20.454509    21.186122    7525.4586     4326.594    2725.6491    2162.3385    562.14851    549.59103   -332.23906   -3500.7135 
15707000    192.66094   -4143.8603    -3813.646   -4143.8603            0    5237.4771     17.25691     20.32636     21.05339    7384.9009    5765.7815    4815.2614    5131.3886    831.23435    1381.3909    454.79112   -3249.5634 
15708000    200.88954    -4150.277   -3805.9592    -4150.277            0     4545.121    17.294123    20.370192     21.09879    7432.7789    4502.7575    4100.6237    5031.9819   -70.976855    992.50325     120.2538   -3313.2705 
15709000    185.92952   -4135.9491   -3817.2722   -4135.9491            0    3678.4333    17.328697    20.410916     21.14097    7477.4466     3627.142    4845.5239    2562.6338   -406.09118   -499.92987    1336.2108   -3416.1358 
15710000    204.86569   -4140.3456   -3789.2128   -4140.3456            0    3661.4085    17.336666    20.420302    21.150692    7487.7668    4127.4314    4177.5154    2679.2788    1062.3328    374.67439    2046.9659   -3389.3819 
15711000    185.36869   -4142.2088   -3824.4932   -4142.2088            0    4246.9038    17.294243    20.370334    21.098936    7432.9342    3906.3107    4767.1299    4067.2708    500.56442    -1411.338    1172.4074   -3364.1216 
15712000    188.14836   -4129.5837   -3807.1039   -4129.5837            0    4503.8151    17.296521    20.373017    21.101715    7435.8711    5241.2634     4103.621    4166.5609    244.23049   -269.32732     447.5398   -3318.6897 
15713000    197.69661   -4137.4345   -3798.5892   -4137.4345            0    3703.7706    17.314694    20.394422    21.123886    7459.3338    5638.9257    2066.4243    3405.9617    -217.1194    1298.6687     226.0611   -3395.6681 
15714000    197.69496   -4160.9527   -3822.1103   -4160.9527            0    4334.1408    17.294635    20.370795    21.099414    7433.4385    5699.2613    2407.2372    4895.9239   -1586.7932    1019.3264    759.13464   -3352.2501 
15715000     183.7173   -4170.3728   -3855.4876   -4170.3728            0    3163.3178    17.301861    20.379307     21.10823     7442.761    3360.2922    3376.2552    2753.4061    488.69662   -286.20702   -23.374687   -3512.1252 
15716000    185.83227   -4149.6705   -3831.1604   -4149.6705            0    3542.8088    17.322093    20.403138    21.132913    7468.9008    3471.3942    3066.1078    4090.9245    838.94452    528.86063    154.03968   -3445.2555 
15717000    189.88104   -4167.8931   -3842.4435   -4167.8931            0    4458.5311    17.284955    20.359393    21.087604    7420.9639    3622.6664    6107.8117    3645.1152    677.76622    308.40141    299.91067   -3359.9094 
15718000     196.0005   -4150.2215   -3814.2834   -4150.2215            0    3457.2099    17.338433    20.422384    21.152848    7490.0568    2638.7678     3402.402    4330.4601    991.87765    456.05972   -417.38706   -3436.6358 
15719000     192.3087   -4132.0817   -3802.4712   -4132.0817            0    3991.9408    17.306727    20.385038    21.114167    7449.0419    4295.4847    4132.5324    3547.8055     102.5273    50.233202    183.35686   -3368.8001 
15720000    185.78175   -4147.6823   -3829.2588   -4147.6823            0    5483.0524    17.275963    20.348803    21.076635    7409.3889    4866.2907      6267.03    5315.8364   -1728.3626     690.9825    543.32501   -3236.7692 
15721000     196.5965   -4154.5051   -3817.5455   -4154.5051            0    3380.6248    17.271772    20.343866    21.071521    7403.9977    4770.0984    3663.7385    1708.0374     507.0533    706.52513   -550.52999   -3452.5066 
15722000     186.1713   -4153.7417   -3834.6505   -4153.7417            0    2811.8587      17.3055    20.383593    21.112669    7447.4574    3843.7357    2114.4591    2477.3813    882.44435     386.8198   -15.399298   -3529.2446 
15723000    182.01458   -4137.6379   -3825.6712   -4137.6379            0    3937.1349     17.28714    20.361967     21.09027    7423.7789    4233.3526     5142.993    2435.0589   -376.39201     58.29059  -0.52594543   -3399.4047 
15724000       196.57   -4156.6979   -3819.7837   -4156.6979            0    1950.4844    17.332549    20.415454     21.14567    7482.4344    1402.1204     990.6679    3458.6648   -57.068721    -276.4002    679.34415   -3606.9397 
15725000     183.6775   -4143.6797   -3828.8627   -4143.6797            0    3607.4934    17.323759      20.4051    21.134946    7471.0564    2911.7646    3008.1557    4902.5599    1371.3286   -587.88083    1339.9887   -3435.7986 
15726000    191.98689   -4143.2481   -3814.1891   -4143.2481            0    3925.1015    17.307808    20.386312    21.115486    7450.4383    4393.7231    3654.5092    3727.0722   -178.58145    -71.31135    179.13863   -3387.6994 
15727000    210.03042    -4137.346    -3777.361    -4137.346            0    1973.9364    17.369163     20.45858    21.190339    7529.9535    2953.4968    2842.4519    125.86051   -316.78874   -552.49626    282.29308     -3560.59 
15728000     202.6487   -4146.9793   -3799.6464   -4146.9793            0    3875.6372    17.292831     20.36867    21.097213     7431.113    4832.6012     4571.506    2222.8045    503.30693    1048.2144   -393.65083   -3379.6235 
15729000    195.24644   -4137.6609   -3803.0152   -4137.6609            0    3404.7536    17.345005    20.430124    21.160865    7498.5768    3943.8245    3837.1687    2433.2677    360.69928   -343.82714   -167.14357   -3430.6745 
15730000    194.61266   -4128.8989   -3795.3395   -4128.8989            0     2786.599    17.346273    20.431618    21.162412    7500.2218    2631.6397    2495.6665    3232.4908    150.27926    29.173837    1988.6097   -3490.5328 
15731000    199.43992   -4148.9644   -3807.1312   -4148.9644            0    3224.3387    17.331589    20.414322    21.144498    7481.1904    3895.7478    4082.4232     1694.845    1161.6263    169.16159    679.22614   -3455.3381 
15732000    186.76271    -4133.925   -3813.8201    -4133.925            0    4683.3917    17.302985    20.380631    21.109602    7444.2115    5278.2482    5555.8454    3216.0813    -483.2652   -96.527363    410.63924   -3305.3621 
15733000    189.21641   -4159.2254    -3834.915   -4159.2254            0    4044.7235    17.343069    20.427845    21.158504    7496.0673    5573.1423    4036.9788    2524.0495    702.26718    379.52159   -799.23012   -3392.7359 
15734000    189.16159    -4122.626   -3798.4095    -4122.626            0    4019.5649    17.312376    20.391692    21.121058    7456.3385    4774.6063    2592.7711    4691.3173    879.20018   -481.85282   -277.14592   -3361.3097 
15735000     186.2112   -4146.2078   -3827.0482   -4146.2078            0    4443.7893     17.30964    20.388469     21.11772    7452.8038    4220.9862    6923.5952    2186.7866    272.63495    89.596508    398.95625    -3344.046 
15736000     186.5421   -4137.1209   -3817.3941   -4137.1209            0    4099.7217    17.279451     20.35291    21.080889     7413.877    2181.6545    6467.0096     3650.501    370.94423   -829.91386    599.45592   -3374.1166 
15737000    195.45152   -4153.0863   -3818.0891   -4153.0863            0    2888.2062    17.304248    20.382118    21.111142    7445.8408    3534.8311    2658.4933    2471.2942   -1149.7375     413.2809    635.43111    -3504.459 
15738000    183.95811   -4114.7965   -3799.4986   -4114.7965            0    4783.5068    17.291814    20.367473    21.095973    7429.8021    2870.1038    5768.3877     5712.029    721.09982    261.78145   -624.46632   -3281.1767 
15739000    195.49468   -4144.5638   -3809.4926   -4144.5638            0    4593.3933    17.302734    20.380335    21.109295    7443.8867    6383.9931    3916.7687     3479.418   -149.10266    255.90621    416.34336   -3310.8272 
15740000    184.12756   -4121.9854    -3806.397   -4121.9854            0     4656.559    17.298681    20.375561     21.10435     7438.657    4207.0969    5878.0926    3884.4876    358.69341   -813.06508    -193.1623   -3301.2294 
15741000     189.3499   -4145.8623    -3821.323   -4145.8623            0    4144.9127    17.286161    20.360814    21.089076    7422.5174    2880.4926    6495.8154      3058.43     707.7136     1154.679    363.11634   -3372.6371 
15742000    189.78421    -4129.375   -3804.0913    -4129.375            0    3397.8543    17.335417    20.418832    21.149169    7486.1494    4349.1035    3281.1485    2563.3108   -34.252402    1057.7192    525.74805    -3433.121 
15743000    186.68216   -4115.8564   -3795.8895   -4115.8564            0    4246.4081     17.34035    20.424642    21.155186    7492.5415    2125.3185    5740.9751    4872.9306   -635.86351    1285.8001    222.36714   -3331.8801 
15744000     196.1138   -4147.3756   -3811.2433   -4147.3756            0    4913.3603    17.295434    20.371737    21.100389    7434.4698     4918.668    5969.5065    3851.9065    1025.8521   -1343.5265    -1150.038   -3278.5165 
15745000    199.19303   -4131.2563   -3789.8462   -4131.2563            0    5829.4549    17.286438     20.36114    21.089414    7422.8745    5295.1476    7073.1365    5120.0807   -548.11201   -445.73966    591.73431   -3158.7785 
15746000     188.6321   -4142.4952   -3819.1863   -4142.4952            0    4326.2869    17.304456    20.382364    21.111396    7446.1101    5201.9579    3732.6127      4044.29    339.68754    128.34087    296.09839    -3349.378 
15747000    194.10031   -4157.0987   -3824.4174   -4157.0987            0    5345.6111    17.283352    20.357506     21.08565    7418.9005    4688.7984    4483.6061    6864.4287    1118.7185    188.78416    1141.7377    -3246.038 
15748000    197.52256    -4138.431   -3799.8841    -4138.431            0    4154.2627    17.335318    20.418715    21.149047    7486.0207    3930.8841    4020.3346    4511.5695    920.31927   -329.29632   -284.55401   -3346.3386 
15749000    188.34643    -4154.197   -3831.3777    -4154.197            0     3996.375    17.297444    20.374104    21.102841    7437.0619    3346.6079    4606.4472      4036.07    436.28764    177.03479    529.99889   -3397.9232 
15750000     200.9272   -4134.7087   -3790.3264   -4134.7087            0     2799.229    17.346355    20.431715    21.162513    7500.3287    3378.5734    3016.6799    2002.4336   -814.81698    492.99745   -1454.7403   -3484.1338 
Loop time of 445.902 on 64 procs for 250000 steps with 864 atoms

Performance: 96.882 ns/day, 0.248 hours/ns, 560.662 timesteps/s
190.3% CPU use with 32 MPI tasks x 2 OpenMP threads

MPI task timing breakdown:
Section |  min time  |  avg time  |  max time  |%varavg| %total
---------------------------------------------------------------
Pair    | 24.168     | 32.332     | 38.465     |  66.9 |  7.25
Bond    | 0.93654    | 1.0993     | 1.5561     |  12.5 |  0.25
Kspace  | 203.38     | 212.6      | 223.86     |  33.4 | 47.68
Neigh   | 1.9736     | 2.1209     | 2.358      |   8.8 |  0.48
Comm    | 79.156     | 86.227     | 92.049     |  30.4 | 19.34
Output  | 0.54748    | 0.54786    | 0.5499     |   0.1 |  0.12
Modify  | 81.533     | 84.974     | 88.945     |  17.7 | 19.06
Other   |            | 26         |            |       |  5.83

Nlocal:        27.0000 ave          34 max          17 min
Histogram: 1 0 2 3 4 6 4 7 3 2
Nghost:        2483.53 ave        2526 max        2434 min
Histogram: 2 0 6 1 3 7 4 3 4 2
Neighs:        8241.41 ave       10891 max        5405 min
Histogram: 2 1 3 5 5 4 3 5 3 1

Total # of neighbors = 263725
Ave neighs/atom = 305.23727
Ave special neighs/atom = 2.0000000
Neighbor list builds = 5935
Dangerous builds = 0

unfix		3
unfix		2
unfix		1

write_data	data.final.${pid}
write_data	data.final.1
System init for write_data ...
PPPM initialization ...
  extracting TIP4P info from pair style
  using 12-bit tables for long-range coulomb (../kspace.cpp:340)
  G vector (1/distance) = 0.37403932
  grid = 24 24 25
  stencil order = 5
  estimated absolute RMS force accuracy = 0.0030966239
  estimated relative force accuracy = 9.3253908e-06
  using double precision FFTW3
  3d grid and FFT values/proc = 3822 576
Last active /omp style is kspace_style pppm/tip4p/omp
WARNING: Not all mixed pair coeffs generated from mixing. Use write_data with 'pair ij' option to store all pair coeffs. (../write_data.cpp:312)

write_restart   restart.lmp.${pid}
write_restart   restart.lmp.1
System init for write_restart ...
PPPM initialization ...
  extracting TIP4P info from pair style
  using 12-bit tables for long-range coulomb (../kspace.cpp:340)
  G vector (1/distance) = 0.37403932
  grid = 24 24 25
  stencil order = 5
  estimated absolute RMS force accuracy = 0.0030966239
  estimated relative force accuracy = 9.3253908e-06
  using double precision FFTW3
  3d grid and FFT values/proc = 3822 576
Last active /omp style is kspace_style pppm/tip4p/omp
Total wall time: 0:07:26
