LAMMPS data file via write_data, version 30 Jul 2021, timestep = 19250000

972 atoms
2 atom types
648 bonds
1 bond types
324 angles
1 angle types

0.04741018264924257 19.952590817344745 xlo xhi
0.13297508655605306 19.867025913441026 ylo yhi
0.0949710800239103 20.6050269199728 zlo zhi

Masses

1 1.008
2 15.999

Pair Coeffs # lj/cut/tip4p/long/omp

1 0 0
2 0.21084 3.1668

Bond Coeffs # harmonic/omp

1 450 0.9572

Angle Coeffs # harmonic/omp

1 55 104.52

Atoms # full

18 6 1 0.5897 4.5538313120248946 3.288950610017642 3.069742915881721 0 0 0
22 8 2 -1.1794 2.162297569291472 0.941812473413215 4.771801190769054 0 0 0
16 6 2 -1.1794 4.1427113345140905 4.107519390255809 3.3474175780478985 0 0 0
12 4 1 0.5897 2.2780558416509695 4.034741074704829 3.895698861075347 0 0 0
31 11 2 -1.1794 1.0028758886934395 1.7266136035850936 2.0874918169257493 0 0 0
11 4 1 0.5897 1.3521991202420742 2.9501940098227224 3.387296043250705 0 0 0
33 11 1 0.5897 1.734505858359092 2.0582745588685385 1.566920718701061 0 0 0
10 4 2 -1.1794 1.3560374346863497 3.7790637455233353 3.865926122284556 0 0 0
4 2 2 -1.1794 4.354992393666645 1.4169972402639401 3.1336805268419274 0 0 0
3 1 1 0.5897 3.502699215544436 2.937143676059389 0.5722529401754477 0 0 0
23 8 1 0.5897 2.906616093397667 0.9415935451717047 4.1699374999672045 0 0 0
5 2 1 0.5897 4.749793082488311 0.9738342523479667 2.3827438775523735 0 0 0
17 6 1 0.5897 4.3110847302626505 4.716536300530387 2.628486340108845 0 0 0
1 1 2 -1.1794 2.617513785607485 2.952666595088185 0.2081454683274295 0 0 0
6 2 1 0.5897 5.004395677532905 1.3309930766461493 3.8316185656952517 0 0 0
9 3 1 0.5897 4.8934521813070795 4.504906079462445 4.934461140587236 0 0 0
81 27 1 0.5897 0.2826624367162087 4.589533123747041 5.152982256879543 1 0 0
32 11 1 0.5897 0.23070985409093225 2.1526969305334385 1.7153047212774724 0 0 0
355 119 2 -1.1794 1.124446527523015 2.248177863048633 8.953047084742371 0 0 0
27 9 1 0.5897 2.6375118378301545 3.846861866870612 6.596278794207155 0 0 0
356 119 1 0.5897 1.86765460550389 2.355650938671367 8.359437590364253 0 0 0
325 109 2 -1.1794 2.9845136258688347 2.1390890908277465 7.0497263598227 0 0 0
326 109 1 0.5897 2.677235963073411 1.68712799898451 6.263935502009888 0 0 0
327 109 1 0.5897 3.928325574597027 2.23212901990697 6.919559747126792 0 0 0
357 119 1 0.5897 0.3652763334331611 2.5250025307327686 8.439896215891544 0 0 0
330 110 1 0.5897 4.196709796620612 1.3365520319699604 9.23395399729917 0 0 0
328 110 2 -1.1794 4.113221897442282 1.9238325008574568 9.985112929294383 0 0 0
561 187 1 0.5897 0.9012796631447694 0.562889103324062 9.108947439879906 0 1 0
341 114 1 0.5897 4.420482571680219 3.542484602146326 10.123002399531186 0 0 0
25 9 2 -1.1794 2.53360181032158 4.798035215978305 6.571423374066277 0 0 0
102 34 1 0.5897 0.5515080863320462 0.85666796545606 5.266456471241961 1 0 0
26 9 1 0.5897 1.924046834729537 4.991570022753952 7.283620262934108 0 0 0
342 114 1 0.5897 4.366607905140731 4.9914185171295395 9.687871459199398 0 0 0
335 112 1 0.5897 1.4359403894933218 3.480767596365707 10.098198501800722 0 0 0
346 116 2 -1.1794 2.1781463687892457 1.007863199248101 11.967928689687005 0 0 0
350 117 1 0.5897 2.6953207842216593 4.512530986375626 13.779878863042395 0 0 0
650 217 1 0.5897 2.733191679424524 2.0448316532571975 13.583915981262457 0 0 0
651 217 1 0.5897 2.3557267252778704 2.4621221958316952 14.98927847659197 0 0 0
348 116 1 0.5897 2.5690447662330627 1.3643135807393005 11.170249793461153 0 0 0
405 135 1 0.5897 0.319860166527415 4.058648846574711 12.20371861193664 1 0 0
347 116 1 0.5897 1.234326988598971 1.0584748422818318 11.816113577429999 0 0 0
649 217 2 -1.1794 2.988014161385825 2.6362297215867936 14.292034158756636 0 0 0
336 112 1 0.5897 2.6171069301673073 4.113465266242892 10.802893857526767 0 0 0
683 228 1 0.5897 4.849083127826556 2.6796186339986074 14.498462870957027 0 0 0
340 114 2 -1.1794 4.297717130225568 4.429920060949814 10.459940354779224 0 0 0
334 112 2 -1.1794 1.6608932488256825 4.132674242111836 10.761950999215587 0 0 0
329 110 1 0.5897 4.673325071708321 1.5351369977588656 10.656968217272937 0 0 0
671 224 1 0.5897 1.218087933460962 1.1404432595041152 18.392435342591067 0 0 0
653 218 1 0.5897 3.550711149615471 1.1042818771074598 17.325501904642824 0 0 0
666 222 1 0.5897 4.211359074423809 3.233723262227832 16.8028691090545 0 0 0
670 224 2 -1.1794 2.1278219777651204 0.9555511427953769 18.62605284176842 0 0 0
660 220 1 0.5897 1.2498828218995273 5.061521395546048 16.800590063878325 0 0 0
664 222 2 -1.1794 4.065909354549661 4.161110420519681 16.989785961661234 0 0 0
681 227 1 0.5897 0.6767237556053034 2.737208724087179 16.69421326010886 0 0 0
659 220 1 0.5897 0.935963913064979 4.414696068839788 18.132780046835894 0 0 0
652 218 2 -1.1794 4.406597058416252 1.3556346500942962 16.978189652572283 0 0 0
672 224 1 0.5897 2.2919463797099464 1.496505678513504 19.39843147401149 0 0 0
665 222 1 0.5897 3.1444269563068574 4.213120869556132 17.243829905483015 0 0 0
658 220 2 -1.1794 1.4693540177998847 4.305857640624973 17.345478373642404 0 0 0
679 227 2 -1.1794 0.5635416325030241 1.9847014094257585 16.11366237009313 0 0 0
654 218 1 0.5897 4.613982949748437 0.6765650194473638 16.336312934656565 0 0 0
884 295 1 0.5897 1.1683145747946477 0.24488549892069483 15.823690005651116 0 1 0
656 219 1 0.5897 4.867175288008829 4.647212501953796 18.427842747262673 0 0 0
2 1 1 0.5897 2.4847790593482553 3.8614633135182057 20.448715806807588 0 0 -1
14 5 1 0.5897 4.302448738083306 6.1144322375053255 0.8441027194243903 0 0 0
139 47 2 -1.1794 0.9233514414606174 8.874813016982502 2.219370379841888 0 0 0
141 47 1 0.5897 0.9758486709632782 7.956951776373106 2.485678691844323 0 0 0
110 37 1 0.5897 2.0474990193032947 9.278659164151914 0.8443864519671038 0 0 0
112 38 2 -1.1794 3.8721039582563614 8.102445495586581 3.565163176618923 0 0 0
674 225 1 0.5897 1.8618016923186973 5.874624554054914 0.474538391707252 0 0 1
140 47 1 0.5897 1.047738787806754 9.367514705539167 3.0304828240199453 0 0 0
20 7 1 0.5897 1.0122255523486379 5.103246748006226 2.661254219521312 0 0 0
19 7 2 -1.1794 0.7468369922757946 5.833217279988544 2.1019338833842376 0 0 0
114 38 1 0.5897 3.15693646708585 7.90634025895253 4.17043433301993 0 0 0
13 5 2 -1.1794 4.94011870154173 6.149949236748699 1.557088537916633 0 0 0
15 5 1 0.5897 4.634955938389247 6.864158803596681 2.116488796522649 0 0 0
109 37 2 -1.1794 2.7844634439901284 9.289047039659968 0.23363623304521397 0 0 0
126 42 1 0.5897 3.997990838548893 9.81346887727769 3.6764467820702653 0 0 0
113 38 1 0.5897 4.665971171866934 7.877924022138926 4.05063487723077 0 0 0
111 37 1 0.5897 3.551906516915792 9.120717068990023 0.7804495539564147 0 0 0
343 115 2 -1.1794 0.8058498092772629 5.619362859525785 8.496487163821552 0 0 0
438 146 1 0.5897 4.307923598430492 8.935965180684128 10.068091414171182 0 0 0
339 113 1 0.5897 3.8842722987891642 5.633988043885117 7.567733417700542 0 0 0
443 148 1 0.5897 1.2487515420818829 9.796118506784875 10.303052595786047 0 0 0
345 115 1 0.5897 1.048748926346695 6.524393078575477 8.691632077672793 0 0 0
435 145 1 0.5897 2.6860127864438277 8.300223622503129 6.470880019212803 0 0 0
463 155 2 -1.1794 0.8878556787205634 8.390964483318974 8.9449436027934 0 0 0
437 146 1 0.5897 4.2786661359875495 7.598152936327943 9.36022137606515 0 0 0
433 145 2 -1.1794 3.003879247216011 8.747471078974725 7.255154811323864 0 0 0
464 155 1 0.5897 1.6003454746049695 8.640356826143568 8.356345538694033 0 0 0
131 44 1 0.5897 2.2710405853699767 6.490232145838077 5.700327584186678 0 0 0
468 156 1 0.5897 4.760807949267753 8.937619445831215 7.080516984217902 0 0 0
132 44 1 0.5897 1.0110961192823478 7.233558600064677 5.310274082333017 0 0 0
344 115 1 0.5897 0.9460382110929858 5.150561098000735 9.319063093574867 0 0 0
337 113 2 -1.1794 4.398793220999985 6.085302713244826 8.236909980929056 0 0 0
436 146 2 -1.1794 4.174254456232002 8.000806963118205 10.222250444420553 0 0 0
465 155 1 0.5897 0.09029877661174138 8.597537562972668 8.457564337042577 0 0 0
434 145 1 0.5897 2.975792054075197 9.67716050366591 7.029250699412569 0 0 0
130 44 2 -1.1794 1.9658102616995274 7.302302214913205 5.295918239330098 0 0 0
349 117 2 -1.1794 2.755090421211487 5.467470603838939 13.754385612537758 0 0 0
757 253 2 -1.1794 2.562739827463494 9.19993617806104 13.971573068023988 0 0 0
454 152 2 -1.1794 2.0870523115283883 7.415977798372073 11.793254387526384 0 0 0
455 152 1 0.5897 2.7489288704632595 7.595362101225036 11.125431283845334 0 0 0
456 152 1 0.5897 2.429165200373605 6.662091233707658 12.273610236456442 0 0 0
792 264 1 0.5897 4.4166883001443695 9.230341769388081 14.196905259864884 0 0 0
759 253 1 0.5897 2.539179810983567 8.724301937756081 13.141324514878614 0 0 0
351 117 1 0.5897 3.6108316285403097 5.664618193024444 14.135366116718572 0 0 0
668 223 1 0.5897 1.340084810509222 6.217842094913155 14.842671578013649 0 0 0
661 221 2 -1.1794 4.746692781047602 6.0785785960414955 15.239035730787508 0 0 0
533 178 1 0.5897 0.325344019485694 7.099826945483312 12.094087537565166 1 0 0
789 263 1 0.5897 1.3696351895555101 8.934801703606059 15.476838810929898 0 0 0
787 263 2 -1.1794 0.5484708338098694 8.828599673183142 15.957167999731348 0 0 0
780 260 1 0.5897 2.730803956045651 8.02973247184712 17.792821203513014 0 0 0
778 260 2 -1.1794 2.313919748814272 7.807971871028632 18.62540075059342 0 0 0
762 254 1 0.5897 4.965017404110409 8.24438377007892 17.29038704390845 0 0 0
779 260 1 0.5897 2.616924072908358 8.482892409418804 19.232700045706064 0 0 0
788 263 1 0.5897 0.7370598665262657 9.166905050131875 16.832444581900358 0 0 0
675 225 1 0.5897 2.611891018423848 6.4339818783684235 19.794533590910127 0 0 0
761 254 1 0.5897 4.096962124693257 9.41374955330719 16.87698596695134 0 0 0
760 254 2 -1.1794 4.2425922560163905 8.482725087450682 16.709373025900508 0 0 0
663 221 1 0.5897 4.5298101032306715 6.853591737119706 15.757172919956455 0 0 0
669 223 1 0.5897 0.6710497393111994 7.202699814092973 15.777659339118468 0 0 0
662 221 1 0.5897 4.60660277966689 5.343771560072883 15.836164162960026 0 0 0
858 286 1 0.5897 0.43147302174400715 7.581402491631097 18.6505299332524 1 0 0
667 223 2 -1.1794 0.6945602781359839 6.273998522495687 15.547218111295988 0 0 0
673 225 2 -1.1794 2.6656255216925198 5.764623751736909 20.47659549875161 0 0 0
783 261 1 0.5897 1.7284739702015524 12.091925396409419 0.4140148883587742 0 0 1
118 40 2 -1.1794 1.4704643571586233 10.968660942354363 3.8805664414605747 0 0 0
119 40 1 0.5897 1.3962531389887125 11.585757627901362 3.152734968554861 0 0 0
127 43 2 -1.1794 0.8573650228938725 12.805680551212443 1.9190522906210823 0 0 0
125 42 1 0.5897 4.969157948944453 10.68957618397395 4.438769928675951 0 0 0
124 42 2 -1.1794 4.177321362590515 10.726171781948185 3.9021588499745934 0 0 0
222 74 1 0.5897 3.8062516628636045 14.080122973527416 2.1236335959408636 0 0 0
220 74 2 -1.1794 3.5475919919652528 14.515239877730096 2.9359810252047542 0 0 0
129 43 1 0.5897 0.8654567938460185 13.76241352346595 1.8923118805177268 0 0 0
240 80 1 0.5897 2.3759027896146807 14.026528664753487 4.208267156262618 0 0 0
120 40 1 0.5897 2.411857181056078 10.895020353969729 4.03782152373514 0 0 0
123 41 1 0.5897 3.7499964328505926 12.048410964665292 0.9220752360432585 0 0 0
122 41 1 0.5897 4.428537378605735 11.83056895542765 2.2577027822658886 0 0 0
238 80 2 -1.1794 1.8747388736993549 13.8867315546282 5.011694480456504 0 0 0
188 63 1 0.5897 0.09482031291919965 11.142555688785125 5.14284561138282 1 0 0
121 41 2 -1.1794 4.5501435818953935 12.251452286662273 1.4067055274071025 0 0 0
317 106 1 0.5897 0.145946840695854 14.306602739753744 5.061429288844151 1 0 0
133 45 2 -1.1794 2.6256003243074075 11.490781990987953 6.816962982694008 0 0 0
134 45 1 0.5897 1.8814609462952119 11.74132236045317 7.364467028373695 0 0 0
135 45 1 0.5897 3.3388078514747135 12.059906727121838 7.106150563819656 0 0 0
448 150 2 -1.1794 4.22847687511196 10.740994657675383 10.32003892766609 0 0 0
573 191 1 0.5897 0.6554095428946174 14.341282069605487 9.435379246149068 0 0 0
451 151 2 -1.1794 0.726528689393505 12.506962441875046 8.732262537192401 0 0 0
544 182 2 -1.1794 4.012078958751932 14.094557158479525 10.169394395009693 0 0 0
453 151 1 0.5897 1.090461139817047 12.077621990876432 9.506466500679322 0 0 0
450 150 1 0.5897 4.368058989262749 11.353539389914628 9.597926980405868 0 0 0
445 149 2 -1.1794 4.673226749226862 12.510161521849085 8.22419125625774 0 0 0
239 80 1 0.5897 2.2056820283810037 13.058842884562502 5.359899026422572 0 0 0
446 149 1 0.5897 4.3485806384010255 13.207241025278556 8.794146528417304 0 0 0
758 253 1 0.5897 2.427739507314865 10.115545456525158 13.727535000937687 0 0 0
512 171 1 0.5897 0.14023355520166875 10.972043105028767 11.971908815872352 1 0 0
442 148 2 -1.1794 1.401043044076945 10.5981982252156 10.802660275913373 0 0 0
564 188 1 0.5897 1.9201145840180536 13.021421975433489 12.174940024333074 0 0 0
457 153 2 -1.1794 2.523264740261743 11.902140942305815 13.398126373334994 0 0 0
458 153 1 0.5897 1.8110078665660914 11.937423165150191 14.03665345510426 0 0 0
459 153 1 0.5897 3.2933370171772136 12.203117233452698 13.880517550674718 0 0 0
546 182 1 0.5897 3.2483404426947224 13.906142813916146 10.714842895016028 0 0 0
562 188 2 -1.1794 1.6032546140913648 13.741234360391665 11.629395846448247 0 0 0
545 182 1 0.5897 4.7449488115762195 14.124434192275176 10.78445636771836 0 0 0
449 150 1 0.5897 4.80181914304582 11.058076292865493 11.017869429389078 0 0 0
563 188 1 0.5897 2.020357041194086 14.521192047527874 11.995291261149847 0 0 0
769 257 2 -1.1794 4.714076476148957 12.49545549391062 15.202768542423101 0 0 0
444 148 1 0.5897 2.335722291030476 10.774499205727196 10.694545742325976 0 0 0
886 296 2 -1.1794 1.9811323822500913 13.644026051514063 18.215524108536755 0 0 0
766 256 2 -1.1794 1.2732605933345704 10.759663252501172 17.83670528752549 0 0 0
773 258 1 0.5897 3.2603575131741866 11.214062809024737 17.760680789189884 0 0 0
768 256 1 0.5897 1.1055513468739788 11.41555346568335 17.16007675620926 0 0 0
772 258 2 -1.1794 4.1894518422207865 11.110813059761417 17.554544321033635 0 0 0
870 290 1 0.5897 4.709376983960694 14.38620978497233 17.70283123549332 0 0 0
774 258 1 0.5897 4.313216058252736 11.610574246914231 16.74766851105416 0 0 0
965 322 1 0.5897 0.18600449218408624 13.97845058617698 18.88530269769089 1 0 0
888 296 1 0.5897 2.1525733393494475 12.985123112460657 18.888273955571684 0 0 0
767 256 1 0.5897 0.6411296631875162 10.960019606782096 18.52700246308164 0 0 0
869 290 1 0.5897 3.238948794860099 14.113848338327772 17.466260071492794 0 0 0
868 290 2 -1.1794 4.029201089755455 14.433815581156514 17.03100787005771 0 0 0
771 257 1 0.5897 4.574551677960056 13.35807969642042 15.593343649991642 0 0 0
781 261 2 -1.1794 2.459193137975326 11.923634778278672 20.329091400375148 0 0 0
782 261 1 0.5897 2.625658319441301 10.984807614286803 20.412987794796496 0 0 0
777 259 1 0.5897 1.1409102583886621 13.21064383514122 15.872377081156758 0 0 0
887 296 1 0.5897 2.111079148487855 14.48120491092742 18.66093275732177 0 0 0
775 259 2 -1.1794 0.8733242118964796 12.310500615191765 15.687156260731715 0 0 0
249 83 1 0.5897 1.2064453460459543 15.639707516739916 1.3391424888699044 0 0 0
234 78 1 0.5897 3.59440386060108 17.22021633650062 3.777109314772205 0 0 0
233 78 1 0.5897 4.506355959760986 17.686159684088118 2.662157749810261 0 0 0
235 79 2 -1.1794 1.3006758379024854 18.80021354856232 1.935075689192521 0 0 0
226 76 2 -1.1794 1.810212669776827 17.110575473984042 4.110259567037168 0 0 0
230 77 1 0.5897 4.140003152782984 18.72250124805668 0.36398729801433555 0 0 0
229 77 2 -1.1794 4.482791641648665 19.264743821830585 1.074337703017079 0 0 0
227 76 1 0.5897 1.858206129126608 17.9030398957946 3.57565674944116 0 0 0
221 74 1 0.5897 4.041185248257074 15.335351849425203 2.9365800295693414 0 0 0
232 78 2 -1.1794 4.51673906250364 17.358655595830612 3.561453887895107 0 0 0
219 73 1 0.5897 3.303070632353362 15.563936060464917 0.1550166285241572 0 0 0
248 83 1 0.5897 1.269910980693769 16.052026775065904 2.7942725618613737 0 0 0
228 76 1 0.5897 0.9861227516918142 17.19427956814075 4.590029396608535 0 0 0
247 83 2 -1.1794 0.7372037341244823 15.559961892797634 2.1695301483969947 0 0 0
890 297 1 0.5897 2.1954221036334984 18.65151813586047 0.32821981014986235 0 0 1
237 79 1 0.5897 0.43123990206903084 18.420522535030052 1.8076027753682216 0 0 0
236 79 1 0.5897 1.1545393284121492 19.745965680406236 1.916411108830346 0 0 0
24 8 1 0.5897 2.164844493505377 19.799589853653693 5.156843204608497 0 -1 0
241 81 2 -1.1794 2.1858114190939872 18.727255182687173 6.791659700479138 0 0 0
558 186 1 0.5897 4.391490391419563 17.40731858785235 9.780336453431682 0 0 0
541 181 2 -1.1794 1.7719872068017162 15.965132625284092 6.977242059212275 0 0 0
572 191 1 0.5897 0.8702920867602187 15.731022927626585 9.995827794339316 0 0 0
242 81 1 0.5897 1.9906272855368363 17.81423107350227 6.5808400766729935 0 0 0
559 187 2 -1.1794 0.7854491860642303 19.349456853723986 9.17965711084358 0 0 0
555 185 1 0.5897 3.8176400062565925 18.96667020798766 7.966093691304006 0 0 0
571 191 2 -1.1794 0.3524095132115457 15.24554614790135 9.353715460185487 0 0 0
243 81 1 0.5897 1.7031720965707906 18.895088139034776 7.60103434606509 0 0 0
576 192 1 0.5897 3.6799794828197525 15.886034096341607 7.156652039834747 0 0 0
542 181 1 0.5897 1.2260240781258933 15.642525198383826 7.694222112545292 0 0 0
553 185 2 -1.1794 4.501991079131021 18.80067557400669 8.6144492639105 0 0 0
543 181 1 0.5897 1.7548383974129809 15.262385529496598 6.327647542041694 0 0 0
552 184 1 0.5897 1.3242890248052177 18.099577843725278 10.154136627167912 0 0 0
574 192 2 -1.1794 4.614141796460346 15.784355948179437 6.973909799649975 0 0 0
557 186 1 0.5897 4.2372862044749295 15.9569893889985 10.185833365244067 0 0 0
575 192 1 0.5897 4.66448111691674 15.0205928766784 6.3992195369477045 0 0 0
551 184 1 0.5897 2.6357021066037296 17.444943838520935 10.533359294485532 0 0 0
556 186 2 -1.1794 4.295103732224668 16.84172017580569 10.546450063649129 0 0 0
867 289 1 0.5897 1.8757072023907244 15.347027306652805 14.369193163681464 0 0 0
565 189 2 -1.1794 2.7957884586932527 18.451972201131497 13.268244019122 0 0 0
566 189 1 0.5897 2.5997845794330217 17.62025000800356 12.83699479787749 0 0 0
550 184 2 -1.1794 1.6953120068981475 17.41414017513297 10.709740813851264 0 0 0
866 289 1 0.5897 3.3399652510239153 15.60528769617956 14.083643327818884 0 0 0
865 289 2 -1.1794 2.4999704633957425 15.451418682693163 13.651116576262956 0 0 0
879 293 1 0.5897 4.2608477745655815 18.858224074559615 14.581600951403209 0 0 0
621 207 1 0.5897 0.17157169819176799 17.655161565258958 11.820175967526115 1 0 0
567 189 1 0.5897 2.721549789991552 19.105961708613783 12.57331883608959 0 0 0
885 295 1 0.5897 1.7053912999166858 18.830709879699583 14.99617703344242 0 0 0
877 293 2 -1.1794 4.695170549469105 18.90742706668948 15.433138143205365 0 0 0
874 292 2 -1.1794 0.605316628630951 17.042647780683374 17.678979150461835 0 0 0
876 292 1 0.5897 0.1289971131498393 17.479628160333398 18.38493051355892 0 0 0
897 299 1 0.5897 0.7516386224624547 15.731978280910683 16.227035345462404 0 0 0
875 292 1 0.5897 0.5847933820231787 17.666662729070552 16.953515153418433 0 0 0
880 294 2 -1.1794 3.4485175280254734 17.33811868427628 17.365524865176898 0 0 0
881 294 1 0.5897 2.5234733558594638 17.302293445222674 17.609254952410105 0 0 0
889 297 2 -1.1794 2.493026222694806 18.298220575524205 19.999963387289416 0 0 0
882 294 1 0.5897 3.6671170350911155 16.43907296380793 17.120385125563377 0 0 0
891 297 1 0.5897 2.2936391471886575 18.986325106007946 19.36523145509351 0 0 0
873 291 1 0.5897 4.803430984082918 17.422191725486286 18.61487707107848 0 0 0
878 293 1 0.5897 4.219247550596243 18.283795006432236 15.981570448157294 0 0 0
217 73 2 -1.1794 2.4692921579516085 15.580018233563901 20.195096810978388 0 0 -1
218 73 1 0.5897 2.2145109747789666 16.502615280210946 20.189821714180013 0 0 -1
883 295 2 -1.1794 1.1729222132283315 19.023435816188822 15.767849678248767 0 0 0
895 299 2 -1.1794 0.6729446056788543 15.04596748660519 15.564229206690333 0 0 0
68 23 1 0.5897 8.359414108813235 2.312372718996434 1.4739585995304962 0 0 0
34 12 2 -1.1794 5.495058705490717 2.873502202422022 0.5997481983348336 0 0 0
67 23 2 -1.1794 7.640915228549855 2.322492059465364 2.1063591008437617 0 0 0
69 23 1 0.5897 6.883011042946287 2.6215764115004934 1.603954165936534 0 0 0
47 16 1 0.5897 7.749645230312803 3.3849592480672785 3.61164732802882 0 0 0
46 16 2 -1.1794 7.928148402389916 4.215154754167635 4.053303748630568 0 0 0
48 16 1 0.5897 7.250941338222853 4.279105721323691 4.726776396096196 0 0 0
29 10 1 0.5897 7.0061571304383214 1.1465757131834504 4.627906751841614 0 0 0
272 91 1 0.5897 7.4589742277720035 0.3663303501545115 1.9290975784281745 0 1 0
28 10 2 -1.1794 6.1841421881715055 1.0182845794797202 5.101368000027832 0 0 0
58 20 2 -1.1794 9.0328293417305 1.2450174969087004 4.821375701018695 0 0 0
41 14 1 0.5897 9.793735704552414 1.522166174692624 3.312299028189693 0 0 0
36 12 1 0.5897 5.482820975162427 3.7044480201991523 0.12487393290891191 0 0 0
37 13 2 -1.1794 9.45976031253788 2.3544509217654883 0.1601122411773659 0 0 0
391 131 2 -1.1794 7.575720423235147 2.4287491438821016 9.20087009258993 0 0 0
359 120 1 0.5897 6.234558535931288 2.7090743176544922 8.063345395634961 0 0 0
360 120 1 0.5897 6.0926982151152655 2.146828341558861 6.665030289813379 0 0 0
392 131 1 0.5897 8.329825386907661 2.4046819088010425 8.611790482535739 0 0 0
362 121 1 0.5897 9.498402067258473 3.507547352462109 6.804133398614071 0 0 0
7 3 2 -1.1794 5.555952766789691 4.697110917704244 5.598094533879311 0 0 0
8 3 1 0.5897 5.504524889739059 3.961705237737731 6.208533204851516 0 0 0
393 131 1 0.5897 7.322114056168768 1.5115401777329873 9.303670029794535 0 0 0
361 121 2 -1.1794 9.612002940442082 2.648861436462931 7.211418537115056 0 0 0
59 20 1 0.5897 9.18929118016766 1.8728327335564636 5.526699565278736 0 0 0
60 20 1 0.5897 8.973749302644245 0.3978304448594949 5.26285633100528 0 0 0
358 120 2 -1.1794 5.63867568275179 2.6834174236502157 7.314685441207928 0 0 0
377 126 1 0.5897 9.898118664789616 4.401705887899727 10.1148304894403 0 0 0
371 124 1 0.5897 8.038385284335227 3.7877546863271165 10.30807631487335 0 0 0
682 228 2 -1.1794 5.79267250375175 2.7227772747055883 14.343027695743956 0 0 0
384 128 1 0.5897 9.278146240446073 1.1308745139840226 11.266642291637124 0 0 0
686 229 1 0.5897 8.89700820048664 2.6299671327725416 14.526855017256588 0 0 0
382 128 2 -1.1794 8.784689272259065 0.72104115910974 11.97709253805041 0 0 0
685 229 2 -1.1794 9.15398752635888 2.850783978066743 13.631693555219117 0 0 0
383 128 1 0.5897 8.881057185866903 1.3233226783901462 12.714718828922958 0 0 0
353 118 1 0.5897 6.827032771530035 1.0460568697322912 11.958947464570215 0 0 0
352 118 2 -1.1794 5.8853232233330965 1.1863668122962538 12.058366966338532 0 0 0
370 124 2 -1.1794 8.177459751460484 4.598874707261348 10.79684071850567 0 0 0
372 124 1 0.5897 7.374253560536013 4.713644154201859 11.30479494055717 0 0 0
332 111 1 0.5897 5.301766713133606 4.649478462043582 11.95801496174642 0 0 0
354 118 1 0.5897 5.805946187427505 1.7408698947427135 12.83448571584693 0 0 0
684 228 1 0.5897 5.910250191786034 3.49817996519889 13.794373411886953 0 0 0
331 111 2 -1.1794 6.0558571511785795 4.8046116551318905 12.526853161883059 0 0 0
386 129 1 0.5897 8.7703223239957 4.931761667484755 13.255934894766412 0 0 0
655 219 2 -1.1794 5.481303224128354 4.903681958772738 19.11581846616759 0 0 0
717 239 1 0.5897 7.0616861771078465 2.359360018687076 15.55913562887586 0 0 0
715 239 2 -1.1794 7.846120618110953 2.1136963943319307 16.04966193036354 0 0 0
706 236 2 -1.1794 8.765436803193518 0.4817184582453096 18.59740431407399 0 0 0
657 219 1 0.5897 6.316275134651261 4.519978848846901 18.847607841600325 0 0 0
676 226 2 -1.1794 5.859620283288023 0.7525766838317157 19.18578627157714 0 0 0
35 12 1 0.5897 5.596692940876465 2.2091177098744494 20.428338306378688 0 0 -1
38 13 1 0.5897 9.29007792373541 1.6627275343520014 20.030737391619553 0 0 -1
708 236 1 0.5897 7.819528895346291 0.6288950826454376 18.598391503578707 0 0 0
695 232 1 0.5897 7.7655396970339545 3.151398406095257 17.63335068409053 0 0 0
694 232 2 -1.1794 7.968475253418139 3.9946907045203037 18.038110919146742 0 0 0
696 232 1 0.5897 7.697178660151101 4.6438282586654775 17.389174978181604 0 0 0
716 239 1 0.5897 7.869780908815123 1.158054173816606 16.001499865047762 0 0 0
677 226 1 0.5897 5.288214403835771 1.1174342328721587 18.510085422931258 0 0 0
711 237 1 0.5897 9.295023753271042 4.2327682744284685 20.404514167902594 0 0 0
702 234 1 0.5897 9.859328167717768 3.9271402189147393 17.874322078074307 0 0 0
175 59 2 -1.1794 7.854495554751663 9.01235088088713 2.01107232449572 0 0 0
55 19 2 -1.1794 7.729656124679654 6.153437164100021 2.1700768342723364 0 0 0
142 48 2 -1.1794 5.508764029954989 9.182400764978103 0.5443959892588768 0 0 0
177 59 1 0.5897 8.500103052845375 8.931704057683321 1.3089725383940283 0 0 0
710 237 1 0.5897 8.805741771678063 5.348227228231229 0.7933985619368794 0 0 1
176 59 1 0.5897 7.747816403624093 8.120787060191425 2.342559945964947 0 0 0
56 19 1 0.5897 6.816499816810793 6.023386003848136 1.9139295312539473 0 0 0
166 56 2 -1.1794 8.832238793952634 7.429335634136858 4.720976705102373 0 0 0
143 48 1 0.5897 6.209325276583557 9.04517500001639 1.1820905201164587 0 0 0
57 19 1 0.5897 7.862397606794781 5.549324031046935 2.900494843474656 0 0 0
136 46 2 -1.1794 6.08374819165993 7.387588507982214 4.920964318145001 0 0 0
138 46 1 0.5897 7.034884049670776 7.405115645922634 4.814093627205372 0 0 0
62 21 1 0.5897 8.884632431898819 5.53996279819007 7.135618303381987 0 0 0
167 56 1 0.5897 9.182788628953768 6.730886122908734 5.273649660276556 0 0 0
379 127 2 -1.1794 7.441363961622929 5.738811747799111 8.320530174781954 0 0 0
500 167 1 0.5897 7.593890509538397 8.980158043926622 9.58157582514127 0 0 0
499 167 2 -1.1794 7.416019298667065 8.304866024216993 8.926998393416817 0 0 0
501 167 1 0.5897 6.695826759984405 8.659666810347751 8.405722366460664 0 0 0
470 157 1 0.5897 8.464518587652483 8.929783879374424 7.450827011034457 0 0 0
467 156 1 0.5897 5.936861592504 8.611336694854984 6.184699368736468 0 0 0
469 157 2 -1.1794 8.985161422762713 9.280273567565464 6.7281241641685785 0 0 0
380 127 1 0.5897 7.390219003585505 6.628811622063565 8.668832538969907 0 0 0
466 156 2 -1.1794 5.684136647167543 9.145870938118204 6.937397599347249 0 0 0
338 113 1 0.5897 5.306942806975187 5.861889323585797 8.032793987868523 0 0 0
168 56 1 0.5897 8.936384893508658 8.224235194834385 5.243885704428238 0 0 0
61 21 2 -1.1794 9.535342739427492 5.3913464578511405 6.449516920281622 0 0 0
471 157 1 0.5897 9.871918025514544 9.348763463621903 7.082142288096584 0 0 0
381 127 1 0.5897 7.749055864879408 5.210246164035558 9.056799509693647 0 0 0
137 46 1 0.5897 5.89763365162415 6.516532009569821 5.27129659842447 0 0 0
460 154 2 -1.1794 6.169731923739161 7.48842617543677 12.00867248154128 0 0 0
491 164 1 0.5897 9.517434567716109 7.71883880865412 11.27375565711751 0 0 0
385 129 2 -1.1794 9.008380157892796 5.7016311841792655 13.772441703354415 0 0 0
791 264 1 0.5897 5.817315595512675 9.155536093377718 14.766857482066888 0 0 0
333 111 1 0.5897 6.266244350517353 5.729631671952545 12.399573095443941 0 0 0
387 129 1 0.5897 9.187779486611795 6.380754120114043 13.122252475218888 0 0 0
490 164 2 -1.1794 9.046624020781817 7.778918765609873 12.104972001360226 0 0 0
462 154 1 0.5897 5.628786233823977 7.59629274694316 11.226400918622339 0 0 0
492 164 1 0.5897 8.130498507649277 7.897678325612217 11.853976431523412 0 0 0
794 265 1 0.5897 9.297063013460173 8.609235644271779 13.831115493968246 0 0 0
793 265 2 -1.1794 9.362046368859742 9.24003524080049 14.548054415636178 0 0 0
461 154 1 0.5897 5.718583121094369 7.994927822138708 12.684021280037646 0 0 0
790 264 2 -1.1794 5.339291882150324 9.289367305066484 13.948485220562766 0 0 0
705 235 1 0.5897 7.933156548687502 5.890558286233902 15.253115277677406 0 0 0
823 275 2 -1.1794 7.174329009670141 8.616971906007707 15.998120864763724 0 0 0
825 275 1 0.5897 7.237527544377635 7.679489943823153 16.18025049669244 0 0 0
816 272 1 0.5897 9.066589390711355 7.707631851870429 19.386106467115145 0 0 0
785 262 1 0.5897 5.5966049527699875 6.614356183921259 18.746459872659873 0 0 0
784 262 2 -1.1794 5.850121053528972 7.5372867500142124 18.737318354434603 0 0 0
786 262 1 0.5897 6.79978226635869 7.524187767816303 18.61740705130797 0 0 0
814 272 2 -1.1794 8.617591947233054 7.1898539798551075 18.71790887948762 0 0 0
815 272 1 0.5897 8.762047605174613 6.281069461601172 18.981316964078776 0 0 0
703 235 2 -1.1794 7.378506856587801 5.870321789991515 16.032958690926964 0 0 0
145 49 2 -1.1794 9.498008623329703 9.293181621583114 20.407877327472907 0 0 -1
144 48 1 0.5897 5.732944940880561 8.605917927569793 20.324017265659812 0 0 -1
709 237 2 -1.1794 9.347663992570553 5.179842656437753 20.532627577184538 0 0 0
704 235 1 0.5897 6.484592265696449 5.911307490607716 15.692967891165196 0 0 0
824 275 1 0.5897 7.964791583378251 8.817893235064775 15.49701427437466 0 0 0
164 55 1 0.5897 7.480440271832536 12.377970490885106 2.696534566092448 0 0 0
285 95 1 0.5897 7.283807371834043 14.64287440702292 2.2794292010443575 0 0 0
818 273 1 0.5897 8.490785802063472 12.340859073724914 0.8439185019980713 0 0 1
165 55 1 0.5897 6.3823846364080445 12.641389781919646 1.6881227414692817 0 0 0
154 52 2 -1.1794 8.514899249205751 10.947352173653023 3.8855314640100747 0 0 0
163 55 2 -1.1794 7.229426649956017 12.971055693118327 1.9884422614528057 0 0 0
156 52 1 0.5897 9.469508317202173 10.877068219083114 3.8718447050745586 0 0 0
275 92 1 0.5897 8.890592971644725 14.337892013475791 4.238321651861636 0 0 0
276 92 1 0.5897 7.507497770850845 14.3681911466595 4.853414958956008 0 0 0
155 52 1 0.5897 8.210880901651333 10.182521799505349 3.396889613442736 0 0 0
245 82 1 0.5897 5.371804641514889 13.984165091861087 4.030445995515668 0 0 0
274 92 2 -1.1794 8.424232494419831 14.186047831283746 5.060297036819679 0 0 0