LAMMPS data file via write_data, version 30 Jul 2021, timestep = 1500000

972 atoms
2 atom types
648 bonds
1 bond types
324 angles
1 angle types

-0.0650573588224681 20.06505835882226 xlo xhi
-0.13204545229177356 20.132046452290485 ylo yhi
-0.12981806644520866 20.829816066445137 zlo zhi

Masses

1 1.008
2 15.999

Pair Coeffs # lj/cut/tip4p/long/omp

1 0 0
2 0.21084 3.1668

Bond Coeffs # harmonic/omp

1 450 0.9572

Angle Coeffs # harmonic/omp

1 55 104.52

Atoms # full

32 11 1 0.5897 -0.00537117926606985 2.148224067556271 1.559670775052391 0 0 0
4 2 2 -1.1794 3.934930367127166 0.9702353684510814 2.993399026161724 0 0 0
10 4 2 -1.1794 1.176372148690252 4.139580488923971 3.7188237205032735 0 0 0
11 4 1 0.5897 0.9599344637935989 3.241295963839598 3.4692767012099135 0 0 0
12 4 1 0.5897 2.122961092834043 4.202703025673706 3.591158957808707 0 0 0
16 6 2 -1.1794 4.020391280328962 3.743438288158611 3.2713493380881373 0 0 0
18 6 1 0.5897 4.010883768246 2.836820478670682 2.9648614673494955 0 0 0
31 11 2 -1.1794 0.769845919304895 1.9956893950770036 2.1000730293562664 0 0 0
33 11 1 0.5897 1.5065136154690797 2.2228925278940483 1.532653516570857 0 0 0
17 6 1 0.5897 4.157828949298001 4.2629988584445835 2.479355790796566 0 0 0
5 2 1 0.5897 4.125112413005579 0.32311927526554163 2.314291934904 0 0 0
69 23 1 0.5897 6.5312501141554655 2.2482737385579803 1.7746617614630482 0 0 0
9 3 1 0.5897 4.9163028497831105 4.272063105857827 5.064091340748438 0 0 0
1 1 2 -1.1794 2.503611234362351 2.6306585928371926 0.17318162955841887 0 0 0
47 16 1 0.5897 7.325459845866109 3.2457915358557163 3.639554126575668 0 0 0
23 8 1 0.5897 2.621920685832787 0.6194275703174124 4.105388184341243 0 0 0
273 91 1 0.5897 6.9683429528249485 -0.044516263598758446 2.1262396267783656 0 1 0
6 2 1 0.5897 4.544887107947212 0.7618953603174063 3.701052605500395 0 0 0
67 23 2 -1.1794 7.143303982720574 1.9395984453790551 2.4427523096924957 0 0 0
46 16 2 -1.1794 7.706476800807735 4.074841311688186 3.928586780947801 0 0 0
68 23 1 0.5897 7.988824412443714 1.9036349209856915 1.9954447225635628 0 0 0
48 16 1 0.5897 7.120851702729474 4.379254523736019 4.621841344693228 0 0 0
38 13 1 0.5897 9.031353790931824 2.0531154696695677 0.03682045312670956 0 0 0
102 34 1 0.5897 0.11173925017971412 0.8012296155133902 4.54744360362812 1 0 0
29 10 1 0.5897 6.46247408767477 0.6438641712584448 4.631459969528223 0 0 0
236 79 1 0.5897 0.6293500328034827 0.317629715912778 1.7255494154049953 0 1 0
37 13 2 -1.1794 9.295384068594783 2.616916279240128 0.7638434013886686 0 0 0
53 18 1 0.5897 9.508996207068845 4.041687325954086 3.614236346192679 0 0 0
34 12 2 -1.1794 5.283537357521009 2.4300504558044125 0.27172988192333736 0 0 0
58 20 2 -1.1794 8.635102033384904 0.647140847261534 4.708160300154265 0 0 0
22 8 2 -1.1794 1.9725812039870325 0.6947659102982312 4.804624267091089 0 0 0
81 27 1 0.5897 0.093798556567918 4.519313118062927 5.034182731090267 1 0 0
3 1 1 0.5897 3.4577329458777726 2.6101032894306524 0.24668828267802212 0 0 0
325 109 2 -1.1794 2.827104161021796 2.743664789337546 6.904333472427839 0 0 0
326 109 1 0.5897 2.6122085044153582 1.998161718549785 6.343855817018091 0 0 0
327 109 1 0.5897 3.722334284989191 2.573498016495561 7.197380331742262 0 0 0
358 120 2 -1.1794 5.684881814048538 2.371541029959291 7.551067590597913 0 0 0
355 119 2 -1.1794 0.9375800766002287 1.5850513693988322 8.689322214557968 0 0 0
356 119 1 0.5897 1.5977129917958692 2.02412121451295 8.152979737673656 0 0 0
59 20 1 0.5897 8.780650445231545 1.2347121138931612 5.449582777510036 0 0 0
357 119 1 0.5897 0.10893357154893551 1.7650683149894113 8.245224180775228 0 0 0
359 120 1 0.5897 6.410341019313594 2.088432244259458 8.107621613426483 0 0 0
330 110 1 0.5897 4.017298209923701 0.6537713764487213 9.492205608702859 0 0 0
341 114 1 0.5897 3.822473308096439 3.166324826595486 9.96196012568024 0 0 0
393 131 1 0.5897 7.710409748589618 0.6251294023725116 9.079912880483409 0 0 0
362 121 1 0.5897 9.199727592972389 3.3690386091588804 6.755231111894736 0 0 0
360 120 1 0.5897 5.527723850434244 1.6304728058280746 6.966138434084795 0 0 0
391 131 2 -1.1794 7.812569713556909 1.571258851955138 9.181837719857599 0 0 0
392 131 1 0.5897 8.399914559337684 1.8271985297138196 8.470667558303854 0 0 0
328 110 2 -1.1794 4.070013147309342 1.3756557811006174 10.118459765146088 0 0 0
8 3 1 0.5897 5.582435752746584 3.759566560637032 6.323244618747505 0 0 0
361 121 2 -1.1794 9.308148367960586 2.4325524190786294 6.920143633492571 0 0 0
340 114 2 -1.1794 3.6613966345592908 4.0395775789085 10.319059854387822 0 0 0
27 9 1 0.5897 2.7711206392845744 4.617519564968568 6.498060519101631 0 0 0
335 112 1 0.5897 0.8254596158578018 2.9793127594507185 10.061170650448773 0 0 0
7 3 2 -1.1794 5.614351210327603 4.474023289813086 5.687137974371335 0 0 0
342 114 1 0.5897 4.211767008978472 4.619297812148919 9.792575342810794 0 0 0
28 10 2 -1.1794 5.649835941962142 0.577553863987135 5.132953501955192 0 0 0
683 228 1 0.5897 4.595744483753353 2.223556259561601 14.51451451696321 0 0 0
350 117 1 0.5897 2.3092550949834094 4.394182824330185 13.17813098986903 0 0 0
383 128 1 0.5897 8.61911029725744 1.1751059010044338 12.65735234863118 0 0 0
649 217 2 -1.1794 2.61804667209099 2.422095219632994 13.567008473703186 0 0 0
650 217 1 0.5897 2.4598382718455163 1.5845487634736601 13.131655943982114 0 0 0
651 217 1 0.5897 2.2219323578703816 2.3213331511934148 14.43253911022049 0 0 0
353 118 1 0.5897 6.896666311521859 0.6283269113990307 11.716371006938617 0 0 0
352 118 2 -1.1794 5.981812852025121 0.7736819432664078 11.957638839881549 0 0 0
680 227 1 0.5897 0.3741254741438536 2.194499404525994 15.38551751038662 0 0 0
382 128 2 -1.1794 8.733404294028844 0.46226333013386467 12.028958524888187 0 0 0
354 118 1 0.5897 6.025054401425417 1.2863237988634564 12.764782142809237 0 0 0
372 124 1 0.5897 6.831508734653564 4.223518089756214 11.552903015412083 0 0 0
346 116 2 -1.1794 2.1207764982208133 0.239518962993562 11.693367182157896 0 0 0
682 228 2 -1.1794 5.516600420042586 2.396112809110443 14.318175229287391 0 0 0
348 116 1 0.5897 2.750184296331767 0.6649710029656597 11.111131031434956 0 0 0
329 110 1 0.5897 4.794481087519635 1.1387141084764805 10.6974837683498 0 0 0
386 129 1 0.5897 8.702263621238004 4.287003906409288 13.817041404750787 0 0 0
336 112 1 0.5897 1.7203545208346718 3.7485950086421864 11.009412306325572 0 0 0
347 116 1 0.5897 1.2667177179692788 0.5468907197530786 11.389464512215229 0 0 0
685 229 2 -1.1794 8.865168206492694 2.4705382935456783 13.94762516499413 0 0 0
684 228 1 0.5897 5.506836704342268 3.2143224066433715 13.821688900981288 0 0 0
686 229 1 0.5897 8.359553542847165 2.2559186493306735 14.731534298501325 0 0 0
384 128 1 0.5897 9.499943527994889 0.716017400689803 11.51488181338452 0 0 0
334 112 2 -1.1794 0.8018668899563046 3.6182846378433724 10.773391402412857 0 0 0
377 126 1 0.5897 9.528482151926857 4.192248212396915 10.710751386989092 0 0 0
332 111 1 0.5897 4.768416738808683 4.66552117513219 11.90966645159464 0 0 0
331 111 2 -1.1794 5.359345403280725 4.663622559153977 12.662693112223042 0 0 0
370 124 2 -1.1794 7.484418652639553 3.9827864584273023 10.895640809270875 0 0 0
687 229 1 0.5897 9.7663292871978 2.5553454204653967 14.259006285069335 0 0 0
884 295 1 0.5897 0.6853646512997787 0.016685675431954428 15.583399357163 0 1 0
371 124 1 0.5897 7.381724238812104 3.0370447842456705 10.790630617413415 0 0 0
672 224 1 0.5897 1.2170331001497208 1.061585375895756 18.667363845045536 0 0 0
652 218 2 -1.1794 4.227305027215153 1.106468352820279 16.761905817847904 0 0 0
653 218 1 0.5897 3.3390692991427544 1.2022014510120684 17.105607058284555 0 0 0
658 220 2 -1.1794 1.2820326662805681 4.265743892162343 17.351104556176644 0 0 0
696 232 1 0.5897 7.704093972474712 4.879480419936462 17.339524721861743 0 0 0
664 222 2 -1.1794 4.112400951691673 4.13392156637658 17.165759643389862 0 0 0
660 220 1 0.5897 0.8343478398120269 4.873920514472198 16.763012741416 0 0 0
666 222 1 0.5897 4.154528316276989 3.2089829702628325 16.92342896220694 0 0 0
671 224 1 0.5897 2.2087754218792996 1.7018974504744244 19.615129635464776 0 0 0
656 219 1 0.5897 5.308666629105687 4.602677606448901 18.81627991567565 0 0 0
670 224 2 -1.1794 2.1444646260289755 1.280513543435763 18.758141695622093 0 0 0
665 222 1 0.5897 3.177652519823041 4.312716245860005 17.268579013040444 0 0 0
655 219 2 -1.1794 5.8325814566297005 4.525556351127871 19.613658977344997 0 0 0
715 239 2 -1.1794 7.439775163906643 1.7932048344735996 16.322471789291505 0 0 0
677 226 1 0.5897 5.240447190528262 0.91242399936877 18.26987384980424 0 0 0
716 239 1 0.5897 7.4293396770688735 0.8575365728694143 16.121492480368886 0 0 0
708 236 1 0.5897 7.7647556660794805 0.9099284081103176 18.905172986167187 0 0 0
681 227 1 0.5897 1.2215799080024292 2.5677098242524155 16.583168921163193 0 0 0
659 220 1 0.5897 0.9028999895123113 4.441629221604721 18.212236756127083 0 0 0
657 219 1 0.5897 6.736208833581864 4.470123325657734 19.302713658018362 0 0 0
707 236 1 0.5897 8.952376543320511 0.251212315031404 19.574169278520053 0 0 0
694 232 2 -1.1794 7.99134030305995 4.1664503883827315 17.909754761394872 0 0 0
695 232 1 0.5897 7.831868431989932 3.372378619517741 17.399761315801975 0 0 0
35 12 1 0.5897 5.557581943841038 1.7722751600056923 20.592334073431196 0 0 -1
706 236 2 -1.1794 8.709465428687123 1.0003842366992732 19.030267775789213 0 0 0
676 226 2 -1.1794 5.825754393942389 0.6936676060565894 18.994996531226 0 0 0
654 218 1 0.5897 4.192768691890049 0.31498548099688306 16.224846136343587 0 0 0
702 234 1 0.5897 9.939228203462672 4.222232999405861 17.643932240206283 0 0 0
2 1 1 0.5897 2.3065459522108758 3.510099961470866 20.810685122347543 0 0 -1
711 237 1 0.5897 9.732998494508106 4.392225629766781 20.71224700270958 0 0 0
679 227 2 -1.1794 1.1322943567949408 1.9084856934164924 15.895044750029184 0 0 0
717 239 1 0.5897 6.661386651900151 2.140823934964163 15.887144468828472 0 0 0
36 12 1 0.5897 5.435671259234567 3.2675544307436497 20.79379937305677 0 0 -1
177 59 1 0.5897 8.0518083762262 8.693604043906136 1.6130717847351774 0 0 0
155 52 1 0.5897 7.451491836071601 9.83468109262816 3.3305530740087046 0 0 0
20 7 1 0.5897 0.3617329047500847 5.067858081568768 2.3920891133971556 0 0 0
13 5 2 -1.1794 4.583281738206397 5.788511137940509 1.3436548614054384 0 0 0
141 47 1 0.5897 0.7988833974008176 7.8589986615607055 2.088339185579153 0 0 0
140 47 1 0.5897 0.811308460785486 9.281851431593992 2.604668530606779 0 0 0
15 5 1 0.5897 4.111763823325881 6.508198080852307 1.7629780848092116 0 0 0
114 38 1 0.5897 3.154802622556357 7.834064500362354 3.553945287486883 0 0 0
19 7 2 -1.1794 0.28060790313949924 5.8580696297536665 1.8581987898091854 0 0 0
139 47 2 -1.1794 0.8832448822642213 8.767849751062434 1.8004612036916128 0 0 0
56 19 1 0.5897 6.425576115686635 5.790765933640218 1.4277579457402727 0 0 0
112 38 2 -1.1794 3.95213315353274 7.937011959490446 3.03438791557565 0 0 0
113 38 1 0.5897 4.663388473604166 7.7456425397278394 3.645742021058786 0 0 0
142 48 2 -1.1794 5.242064026771725 9.249517313344272 0.36230337851407574 0 0 0
674 225 1 0.5897 1.5907342289091388 5.8092355014233785 0.35995947039655 0 0 1
143 48 1 0.5897 5.6666133809568295 9.170662537041974 1.2165645700902032 0 0 0
176 59 1 0.5897 7.42617463055071 7.431591432120396 2.167512292124438 0 0 0
175 59 2 -1.1794 7.434417779271805 8.382560616476251 2.2751201910929164 0 0 0
14 5 1 0.5897 3.9864174959622494 5.474034288170678 0.6646163917873252 0 0 0
110 37 1 0.5897 1.8785825806663905 9.202510156018235 0.5150660089732535 0 0 0
710 237 1 0.5897 8.746687979327946 5.4114981905690716 0.28175454956370455 0 0 1
55 19 2 -1.1794 7.351365950781337 5.72032862348014 1.6606932886774695 0 0 0
57 19 1 0.5897 7.378546158763201 5.039562360012941 2.3329493551948675 0 0 0
126 42 1 0.5897 3.785661300175298 9.829473108784955 3.2490780259651166 0 0 0
166 56 2 -1.1794 8.420984193540132 6.955012698022844 4.895813950136132 0 0 0
132 44 1 0.5897 0.909050207885867 7.593267806074495 4.734196278963462 0 0 0
145 49 2 -1.1794 9.122503236397645 9.051641424424448 0.25634640216372273 0 0 0
111 37 1 0.5897 3.3282843557893447 9.402869058014243 0.1273891905750209 0 0 0
131 44 1 0.5897 2.1347092297235397 6.734230846825326 4.961334243785967 0 0 0
149 50 1 0.5897 9.628506990165654 7.936107922965036 3.4007065594004944 0 0 0
130 44 2 -1.1794 1.8409319020604238 7.53315858426109 4.523766303395442 0 0 0
138 46 1 0.5897 6.663787470222181 7.222984724242824 5.044844779414382 0 0 0
146 49 1 0.5897 9.081540860061786 9.996577794536998 0.11008050865342406 0 0 0
345 115 1 0.5897 1.2496476997883217 7.02988571390989 9.019811651174162 0 0 0
463 155 2 -1.1794 1.0267347011156447 8.841219360147038 8.87580816314401 0 0 0
437 146 1 0.5897 4.29360038448508 7.527888666991651 9.7603451488549 0 0 0
339 113 1 0.5897 3.854569460481521 5.960287178584646 7.792428086381296 0 0 0
379 127 2 -1.1794 7.214631726707092 5.90212856601567 8.38992132990122 0 0 0
469 157 2 -1.1794 9.291101470019182 8.831213594996695 6.581456344346783 0 0 0
464 155 1 0.5897 1.6737705594696697 9.079057388022992 8.211825781913191 0 0 0
438 146 1 0.5897 4.539877472771051 8.951117733298465 10.21322188658234 0 0 0
500 167 1 0.5897 7.9275920031611244 9.405531976222266 9.413969833405806 0 0 0
435 145 1 0.5897 2.3858426059194984 8.83953093808824 5.932815127131059 0 0 0
137 46 1 0.5897 5.544420374162969 6.242909945841851 5.32448363498075 0 0 0
468 156 1 0.5897 4.46973676107972 8.991945263174197 7.2465448874567375 0 0 0
338 113 1 0.5897 5.344883963574047 6.07419657271621 8.033325846062022 0 0 0
344 115 1 0.5897 1.4467559224971567 5.6766467998105075 9.668895340242267 0 0 0
136 46 2 -1.1794 5.729309267431631 7.178806814397301 5.247583338686213 0 0 0
343 115 2 -1.1794 1.030784990239638 6.103524776334567 8.919962122066787 0 0 0
61 21 2 -1.1794 9.244133230261367 5.1138131653389 6.824704907539012 0 0 0
466 156 2 -1.1794 5.415450605226141 8.955471063741662 7.389848077036633 0 0 0
467 156 1 0.5897 5.689631666564361 8.13760941365273 6.975159388010099 0 0 0
337 113 2 -1.1794 4.500109850427561 6.392348299861531 8.351718765988771 0 0 0
25 9 2 -1.1794 2.6396435903945648 5.56116305110294 6.407184084441123 0 0 0
470 157 1 0.5897 8.73201864228892 8.918847734362327 7.353453439894411 0 0 0
433 145 2 -1.1794 2.656142347208783 9.276840573797903 6.740182813660371 0 0 0
501 167 1 0.5897 6.723893082028064 8.917896956089406 8.636027913246437 0 0 0
380 127 1 0.5897 7.317273015787059 6.758885459357852 8.80400772786309 0 0 0
499 167 2 -1.1794 7.637638193511914 8.706755286573568 8.827738355215796 0 0 0
62 21 1 0.5897 8.525889829211875 5.361901016520447 7.40678964792802 0 0 0
465 155 1 0.5897 0.1829568605273866 8.938838665517018 8.434528290015367 0 0 0
381 127 1 0.5897 7.147141564596227 5.288650150265205 9.121498033899998 0 0 0
26 9 1 0.5897 2.0016836059628154 5.781048245670872 7.08608702961623 0 0 0
168 56 1 0.5897 8.751914819965197 7.486468705195381 5.619820159042723 0 0 0
167 56 1 0.5897 8.511574683461404 6.052117112291268 5.200062617397512 0 0 0
759 253 1 0.5897 2.70618945864994 8.754743557597024 13.425197097669782 0 0 0
757 253 2 -1.1794 3.0097155082191236 9.366368127884211 14.095955771906645 0 0 0
793 265 2 -1.1794 9.742027529035079 9.133410371559137 14.1547510116621 0 0 0
533 178 1 0.5897 0.2665835970457572 7.274378013610786 12.172873597791439 1 0 0
349 117 2 -1.1794 2.381591778330935 5.344399602921137 13.26656346644049 0 0 0
333 111 1 0.5897 5.534924634566892 5.589034738906182 12.832311057073289 0 0 0
790 264 2 -1.1794 5.759983593919621 9.566935477944964 13.970359236387523 0 0 0
454 152 2 -1.1794 2.021709340667053 7.786739290055221 12.080674690485528 0 0 0
455 152 1 0.5897 2.568044989059146 8.029580448925481 11.333165208803242 0 0 0
456 152 1 0.5897 2.3506949563894732 6.929181792522282 12.349744867489042 0 0 0
490 164 2 -1.1794 9.041058850486912 7.0429176293799545 12.115435106071061 0 0 0
792 264 1 0.5897 4.815114529285469 9.634025332340153 14.108321733991085 0 0 0
351 117 1 0.5897 3.1555245011900963 5.47623112231282 13.814220822726503 0 0 0
492 164 1 0.5897 8.115701755498463 7.268049182427408 12.019018672610262 0 0 0
791 264 1 0.5897 6.123855907896039 9.459925811284194 14.84920722160792 0 0 0
794 265 1 0.5897 9.425312339079607 8.602371530282175 13.424153532946306 0 0 0
462 154 1 0.5897 5.649442817224938 7.737835586329138 11.758901293147332 0 0 0
491 164 1 0.5897 9.40191538822145 7.127726349890298 11.232938197887991 0 0 0
387 129 1 0.5897 8.8733646341023 5.725151849239042 13.376786105146978 0 0 0
460 154 2 -1.1794 6.2027561393332595 7.376576461220887 12.451387108038087 0 0 0
461 154 1 0.5897 6.261380130959247 8.076569158673678 13.101520746463779 0 0 0
668 223 1 0.5897 1.0053361159874974 5.902616578403213 14.397136416620196 0 0 0
385 129 2 -1.1794 8.78896569641515 5.177412244703045 14.15717297617953 0 0 0
705 235 1 0.5897 7.588723003719073 5.6909417927127866 15.477950354011005 0 0 0
789 263 1 0.5897 1.8891499277621069 8.761705337460349 15.336194269246361 0 0 0
667 223 2 -1.1794 0.4665612761699752 6.066750872448515 15.171068263026326 0 0 0
824 275 1 0.5897 8.376604038806114 8.818204295023893 15.32370803608012 0 0 0
661 221 2 -1.1794 4.2392816240685995 6.228341305394126 15.22251022062454 0 0 0
669 223 1 0.5897 0.644541316199174 6.979304226995191 15.398164760767898 0 0 0
436 146 2 -1.1794 4.262278652927598 8.092613812089652 10.532510693821877 0 0 0
675 225 1 0.5897 2.0923549137580872 6.075665888475255 19.916296659683262 0 0 0
787 263 2 -1.1794 1.2045736414412986 8.554021677673997 15.972161796665093 0 0 0
761 254 1 0.5897 4.419688013890857 9.218919009746251 17.2522077046484 0 0 0
779 260 1 0.5897 2.2465294122259256 8.316156246867871 19.505880945758783 0 0 0
825 275 1 0.5897 7.648645621724428 7.87129211252835 16.253767800954783 0 0 0
703 235 2 -1.1794 7.071124587630505 5.974418746954318 16.23157774749179 0 0 0
778 260 2 -1.1794 2.176098118960337 7.605234931942574 18.868952555315275 0 0 0
780 260 1 0.5897 2.914284692431822 7.74118381819196 18.27495563845165 0 0 0
760 254 2 -1.1794 4.395890707506367 8.262989252823447 17.212054947535826 0 0 0
786 262 1 0.5897 7.152451565760468 7.414025577345273 18.870173851540898 0 0 0
815 272 1 0.5897 9.366606446771641 6.640978195442886 19.53808288242852 0 0 0
784 262 2 -1.1794 6.226482981658557 7.452454470667402 19.109778665211017 0 0 0
814 272 2 -1.1794 9.053987870054362 7.450219536288143 19.133785018171658 0 0 0
816 272 1 0.5897 9.114496936613252 8.104841422671674 19.82943312615248 0 0 0
762 254 1 0.5897 5.0403275317103295 7.979462591603468 17.86055916436274 0 0 0
662 221 1 0.5897 4.242497425349293 5.455201919628603 15.786690027880399 0 0 0
788 263 1 0.5897 1.2963145545575945 9.222921950372612 16.650591580591737 0 0 0
144 48 1 0.5897 5.678168748630021 8.595448892055213 20.775919394929815 0 0 -1
785 262 1 0.5897 6.013266832224607 6.561704603747858 19.387513640987144 0 0 0
704 235 1 0.5897 6.161851302945053 5.86889174030985 15.951637586737297 0 0 0
858 286 1 0.5897 0.3297273108398602 7.601266935866255 18.562444059416016 1 0 0
823 275 2 -1.1794 7.7744955626139065 8.801600067293164 16.067626825445615 0 0 0
663 221 1 0.5897 4.080026211266048 6.959799105002715 15.818890196415486 0 0 0
804 268 1 0.5897 7.935279909502471 9.932342771383327 17.47635277849038 0 0 0
109 37 2 -1.1794 2.439603397147399 9.425969434151689 20.732041796153048 0 0 -1
673 225 2 -1.1794 2.058361475225001 5.398854315956708 20.592189131549944 0 0 0
709 237 2 -1.1794 9.5526463371802 5.331973097449083 20.731103693736337 0 0 0
240 80 1 0.5897 2.8909372478665896 13.996917741909995 4.198169644536236 0 0 0
120 40 1 0.5897 0.8321076240352914 11.347838315564262 3.171861417139799 0 0 0
276 92 1 0.5897 9.270996929603044 14.26009978710208 4.304715878959353 0 0 0
246 82 1 0.5897 5.749250006461436 14.100357860620592 4.5328462040122215 0 0 0
129 43 1 0.5897 0.7838276649499555 13.53614334622762 1.9569211210903998 0 0 0
118 40 2 -1.1794 0.9025102807877954 10.695988876357342 3.869175166151171 0 0 0
125 42 1 0.5897 4.225234481303443 10.975218405885903 4.135391513757025 0 0 0
119 40 1 0.5897 1.84356856491353 10.551772310168264 3.968754365628138 0 0 0
124 42 2 -1.1794 3.6075637488895564 10.750339728603603 3.439591318895281 0 0 0
154 52 2 -1.1794 7.61760568660565 10.72132684844817 3.650376680902214 0 0 0
123 41 1 0.5897 3.891140832107418 12.479330150709679 0.49868738815568314 0 0 0
819 273 1 0.5897 8.352621195311379 12.29693579649902 0.023216978348747086 0 0 1
220 74 2 -1.1794 4.5883255546127835 14.450060495152076 3.199337310068098 0 0 0
222 74 1 0.5897 4.492518841666982 13.935229164799505 2.3981346809783743 0 0 0
238 80 2 -1.1794 2.14917554004092 13.972467742546378 4.802700214220588 0 0 0
783 261 1 0.5897 1.606630984080654 12.280748758443561 0.5482750521891867 0 0 1
122 41 1 0.5897 4.334306804808611 11.931764870546832 1.8386814948458625 0 0 0
163 55 2 -1.1794 7.3314094295173176 12.81997001809891 1.6167172893409092 0 0 0
164 55 1 0.5897 6.45516439475473 12.73728660209163 1.240365228298748 0 0 0
165 55 1 0.5897 7.453517314947959 12.01492406277501 2.119741693990138 0 0 0
127 43 2 -1.1794 0.3820820636422743 12.67212958802916 1.8668321265316266 0 0 0
121 41 2 -1.1794 4.572346666674261 12.568831394596952 1.1651808287285372 0 0 0
156 52 1 0.5897 8.516060570173558 10.693388151922573 3.9794595171160214 0 0 0
317 106 1 0.5897 0.24700246887340932 13.929459449245572 4.629883783512346 1 0 0
116 39 1 0.5897 6.527115257525306 10.860576661281696 5.008690414051472 0 0 0
285 95 1 0.5897 7.2716753337093705 14.582519909258776 2.0022936110194514 0 0 0
275 92 1 0.5897 7.993863427297438 13.942283182267143 5.052961397226453 0 0 0
133 45 2 -1.1794 2.6490907597243143 12.045136262163265 6.468801605791026 0 0 0
134 45 1 0.5897 1.9109568565217898 11.895799742201444 7.0596482437316 0 0 0
135 45 1 0.5897 3.3304958271051173 12.420910790920345 7.026204667315361 0 0 0
117 39 1 0.5897 5.74853286388522 10.30642599808812 6.1828189809361245 0 0 0
453 151 1 0.5897 0.6491609935396974 11.741466423311946 9.038510256178482 0 0 0
487 163 2 -1.1794 7.422784554724976 12.775065266600441 8.375236011402924 0 0 0
445 149 2 -1.1794 4.7610453388119165 13.138826520141942 8.0333638169569 0 0 0
450 150 1 0.5897 4.319612069051818 11.6320274586207 9.58045652455906 0 0 0
239 80 1 0.5897 2.393088130322434 13.316245485591399 5.45539192147463 0 0 0
169 57 2 -1.1794 9.57535332304261 11.829337972800499 6.848084456755705 0 0 0
447 149 1 0.5897 5.616058486265308 12.71904010589738 8.128037217405355 0 0 0
446 149 1 0.5897 4.8160058850086465 13.921480945669702 8.581516913191992 0 0 0
489 163 1 0.5897 7.459700371572992 13.726682251441897 8.470375248719364 0 0 0
245 82 1 0.5897 5.936382442575251 12.905137796826974 5.442763955038496 0 0 0
480 160 1 0.5897 7.673407645641875 11.613035231324627 9.853595668412163 0 0 0
573 191 1 0.5897 1.1091067700712138 14.104868434571015 8.191494253352941 0 0 0
451 151 2 -1.1794 0.6318205488507521 12.22166309240622 8.21069439129973 0 0 0
488 163 1 0.5897 8.180992816469816 12.558554039370236 7.8325559879522535 0 0 0
170 57 1 0.5897 9.403136404950573 12.436603376873965 6.12856476247245 0 0 0
171 57 1 0.5897 9.344332893447625 10.969529951161032 6.496788717953175 0 0 0
434 145 1 0.5897 2.7459379555188193 10.1978045188988 6.49570026671173 0 0 0
115 39 2 -1.1794 5.7233297246057475 10.98904875911252 5.512373030377534 0 0 0
544 182 2 -1.1794 4.599988244204467 14.91059219150272 9.939732000882364 0 0 0
274 92 2 -1.1794 8.925794145415862 14.115984208472788 5.185762373345331 0 0 0
571 191 2 -1.1794 1.2791537271661721 14.922200346373453 8.659595851249861 0 0 0
448 150 2 -1.1794 4.273977234945447 11.020260576352257 10.315135920344076 0 0 0
443 148 1 0.5897 0.9312284381349937 10.138771000099405 10.22413059639473 0 0 0
545 182 1 0.5897 3.7281115932719024 14.657593166468626 10.243213005343778 0 0 0
572 191 1 0.5897 1.4464423953687762 14.651525537641351 9.562291581497607 0 0 0
244 82 2 -1.1794 6.209827954287375 13.814299672950918 5.321669036835558 0 0 0
457 153 2 -1.1794 2.523340313997979 11.931946022791529 13.215346160188481 0 0 0
458 153 1 0.5897 1.8641713131742021 12.225304751302259 13.84436796017423 0 0 0
459 153 1 0.5897 3.3533831671580545 12.247550275122709 13.572625974898505 0 0 0
442 148 2 -1.1794 1.2523996787775908 10.934059228529517 10.648893044968208 0 0 0
562 188 2 -1.1794 2.239796459018609 14.213547765179083 11.329046755972811 0 0 0
563 188 1 0.5897 2.512611903634068 13.412832643306048 11.776817192524529 0 0 0
449 150 1 0.5897 4.91727481110574 11.350122604486218 10.942486186753294 0 0 0
570 190 1 0.5897 7.134858998530597 14.572066896210972 12.031054884410517 0 0 0
493 165 2 -1.1794 8.974256254617725 11.80993665617288 13.90497093293959 0 0 0
494 165 1 0.5897 8.383523087792481 11.778107052283904 14.657468934303504 0 0 0
600 200 1 0.5897 9.130697931282326 14.686334652191736 12.679349075106646 0 0 0
564 188 1 0.5897 2.526930538248351 14.920922893571365 11.906356404450591 0 0 0
642 214 1 0.5897 0.24781800195906833 14.320684463964952 11.687506956463213 1 0 0
795 265 1 0.5897 9.4501444499372 10.021602725450405 13.949917143347557 0 0 0
441 147 1 0.5897 6.128968695725168 10.885376515339853 12.828529741604891 0 0 0
569 190 1 0.5897 6.061250299364396 13.565673662849544 12.386362968646617 0 0 0
598 200 2 -1.1794 8.835157732565966 14.048972831357537 12.029359765885397 0 0 0
439 147 2 -1.1794 6.110356015027087 11.585272915034377 12.175933773731378 0 0 0
440 147 1 0.5897 6.79036976971317 11.344834227824247 11.546630490057268 0 0 0
568 190 2 -1.1794 6.189233928107469 14.484537958167499 12.151144278963997 0 0 0
599 200 1 0.5897 8.779896073882469 13.223546009752686 12.510683707746525 0 0 0
770 257 1 0.5897 5.430733825688317 12.443343714953864 15.050799812918067 0 0 0
758 253 1 0.5897 2.777554480463733 10.230226441387233 13.75555757522683 0 0 0
479 160 1 0.5897 8.727744599250459 11.010002596161122 10.757257284828333 0 0 0
769 257 2 -1.1794 4.493817927123481 12.63934480573925 15.04330985923179 0 0 0
546 182 1 0.5897 5.163692252198082 14.793435601978896 10.70443000674003 0 0 0
444 148 1 0.5897 2.1827826311512455 10.766772844873032 10.799545207779337 0 0 0
777 259 1 0.5897 0.5920803870414324 13.452922893196822 15.484894526349283 0 0 0
775 259 2 -1.1794 0.686923424773038 12.522793511984286 15.280260549489391 0 0 0
495 165 1 0.5897 9.6889280917984 12.381816049555923 14.18489467989287 0 0 0
581 194 1 0.5897 9.78419968208125 14.765300193079026 10.583242109621459 0 0 0
512 171 1 0.5897 -0.04705575125345973 11.203132178139917 11.922031869514957 1 0 0
478 160 2 -1.1794 7.823285196665036 10.893226620450596 10.466385607553107 0 0 0
813 271 1 0.5897 7.847478304896764 11.858051117672856 16.82123946158255 0 0 0
766 256 2 -1.1794 1.1946772662970673 10.86125255129862 17.603648789010407 0 0 0
768 256 1 0.5897 0.992239524233355 11.479193679772624 16.9012946638571 0 0 0
812 271 1 0.5897 7.678778884100665 13.28709239891737 16.351538279368043 0 0 0
767 256 1 0.5897 0.639904486178402 11.137044623869 18.333292489991976 0 0 0
888 296 1 0.5897 1.8344004259534608 13.671481472186262 19.521678453236838 0 0 0
811 271 2 -1.1794 7.425462115174306 12.387618525077388 16.144779154508655 0 0 0
765 255 1 0.5897 5.521286730181085 10.866051118263494 20.123042010341216 0 0 0
773 258 1 0.5897 2.965563331148639 11.026934999113305 17.597252275923438 0 0 0
772 258 2 -1.1794 3.8971282082415972 11.183861374859422 17.442768490516883 0 0 0
774 258 1 0.5897 3.9385656141795806 11.520511252335591 16.547699493461337 0 0 0
965 322 1 0.5897 0.05398183928260901 14.080206519721632 19.0290464599831 1 0 0
870 290 1 0.5897 4.519111704745752 14.354998063464631 17.54252761594799 0 0 0
782 261 1 0.5897 2.3597410533670926 11.456594231515348 20.485486065649987 0 0 0
922 308 2 -1.1794 8.595415191312348 14.245773498124407 18.953860079960428 0 0 0
764 255 1 0.5897 5.167712998520888 11.43988046857164 18.767495360677216 0 0 0
763 255 2 -1.1794 5.865714893472824 11.419536743965319 19.42220815010605 0 0 0
894 298 1 0.5897 5.717951296060684 13.386414636855582 19.38272021954881 0 0 0
886 296 2 -1.1794 1.766631514434654 14.13452882591877 18.68673433328172 0 0 0
893 298 1 0.5897 6.5861396294943315 14.228488096241731 18.472274271157524 0 0 0
802 268 2 -1.1794 8.124254079614905 10.672730470818543 18.052722517279733 0 0 0
803 268 1 0.5897 7.304283530985504 10.826962706449619 18.521911134570445 0 0 0
892 298 2 -1.1794 5.697658246328453 14.161946127522473 18.822170621287597 0 0 0
818 273 1 0.5897 8.730299405345493 11.723445078084955 19.633674370573814 0 0 0
887 296 1 0.5897 1.9226471568804 15.052482107552613 18.908163407494087 0 0 0
817 273 2 -1.1794 8.990322558542786 11.725657705529013 20.554874782437984 0 0 0
868 290 2 -1.1794 3.825124250818244 14.625184707751853 16.941165730389045 0 0 0
869 290 1 0.5897 3.0133439568278044 14.450340511861878 17.417323039300882 0 0 0
810 270 1 0.5897 9.987179310076648 10.810773790034377 17.83088537149861 0 0 0
924 308 1 0.5897 9.261152410565101 14.4791620993688 18.306899619914454 0 0 0
923 308 1 0.5897 8.786772037173987 14.804202669534233 19.707296989973507 0 0 0
781 261 2 -1.1794 2.2390724071005987 12.354795413262137 20.79321905267593 0 0 0
771 257 1 0.5897 4.391827661905647 13.347996997448977 15.678527763149935 0 0 0
233 78 1 0.5897 4.150361805677747 17.747298504892335 2.305946159483699 0 0 0
890 297 1 0.5897 1.9294575493843913 19.362615424892425 0.024472207770830035 0 0 1
255 85 1 0.5897 9.954226382934527 15.859728235083002 0.07407032135689431 0 0 0
230 77 1 0.5897 4.2019205366548755 19.307794270934366 0.12575622137609044 0 0 0
249 83 1 0.5897 1.5368289613831099 15.788204160415178 1.0574627642546586 0 0 0
284 95 1 0.5897 7.410938237178974 15.952431891600174 2.6310513203053287 0 0 0
221 74 1 0.5897 4.295725229279237 15.328384732229685 2.9565006853979017 0 0 0
251 84 1 0.5897 5.466551968692011 15.399608141215104 0.8835478329305326 0 0 0
232 78 2 -1.1794 3.980740466443849 17.113039238226545 3.0024137354305767 0 0 0
262 88 2 -1.1794 8.077700241932163 17.6555802628679 3.552972482617633 0 0 0
226 76 2 -1.1794 1.3903941220482603 17.795121436718915 3.3781708780613107 0 0 0