LAMMPS data file via write_data, version 30 Jul 2021, timestep = 24500000

864 atoms
2 atom types
576 bonds
1 bond types
288 angles
1 angle types

0.5161559101149518 17.691416489887338 xlo xhi
1.6994947535291516 21.929683046462316 ylo yhi
0.629709004734563 21.583486795275494 zlo zhi

Masses

1 1.00794
2 15.9994

Pair Coeffs # lj/cut/tip4p/long/omp

1 0 0
2 0.21084 3.1668

Bond Coeffs # harmonic/omp

1 450 0.9572

Angle Coeffs # harmonic/omp

1 55 104.52

Atoms # full

163 1 2 -1.1794 1.8083424850131005 3.8145568995156385 2.2621981083959675 -5 0 1
53 1 1 0.5897 2.497880080462954 3.176209408611383 3.9721406880239334 -8 -2 2
164 1 1 0.5897 2.604040955774139 4.3229055266757666 2.105061027970449 -5 0 1
165 1 1 0.5897 1.0937682775844544 4.423538646795329 2.0757641013506274 -5 0 1
54 1 1 0.5897 2.619929307334694 3.87665317524019 5.308692542725616 -8 -2 2
52 1 2 -1.1794 3.0109619112704578 3.180939445180596 4.780200892888136 -8 -2 2
135 1 1 0.5897 4.161878913836854 2.029894611491133 0.8756067894900041 -4 -5 2
846 1 1 0.5897 4.579701260062917 4.139373915929475 4.745095216188105 -4 1 1
137 1 1 0.5897 1.068718106479916 2.7149725191893994 0.771485888172327 6 -10 6
58 1 2 -1.1794 4.42611905435994 4.69547939774605 1.7152123982810428 4 2 1
59 1 1 0.5897 4.661067686579428 3.9051259985610804 1.2290345833950032 4 2 1
92 1 1 0.5897 3.9449187479967875 4.815348903979527 9.520100059021367 4 -6 2
93 1 1 0.5897 3.8684804507152224 3.6042611994257294 8.614943506431601 4 -6 2
595 1 2 -1.1794 4.473812563799557 1.7942334721268487 9.31203178133532 3 -6 1
631 1 2 -1.1794 1.0550506809666151 4.296822342300224 9.508767087170106 3 6 3
185 1 1 0.5897 1.4867798862351038 5.907479196721678 6.573417088560165 -1 3 4
420 1 1 0.5897 1.257728060376846 6.203282725535292 9.738417392673222 -10 -1 6
186 1 1 0.5897 2.1141228711313724 4.782072956381949 7.368267172567359 -1 3 4
91 1 2 -1.1794 3.861825557373162 4.561333946204471 8.600970255315236 4 -6 2
184 1 2 -1.1794 1.858978867279618 5.030573057743235 6.479783703544197 -1 3 4
633 1 1 0.5897 1.7713205206010807 3.7841452858921905 9.883440185053953 3 6 3
78 1 1 0.5897 2.1786926989955493 2.055104647296127 5.956650958598669 -4 -6 -1
191 1 1 0.5897 3.3855261053253933 5.111565721913434 16.164611747811968 6 6 -6
240 1 1 0.5897 3.7798515386128773 6.130105374477916 11.50398742365263 -4 -4 -1
847 1 2 -1.1794 1.7660109309954515 4.53864056914491 13.100915461077825 -2 -3 5
849 1 1 0.5897 2.2711088559012333 4.372475192405102 13.896839907982157 -2 -3 5
848 1 1 0.5897 2.418438167953566 4.808611468379727 12.454629546315408 -2 -3 5
543 1 1 0.5897 4.007546228771573 2.986284133791175 15.524491575195967 -7 0 2
541 1 2 -1.1794 3.6348424406124895 3.732522252421879 15.054934920285122 -7 0 2
373 1 2 -1.1794 2.342137195057923 2.1464620303325024 11.6331495706511 4 7 -5
374 1 1 0.5897 2.0901640017084295 2.8246206477792084 12.259968559659722 4 7 -5
238 1 2 -1.1794 3.6763395138943658 5.189248161374266 11.3614896127219 -4 -4 -1
638 1 1 0.5897 0.6981619454135537 6.068716534110917 14.26201872200524 -5 2 3
375 1 1 0.5897 3.176779049577104 1.8132480508105309 11.96267326066741 4 7 -5
542 1 1 0.5897 4.353052703469757 4.057211620899066 14.511760462876362 -7 0 2
239 1 1 0.5897 4.567647340527834 4.841876300444996 11.395494838047545 -4 -4 -1
125 1 1 0.5897 3.4293599688348855 4.33035378993287 18.62428515715809 2 0 4
124 1 2 -1.1794 2.8198924412556696 3.946477700451913 19.25472358326708 2 0 4
57 1 1 0.5897 1.3717134614356659 4.898949936956507 16.839961437433857 0 -1 2
126 1 1 0.5897 3.3354689827905313 3.283346902060149 19.7137133343181 2 0 4
192 1 1 0.5897 3.753480738394281 6.1898696450464925 17.161483220312483 6 6 -6
813 1 1 0.5897 2.194978648940052 5.730686756761417 19.370050923544646 3 4 -8
133 1 2 -1.1794 4.164262652120531 2.1799693155508235 20.884027853538058 -4 -5 1
536 1 1 0.5897 2.002739576045501 2.508199609431447 18.18893373319525 3 6 5
535 1 2 -1.1794 1.500859192963058 2.053814133151821 17.512241235415026 3 6 5
136 1 2 -1.1794 0.529056588620778 2.1299687781639998 21.193502273784738 6 -10 5
811 1 2 -1.1794 2.1888877696816813 6.685374372879486 19.439134413154314 3 4 -8
190 1 2 -1.1794 3.0012094164107532 5.758506551915196 16.756214788237585 6 6 -6
537 1 1 0.5897 1.3874867236068613 2.7048065303140905 16.819720569482136 3 6 5
664 1 2 -1.1794 3.0368448505370207 11.241921082798875 1.3291468925543375 0 -2 1
31 1 2 -1.1794 2.4648920417772677 10.240144071331851 3.7353772305725266 4 8 1
32 1 1 0.5897 1.6060121185486205 10.310626024592475 4.15203963910565 4 8 1
666 1 1 0.5897 2.9557400173381843 10.682509245407754 2.101621367690834 0 -2 1
858 1 1 0.5897 2.977193756042255 7.445492403500645 3.024316249569847 0 -2 0
33 1 1 0.5897 2.689276875718126 9.312094729830063 3.8036349308097246 4 8 1
139 1 2 -1.1794 1.6718501199738427 7.420685228184429 0.9312498652189064 -1 0 0
856 1 2 -1.1794 2.7274732413668055 7.435522555756741 3.9483138256143975 0 -2 0
147 1 1 0.5897 3.195233440488357 7.961553941046081 1.111619187953873 -2 3 -6
627 1 1 0.5897 3.284235413562348 10.970068882045524 5.435368783745483 -8 -1 4
145 1 2 -1.1794 3.9519755850020766 8.300600132901785 1.5897700107072075 -2 3 -6
146 1 1 0.5897 4.653467251484461 7.67692096199598 1.4022397417948775 -2 3 -6
857 1 1 0.5897 1.9317163702087794 6.904265562356499 3.9761270057687472 0 -2 0
479 1 1 0.5897 3.8418632641233175 7.56373115571154 5.463957697902994 -2 4 -4
141 1 1 0.5897 0.812892882881995 7.141465014994405 1.2481984770948111 -1 0 0
419 1 1 0.5897 0.9563478234128122 7.363997213511845 8.81439927368099 -10 -1 6
481 1 2 -1.1794 2.2843956714260774 10.847252998707988 8.516117604057818 3 6 2
73 1 2 -1.1794 0.7565563082113435 7.543603411827412 6.920912067300441 3 -3 3
721 1 2 -1.1794 3.641268159501931 8.283034876016544 8.797107111617128 1 0 1
418 1 2 -1.1794 1.2733012384279916 7.15932792674081 9.694106011292844 -10 -1 6
482 1 1 0.5897 2.462876982447817 11.25896908510807 9.36161544050476 3 6 2
626 1 1 0.5897 3.468879790372908 11.13631376543512 6.92875237799899 -8 -1 4
723 1 1 0.5897 2.833074550871731 7.860683514963293 9.088102712727633 1 0 1
483 1 1 0.5897 2.5253068351578523 9.929250630465322 8.640583714010274 3 6 2
722 1 1 0.5897 3.8998890047552015 7.793897274354549 8.016025182251386 1 0 1
319 1 2 -1.1794 3.7660210563473235 11.676578893354023 10.929512705332634 -1 -1 -1
478 1 2 -1.1794 4.492132844360624 7.393308253512134 6.145385896901975 -2 4 -4
347 1 1 0.5897 4.741591006211628 8.072795876295027 10.525204912845055 0 3 -1
74 1 1 0.5897 0.7433535635361591 8.17442867457816 6.201102524731279 3 -3 3
625 1 2 -1.1794 3.7303581253796017 11.510499382481147 6.087414892051824 -8 -1 4
515 1 1 0.5897 2.5767845395505447 7.564422675515719 15.778565978535802 1 -3 -1
37 1 2 -1.1794 1.3584261930377735 8.063949414881371 12.443280238910209 -2 1 -3
230 1 1 0.5897 1.4280821503932302 9.407936742072849 15.32792291625775 0 7 -1
38 1 1 0.5897 2.0198534562831023 8.71983251034376 12.663656393414543 -2 1 -3
189 1 1 0.5897 0.9060059488611583 11.531812621149424 12.904837790457883 -2 6 3
70 1 2 -1.1794 3.5456808260709427 9.738511570989022 12.713228199191382 1 2 -12
514 1 2 -1.1794 2.8839299092648933 8.424755053016316 15.492691473104609 1 -3 -1
71 1 1 0.5897 4.225880542393103 9.921594177978351 13.361330927564683 1 2 -12
72 1 1 0.5897 3.6246429256761052 10.447950895156392 12.075506681246425 1 2 -12
188 1 1 0.5897 0.8523406406510712 11.28923534069969 14.398217230645486 -2 6 3
346 1 2 -1.1794 4.73260195731809 7.670658849704066 11.393784746167793 0 3 -1
229 1 2 -1.1794 0.6193591265397036 9.879678966820418 15.527053162857316 0 7 -1
335 1 1 0.5897 4.362104295748627 7.464658491253926 14.87855263561722 13 3 3
516 1 1 0.5897 3.19782614661773 8.845642093156837 16.293035116451563 1 -3 -1
39 1 1 0.5897 1.5829487202957693 7.785615479880807 11.555377333734507 -2 1 -3
348 1 1 0.5897 4.369188580385323 8.34563494070888 11.966996780249467 0 3 -1
859 1 2 -1.1794 4.432259175558372 10.85421439315831 19.821182783219406 -1 -2 3
307 1 2 -1.1794 1.0831773299119278 10.143827791326911 20.4464018772604 3 5 -3
749 1 1 0.5897 3.1917551521445446 10.210111642135898 18.560545566957572 1 3 -1
309 1 1 0.5897 1.803100648540981 10.635427508157504 20.841719900877223 3 5 -3
308 1 1 0.5897 1.1429659865039252 9.273037982970425 20.839329330628935 3 5 -3
158 1 1 0.5897 3.0067503736837238 11.117834319809322 16.4700780983754 2 3 0
748 1 2 -1.1794 2.5746887591953915 10.042697402123569 17.84820123437978 1 3 -1
750 1 1 0.5897 1.7180768641407251 10.0143952825423 18.274405868462807 1 3 -1
16 1 2 -1.1794 4.789598534809141 7.367184103004116 18.40748657699605 1 4 0
98 1 1 0.5897 1.04265450974966 7.681929832977713 18.309425380735476 4 -3 7
812 1 1 0.5897 3.0555204028009744 6.9536164947592685 19.133813962429812 3 4 -8
140 1 1 0.5897 1.7320509685807743 7.055955116106546 21.002091725094814 -1 0 -1
860 1 1 0.5897 3.9688661180141502 10.953400989021201 20.652843451307938 -1 -2 3
819 1 1 0.5897 3.823670144510402 14.460571504384035 1.702219185700018 5 0 4
227 1 1 0.5897 2.590931712439314 13.030858056981089 5.548123561405473 4 -1 0
665 1 1 0.5897 3.2956931658051816 12.095304668549739 1.6769494467719586 0 -2 1
226 1 2 -1.1794 1.795695533968074 13.438635581475257 5.205259788004381 4 -1 0
228 1 1 0.5897 2.065024158726304 14.325180722216523 4.964972432287687 4 -1 0
791 1 1 0.5897 1.9829729868494161 16.163083150503397 3.6343394039302854 3 3 3
790 1 2 -1.1794 2.2977354907158496 16.273369933611402 4.53156085020716 3 3 3
340 1 2 -1.1794 1.168893837085964 15.687082634968094 2.1400688591915227 1 4 4
817 1 2 -1.1794 3.991432507720726 13.761045007600384 2.333683423262037 5 1 4
80 1 1 0.5897 0.8051152087454211 12.944590486163925 3.475078572624567 0 -2 -2
341 1 1 0.5897 0.7133227386687396 14.936727796785256 2.5217612206211326 1 4 4
326 1 1 0.5897 4.699486986068981 14.391067600501069 4.1731125967923495 3 -1 -3
305 1 1 0.5897 2.899493925877828 13.53815698765912 8.938393249614009 6 -4 -10
306 1 1 0.5897 1.5488417391526101 13.372175990088262 8.2750133495557 6 -4 -10
571 1 2 -1.1794 1.6151624829134632 16.1171147941723 7.524734937388883 5 -3 -5
304 1 2 -1.1794 1.961931583690846 13.657454212979273 9.08999943096146 6 -4 -10
370 1 2 -1.1794 4.585237071556587 15.887077091558558 6.944407148189897 4 7 1
572 1 1 0.5897 1.8536038576696192 15.37043323399263 8.07414094515235 5 -3 -5
799 1 2 -1.1794 4.708326402804164 13.632871261649811 8.841702085942794 -2 -1 6
372 1 1 0.5897 3.6693313590243393 16.12957419903777 6.808228092732741 4 7 1
801 1 1 0.5897 4.747402806353662 14.548380128060003 9.11837769280913 -2 -1 6
573 1 1 0.5897 1.4260347793524515 16.820963754580696 8.145270868250917 5 -3 -5
321 1 1 0.5897 4.691536713308387 11.907555390604795 10.849992623110037 -1 -1 -1
796 1 2 -1.1794 2.3887815662258696 16.12358486278018 12.718056085359363 3 -6 -6
710 1 1 0.5897 2.720460730935924 14.414289708719492 12.604535624898412 -5 -2 -2
709 1 2 -1.1794 3.074506883734143 13.525207433536835 12.624854574140718 -5 -2 -2
711 1 1 0.5897 2.4005608893060186 13.008549704762855 13.066548335296051 -5 -2 -2
699 1 1 0.5897 0.7575865754138938 15.850963938210027 12.173470108983425 -3 -2 -4
329 1 1 0.5897 4.178511806743538 14.554259855134763 14.361183308766323 2 8 1
797 1 1 0.5897 2.5228211317485822 16.52944268701153 11.861577479318559 3 -6 -6
35 1 1 0.5897 3.68204325151854 15.300604588437162 16.343624589690172 -1 -1 0
157 1 2 -1.1794 3.2341716436003454 11.877290690570694 15.93365565074077 2 3 0
187 1 2 -1.1794 1.2042249977091117 11.889675795002029 13.741040455515941 -2 6 3
159 1 1 0.5897 2.5154220425158473 11.951556157667035 15.305861411465928 2 3 0
320 1 1 0.5897 3.4020074854745808 12.341694452693115 11.513769778333327 -1 -1 -1
798 1 1 0.5897 2.4857594812336417 16.842768453142043 13.34224503315658 3 -6 -6
36 1 1 0.5897 3.2792039475992016 14.768470891123194 17.70247197844529 -1 -1 0
63 1 1 0.5897 3.503772717968179 12.890121103877501 17.66776556918628 -4 5 1
641 1 1 0.5897 3.154814844787472 14.82553719839243 20.90405485225957 4 1 -5
174 1 1 0.5897 1.323983630112605 13.079763914412938 18.972903693227153 9 5 -4
34 1 2 -1.1794 3.063353525068926 15.444164401298677 17.059760457357676 -1 -1 0
640 1 2 -1.1794 3.592268839146031 15.596404064708116 21.26547942984658 4 1 -5
61 1 2 -1.1794 4.070054125678848 13.192169462903358 18.377925113101227 -4 5 1
432 1 1 0.5897 1.2250767709949715 16.78443285420782 18.901484341555452 -5 -1 -3
705 1 1 0.5897 1.260496923746116 14.170874540068729 21.43691988846288 2 -3 -5
704 1 1 0.5897 1.2216750743889344 14.61707260976386 19.990791365658062 2 -3 -5
703 1 2 -1.1794 1.5470132641470165 13.918892124728664 20.55905757806245 2 -3 -5
172 1 2 -1.1794 1.0734846948707046 12.997266893199471 18.05275376019849 9 5 -4
430 1 2 -1.1794 0.6188222500961233 16.11131227629216 19.210693674686055 -5 -1 -3
62 1 1 0.5897 4.361285206901654 12.389512297179822 18.810544630704037 -4 5 1
642 1 1 0.5897 2.9064905789789757 16.262703372121543 21.30997557331817 4 1 -5
173 1 1 0.5897 0.5324690641383967 12.208214493517149 18.02114101668264 9 5 -4
220 1 2 -1.1794 0.7842378131030141 18.702441282111586 5.185505773133794 2 -8 6
617 1 1 0.5897 1.340366930902066 20.302203759765636 2.8314582632001652 2 2 -1
392 1 1 0.5897 3.5001620219604708 20.93968164255011 2.9450219780884668 1 -4 0
248 1 1 0.5897 3.3364048422520827 18.17205676675491 1.2418417294925328 -7 4 0
247 1 2 -1.1794 2.4540324045705546 18.308899984221632 0.8969771129147671 -7 4 0
350 1 1 0.5897 3.7673827098669688 17.431946828801145 4.503483375858924 -8 4 -5
222 1 1 0.5897 1.29812279859805 19.390680121370732 4.763030077063222 2 -8 6
618 1 1 0.5897 0.9228672736882009 21.372240475452205 3.81767521469841 2 2 -1
616 1 2 -1.1794 1.6444321895216563 20.781290910860893 3.602349798729327 2 2 -1
489 1 1 0.5897 0.7830162353234584 19.084115701104018 1.2263634231896723 -1 -3 4
391 1 2 -1.1794 4.327745575242527 20.907123631853324 2.465136581047303 1 -4 0
792 1 1 0.5897 1.7750754475582202 16.994512519463893 4.8823094968451075 3 3 3
349 1 2 -1.1794 4.46972977674859 18.066505435869576 4.361089664334674 -8 4 -5
351 1 1 0.5897 4.620281266051115 18.049795920715408 3.4159531788300868 -8 4 -5
657 1 1 0.5897 4.1167462976877385 19.565766315445135 5.677636901075572 0 1 -1
193 1 2 -1.1794 4.672244525039291 18.25308965064892 8.408824367517724 0 -5 3
596 1 1 0.5897 3.738951745220932 21.421841816160438 9.426613033516732 4 -7 1
194 1 1 0.5897 4.691372337963257 18.955008398494623 7.758307783612332 0 -5 3
377 1 1 0.5897 3.1850627708305543 17.808407903492743 9.699549380144362 -1 5 2
376 1 2 -1.1794 2.3362526049133683 17.547196170210988 10.056648514590698 -1 5 2
221 1 1 0.5897 0.6525692954655571 19.016197945750434 6.08019005546742 2 -8 6
524 1 1 0.5897 1.5395432442848702 21.682326085825355 8.703355086487973 0 -1 5
195 1 1 0.5897 4.729542089044522 17.447747083975894 7.894655993375434 0 -5 3
76 1 2 -1.1794 1.9133833783195362 21.60273566459411 6.573056693610437 -4 -7 -1
655 1 2 -1.1794 4.149603186446306 20.060655004336827 6.496320215973441 -1 1 -1
523 1 2 -1.1794 1.755395907909355 21.0448285372336 9.383980375664748 0 -1 5
176 1 1 0.5897 0.7919212970780779 19.628781186602474 8.455558128592568 0 -4 6
525 1 1 0.5897 1.565938445424921 21.49768391918175 10.205728839685701 0 -1 5
77 1 1 0.5897 2.6740672280510047 21.024834626066017 6.6332080326496285 -4 -7 -1
378 1 1 0.5897 1.930858810348582 18.367876126275718 10.336666178371612 -1 5 2
382 1 2 -1.1794 3.1681176546262417 17.907354576093034 14.682362347545933 -6 -6 -3
589 1 2 -1.1794 2.6528922782326325 20.58322516424903 14.45733102854288 5 6 0
384 1 1 0.5897 2.742017377148374 18.730923794127115 14.444861402710794 -6 -6 -3
591 1 1 0.5897 3.0278785928108327 20.39444224830248 15.31755062144091 5 6 0
567 1 1 0.5897 4.104526431221394 20.825253790157422 13.400084537564767 0 7 -9
149 1 1 0.5897 1.657689633278366 19.991545649979987 12.31018518365628 -1 3 0
148 1 2 -1.1794 0.9358240961542739 19.452744903241758 11.986405887230353 -1 3 0
383 1 1 0.5897 2.7511298446457797 17.649822562770247 15.50459113611463 -6 -6 -3
590 1 1 0.5897 1.8945339764499467 21.13719256795901 14.642459701457065 5 6 0
565 1 2 -1.1794 4.711417831725329 20.875853096347797 12.661606278059743 0 7 -9
820 1 2 -1.1794 0.906288511526109 17.48570450312357 16.30035364786091 1 0 7
809 1 1 0.5897 2.0529760467646847 19.647339609431434 19.616550701930507 4 -3 -3
838 1 2 -1.1794 2.900688201434551 17.745655531539327 18.497766582950142 -1 -3 -1
808 1 2 -1.1794 2.4746550115841077 20.378770218076887 20.06757921891014 4 -3 -3
840 1 1 0.5897 2.8581270763571767 18.48357565258552 17.88958188961123 -1 -3 -1
134 1 1 0.5897 3.5357232306360027 21.776134037300178 20.538800169860785 -4 -6 1
634 1 2 -1.1794 2.9587940419216383 20.028565391247426 17.05631578999658 -10 0 2
636 1 1 0.5897 2.381693077616826 20.75717023134631 17.285059082967138 -10 0 2
635 1 1 0.5897 3.8426922206373764 20.38251858806247 17.15464512857301 -10 0 2
810 1 1 0.5897 1.757240490600084 20.835703466422604 20.506633348684502 4 -3 -3
249 1 1 0.5897 2.5543570613539335 19.008999159399057 21.20575337200227 -7 4 -1
821 1 1 0.5897 0.7093455600784878 18.20936061188224 16.895132245924586 1 0 7
839 1 1 0.5897 3.028731972329678 16.98009004667613 17.93763892471958 -1 -3 -1
9 1 1 0.5897 5.935062907671703 2.7798417370577853 4.192957525937237 2 1 1
648 1 1 0.5897 8.693398727133156 5.398078876519126 3.862497733156841 -9 -2 4
357 1 1 0.5897 7.8024989186749565 1.960696171434858 1.0035182557200337 4 1 -3
517 1 2 -1.1794 8.44851062820123 6.587039018096828 2.0976848523428027 0 -4 -7
844 1 2 -1.1794 5.3533080417422845 4.547568913391096 4.356314165513615 -4 1 1
356 1 1 0.5897 8.528761298466806 2.9187246229693176 1.9236360032849058 4 1 -3
647 1 1 0.5897 7.599161053320808 4.722247575010756 4.661125904533464 -9 -2 4
8 1 1 0.5897 6.766701009055129 2.256206349831987 3.0413873022996785 2 1 1
646 1 2 -1.1794 8.527853106977238 4.652792839317107 4.439888975496629 -9 -2 4
355 1 2 -1.1794 7.656353607434744 2.695778515874811 1.5989393100179883 4 1 -3
466 1 2 -1.1794 6.080076738792577 6.7213194360314255 0.84285614401007 5 -4 7
468 1 1 0.5897 6.933508027139048 6.74789361349437 1.2754975498691925 5 -4 7
845 1 1 0.5897 5.126164851117868 4.661922487891328 3.43350853816128 -4 1 1
7 1 2 -1.1794 6.223461529893009 1.9683879043689123 3.7750657862235646 2 1 1
60 1 1 0.5897 5.011245177927901 5.370981918880592 1.3723457810932698 4 2 1
518 1 1 0.5897 9.094495224510288 6.551515373952285 1.3922281877227087 0 -4 -7
101 1 1 0.5897 8.069802347069576 6.532030862063563 9.061476120022576 5 -4 3
425 1 1 0.5897 6.407098514563527 2.4166869540376887 7.266242804442019 12 -6 4
546 1 1 0.5897 6.933799601175926 4.536943628670395 8.267343154407943 -2 5 6
100 1 2 -1.1794 8.07764067038078 5.722296700292266 9.571865604497027 5 -4 3
368 1 1 0.5897 7.110387864085988 6.038612115616859 6.53811542914332 2 9 -3
102 1 1 0.5897 8.625424480357877 5.123773989573914 9.063974782839226 5 -4 3
544 1 2 -1.1794 6.419633578350256 4.492992865975473 7.4611618969133415 -2 5 6
413 1 1 0.5897 5.365931562176947 2.723266283263901 10.688504605173256 5 1 1
545 1 1 0.5897 5.509183767998224 4.497898208166555 7.756622042964595 -2 5 6
380 1 1 0.5897 7.434159653826027 6.313589697534979 11.106135343999838 8 3 -3
369 1 1 0.5897 8.38011399235726 6.608877848628382 5.942722029575454 2 9 -4
27 1 1 0.5897 5.940923855776571 4.121557739201979 12.713174296329539 1 4 6
26 1 1 0.5897 5.576318081825824 5.35915440749318 13.505250676549025 1 4 6
701 1 1 0.5897 8.732161443343998 2.621643945767001 12.014927372157956 5 -1 4
354 1 1 0.5897 6.683818970229648 4.816603173100349 15.16460670945192 8 5 -6
303 1 1 0.5897 8.621267936263328 5.008276574061059 12.155475273115742 -1 4 5
25 1 2 -1.1794 5.720698304855443 4.417288545738526 13.59651075184477 1 4 6
352 1 2 -1.1794 7.037783502167223 4.809968870516682 16.053967789108373 8 5 -6
337 1 2 -1.1794 8.726298274889428 2.699469764841582 15.488406746938619 0 1 2
339 1 1 0.5897 8.399083274515005 3.531778884131372 15.829615237979178 0 1 2
700 1 2 -1.1794 8.252843696639523 1.8059770699442983 11.869378648021488 5 -1 4
414 1 1 0.5897 6.803655584727572 2.729522790727459 11.162673030229753 5 1 1
353 1 1 0.5897 7.2190661920987464 5.729861805527012 16.24692656948868 8 5 -6
379 1 2 -1.1794 7.4094518792642665 6.700690556951385 11.98123718173186 8 3 -3
412 1 2 -1.1794 6.0085569975935025 3.262337828058099 11.14966464859898 5 1 1
843 1 1 0.5897 7.7098876140821275 5.664299589244749 19.14158554925187 -2 -3 3
841 1 2 -1.1794 7.162257285011814 6.449208274179629 19.1238971990958 -2 -3 3
114 1 1 0.5897 6.167440479481444 3.5479724474768943 18.611053411929213 -4 -1 -1
344 1 1 0.5897 7.40527004434403 3.5596731710003073 20.881965721775828 -5 -1 2
686 1 1 0.5897 5.261639400199856 2.2640445596260177 16.907130891538472 7 -6 -3
113 1 1 0.5897 5.975262607659718 4.2003810924551 17.25847269350993 -4 -1 -1
343 1 2 -1.1794 7.303092057915352 3.7917936264758616 19.958971336064614 -5 -1 2
112 1 2 -1.1794 5.510782686671504 3.7038316353453515 17.932266244431247 -4 -1 -1
345 1 1 0.5897 8.10218596852826 3.4709646900794837 19.54094759983269 -5 -1 2
467 1 1 0.5897 6.284849184758438 6.604677911068301 20.868899346153 5 -4 6
410 1 1 0.5897 4.847816550815762 9.764517216229034 2.534003013052022 2 -2 -10
675 1 1 0.5897 8.130246274160537 9.362046085809286 5.333548142081273 -2 -3 -5
780 1 1 0.5897 7.321313589160381 9.555559952244801 2.574772251405364 -3 -1 -1
409 1 2 -1.1794 5.6445686980703496 10.111160942941117 2.9355915553438447 2 -2 -10
411 1 1 0.5897 5.621240514917669 9.785220895167994 3.8352996163445248 2 -2 -10
779 1 1 0.5897 8.693425137229577 9.329905454523622 3.173407973073952 -3 -1 -1
778 1 2 -1.1794 8.242868126017592 9.451756300041392 2.337694745469758 -3 -1 -1
652 1 2 -1.1794 6.136829920763838 9.623445556821656 5.59735203822268 -2 1 -2
519 1 1 0.5897 8.445274810650591 7.503427608590912 2.374196765988793 0 -4 -7
673 1 2 -1.1794 9.015609682095423 9.26510706789537 4.98288083664329 -2 -3 -5
480 1 1 0.5897 5.100725675155614 6.771588965417654 5.746241298182448 -2 4 -4
768 1 1 0.5897 4.980730141131559 9.884687827077695 8.83670692014915 1 -6 3
476 1 1 0.5897 7.338486343682704 8.958877178241 8.702656543921004 9 -1 -2
620 1 1 0.5897 7.932947293196665 11.488698546976709 9.85831822577498 -1 -7 5
475 1 2 -1.1794 7.9032501356932565 8.244321597829739 8.408183819197006 9 -1 -2
621 1 1 0.5897 8.835268925756194 11.158030657378061 8.688460256083255 -1 -7 5
654 1 1 0.5897 6.095775045217982 10.23852712795919 6.329630176891833 -2 1 -2
619 1 2 -1.1794 8.732340675229398 11.014591497235537 9.62926845927333 -1 -7 5
766 1 2 -1.1794 5.627211266372309 10.38396202165197 8.337678556397256 1 -6 3
767 1 1 0.5897 5.56151121650192 11.274284952119624 8.682996629863844 1 -6 3
477 1 1 0.5897 7.540104237146979 7.984773347649632 7.561432134841775 9 -1 -2
367 1 2 -1.1794 7.4583178240092725 6.814455492555784 6.098485968635492 2 9 -3
653 1 1 0.5897 5.842916373635596 8.790702006416439 5.966660002664196 -2 1 -2
336 1 1 0.5897 5.845549176287473 7.482571527432202 15.18019833292512 13 3 3
334 1 2 -1.1794 5.168623281883533 6.967895811581962 14.74073977772072 13 3 3
381 1 1 0.5897 6.603175231647807 7.216498800481447 11.992815621134474 8 3 -3
401 1 1 0.5897 8.204735933862473 7.926810581950914 15.406426893639377 -6 2 6
586 1 2 -1.1794 9.017013522811121 9.071636702174484 14.427750017542362 1 2 0
460 1 2 -1.1794 5.525352842491556 10.60246978498206 14.595243222037066 2 0 -2
461 1 1 0.5897 6.0099745157261655 11.257354596246984 14.092745943418231 2 0 -2
400 1 2 -1.1794 7.766068108727568 7.5004813283973295 16.142670872125734 -6 2 6
447 1 1 0.5897 5.860762410822071 9.89299309943789 16.082198239082167 2 1 1
201 1 1 0.5897 9.014710453680387 7.954256511041618 11.712625817286224 4 -4 -3
828 1 1 0.5897 9.005285041543022 10.990843968650413 14.00913937452217 0 -2 5
587 1 1 0.5897 8.984229496655212 8.880593569116584 13.490360055904066 1 2 0
462 1 1 0.5897 4.841650862537645 11.101000962202189 15.042741451702627 2 0 -2
200 1 1 0.5897 8.981599527025969 9.344859440509197 11.1150985982425 4 -4 -3
389 1 1 0.5897 8.423421748620653 10.891212529642942 18.20322357394626 0 5 2
402 1 1 0.5897 7.258793777393216 8.198674392688236 16.55673959293474 -6 2 6
17 1 1 0.5897 4.984963214286169 8.298931905987683 18.307961006860296 1 4 0
510 1 1 0.5897 6.357029501379335 8.633581032576089 21.22838304167213 -2 -2 3
508 1 2 -1.1794 6.859042718230521 9.268262653067723 20.71710637972747 -2 -2 3
861 1 1 0.5897 5.237872003693356 10.390282233602317 20.04917833313648 -1 -2 3
388 1 2 -1.1794 7.503621855314292 11.102026271365688 18.36370220867319 0 5 3
786 1 1 0.5897 8.247588478784515 8.71014581570713 19.834566567870624 5 6 0
445 1 2 -1.1794 5.872712314500541 9.495749370913494 16.952992126445935 1 1 1
446 1 1 0.5897 6.445927586685401 10.063597401484627 17.46796974510675 1 1 1
18 1 1 0.5897 5.614832826067578 6.978610011127843 18.6977127884874 1 4 0
784 1 2 -1.1794 8.955932353639934 8.355539424002444 19.29717888198082 5 6 0
509 1 1 0.5897 7.284607586693708 9.821345843304853 21.37225737094264 -2 -2 3
842 1 1 0.5897 7.782700089795391 7.1728233980663 19.03627233073746 -2 -3 3
390 1 1 0.5897 7.2739144480217055 11.718636732492053 17.668536458140046 0 5 3
603 1 1 0.5897 7.59307947469755 11.722076736450466 20.130085449594738 7 5 -1
564 1 1 0.5897 8.283496027747455 13.133058984280785 2.767296046483487 5 -1 7
327 1 1 0.5897 5.918254779374741 15.229606829311543 3.8515424950231596 3 -1 -3
557 1 1 0.5897 7.449218298804297 16.646277406022634 3.1278826496528542 5 2 3
324 1 1 0.5897 6.174693372248894 11.891630850139077 2.445099066908936 7 0 -3
556 1 2 -1.1794 6.7826007583461525 16.221940022400403 2.587703320182068 5 2 3
323 1 1 0.5897 6.800132938671819 12.882845877705275 1.4867952928961365 7 0 -3
325 1 2 -1.1794 5.405756830077274 14.889053543090304 4.584761943168372 3 -1 -3
322 1 2 -1.1794 6.601700209864521 12.747765554709467 2.413436511742071 7 0 -3
471 1 1 0.5897 6.1025842852189465 13.490766784561822 5.6256481826499165 0 -5 0
731 1 1 0.5897 6.447275032055307 15.070314535054042 1.062655772255813 2 4 -1
818 1 1 0.5897 4.9220963195594605 13.562534014773076 2.230306021343213 5 1 4
755 1 1 0.5897 8.833594518081073 16.401571812629005 1.3808910524252205 -6 -5 2
436 1 2 -1.1794 8.310426861552177 16.075410270474208 7.650652150881784 -4 8 3
255 1 1 0.5897 6.869846373944638 15.298748845179313 10.252239023758348 6 5 -7
108 1 1 0.5897 9.020778190937706 15.046945052811944 5.975007254975856 -4 2 5
437 1 1 0.5897 7.979489727326276 15.584746725563464 8.402979770748924 -4 8 3
253 1 2 -1.1794 7.435910022754204 14.662632985083302 9.815017894207038 6 5 -7
254 1 1 0.5897 8.245934448655557 14.671861482925701 10.324929988675335 6 5 -7
599 1 1 0.5897 6.727078931281972 12.889381206069285 10.325482309715397 -1 -4 -8
592 1 2 -1.1794 8.828453003000845 11.933224503703112 6.906272051599799 -4 -4 -2
469 1 2 -1.1794 6.187153196229998 12.780815988709405 6.262081445402253 0 -5 0
178 1 2 -1.1794 5.053552421151176 15.796820976166284 10.704060163642593 -5 0 -4
594 1 1 0.5897 7.969506007936044 12.230546922627244 6.606123352554367 -4 -4 -2
800 1 1 0.5897 5.108394674039264 13.6276887873847 7.972122672309233 -2 -1 6
598 1 2 -1.1794 6.523441153818911 12.090106562469543 10.811209788103884 -1 -4 -8
371 1 1 0.5897 4.832442065208435 15.424003248482181 6.143981040067827 4 7 1
470 1 1 0.5897 5.453741459565009 12.196813650349455 6.069012587683603 0 -5 0
180 1 1 0.5897 5.0665487306400605 16.67493608328288 11.084829747438256 -5 0 -4
275 1 1 0.5897 7.681193273949338 16.297071310981377 12.838056595861964 -3 3 -2
747 1 1 0.5897 6.925377374989119 13.80487032221384 13.459126397711678 -2 6 -9
600 1 1 0.5897 6.739564685820766 12.299798819978363 11.719807491349549 -1 -4 -8
276 1 1 0.5897 7.732021145393011 15.642377871358777 14.202160929313958 -3 3 -2
745 1 2 -1.1794 6.964066470829375 12.849993915679953 13.404856999769713 -2 6 -9
746 1 1 0.5897 7.88616480593001 12.638500933257365 13.550573500939478 -2 6 -9
274 1 2 -1.1794 7.217221748029049 15.672556817887074 13.395704257558647 -3 3 -2
777 1 1 0.5897 6.416453058152297 13.294818853260315 15.78911572108733 6 -4 4
330 1 1 0.5897 5.338345293159358 15.52598655547844 14.410451191044034 2 8 1
22 1 2 -1.1794 8.695973417174663 15.58395689693572 15.748406126253242 -6 2 0
179 1 1 0.5897 4.876280167932657 15.216751756613336 11.444548474840442 -5 0 -4
23 1 1 0.5897 8.934110555065404 14.72237771684629 16.09076618993922 -6 2 0
328 1 2 -1.1794 4.904075009085384 14.839368617367116 14.916611718307152 2 8 1
155 1 1 0.5897 7.357488826647285 15.974799502221336 20.448858668362327 2 2 -2
776 1 1 0.5897 5.477994461042867 12.969399648161147 16.931607640874397 6 -4 4
730 1 2 -1.1794 6.29503885190479 14.63340881729189 21.17847738021041 2 4 -2
296 1 1 0.5897 5.3603092437972935 15.018695916551762 18.076667385518277 0 -2 1
297 1 1 0.5897 6.778344851054158 15.310414248987321 17.633997103112854 0 -2 1
602 1 1 0.5897 7.439334991310424 13.133045970798486 20.65692026907869 7 5 -2
732 1 1 0.5897 5.429416284508887 14.935943125254923 20.903874083298525 2 4 -2
601 1 2 -1.1794 7.847577642322733 12.290646930173624 20.85686829685136 7 5 -1
295 1 2 -1.1794 5.939292192815584 15.73434574526986 17.81427237171826 0 -2 1
775 1 2 -1.1794 6.3771571099537265 12.8394948449017 16.6301638173152 6 -4 4
154 1 2 -1.1794 7.8659897888806425 16.71885594518773 20.126269975857078 2 2 -2
24 1 1 0.5897 8.669130179689795 16.149769680562425 16.520007876751258 -6 2 0
669 1 1 0.5897 7.8856965780335555 17.83220831142894 5.278478593344039 -7 -3 0
668 1 1 0.5897 6.379728480756204 17.934218470359795 5.394916300473603 -7 -3 -1
123 1 1 0.5897 7.5266384854872665 20.960379108215086 4.082120744138462 1 2 -1
551 1 1 0.5897 8.555253403142524 19.567119102620342 2.760625029262359 -1 1 -2
550 1 2 -1.1794 8.62842991577933 18.9297367385799 2.0502336275607616 -1 1 -2
10 1 2 -1.1794 5.047879684454624 18.369410088940143 1.7676487548891708 2 0 4
393 1 1 0.5897 4.989038778292915 21.158839249435463 3.1097971416668697 1 -4 0
121 1 2 -1.1794 8.263125194247234 20.3998701734514 4.326366623809721 1 2 -1
11 1 1 0.5897 5.238049966040732 18.389685571448247 0.8297263686298668 2 0 4
122 1 1 0.5897 7.859287450122806 19.649106758945425 4.761697104906633 1 2 -1