LAMMPS data file via write_data, version 30 Jul 2021, timestep = 1000000

864 atoms
2 atom types
576 bonds
1 bond types
288 angles
1 angle types

0.04437416197446353 18.163198238023536 xlo xhi
-0.059555955290354845 23.688733755291256 ylo yhi
0.07832951883470507 22.134866281167902 zlo zhi

Masses

1 1.00794
2 15.9994

Pair Coeffs # lj/cut/tip4p/long/omp

1 0 0
2 0.21084 3.1668

Bond Coeffs # harmonic/omp

1 450 0.9572

Angle Coeffs # harmonic/omp

1 55 104.52

Atoms # full

707 1 1 0.5897 2.741376732147085 1.8568032325156416 3.7803880636588234 0 0 0
706 1 2 -1.1794 2.649824918550964 1.8223494242836793 2.828154127513458 0 0 0
30 1 1 0.5897 5.238606315412484 3.6953394209393746 2.3478112276136947 0 0 0
708 1 1 0.5897 1.8534312926222702 2.3210358989295288 2.6454262901023355 0 0 0
29 1 1 0.5897 4.36373977310113 2.463654163198231 2.4468263587315664 0 0 0
28 1 2 -1.1794 5.105886863640818 2.8282292603679324 1.9645397585874311 0 0 0
1 1 2 -1.1794 0.41236944092297007 3.1670074235591295 2.0484419455600706 0 0 0
3 1 1 0.5897 0.2611307732334073 4.003378218892602 2.4888988343349934 0 0 0
20 1 1 0.5897 0.5585436742345234 3.2224439724891045 0.14758372340276155 0 0 0
188 1 1 0.5897 2.7962380513857736 0.018249813086669717 2.320974575186211 0 1 0
595 1 2 -1.1794 0.19039067304936086 5.780721313133919 3.0644274777703533 0 0 0
597 1 1 0.5897 0.16483761092413202 5.778543236997712 4.0213285808876105 0 0 0
136 1 2 -1.1794 5.065343203355638 5.343711810129739 3.09952548522329 0 0 0
137 1 1 0.5897 5.0086452896334395 5.316753757928608 4.054709609651246 0 0 0
668 1 1 0.5897 5.003684347816577 3.2263476746219286 0.14058830238998604 0 0 0
494 1 1 0.5897 6.6892735038719255 2.301786654643601 2.87585264971756 0 0 0
493 1 2 -1.1794 7.382201744342195 1.6710586759959605 3.0717612871477233 0 0 0
846 1 1 0.5897 7.60683415464072 1.4240738521750562 4.79493424989434 0 0 0
495 1 1 0.5897 8.120492537092558 1.9496562042294987 2.529892429101102 0 0 0
108 1 1 0.5897 11.168258569842052 2.0831603464056463 2.494484905135968 0 0 0
750 1 1 0.5897 9.604381352626516 2.66108040904132 0.8202932334936986 0 0 0
749 1 1 0.5897 9.721500238398301 3.637243257714608 1.9716431257644011 0 0 0
748 1 2 -1.1794 9.590006834186427 2.7093831043401995 1.7762117779911473 0 0 0
300 1 1 0.5897 9.506631201889064 5.447816437896015 3.6322593268268255 0 0 0
107 1 1 0.5897 11.879275099275356 1.5475221729014557 3.719096206977541 0 0 0
106 1 2 -1.1794 11.980374404374503 1.6604300135804475 2.7739244433091708 0 0 0
298 1 2 -1.1794 9.645291634076088 5.4073332231357085 2.685974253703772 0 0 0
163 1 2 -1.1794 9.6639477097019 5.805354165011359 5.472712306959398 0 0 0
802 1 2 -1.1794 11.869708493904028 1.3217010756649008 5.464102200351317 0 0 0
2 1 1 0.5897 17.854896505153384 2.5862584356894986 2.3972855227357592 -1 0 0
408 1 1 0.5897 15.71083066982529 2.248533690841957 2.7363740415499627 0 0 0
215 1 1 0.5897 13.68268263939988 2.4745225667570305 2.4403910287835338 0 0 0
216 1 1 0.5897 14.260360831015651 3.871855644809084 2.5181838764578117 0 0 0
214 1 2 -1.1794 14.380282365248272 3.0260688180298008 2.086147294130599 0 0 0
406 1 2 -1.1794 16.460016239287082 1.8503051427455026 3.179607366864528 0 0 0
407 1 1 0.5897 16.431089172838906 0.9294634437434647 2.919571646698376 0 0 0
660 1 1 0.5897 16.46712496165559 1.6429873031261282 5.04079047411985 0 0 0
109 1 2 -1.1794 14.23459834016483 5.741655012629878 3.053079028274322 0 0 0
731 1 1 0.5897 14.258832574592123 5.663560167059795 4.806896822515659 0 0 0
138 1 1 0.5897 4.35636881734902 5.929284363175246 2.8334455377733905 0 0 0
255 1 1 0.5897 1.9391803351721606 6.511789209644484 2.315530105789975 0 0 0
123 1 1 0.5897 2.7607859725821604 8.624565779146947 2.580773879688204 0 0 0
121 1 2 -1.1794 2.976321696092735 9.531972663333857 2.7965541460792074 0 0 0
122 1 1 0.5897 3.215321063285819 9.508031044519127 3.723174998678811 0 0 0
44 1 1 0.5897 1.5433116173549197 10.729780036013116 2.3065522499415514 0 0 0
219 1 1 0.5897 4.37006744658744 10.572510862867903 2.2161675831950505 0 0 0
253 1 2 -1.1794 2.81512982250899 6.8120404202377065 2.0729110726647324 0 0 0
254 1 1 0.5897 2.8132543752162498 6.809173983972054 1.115672795277343 0 0 0
217 1 2 -1.1794 5.073553321094822 11.13580878799963 1.893457316458059 0 0 0
43 1 2 -1.1794 0.6747771961050888 11.128901253173286 2.254914325156916 0 0 0
396 1 1 0.5897 0.6920531625300256 11.037320811037436 0.3366280118875903 0 0 0
363 1 1 0.5897 5.142936612921086 11.200644057565057 0.13164336161867998 0 0 1
793 1 2 -1.1794 3.1040136256104915 9.478561814009838 5.5356047751797455 0 0 0
218 1 1 0.5897 5.875375911673202 10.64411422351423 2.0713471592609913 0 0 0
299 1 1 0.5897 10.466117620274197 5.878730678918789 2.5433103671906636 0 0 0
416 1 1 0.5897 6.600649246728061 6.513781451097466 2.52308645546325 0 0 0
417 1 1 0.5897 8.087348028492439 6.257934541395706 2.395320821759667 0 0 0
66 1 1 0.5897 6.97894843181725 9.398367469393303 3.7036746156601517 0 0 0
65 1 1 0.5897 7.207985688060111 8.602223131901262 2.4364469348568174 0 0 0
64 1 2 -1.1794 7.116182901822171 9.497916016428377 2.761562027884181 0 0 0
415 1 2 -1.1794 7.387156413781319 6.827670131642394 2.0767774026987125 0 0 0
93 1 1 0.5897 11.271504937327668 10.39894533657891 2.7877108266248203 0 0 0
773 1 1 0.5897 8.805505628266244 10.096260049802153 2.2559605750374865 0 0 0
774 1 1 0.5897 9.645676526333823 10.455414763491678 1.0488025336988254 0 0 0
772 1 2 -1.1794 9.627830152360502 10.51647874854406 2.0039327980542057 0 0 0
712 1 2 -1.1794 7.368244674945991 9.453889904705578 5.509464107750478 0 0 0
92 1 1 0.5897 12.087852692833865 9.967527801429247 3.98752729980057 0 0 0
91 1 2 -1.1794 12.080895139117482 9.949210293863796 3.0304810945495193 0 0 0
190 1 2 -1.1794 11.932807894035376 7.236923446328163 2.22815001299456 0 0 0
192 1 1 0.5897 11.813570632621706 8.115535206153103 2.5890055212569263 0 0 0
111 1 1 0.5897 14.992831426761212 6.263663482405063 2.790554540193443 0 0 0
596 1 1 0.5897 17.634938657316717 6.40986403410528 2.8077678016828007 0 0 0
110 1 1 0.5897 13.47945270284541 6.284546126779998 2.8264594403572065 0 0 0
191 1 1 0.5897 12.161734804004734 7.383497034392099 1.3103104972195245 0 0 0
843 1 1 0.5897 17.445040398926295 10.252706569598361 3.148627855025463 0 0 0
839 1 1 0.5897 16.436943573287653 8.392631691826583 2.5815978574231195 0 0 0
841 1 2 -1.1794 16.611766609249983 9.835620597891683 3.367738147245408 0 0 0
861 1 1 0.5897 15.148602454468397 10.900924386747084 2.491767063778532 0 0 0
859 1 2 -1.1794 14.399571756043382 11.43188578280415 2.2209035463901 0 0 0
860 1 1 0.5897 13.64074133500737 10.986066618783932 2.5973916866344933 0 0 0
842 1 1 0.5897 16.58083590814987 9.84915391540944 4.324386856101725 0 0 0
838 1 2 -1.1794 16.418462035040122 7.504665280134431 2.2244222097141364 0 0 0
840 1 1 0.5897 16.12519457788768 7.615846781023845 1.3200153022919274 0 0 0
152 1 1 0.5897 13.983634706534136 11.337543854917628 0.364099852580169 0 0 0
45 1 1 0.5897 0.7834166739491393 11.9925588412616 2.6532695770491213 0 0 0
173 1 1 0.5897 4.707677804289078 14.289137746746817 2.9400547359501803 0 0 0
172 1 2 -1.1794 5.108372899958541 13.61265591752784 3.4861044768630616 0 0 0
293 1 1 0.5897 2.882437112831304 16.801895567716244 2.5679391272762198 0 0 0
558 1 1 0.5897 3.1826942553293596 15.26438410455485 1.1355142708469792 0 0 0
556 1 2 -1.1794 3.361625384652019 15.152571509232219 2.0692180624811813 0 0 0
557 1 1 0.5897 2.566295750624172 14.751363382017445 2.419646861966637 0 0 0
200 1 1 0.5897 4.863716831128503 13.600048197989972 5.250139849887876 0 0 0
174 1 1 0.5897 5.009024442556345 12.805932733461766 2.980426789560019 0 0 0
373 1 2 -1.1794 1.104625460033129 13.692789980382024 3.2064847042550277 0 0 0
374 1 1 0.5897 0.8926614447249139 13.531020457072952 4.125841273010119 0 0 0
375 1 1 0.5897 0.32898334207304825 14.129716597287914 2.8546355631758535 0 0 0
292 1 2 -1.1794 2.7381967640565894 17.66703597287141 2.951497925056165 0 0 0
294 1 1 0.5897 2.3635557923453465 17.487737255440003 3.81394556407342 0 0 0
480 1 1 0.5897 6.520603161526154 14.27295734447164 2.326328996381487 0 0 0
449 1 1 0.5897 7.613651693888627 16.403301304350805 2.6998949694118317 0 0 0
478 1 2 -1.1794 7.2441978609255555 14.813359912476765 2.0089944161906397 0 0 0
479 1 1 0.5897 8.019679698489742 14.262228711799986 2.114910447196847 0 0 0
155 1 1 0.5897 10.225207865592068 13.535371703759917 2.6696231835759345 0 0 0
806 1 1 0.5897 9.432226568813977 13.464715422802575 4.627216514337753 0 0 0
154 1 2 -1.1794 9.360234285437507 13.125340912991296 2.6661270129993966 0 0 0
156 1 1 0.5897 9.536126438996792 12.195098540948003 2.52428369047999 0 0 0
308 1 1 0.5897 7.403609375272706 17.369908855772557 4.625125378784214 0 0 0
317 1 1 0.5897 7.230913981873167 15.014335805799455 0.16588584026339903 0 0 0
834 1 1 0.5897 11.726440202206156 16.814591996671354 2.682478072056708 0 0 0
561 1 1 0.5897 11.977353929777927 14.694672576459379 1.620904452380542 0 0 0
559 1 2 -1.1794 11.978125972279278 14.46382173406301 2.549899620131946 0 0 0
645 1 1 0.5897 11.979632675786116 17.446947871537134 4.913094242996814 0 0 0
448 1 2 -1.1794 7.696522423921743 17.34248002732759 2.8656751785588326 0 0 0
832 1 2 -1.1794 11.800963527855368 17.721244342443427 2.9805247348634003 0 0 0
450 1 1 0.5897 6.935107198168149 17.730454687929694 2.43435549172446 0 0 0
805 1 2 -1.1794 9.396121781505126 13.499624175313965 5.583143991808976 0 0 0
307 1 2 -1.1794 7.210456146090529 17.393486003379657 5.562382477884048 0 0 0
560 1 1 0.5897 12.87301298445916 14.171935111514209 2.7239278424972193 0 0 0
57 1 1 0.5897 14.59100290153293 13.108768400881493 2.754144366649499 0 0 0
179 1 1 0.5897 16.30234749268879 14.652378186902174 2.435563665629799 0 0 0
180 1 1 0.5897 16.922790104619978 16.032864861057114 2.395424894828962 0 0 0
178 1 2 -1.1794 17.083289397177108 15.123149382578246 2.144306379823699 0 0 0
56 1 1 0.5897 14.354226719473818 14.176749948434132 3.8008387588672474 0 0 0
55 1 2 -1.1794 14.682640220733493 14.048688298939037 2.9108607205383974 0 0 0
745 1 2 -1.1794 16.47613452027178 17.739239111668567 2.8738198404737507 0 0 0
614 1 1 0.5897 17.054876881221514 14.980098452708505 0.1998146101993755 0 0 0
564 1 1 0.5897 16.625790286758907 17.470619123046617 4.7270040718702555 0 0 0
227 1 1 0.5897 4.412570899237355 18.097001240785346 2.3712406600821185 0 0 0
344 1 1 0.5897 1.3549562542627218 18.97672646869234 2.2625901442896215 0 0 0
696 1 1 0.5897 1.2669517726540587 22.308364516169732 2.8207493991620756 0 0 0
266 1 1 0.5897 4.175665252226225 21.636491313047827 2.7349982954952883 0 0 0
265 1 2 -1.1794 5.042273309566338 21.267523255687856 2.905775785349467 0 0 0
187 1 2 -1.1794 2.804810378974301 22.843052922968567 2.0689683859879864 0 0 0
228 1 1 0.5897 4.964279966682607 19.46035874417003 2.011834310490631 0 0 0
189 1 1 0.5897 2.997230681984821 22.851941053392977 1.1313036486111294 0 0 0
226 1 2 -1.1794 5.061514756928369 18.528504740926536 1.8153586355070206 0 0 0
695 1 1 0.5897 0.4626742080763052 21.046545833383107 2.5900720468858394 0 0 0
249 1 1 0.5897 5.39272629353405 21.16142155462125 4.803538002220157 0 0 0
694 1 2 -1.1794 0.49300007285377856 21.836997562287543 3.12919244741434 0 0 0
343 1 2 -1.1794 0.5615446811476867 19.461241457022872 2.0344060773732817 0 0 0
345 1 1 0.5897 0.47039105519266544 19.340940562435122 1.0891329264125 0 0 0
413 1 1 0.5897 0.6548316395583614 21.67721706602825 4.925319968294059 0 0 0
267 1 1 0.5897 5.652772239346538 21.91958707704618 2.5616033413519093 0 0 0
819 1 1 0.5897 7.0000724337985964 23.625017857794724 2.496616794030981 0 -1 0
63 1 1 0.5897 11.948516900964249 23.591884271526993 2.4079222676678986 0 0 0
320 1 1 0.5897 10.44852666661066 18.644661892298743 1.8865572135260524 0 0 0
321 1 1 0.5897 8.94974867255626 18.469742108639842 2.009537399387487 0 0 0
817 1 2 -1.1794 7.037355240535669 22.845916175560077 1.9416448708615206 0 0 0
818 1 1 0.5897 7.751715142982682 22.32438812658502 2.307749894442716 0 0 0
399 1 1 0.5897 10.11882677277327 21.969838728821564 2.8239739101239367 0 0 0
319 1 2 -1.1794 9.617590931606388 18.96764710815068 1.5379342021558902 0 0 0
397 1 2 -1.1794 9.297785171750107 21.48025346461796 2.874209271293992 0 0 0
398 1 1 0.5897 9.446949484963339 20.705183547333938 2.332548808985237 0 0 0
591 1 1 0.5897 9.557815409594703 20.952572369363267 5.010359356245701 0 0 0
61 1 2 -1.1794 11.67775297196223 22.67526931030111 2.46185148297837 0 0 0
425 1 1 0.5897 11.915548175180847 22.630772366343166 0.4741563038774858 0 0 1
833 1 1 0.5897 12.685997408748502 17.984794451565783 2.728409199101 0 0 0
747 1 1 0.5897 15.613533140255665 18.122248478650484 2.714019352457513 0 0 0
746 1 1 0.5897 17.090120827993044 18.45651152659901 2.716047663536832 0 0 0
62 1 1 0.5897 12.39247316783089 22.2408509883349 2.9274477199821805 0 0 0
729 1 1 0.5897 17.10481083813772 22.683541388484848 2.566458477925399 0 0 0
119 1 1 0.5897 14.142023914544898 21.4083267179402 4.025708088526725 0 0 0
120 1 1 0.5897 14.794452978343529 22.032197983657916 2.810280551136944 0 0 0
118 1 2 -1.1794 14.011250665084138 21.557776926989227 3.0892872041927846 0 0 0
306 1 1 0.5897 13.94407017877639 19.763247618358015 2.642240627770094 0 0 0
727 1 2 -1.1794 16.295294198529607 23.060372251447603 2.221499922814846 0 0 0
728 1 1 0.5897 16.478472740458756 23.215244645473263 1.2947953253797033 0 0 0
304 1 2 -1.1794 14.105452320973773 18.859215960447273 2.3719083112261368 0 0 0
305 1 1 0.5897 14.148047817593985 18.89842386209549 1.4164155726491097 0 0 0
487 1 2 -1.1794 3.1224208326523115 1.7994417530357545 5.593541722967663 0 0 0
83 1 1 0.5897 4.614617144229108 2.607770873326986 6.327875008826768 0 0 0
488 1 1 0.5897 2.5150759598541623 2.249113584076724 6.1811262675166025 0 0 0
489 1 1 0.5897 3.138491980899851 0.8962269183767637 5.910320002615465 0 0 0
686 1 1 0.5897 5.31074302529833 4.573848370635187 6.095300452403183 0 0 0
82 1 2 -1.1794 5.4236984539201485 2.9146763044891615 6.737152834989029 0 0 0
274 1 2 -1.1794 5.646776187707062 2.98988758705541 9.543274848121735 0 0 0
673 1 2 -1.1794 2.849863799727854 1.7129868707664728 10.263240543499498 0 0 0
36 1 1 0.5897 1.6651365822174475 2.736029732214835 9.440044486864254 0 0 0
674 1 1 0.5897 3.6622512779658516 2.203092336680225 10.390290872165762 0 0 0
275 1 1 0.5897 5.633312333303724 2.93524609871606 8.587683759334082 0 0 0
675 1 1 0.5897 3.1039059395295845 0.9621947897608538 9.726446935413282 0 0 0
784 1 2 -1.1794 0.7338433682934224 3.1431503241259224 6.348479925878749 0 0 0
785 1 1 0.5897 0.7696902260473627 3.129977698190303 7.304963220426519 0 0 0
678 1 1 0.5897 5.39673243673665 4.622645180557692 10.177621496423594 0 0 0
34 1 2 -1.1794 0.8274253156730315 3.0894812849267472 9.14067995263247 0 0 0
676 1 2 -1.1794 5.233517741022927 5.519692942521621 10.469275430375626 0 0 0
35 1 1 0.5897 0.7699673290607844 3.9518995905733574 9.55217786026877 0 0 0
181 1 2 -1.1794 0.12118283777105722 5.7777288974353045 5.795952285866799 0 0 0
84 1 1 0.5897 6.068024763869676 2.2368225022508965 6.53295241576329 0 0 0
112 1 2 -1.1794 0.6489331637348726 5.682717914629857 10.204651192956955 0 0 0
685 1 2 -1.1794 5.3038254148389194 5.467726309901544 5.752756169260635 0 0 0
276 1 1 0.5897 6.279601085502401 2.3241401052264323 9.812838797843995 0 0 0
844 1 2 -1.1794 7.702835994235807 1.386366930798498 5.746608194148513 0 0 0
845 1 1 0.5897 7.756494897773758 0.4515178566494338 5.945562400538089 0 0 0
803 1 1 0.5897 11.091630029730757 1.8137134813480487 5.726484487158816 0 0 0
419 1 1 0.5897 8.980514176420574 2.543591709154621 6.156873410963953 0 0 0
355 1 2 -1.1794 7.522926095442182 1.2632378337916834 10.694936775379652 0 0 0
356 1 1 0.5897 7.462414284289709 0.34344451417997784 10.436630442613849 0 0 0
176 1 1 0.5897 9.326826365710277 2.2474856959943734 9.560123678076758 0 0 0
175 1 2 -1.1794 10.08674842518948 2.7465812090054653 9.26054025812123 0 0 0
420 1 1 0.5897 9.665908721804561 3.892885669386892 6.112961127375854 0 0 0
418 1 2 -1.1794 9.717832545410147 3.0304596938151804 6.525174896058707 0 0 0
705 1 1 0.5897 9.933969035977 4.939979944991892 9.97510271988812 0 0 0
177 1 1 0.5897 9.983982888718037 2.792774893360966 8.309948038091553 0 0 0
516 1 1 0.5897 11.462803625141145 1.8888327492142851 9.766492733812564 0 0 0
703 1 2 -1.1794 9.995228846549725 5.853587650792936 10.254337169928792 0 0 0
183 1 1 0.5897 18.08036826933265 4.952184348147275 6.253535288571248 -1 0 0
786 1 1 0.5897 18.01696416956233 2.7285714489458726 6.133902605200055 -1 0 0
514 1 2 -1.1794 12.182225130929291 1.3214036664409792 10.043600335663438 0 0 0
515 1 1 0.5897 12.248342245354921 1.4616794725717412 10.988202921237631 0 0 0
658 1 2 -1.1794 16.360931092787165 1.823691882300141 5.974810055083492 0 0 0
659 1 1 0.5897 16.31107977013936 0.9589458897361924 6.382393378193227 0 0 0
804 1 1 0.5897 12.603344204988295 1.890631363511776 5.697401437600008 0 0 0
732 1 1 0.5897 13.864421557854728 4.553299801272138 5.757687226208631 0 0 0
652 1 2 -1.1794 16.651314344609343 1.9633328086767712 10.32856920416334 0 0 0
849 1 1 0.5897 13.681878963925321 2.6428987523655847 9.995367161163495 0 0 0
436 1 2 -1.1794 13.913921851524108 2.8412281866272733 6.653505164178243 0 0 0
654 1 1 0.5897 17.565621246437313 2.2346230580273496 10.246423693207268 0 0 0
545 1 1 0.5897 14.404789771290442 4.979765247069151 10.339719940220089 0 0 0
437 1 1 0.5897 13.951363319944246 3.0895816923848285 7.5772178961453305 0 0 0
847 1 2 -1.1794 14.348802834317121 3.2923690934460583 9.772334896139611 0 0 0
438 1 1 0.5897 14.711675407237125 2.332186592594985 6.509303960599269 0 0 0
848 1 1 0.5897 15.178393855956903 2.821416192608816 9.851747566267402 0 0 0
131 1 1 0.5897 16.523541589406708 0.24916055393366554 9.93186250239897 0 1 0
730 1 2 -1.1794 14.132463885022812 5.472047297088269 5.736239853190938 0 0 0
544 1 2 -1.1794 14.300937883937255 5.814329847978668 10.797003783403191 0 0 0
677 1 1 0.5897 6.046896056605092 5.986353605571087 10.27700621293043 0 0 0
114 1 1 0.5897 1.4650475211119376 6.106883660366935 9.939409639191433 0 0 0
687 1 1 0.5897 4.600802614205947 5.903863117812193 6.234273107240506 0 0 0
794 1 1 0.5897 2.43010855256201 9.9586550997754 6.0169485605158926 0 0 0
795 1 1 0.5897 3.9164390346773312 9.946273138588843 5.729342396912059 0 0 0
11 1 1 0.5897 1.9265090774230527 6.250949256191248 6.571290828514543 0 0 0
651 1 1 0.5897 3.8710309115674195 6.432752535075383 9.532349540643947 0 0 0
577 1 2 -1.1794 5.161516539725093 10.708873322296844 6.649435557423509 0 0 0
650 1 1 0.5897 2.872829916629097 6.553943569326562 8.400540011872822 0 0 0
15 1 1 0.5897 1.4326217308820537 10.547690016893302 9.59341885483658 0 0 0
649 1 2 -1.1794 2.9705425805769123 6.695900698755726 9.342144956998386 0 0 0
258 1 1 0.5897 3.518183442535731 9.839350459604066 10.012399339858511 0 0 0
10 1 2 -1.1794 2.8145991616560826 6.607643286040469 6.551894223357436 0 0 0
257 1 1 0.5897 2.8522916679613957 8.495201535578659 10.217672881590607 0 0 0
12 1 1 0.5897 2.7357151606937227 7.421107255517202 6.053453969275386 0 0 0
582 1 1 0.5897 4.974258378509832 10.85131374193911 8.419225329628066 0 0 0
256 1 2 -1.1794 2.6932352902107333 9.436853866602819 10.284013956910009 0 0 0
580 1 2 -1.1794 4.872203282855539 10.7172023658083 9.361521579226022 0 0 0
13 1 2 -1.1794 0.6384850077954999 10.974963625999113 9.272320254246457 0 0 0
550 1 2 -1.1794 0.7573900745077139 10.581768815712795 6.619082793782828 0 0 0
551 1 1 0.5897 0.8610313014139439 10.657815292116924 7.567657130141125 0 0 0
552 1 1 0.5897 0.7747270597860132 11.485059251684174 6.302586883883979 0 0 0
579 1 1 0.5897 5.105106286653315 11.660643438525542 6.563618251336537 0 0 0
581 1 1 0.5897 5.645785976715687 10.214903177012905 9.617632258826445 0 0 0
578 1 1 0.5897 5.990826437819857 10.478835143761517 6.230347697597666 0 0 0
714 1 1 0.5897 7.499826837501755 8.532506867604926 5.73339588293362 0 0 0
164 1 1 0.5897 10.444286373727266 6.299534877093349 5.724080886732475 0 0 0
165 1 1 0.5897 8.944899298800085 6.245187250804386 5.926409104616082 0 0 0
146 1 1 0.5897 6.824638434924247 6.572665182343169 6.48254819759969 0 0 0
713 1 1 0.5897 8.178670528720403 9.884984547407871 5.780913830064205 0 0 0
314 1 1 0.5897 11.502776285626103 6.787183579357532 9.571102112767514 0 0 0
528 1 1 0.5897 8.391861284088892 6.484635144527267 10.021662528118895 0 0 0
147 1 1 0.5897 7.585071660698147 7.009272302188703 7.716742842943004 0 0 0
820 1 2 -1.1794 7.1694360346792205 9.401533137679198 10.226498110965442 0 0 0
526 1 2 -1.1794 7.522179639995347 6.720736462880072 9.698840481342186 0 0 0
145 1 2 -1.1794 7.586175568008636 7.080801524538871 6.762172833432641 0 0 0
527 1 1 0.5897 7.516827199863403 7.6780115799030755 9.701648190460286 0 0 0
822 1 1 0.5897 8.022729487731898 9.707583011554833 9.91904065711629 0 0 0
285 1 1 0.5897 10.473559183421726 10.458562642349676 9.513682371524638 0 0 0
741 1 1 0.5897 9.697074078988123 10.742031346131675 7.451270204263506 0 0 0
740 1 1 0.5897 10.429240971107715 10.32719965561921 6.192712703345734 0 0 0
283 1 2 -1.1794 9.554326355774835 10.438916231049484 9.247375701560893 0 0 0
739 1 2 -1.1794 9.670228765098054 10.82425810325703 6.497939026956112 0 0 0
444 1 1 0.5897 12.09619379290127 8.998382335489792 9.703851660015006 0 0 0
442 1 2 -1.1794 12.027187559958861 9.812066517775834 10.203395935255635 0 0 0
391 1 2 -1.1794 11.904206363360268 6.982882790043215 6.497994025679915 0 0 0
284 1 1 0.5897 9.233810852681046 11.323119820168886 9.42584553989806 0 0 0
392 1 1 0.5897 11.903246398997156 6.952334548511886 7.4547497785374235 0 0 0
313 1 2 -1.1794 12.356561784900963 7.104779543813862 9.277009032857531 0 0 0
523 1 2 -1.1794 16.37437905248649 9.77582304788318 6.0349255603858545 0 0 0
182 1 1 0.5897 17.526898387608018 6.350499252628891 6.078346428826958 0 0 0
524 1 1 0.5897 17.213048834879764 10.05630143878139 6.401359265618635 0 0 0
229 1 2 -1.1794 12.311878810932003 9.76255683377983 5.746697272999857 0 0 0
230 1 1 0.5897 12.278369459024885 8.91246816088545 6.1855798838679705 0 0 0
546 1 1 0.5897 14.943966019707817 6.393717142295352 10.388140291672519 0 0 0
443 1 1 0.5897 12.924538715544665 10.142094984317124 10.249736127645356 0 0 0
315 1 1 0.5897 12.98744550317904 6.645284922779647 9.831249621499332 0 0 0
231 1 1 0.5897 12.974818857478306 10.256082318366428 6.229683240526037 0 0 0
525 1 1 0.5897 16.288455279947495 8.861313933890258 6.304548894555473 0 0 0
393 1 1 0.5897 12.624885195807597 6.407971522058552 6.240238665045998 0 0 0
635 1 1 0.5897 15.117795377118224 10.677286628017535 6.7470172955585355 0 0 0
623 1 1 0.5897 17.280808229019264 6.6279316569298 9.968379385700898 0 0 0
542 1 1 0.5897 15.328148942549142 6.482657349035937 6.764521708767538 0 0 0
622 1 2 -1.1794 16.467646397224886 7.057620341966351 9.702947686195122 0 0 0
338 1 1 0.5897 17.50666947368598 10.196354782529895 10.208803703589616 0 0 0
543 1 1 0.5897 16.25282020981541 6.964256517464944 7.862319022939586 0 0 0
856 1 2 -1.1794 14.492326765030281 10.92498914296553 9.937351867910717 0 0 0
541 1 2 -1.1794 16.024848225802103 7.113910102413302 6.944739443938908 0 0 0
339 1 1 0.5897 15.994787830705693 10.157837812713796 10.277952403328834 0 0 0
337 1 2 -1.1794 16.777169517209487 9.672862469389052 10.540642671800144 0 0 0
634 1 2 -1.1794 14.36837628316101 11.176818738824302 7.071314725732847 0 0 0
857 1 1 0.5897 14.455088600529493 10.943278799923084 8.981005942280234 0 0 0
624 1 1 0.5897 16.600901350428963 7.979920363812743 9.922064871334266 0 0 0
655 1 2 -1.1794 0.5647039330717483 13.114396286829379 5.785810650167956 0 0 0
14 1 1 0.5897 0.6277801918571728 11.824428503483924 9.713552838670173 0 0 0
199 1 2 -1.1794 4.86300174112722 13.443016804637098 6.194419006303936 0 0 0
239 1 1 0.5897 2.440199491694486 16.429964237657586 5.990591340764206 0 0 0
656 1 1 0.5897 1.1872149715102616 13.578788892011481 6.345409843249215 0 0 0
811 1 2 -1.1794 2.8606084900340965 14.916219188881252 9.601083034811356 0 0 0
813 1 1 0.5897 2.1176874520097515 14.32953102782597 9.74320581107508 0 0 0
17 1 1 0.5897 2.591143824235487 14.946278761704743 7.842039771240625 0 0 0
384 1 1 0.5897 2.6616572699342465 16.79712955158677 10.060187308974436 0 0 0
456 1 1 0.5897 4.987100711828009 12.507214516337402 10.020127937463505 0 0 0
812 1 1 0.5897 3.6268683779728232 14.396053259976314 9.843169745616418 0 0 0
18 1 1 0.5897 3.2467946770881495 14.342400051511985 6.618281131487098 0 0 0
16 1 2 -1.1794 2.506011161185246 14.884066893415271 6.890619633334759 0 0 0
454 1 2 -1.1794 5.066594117543392 13.46078591810656 10.048295008900558 0 0 0
766 1 2 -1.1794 0.43718505253139694 13.358684573025084 10.454265521337584 0 0 0
238 1 2 -1.1794 2.5018856817950623 17.33573067135169 5.686970861188562 0 0 0
382 1 2 -1.1794 2.6607709818070133 17.653382191558336 10.48823643618286 0 0 0
201 1 1 0.5897 5.614765885484634 13.937798762309326 6.520558815079653 0 0 0
240 1 1 0.5897 3.381858724377128 17.61444798557214 5.9404858527638265 0 0 0
455 1 1 0.5897 5.219111180991207 13.661739985340464 10.971701855135242 0 0 0
807 1 1 0.5897 9.195187467145445 12.602112093265228 5.848659613418686 0 0 0
377 1 1 0.5897 6.357799778578096 14.863359149776457 9.413423613923419 0 0 0
517 1 2 -1.1794 7.164591875642733 14.787011076645225 6.619308955683499 0 0 0
378 1 1 0.5897 7.468093911554006 15.003980151255835 8.39384383571881 0 0 0
518 1 1 0.5897 7.032679398650243 15.496564408490984 5.990417042806257 0 0 0
186 1 1 0.5897 7.5197827270421005 16.909473212672054 10.07642505614779 0 0 0
376 1 2 -1.1794 7.2974195475440835 15.028649043374426 9.335428359982698 0 0 0
519 1 1 0.5897 7.949227090827015 14.334534085553774 6.309572112479891 0 0 0
212 1 1 0.5897 10.861149988593477 13.888887987192899 9.807538044728654 0 0 0
58 1 2 -1.1794 9.210459229715294 13.177592926912574 10.174477126621587 0 0 0
642 1 1 0.5897 11.088397718125064 14.377304558299151 6.574467621417961 0 0 0
59 1 1 0.5897 8.4799121629591 13.78498277976525 10.057335066455499 0 0 0
213 1 1 0.5897 11.773248112489002 15.087769753309063 9.655875537617998 0 0 0
211 1 2 -1.1794 11.756740779150372 14.13405059047196 9.574912731241248 0 0 0
641 1 1 0.5897 11.840628949665163 14.403479134610183 7.88807483013346 0 0 0
309 1 1 0.5897 8.067725998203828 17.34420984312097 5.985417206012765 0 0 0
640 1 2 -1.1794 11.883792080159632 14.717018701074124 6.984658901499436 0 0 0
724 1 2 -1.1794 14.177270307371614 13.703868925092232 5.746745813156269 0 0 0
657 1 1 0.5897 17.836045152449366 13.509947035823247 5.989837713922214 0 0 0
768 1 1 0.5897 17.834944223137676 13.917590239650933 10.164397967203833 -1 0 0
769 1 2 -1.1794 12.26248321468863 16.883464102045806 10.480500428802388 0 0 0
643 1 2 -1.1794 12.193315397838033 17.3362459772574 5.8395923198652815 0 0 0
636 1 1 0.5897 14.358605558305422 11.970014141562235 6.535473131040327 0 0 0
858 1 1 0.5897 14.434876595483681 11.844487478091434 10.197401132509126 0 0 0
644 1 1 0.5897 12.175897266625512 16.38923841366907 5.978424999802301 0 0 0
726 1 1 0.5897 13.476760826288965 14.068137495542796 6.28796120449886 0 0 0
725 1 1 0.5897 14.981758900023902 14.060214245006431 6.123746977357505 0 0 0
775 1 2 -1.1794 16.488279500997876 14.740338961712215 9.261434619182793 0 0 0
205 1 2 -1.1794 16.5502773163936 14.7725562095105 6.474851244629081 0 0 0
206 1 1 0.5897 16.894178658973665 15.6284832240897 6.2188992221477495 0 0 0
243 1 1 0.5897 13.37639361239978 13.76260206157488 10.75520434739074 0 0 0
207 1 1 0.5897 16.67595340083347 14.737220706475005 7.423153701674108 0 0 0
241 1 2 -1.1794 14.295340723967728 13.627876524250839 10.98690044764075 0 0 0
777 1 1 0.5897 15.630435369932906 14.412678043478863 9.53170670638471 0 0 0
776 1 1 0.5897 16.476257648995116 15.667940175216051 9.49765714125362 0 0 0
661 1 2 -1.1794 16.271873999912394 17.36349033983545 10.364125115006914 0 0 0
562 1 2 -1.1794 16.676370124108594 17.394553228682618 5.679880543211101 0 0 0
770 1 1 0.5897 13.01164508808069 17.290233421256403 10.045050192581899 0 0 0
412 1 2 -1.1794 0.7305981730646305 21.85121748316525 5.8635636478272435 0 0 0
383 1 1 0.5897 3.306045332368839 18.165909861593285 10.001138838678155 0 0 0
247 1 2 -1.1794 5.593222028686389 21.30505488345102 5.7284664540467425 0 0 0
414 1 1 0.5897 0.655452034080712 20.98976635440527 6.27423445107621 0 0 0
248 1 1 0.5897 4.88250408936197 21.863172173572906 6.044255605972997 0 0 0
702 1 1 0.5897 2.459545495106991 22.396832304722693 6.051707963580285 0 0 0
387 1 1 0.5897 4.944602670004301 19.498023306255305 6.411017751015173 0 0 0
341 1 1 0.5897 1.296719915109067 18.447274854513672 6.429631871366954 0 0 0
404 1 1 0.5897 1.1713536267870996 18.244611592014344 9.981562565901871 0 0 0
39 1 1 0.5897 3.7972147975858865 22.354448266549845 9.562313736636511 0 0 0
385 1 2 -1.1794 4.92674036169938 18.558696411398962 6.594747147247197 0 0 0
37 1 2 -1.1794 3.110467154810923 22.937420075211676 9.238487799284103 0 0 0
102 1 1 0.5897 5.007746091637987 18.62693796551784 8.357492845774322 0 0 0
38 1 1 0.5897 2.3036027156780574 22.594327033197267 9.622638097717292 0 0 0
100 1 2 -1.1794 5.027213167024867 18.796562663377074 9.299391503797674 0 0 0
701 1 1 0.5897 3.1460510669319515 22.803890400511932 7.338227343938659 0 0 0
700 1 2 -1.1794 3.1903785482597224 22.915262432148502 6.388515236840901 0 0 0
555 1 1 0.5897 4.83088674131292 20.436578845149562 10.213543404172265 0 0 0
94 1 2 -1.1794 0.9696398278395576 21.431963606598146 10.14371401864174 0 0 0
340 1 2 -1.1794 0.5477781903054265 18.988334957344748 6.679983618743488 0 0 0
553 1 2 -1.1794 4.991132799355237 21.370290285726988 10.351057748897537 0 0 0
403 1 2 -1.1794 0.36621507964701605 18.595391258064353 9.600755238318998 0 0 0
405 1 1 0.5897 0.4046731237276693 19.534712277054062 9.781325435023223 0 0 0
342 1 1 0.5897 0.4627298426304194 18.858161236140177 7.6245163863614565 0 0 0
554 1 1 0.5897 5.8659761055567445 21.519062014745117 9.992148961780867 0 0 0
101 1 1 0.5897 5.909493190722249 18.543046581699606 9.570716101829827 0 0 0
386 1 1 0.5897 5.732364800837026 18.222022225365258 6.2024024757455605 0 0 0
95 1 1 0.5897 0.19282366495721157 21.98721318717586 10.075969656433758 1 0 0