LAMMPS data file via write_data, version 30 Jul 2021, timestep = 24750000

972 atoms
2 atom types
648 bonds
1 bond types
324 angles
1 angle types

0.07206888452212823 19.927932115480655 xlo xhi
0.1055589523929168 19.894442047616526 ylo yhi
-0.002621803994173888 20.702619803991745 zlo zhi

Masses

1 1.008
2 15.999

Pair Coeffs # lj/cut/tip4p/long/omp

1 0 0
2 0.21084 3.1668

Bond Coeffs # harmonic/omp

1 450 0.9572

Angle Coeffs # harmonic/omp

1 55 104.52

Atoms # full

33 11 1 0.5897 1.0692063245779047 2.5704400550730613 1.2804208712086043 0 0 0
11 4 1 0.5897 1.0345557138512385 3.360124451882001 3.0399094693748223 0 0 0
10 4 2 -1.1794 1.2583316594740972 4.115614444828071 3.5833909480972634 0 0 0
31 11 2 -1.1794 0.42908191905605353 2.13061739030014 1.839962338272319 0 0 0
12 4 1 0.5897 2.2153167896631576 4.120309686985086 3.605580943040623 0 0 0
110 37 1 0.5897 3.6000931063746244 9.267928436028026 0.4333906097947594 0 0 0
140 47 1 0.5897 1.3621201445447 8.999818790406314 3.0905771991967024 0 0 0
17 6 1 0.5897 4.622574885251454 4.657201820038527 2.988643236144082 0 0 0
24 8 1 0.5897 2.2023374593344345 1.4511007067224855 4.283568067820756 0 0 0
111 37 1 0.5897 2.22146559242221 9.071281917228415 1.027427542680138 0 0 0
14 5 1 0.5897 4.663209309933074 5.8570758132345055 0.8857290247978267 0 0 0
18 6 1 0.5897 4.30330399913552 3.2711633227459953 3.5070358052724697 0 0 0
20 7 1 0.5897 1.0373481007053416 5.418006792965955 2.4182237700737668 0 0 0
34 12 2 -1.1794 4.672748623598535 2.450145262045508 0.3187298489749357 0 0 0
132 44 1 0.5897 0.5812832736425773 7.577049222297068 4.807401659168971 0 0 0
22 8 2 -1.1794 1.4273177501003371 1.1763644505228208 4.773655946753432 0 0 0
674 225 1 0.5897 2.0710407372748434 5.897368463577296 0.7422113663937018 0 0 1
19 7 2 -1.1794 0.7541658075170224 6.077241618545616 1.7846408233062585 0 0 0
5 2 1 0.5897 3.6759884782595726 1.0765631096134465 2.8391728733661252 0 0 0
16 6 2 -1.1794 4.19582051854381 4.19967984478216 3.71306921158149 0 0 0
141 47 1 0.5897 1.0332830637046087 7.849728898963669 2.1626753987616723 0 0 0
112 38 2 -1.1794 4.155010603974563 7.693193481327703 3.369949622168703 0 0 0
6 2 1 0.5897 4.421380214928441 1.2019909036065832 4.150941433948362 0 0 0
4 2 2 -1.1794 3.7295606711622478 1.6113582547430045 3.631228450543899 0 0 0
113 38 1 0.5897 3.2950162587750493 7.537342097580245 3.7603918097395757 0 0 0
139 47 2 -1.1794 0.9767768323699635 8.802313712607258 2.236870346278185 0 0 0
15 5 1 0.5897 4.69207649597383 6.500519559336383 2.255824760274969 0 0 0
236 79 1 0.5897 0.8742391353182011 0.3069785683739006 1.6602009845602437 0 1 0
126 42 1 0.5897 4.37895447769728 9.525706760488923 3.2608375819976914 0 0 0
130 44 2 -1.1794 1.520906632668034 7.691075755911506 4.664385462873743 0 0 0
114 38 1 0.5897 4.767166363226005 7.625276586370867 4.102731047453162 0 0 0
109 37 2 -1.1794 2.669144671061509 9.37389649669292 0.237295504935127 0 0 0
673 225 2 -1.1794 2.7752977679655997 5.835322761773949 0.09683607937180046 0 0 1
3 1 1 0.5897 3.032915524006799 2.768766373312809 0.1349002421571759 0 0 0
36 12 1 0.5897 4.92022930540648 3.3590249618969756 0.1488568032455031 0 0 0
325 109 2 -1.1794 2.0974828548489217 3.157863345958287 6.821364815585058 0 0 0
326 109 1 0.5897 1.904690128349494 2.637777605636833 6.041307511479401 0 0 0
327 109 1 0.5897 3.042316083961794 3.0653918204789448 6.944111389583566 0 0 0
356 119 1 0.5897 1.4067049202181898 2.612895111692965 8.318145230445879 0 0 0
26 9 1 0.5897 1.875892335396671 6.1813925814360475 7.296245098280519 0 0 0
343 115 2 -1.1794 0.7622424404215794 6.1338904267798915 8.69239225843274 0 0 0
345 115 1 0.5897 0.8781057458254107 7.0239121360399634 9.024859958919636 0 0 0
27 9 1 0.5897 2.2742377752267977 5.004316150096379 6.431558306259066 0 0 0
339 113 1 0.5897 3.8291584474471367 5.719009926593374 7.920380430774677 0 0 0
436 146 2 -1.1794 3.6565580927707426 8.102975338035083 10.142151749133397 0 0 0
131 44 1 0.5897 1.932704638249403 7.084074724014847 5.279390112875888 0 0 0
337 113 2 -1.1794 4.3599197247474795 5.830133055766162 8.709208385281451 0 0 0
560 187 1 0.5897 0.6223416285111127 0.3445993552932312 8.756573800670862 0 1 0
342 114 1 0.5897 3.8073931179216323 4.603513668819431 10.11440392874173 0 0 0
464 155 1 0.5897 1.3763307745059654 8.91587483028231 8.194101351826978 0 0 0
435 145 1 0.5897 2.250448021171125 9.049399680670195 6.034786708796514 0 0 0
437 146 1 0.5897 3.882027976443898 7.370755626403851 9.568355924169873 0 0 0
25 9 2 -1.1794 2.487447937051511 5.920696725554281 6.607507893367799 0 0 0
355 119 2 -1.1794 0.8395748631475876 2.198984764819295 8.968778425808175 0 0 0
344 115 1 0.5897 0.9570942527820181 5.570681408936117 9.44145188068788 0 0 0
328 110 2 -1.1794 4.0329703103619785 1.4781976227829043 9.845071250716787 0 0 0
433 145 2 -1.1794 2.5033934946987912 9.291208341552375 6.925768745537751 0 0 0
468 156 1 0.5897 4.495559548958599 9.477662188309077 7.283209827308753 0 0 0
463 155 2 -1.1794 0.735617579761101 8.755376340799046 8.886950377365018 0 0 0
335 112 1 0.5897 1.0294846443327645 3.497297837899029 10.238348803775256 0 0 0
358 120 2 -1.1794 4.835284494641544 2.412738595592012 6.864220475496384 0 0 0
438 146 1 0.5897 3.88062529834684 8.883130373432225 9.634845282910543 0 0 0
23 8 1 0.5897 1.6861971026029239 0.3548735319250833 5.191182995826715 0 0 0
81 27 1 0.5897 0.10246337239366754 4.269396561913627 5.28445062908634 1 0 0
330 110 1 0.5897 4.8485005311876925 1.2372127849664105 10.284579286679264 0 0 0
649 217 2 -1.1794 2.7330158744818864 2.377082309642005 14.070799587750944 0 0 0
650 217 1 0.5897 2.4270696943667374 1.9960952853942278 13.247692769164214 0 0 0
651 217 1 0.5897 1.9917886603615766 2.282718980562851 14.66912717970575 0 0 0
347 116 1 0.5897 1.4050659587117351 0.74400634711786 11.981983120489815 0 0 0
346 116 2 -1.1794 2.3554791114574396 0.7493155008658201 11.867796097883545 0 0 0
683 228 1 0.5897 4.497281661235999 2.560106815885196 14.088817742124382 0 0 0
443 148 1 0.5897 1.0548305864305654 9.798895982897966 10.481893158875215 0 0 0
336 112 1 0.5897 1.8008571682414583 4.4208306112235425 11.157073578307456 0 0 0
351 117 1 0.5897 2.9386782011898296 4.364913069307108 13.531791589593606 0 0 0
454 152 2 -1.1794 1.6975744075026578 7.116674856935833 12.089662106430474 0 0 0
668 223 1 0.5897 1.0049237962459707 5.719403890563757 14.69828973377403 0 0 0
334 112 2 -1.1794 0.9398873104570097 4.296406703346594 10.757577102876747 0 0 0
462 154 1 0.5897 4.976852062314727 7.8274222893250744 11.429833030072608 0 0 0
350 117 1 0.5897 3.2780644978779594 5.596598953132466 14.343942944458467 0 0 0
349 117 2 -1.1794 2.622561711435781 5.243485355029873 13.742335351767066 0 0 0
757 253 2 -1.1794 2.7305516353152224 8.988738977307474 13.985777094582332 0 0 0
455 152 1 0.5897 2.4202431074090525 7.499650561593059 11.592285604372623 0 0 0
456 152 1 0.5897 2.1109122409583305 6.4510110227855915 12.639464910565977 0 0 0
758 253 1 0.5897 2.2099537070130437 8.399951036380026 13.439360771984134 0 0 0
341 114 1 0.5897 3.8073565572638586 3.178396688362339 10.6250573868892 0 0 0
792 264 1 0.5897 4.852110026190326 9.765184021471573 14.595559462757755 0 0 0
348 116 1 0.5897 2.6773796494768733 0.11212678355698813 12.505431585772603 0 0 0
329 110 1 0.5897 3.343395509601724 1.139771438018227 10.416260300551322 0 0 0
340 114 2 -1.1794 3.6552913764229173 4.081797194761632 10.90239127155572 0 0 0
759 253 1 0.5897 2.473988404372131 9.866853185368917 13.7042651410688 0 0 0
332 111 1 0.5897 5.011296529147468 4.593400167560367 11.975966830408224 0 0 0
671 224 1 0.5897 1.9949307296865042 1.8618161045934096 19.01114748529876 0 0 0
653 218 1 0.5897 3.3821004739161222 1.1558790172677673 17.54973092088398 0 0 0
652 218 2 -1.1794 4.205740679315634 1.2941396567958234 17.08194724595811 0 0 0
664 222 2 -1.1794 3.8426796505599885 4.113047847055001 17.47444748975617 0 0 0
670 224 2 -1.1794 2.0833167916139486 0.983602298523766 18.640877392790056 0 0 0
654 218 1 0.5897 4.254278989240069 0.5670155462489078 16.461343994112873 0 0 0
658 220 2 -1.1794 1.2131882304870343 4.184176217541521 17.745543141678766 0 0 0
665 222 1 0.5897 2.8933248639149065 4.164022496907498 17.586182762042483 0 0 0
672 224 1 0.5897 1.1829082931618071 0.6913437116535183 18.49880509182328 0 0 0
788 263 1 0.5897 0.9630172502090966 9.04313114283655 16.86721549316363 0 0 0
659 220 1 0.5897 0.4381033192194168 4.314786918573431 18.291916909394267 0 0 0
662 221 1 0.5897 4.386754710024929 5.3099214487536 16.210121719997343 0 0 0
761 254 1 0.5897 4.303301573856498 9.06809343196437 17.322175834313573 0 0 0
660 220 1 0.5897 1.03930351403698 4.696532316738266 16.9559059221552 0 0 0
681 227 1 0.5897 0.904220111860732 2.6817048228386566 16.72566287495423 0 0 0
858 286 1 0.5897 0.23298904608760038 7.4874789017952335 18.62279652706098 1 0 0
760 254 2 -1.1794 4.254835779808684 8.132187416770506 17.51683164611348 0 0 0
780 260 1 0.5897 2.3294594144051066 8.136588781826884 19.689016182892363 0 0 0
779 260 1 0.5897 2.7384554195694735 7.7397083458503015 18.286416395732157 0 0 0
666 222 1 0.5897 4.001631808227455 3.2170448257962745 17.177667911011984 0 0 0
778 260 2 -1.1794 2.0729825284127354 7.577977210495132 18.9552362712684 0 0 0
675 225 1 0.5897 2.5342760055126896 6.464942255780613 20.122567698326122 0 0 0
679 227 2 -1.1794 0.8018428337923478 2.069502662928133 15.997002330632267 0 0 0
663 221 1 0.5897 4.728504582616247 6.783981665303041 16.255702772929098 0 0 0
787 263 2 -1.1794 0.9328295849861301 8.596956654881572 16.020910546899508 0 0 0
2 1 1 0.5897 2.206172273852356 3.9292493786747555 20.328604681174454 0 0 -1
1 1 2 -1.1794 2.1630814154356193 2.9898886549389703 20.507223801011808 0 0 -1
667 223 2 -1.1794 0.5756407631474395 5.8016834677477 15.549912589540638 0 0 0
885 295 1 0.5897 0.8574879771363577 0.2226837235219032 16.039300930699653 0 1 0
669 223 1 0.5897 0.8569002042353913 6.655384890206708 15.878958113897461 0 0 0
656 219 1 0.5897 4.950025093257651 4.649703210546872 18.734330286258373 0 0 0
661 221 2 -1.1794 4.757714876681274 6.017573768338138 15.683011197345511 0 0 0
789 263 1 0.5897 1.6701241361388128 8.961293102014675 15.531042781917565 0 0 0
120 40 1 0.5897 1.61276758102154 11.420114383877879 3.09488940052936 0 0 0
129 43 1 0.5897 1.007045286275543 13.769738259331536 1.8565245186063821 0 0 0
229 77 2 -1.1794 4.338687642852279 19.445870242058632 1.8262917045055458 0 0 0
248 83 1 0.5897 1.8490572609105034 15.848312755250072 1.5389707187581332 0 0 0
226 76 2 -1.1794 1.4705933286480164 17.752708449179465 3.8022188646862145 0 0 0
188 63 1 0.5897 0.212761733831872 10.961596017621627 5.004423816456134 1 0 0
238 80 2 -1.1794 1.8613415246203253 14.162784141294765 5.149278807055429 0 0 0
234 78 1 0.5897 4.338861774664537 17.89996690559461 2.9227228644317105 0 0 0
233 78 1 0.5897 3.266664346312974 17.20656680788779 3.736147204375115 0 0 0
235 79 2 -1.1794 0.8647073825972904 19.140842517761207 1.5972045209077619 0 0 0
219 73 1 0.5897 3.609429883234147 15.850574149173777 0.2262092912014435 0 0 0
247 83 2 -1.1794 1.1864052463250079 15.574223437494979 2.173021296257155 0 0 0
227 76 1 0.5897 1.2123567900918826 18.44048113680497 3.188615887566072 0 0 0
124 42 2 -1.1794 4.489425498288757 10.455888254712441 3.457608507360592 0 0 0
119 40 1 0.5897 2.7562058625191073 10.957406288046565 3.972654370356708 0 0 0
232 78 2 -1.1794 4.132317341956677 17.069352770468342 3.3512245114442023 0 0 0
228 76 1 0.5897 0.8104115072258162 17.78839790908959 4.494462713208836 0 0 0
127 43 2 -1.1794 0.8656062003236614 12.828493351574956 1.9575697971757573 0 0 0
221 74 1 0.5897 4.189238825117423 14.863421851012056 2.6286559435100614 0 0 0
249 83 1 0.5897 1.1504743347960729 16.29004862145795 2.8073989961723482 0 0 0
222 74 1 0.5897 4.545424368747772 13.423942210856602 2.3241627725509066 0 0 0
118 40 2 -1.1794 1.8051757589052806 10.904211459880727 3.877888101693946 0 0 0
122 41 1 0.5897 4.410093881476801 12.276171701312233 0.7436929611747545 0 0 0
240 80 1 0.5897 2.3612536649439164 13.971472130958864 4.355674324464987 0 0 0
783 261 1 0.5897 2.330315138221669 12.642278638109929 0.4333051525529227 0 0 1
890 297 1 0.5897 2.1085985607758553 19.02893857436071 0.3226150586366144 0 0 1
230 77 1 0.5897 3.9128029536295936 19.04848891127787 1.066684466371416 0 0 0
220 74 2 -1.1794 4.00530758587918 13.9643771648266 2.9007598434806274 0 0 0
123 41 1 0.5897 5.011128472163305 11.353065965256203 1.7822507989692529 0 0 0
133 45 2 -1.1794 3.0899558507023612 11.85591671242292 6.812713569125476 0 0 0
134 45 1 0.5897 2.3927409553498595 12.013269736737517 7.449455934771558 0 0 0
135 45 1 0.5897 3.8481282542387083 12.320418761125973 7.167250735984522 0 0 0
576 192 1 0.5897 4.11962518575572 15.954867567134281 7.059270687181821 0 0 0
561 187 1 0.5897 0.9023396187282241 18.745671487992226 9.292602688496991 0 0 0
453 151 1 0.5897 1.3826799009438473 12.13480308523699 9.531889716119364 0 0 0
558 186 1 0.5897 4.308862977037739 17.709646528718565 9.343963933831004 0 0 0
434 145 1 0.5897 2.731142697047789 10.219026871879809 6.867105992632253 0 0 0
451 151 2 -1.1794 1.276965915261725 12.620089067198391 8.713612174504412 0 0 0
559 187 2 -1.1794 0.521874539204018 19.20558775159529 8.544273276206496 0 0 0
571 191 2 -1.1794 1.0050953773183275 15.29095418416398 8.798899143347823 0 0 0
543 181 1 0.5897 2.1830565276454483 15.79561237983506 6.040958520084808 0 0 0
450 150 1 0.5897 4.170608526126966 11.451571389739115 9.543936398313933 0 0 0
574 192 2 -1.1794 4.956812135751938 15.631599436917611 7.392354935596658 0 0 0
572 191 1 0.5897 1.5726384945910874 15.752977344685776 8.181882768969945 0 0 0
242 81 1 0.5897 1.7567255441573837 19.03640871826793 7.091227698706148 0 0 0
241 81 2 -1.1794 2.514829208184003 18.997202892981377 6.508076760906769 0 0 0
541 181 2 -1.1794 2.5618915182167865 16.357053631640134 6.717342520141521 0 0 0
542 181 1 0.5897 2.4260106329455833 17.247571619380913 6.393812169325117 0 0 0
243 81 1 0.5897 3.263753700858108 19.180539971992488 7.075350196415008 0 0 0
446 149 1 0.5897 4.654675148986879 13.339748144554955 9.25218537727275 0 0 0
573 191 1 0.5897 1.2525537093002992 14.370652125841696 8.709586132410385 0 0 0
557 186 1 0.5897 4.09694593735677 16.4587281224131 10.169874504102522 0 0 0
239 80 1 0.5897 2.3698681415793725 13.76373682777706 5.8552950046023 0 0 0
553 185 2 -1.1794 4.693532964024478 19.15569626682405 8.238115872549551 0 0 0
556 186 2 -1.1794 4.236179304963398 17.40250936331565 10.247669062134976 0 0 0
452 151 1 0.5897 0.36302566540936027 12.478232020394357 8.46680635318821 0 0 0
552 184 1 0.5897 1.3950746835966668 16.800778879314272 10.051158189841768 0 0 0
445 149 2 -1.1794 4.920686389724677 12.874815304670564 8.458875636534323 0 0 0
448 150 2 -1.1794 3.9337923191147435 10.900193908708687 10.289701674395387 0 0 0
554 185 1 0.5897 4.435109946452582 19.88677212420349 8.799337816261893 0 0 0
457 153 2 -1.1794 2.7515226115986304 11.62726847132579 13.609748398315181 0 0 0
458 153 1 0.5897 2.2985769482270695 12.060204090227451 14.333396995826321 0 0 0
459 153 1 0.5897 3.626942625214462 12.01446659253547 13.60851668196563 0 0 0
563 188 1 0.5897 2.0421954219931777 12.742076217634867 12.208755324107775 0 0 0
562 188 2 -1.1794 1.7990743188900253 13.553580946968092 11.763188480967166 0 0 0
449 150 1 0.5897 4.656319416211125 11.009512675439053 10.908025472757503 0 0 0
621 207 1 0.5897 0.34303153599960384 17.73849610474562 11.813817802327026 1 0 0
879 293 1 0.5897 4.445887508742765 18.671612760290138 14.723145722299241 0 0 0
444 148 1 0.5897 2.1551600125156827 10.753101021707398 10.895124133647371 0 0 0
545 182 1 0.5897 3.0968357283964716 14.307583412050937 10.786482063689835 0 0 0
564 188 1 0.5897 1.8160584684363144 14.219210363180526 12.450852248750273 0 0 0
567 189 1 0.5897 2.1298842618969025 18.921311454473276 14.543622246091369 0 0 0
776 259 1 0.5897 0.2047262693871215 12.232157783394182 15.425638038176961 0 0 0
566 189 1 0.5897 2.551049123746744 17.878571069492814 13.530095576549314 0 0 0
551 184 1 0.5897 2.427288332167152 17.810017275530676 10.507104428437197 0 0 0
867 289 1 0.5897 1.9048834099681535 15.539603443818178 14.524314777217299 0 0 0
565 189 2 -1.1794 2.7673076007745543 18.75469005427024 13.849185759316956 0 0 0
550 184 2 -1.1794 1.492708007380961 17.608607951819117 10.555180081950946 0 0 0
865 289 2 -1.1794 2.446328884583996 15.606067068680062 13.737715450109697 0 0 0
866 289 1 0.5897 3.339816263970704 15.698883216951238 14.068487190107358 0 0 0
442 148 2 -1.1794 1.2930900933603835 10.431695755000788 11.159414341044547 0 0 0
544 182 2 -1.1794 3.8970367385203613 14.62723289369238 10.36955163949848 0 0 0
546 182 1 0.5897 4.591087646897967 14.428497089230962 10.998144804073204 0 0 0
877 293 2 -1.1794 4.943286056248016 18.923629780457325 15.501213023630157 0 0 0
888 296 1 0.5897 2.391589415518752 13.340569607117912 19.119035839675668 0 0 0
768 256 1 0.5897 1.5866627020300252 11.398808011580497 16.99234467396711 0 0 0
782 261 1 0.5897 2.6812709675754087 11.273002708161668 20.596641910471032 0 0 0
889 297 2 -1.1794 2.798583397915264 18.78055817895992 20.41265586300417 0 0 0
891 297 1 0.5897 2.890802279453911 19.53916862636065 19.836278378127304 0 0 0
773 258 1 0.5897 3.436096707848722 10.86094964070614 17.035574094331718 0 0 0
217 73 2 -1.1794 2.725486982932864 16.047487732831478 20.62126382131222 0 0 -1
774 258 1 0.5897 4.414790878259839 11.587549943495661 16.137655625430597 0 0 0
886 296 2 -1.1794 2.1225445369389555 14.13470220184843 18.657325081285535 0 0 0
767 256 1 0.5897 1.1223220615358092 10.67444418305572 18.2380193756509 0 0 0
875 292 1 0.5897 0.5413879828954868 17.447243552783505 18.397874028272636 0 0 0
868 290 2 -1.1794 4.304062205744061 14.58460901327014 16.92733242288911 0 0 0
869 290 1 0.5897 3.5706932859038427 14.294567321921969 17.46989150045132 0 0 0
887 296 1 0.5897 2.2537307591811544 14.838024096342108 19.29321692102916 0 0 0
897 299 1 0.5897 0.7011803740091382 15.811760117813684 16.740887419609077 0 0 0
882 294 1 0.5897 4.1347459205474575 16.409004567054303 17.289514998223414 0 0 0
881 294 1 0.5897 3.1407293896083583 17.31636860103233 17.98277374360484 0 0 0
880 294 2 -1.1794 4.031678684120582 17.296347886317626 17.633270171993917 0 0 0
876 292 1 0.5897 1.4353572934775387 17.879243831162995 17.254942360478783 0 0 0
772 258 2 -1.1794 4.317292473962753 10.796218159843736 16.66726833698844 0 0 0
766 256 2 -1.1794 1.830405742686765 10.695560265184366 17.59420572306172 0 0 0
874 292 2 -1.1794 1.3137343594944073 17.18141468900366 17.89873659034359 0 0 0
775 259 2 -1.1794 1.0770870914229889 12.575970062273186 15.61815942271137 0 0 0
777 259 1 0.5897 0.9330893181145848 13.5029724024418 15.80808346541257 0 0 0
878 293 1 0.5897 4.66110587695419 18.30687663347144 16.176662032838717 0 0 0
883 295 2 -1.1794 0.8536902100593848 19.054563774168066 16.02275786748406 0 0 0
895 299 2 -1.1794 0.5665613790223405 15.084673126664569 16.133107550817375 0 0 0
218 73 1 0.5897 2.7678202648679933 16.961522613256257 20.340341063070312 0 0 -1
781 261 2 -1.1794 2.857425013710514 12.205195155600459 20.46966426305144 0 0 0
771 257 1 0.5897 4.915108362521404 13.547197302162946 15.651103965437038 0 0 0
57 19 1 0.5897 8.315980821812271 5.972428545100874 2.6632982142114856 0 0 0
9 3 1 0.5897 5.397164514777143 4.75448749378412 4.912210665090404 0 0 0
69 23 1 0.5897 6.146672248876738 2.5389262897246803 1.4353949993032329 0 0 0
67 23 2 -1.1794 6.860527424268163 2.4861145391593804 2.070970703151553 0 0 0
47 16 1 0.5897 7.732877954772549 3.630840335406909 3.508055468175057 0 0 0
68 23 1 0.5897 7.633461881681945 2.779962219540103 1.5887510000529244 0 0 0
46 16 2 -1.1794 8.270693881609684 4.329353859530414 3.8809294313669827 0 0 0
13 5 2 -1.1794 5.141586205697519 5.851277341529245 1.7148317777662525 0 0 0
48 16 1 0.5897 7.852125429434876 4.534123789855312 4.717089671499711 0 0 0
175 59 2 -1.1794 7.657943039347531 9.20708287503775 1.737428308130589 0 0 0
145 49 2 -1.1794 9.76493668426022 9.614837891937302 0.07353997141790256 0 0 0
711 237 1 0.5897 8.894582514617431 5.97651192544458 0.4986964405290766 0 0 1
142 48 2 -1.1794 5.268346493953855 8.84564573520073 0.3068616197657461 0 0 0
176 59 1 0.5897 7.930023411683581 8.379632904654496 2.1342736844946435 0 0 0
177 59 1 0.5897 8.441911345569311 9.528983481239292 1.292356795322394 0 0 0
55 19 2 -1.1794 7.969802865110281 6.450975824332333 1.9100216015114873 0 0 0
56 19 1 0.5897 7.026669138371625 6.289225501106198 1.9356482763975214 0 0 0
144 48 1 0.5897 5.940467046611943 8.90341531454907 0.9860097196045002 0 0 0
41 14 1 0.5897 9.648808194037146 1.253832188348287 3.7714257201012056 0 0 0
273 91 1 0.5897 7.10017667528213 0.7442269123117333 2.0323428098154412 0 1 0
37 13 2 -1.1794 8.823215875608009 2.863701691524651 0.3309951599089411 0 0 0
166 56 2 -1.1794 8.690807764566376 7.842505826420821 5.023701050329884 0 0 0
39 13 1 0.5897 9.771985650649974 2.913763772903541 0.44782713520389134 0 0 0
58 20 2 -1.1794 8.393960733417465 0.9944221726218472 4.8001017509085235 0 0 0
29 10 1 0.5897 6.565087705606248 0.7384785205396028 4.9539238374489205 0 0 0
391 131 2 -1.1794 7.130114026197116 2.6450041109900733 8.498422409173841 0 0 0
467 156 1 0.5897 5.491496305752612 8.363545753970417 7.040787763829646 0 0 0
470 157 1 0.5897 8.373396636963164 9.532193863701801 7.833493443775414 0 0 0
393 131 1 0.5897 7.1675291779055215 1.6987594051544008 8.637560720731006 0 0 0
359 120 1 0.5897 5.523215691776147 2.530453288210858 7.519373327625442 0 0 0
63 21 1 0.5897 9.625727220749521 5.910777634704975 7.348482139635005 0 0 0
60 20 1 0.5897 8.734510899233486 0.3834500542846179 5.453542996315736 0 0 0
362 121 1 0.5897 9.11267020859527 4.161096468039054 6.605469079303254 0 0 0
469 157 2 -1.1794 8.790336968278442 9.854876678492943 7.0345576194304185 0 0 0
392 131 1 0.5897 7.860196486359327 2.8297365286802223 7.907532874556614 0 0 0
500 167 1 0.5897 7.7769537033483935 9.337999658870162 9.679614025148362 0 0 0
137 46 1 0.5897 5.972754173267251 6.368277471735428 5.670830782650272 0 0 0
499 167 2 -1.1794 7.416670368721641 8.661882952734242 9.10577768485988 0 0 0
381 127 1 0.5897 7.614658702178683 5.560823827865906 9.578961901889485 0 0 0
62 21 1 0.5897 8.118512174273297 5.779241282666418 7.402862969367832 0 0 0
361 121 2 -1.1794 9.061001120889157 3.214304179492649 6.474893315745583 0 0 0
8 3 1 0.5897 5.446920577546662 3.911874613244675 6.168960229435566 0 0 0
379 127 2 -1.1794 7.1515072123303804 5.948059665627203 8.836111779021905 0 0 0
338 113 1 0.5897 5.221099469414678 5.4879475726454725 8.46923960630838 0 0 0
380 127 1 0.5897 7.058227781174518 6.872293671822507 9.066879381465318 0 0 0
7 3 2 -1.1794 5.783481839894147 4.722651078270081 5.787447552780961 0 0 0
466 156 2 -1.1794 5.431877108070879 9.280352243708926 7.309199516946741 0 0 0
501 167 1 0.5897 6.712173675816284 9.10151490863365 8.629633528310974 0 0 0
61 21 2 -1.1794 8.850011274540996 5.8562760537755745 6.790294149758023 0 0 0
471 157 1 0.5897 9.665080043409757 9.46632034184768 7.046488223047055 0 0 0
59 20 1 0.5897 8.458145694433266 1.8531086827935928 5.218099125672326 0 0 0
167 56 1 0.5897 8.723297616770113 7.139027499586801 5.671994360596089 0 0 0
168 56 1 0.5897 8.626222497541145 8.644187663607443 5.5426163905975585 0 0 0
371 124 1 0.5897 7.715493884069074 3.4807767383526937 10.100444579004197 0 0 0
363 121 1 0.5897 9.899675887262504 2.881818392815767 6.79490306394105 0 0 0
138 46 1 0.5897 6.916812698528787 7.4613273610016035 5.217056171000907 0 0 0
136 46 2 -1.1794 6.0184405539434795 7.310913312042474 5.511236850070992 0 0 0
360 120 1 0.5897 5.0438486600594485 1.5781284635186978 6.444559785564344 0 0 0
28 10 2 -1.1794 5.679338697015696 0.46690917024188927 5.194821935973753 0 0 0
795 265 1 0.5897 9.462606890122212 9.668138820218514 13.47303236597362 0 0 0
372 124 1 0.5897 7.3823326266942 4.348187466196616 11.295671828029938 0 0 0
385 129 2 -1.1794 9.07695169809636 5.3359266163515375 14.081412306977718 0 0 0
386 129 1 0.5897 9.07364474456195 4.508062906318004 13.600971353496101 0 0 0
790 264 2 -1.1794 5.707887276507099 9.486423345139473 14.26961414673913 0 0 0
794 265 1 0.5897 8.926613203300233 8.252442035798534 13.456293160828382 0 0 0
682 228 2 -1.1794 5.43282565862391 2.7324140029481763 13.98210549017978 0 0 0
354 118 1 0.5897 5.6812746309143165 1.5720965413354604 12.615331245328589 0 0 0
686 229 1 0.5897 8.479617766385218 2.6698073028877545 14.263023971216509 0 0 0
353 118 1 0.5897 6.895246802564843 1.037074473000464 11.885919597669927 0 0 0
460 154 2 -1.1794 5.608855959411952 7.687509949373603 12.135042580445843 0 0 0
383 128 1 0.5897 8.860986457267627 1.2903510683672408 12.485517272242605 0 0 0
331 111 2 -1.1794 5.905695935671873 4.866149897393416 12.180891071834658 0 0 0
352 118 2 -1.1794 5.943575389336739 1.113765713214008 11.816962864137084 0 0 0
382 128 2 -1.1794 8.71758692774593 0.6967363991072718 11.74842748716017 0 0 0
492 164 1 0.5897 7.618953365593768 7.283875442743132 11.942962840825357 0 0 0
461 154 1 0.5897 5.305562792479084 8.253509282508832 12.84490926527084 0 0 0
684 228 1 0.5897 5.48192665852033 3.6626650809269403 13.762163149169949 0 0 0
491 164 1 0.5897 9.030636797400302 7.392896193753546 11.406810034216905 0 0 0
387 129 1 0.5897 9.044517330797241 6.008341731574651 13.400948240423077 0 0 0
384 128 1 0.5897 9.505501324098123 0.7853787865070905 11.212085054962854 0 0 0
793 265 2 -1.1794 9.275426209504142 8.922847150231872 14.043734676785771 0 0 0
685 229 2 -1.1794 9.088659958200441 2.7099304207267756 13.525602003888428 0 0 0
377 126 1 0.5897 9.78656925001148 3.9173724859742407 10.662467037609128 0 0 0
490 164 2 -1.1794 8.534062074664734 7.143288641785234 12.186164221827072 0 0 0
333 111 1 0.5897 5.877461767850203 5.822458274504731 12.152145255865575 0 0 0
791 264 1 0.5897 6.251135616909363 9.412490648436375 15.05428771122162 0 0 0
717 239 1 0.5897 6.682241238423392 2.432425561956224 15.366580130024031 0 0 0
687 229 1 0.5897 9.955990623499499 2.6607675007038525 13.927686016339669 0 0 0
824 275 1 0.5897 8.03766062575512 9.014417353433538 15.342520035063433 0 0 0
370 124 2 -1.1794 8.105960420342155 4.094429323101129 10.722704241167232 0 0 0
705 235 1 0.5897 8.044786198411618 5.750572890396441 15.468632213595239 0 0 0
707 236 1 0.5897 9.205938081315933 0.33958291564579446 19.227485328336773 0 0 0
706 236 2 -1.1794 9.02432358162898 0.9636535758082876 18.524788010705016 0 0 0
715 239 2 -1.1794 7.509991405351632 2.3421573822737507 15.838811140094503 0 0 0
655 219 2 -1.1794 5.61504922450517 4.634043077889974 19.422684047480004 0 0 0
676 226 2 -1.1794 6.04170187127415 1.0366248930115423 19.071458430836127 0 0 0
708 236 1 0.5897 8.075736328293669 0.9196872151569294 18.403942687559095 0 0 0
762 254 1 0.5897 5.057575858822925 7.946534943292744 18.00415014430112 0 0 0
696 232 1 0.5897 7.747135342892538 4.944960663701949 17.468644180541922 0 0 0
694 232 2 -1.1794 7.804348716922979 4.123805128755203 17.957134073534178 0 0 0
695 232 1 0.5897 7.670060468768008 3.4427411362802025 17.298088008670483 0 0 0
657 219 1 0.5897 6.39851249423086 4.29230488753513 18.99176935978714 0 0 0
814 272 2 -1.1794 9.008130365203934 7.884868458361723 18.84239820742387 0 0 0
677 226 1 0.5897 5.395384031873559 1.126556971336355 18.37109226937295 0 0 0
785 262 1 0.5897 6.453090375631975 6.552829396653389 19.285421671732056 0 0 0
703 235 2 -1.1794 7.501086109228888 6.166785331704489 16.13754327384734 0 0 0
38 13 1 0.5897 8.707898247051949 2.565910802985685 20.133841267747865 0 0 -1
815 272 1 0.5897 9.20729367015677 7.113583335883839 19.373119567650907 0 0 0
786 262 1 0.5897 7.384649271504214 7.692733340722593 18.9322468351787 0 0 0
784 262 2 -1.1794 6.459097783471939 7.482049798451374 19.055920135154295 0 0 0
716 239 1 0.5897 7.618509734668293 1.3982514181335746 15.95462381180284 0 0 0
702 234 1 0.5897 9.61016738830247 3.9196712477623326 17.98418537307341 0 0 0
816 272 1 0.5897 9.36255396284336 8.619153668674537 19.343821471922983 0 0 0
825 275 1 0.5897 7.267161887007915 8.290459781791377 16.42612307585795 0 0 0
678 226 1 0.5897 5.918106117790132 0.145837138989371 19.399103891175333 0 0 0
704 235 1 0.5897 6.602718346579878 6.025777929020568 15.838571353215592 0 0 0
823 275 2 -1.1794 7.521595711156994 9.165849539312399 16.134389631038836 0 0 0
143 48 1 0.5897 5.640045464542241 8.255889287717338 20.35615156710034 0 0 -1
35 12 1 0.5897 5.152536688528556 1.944245296855734 20.36811375856606 0 0 -1
710 237 1 0.5897 9.17075300426004 4.763521271944077 20.34125632312238 0 0 0
709 237 2 -1.1794 9.433182669365278 5.674613885577486 20.472448632576473 0 0 0
283 95 2 -1.1794 7.65499500929968 15.403189562387164 2.1061194578688425 0 0 0
285 95 1 0.5897 8.43804957167619 14.885990463114949 2.294859717430154 0 0 0
154 52 2 -1.1794 8.510354319070096 10.771925365443309 3.881477264346713 0 0 0
271 91 2 -1.1794 7.115841153616123 19.637209829161016 1.6958924249698781 0 0 0
163 55 2 -1.1794 7.8686171283090225 12.369450222021221 1.5773402135387835 0 0 0
164 55 1 0.5897 7.95677056386236 11.807546894358024 2.3472423483819167 0 0 0
165 55 1 0.5897 6.941869639024118 12.313481995688395 1.3441890582137037 0 0 0
121 41 2 -1.1794 5.136758542072832 12.204126515736032 1.3626300879579398 0 0 0
819 273 1 0.5897 8.896559509560715 12.399801004611723 0.1224892140545708 0 0 1
264 88 1 0.5897 8.804586893732397 17.54361436595417 4.056968656992536 0 0 0
262 88 2 -1.1794 7.986126420184918 17.731784942026152 3.5975609829158226 0 0 0
231 77 1 0.5897 5.26362454635424 19.49487778377842 1.5845381334275428 0 0 0
245 82 1 0.5897 5.234899886648659 13.65636197318319 4.363964538492895 0 0 0
284 95 1 0.5897 7.766226590855034 16.203101543521974 2.6198758615953834 0 0 0
156 52 1 0.5897 9.448826393152041 10.907766080599805 3.750433884032675 0 0 0
272 91 1 0.5897 7.384422766225352 19.10447614366457 2.444431906390195 0 0 0
927 309 1 0.5897 8.30017503072122 19.284357721977557 0.3788267213533692 0 0 1
275 92 1 0.5897 8.6911712339543 14.013330092445283 4.516301123534022 0 0 0
251 84 1 0.5897 6.050368639020992 15.666780583173846 1.2112231503302253 0 0 0