LAMMPS data file via write_data, version 30 Jul 2021, timestep = 5250000

864 atoms
2 atom types
576 bonds
1 bond types
288 angles
1 angle types

0.6695420529078326 17.538030347089894 xlo xhi
1.8801633690603392 21.749014430944346 ylo yhi
0.8168397406770787 21.396356059324095 zlo zhi

Masses

1 1.00794
2 15.9994

Pair Coeffs # lj/cut/tip4p/long/omp

1 0 0
2 0.21084 3.1668

Bond Coeffs # harmonic/omp

1 450 0.9572

Angle Coeffs # harmonic/omp

1 55 104.52

Atoms # full

388 1 2 -1.1794 4.819705936582653 3.469036276614851 2.394382525704903 4 6 4
839 1 1 0.5897 2.53393881085493 5.574914241836391 1.6000042828647802 -3 -2 -2
194 1 1 0.5897 3.584154276117622 3.810680769128753 3.7967096866914822 4 -5 -2
195 1 1 0.5897 3.220766787719977 4.623576213319614 5.0210524857852965 4 -5 -2
518 1 1 0.5897 1.756464320244207 2.4680367218969232 1.9841191038735413 1 -2 -2
840 1 1 0.5897 2.0781584035065412 5.236321638592558 3.0033876019689063 -3 -2 -2
838 1 2 -1.1794 1.7485449144560152 5.409744442568378 2.1216352469748228 -3 -2 -2
193 1 2 -1.1794 2.834354484803087 4.116174094899142 4.307290292032597 4 -5 -2
725 1 1 0.5897 3.6029408146966246 2.652962164259481 5.065981740329041 6 -4 4
92 1 1 0.5897 0.9124565145864156 3.875897516373822 4.4531136551501085 3 0 0
41 1 1 0.5897 0.98307654714512 4.218195828539267 1.153548434296474 -3 0 5
724 1 2 -1.1794 4.22980319938703 1.9520876228619544 5.244936902208186 6 -4 4
378 1 1 0.5897 4.06339045786922 2.873641219570256 0.9917022577585175 3 2 2
556 1 2 -1.1794 1.4985315347768564 2.977166942481034 7.092714673324384 2 3 0
754 1 2 -1.1794 3.105156162429533 6.260956520875674 8.853472793524642 -1 0 -5
131 1 1 0.5897 0.862965331128164 5.2321284469883 6.579120466834329 0 0 0
756 1 1 0.5897 2.331218122201605 6.790101552167909 8.660436552042718 -1 0 -5
179 1 1 0.5897 2.9622118975933187 3.895769194840402 10.064319490075682 -6 2 -2
173 1 1 0.5897 4.774993813494541 5.474030566017973 6.465011329700698 4 3 0
269 1 1 0.5897 3.742677363620203 2.3108458561801823 8.122188703984362 1 5 7
557 1 1 0.5897 1.0081550322849915 3.2376667375811934 7.872384466829057 2 3 0
180 1 1 0.5897 1.8850816267547945 2.8360563566882084 9.971370898201684 -6 2 -2
178 1 2 -1.1794 2.0221539221856313 3.7822089192926915 9.924296066457403 -6 2 -2
558 1 1 0.5897 0.9022145184192969 3.151920579665063 6.364654212163233 2 3 0
755 1 1 0.5897 3.43078584414882 5.989981011752043 7.995134730605467 -1 0 -5
172 1 2 -1.1794 3.924719052645827 5.756243149093979 6.127978717299622 4 3 0
130 1 2 -1.1794 0.7402416851971517 6.172906308248737 6.706020867217601 0 0 0
855 1 1 0.5897 0.866735201751635 5.186605355240456 10.027069156570658 -6 3 -1
132 1 1 0.5897 1.2728272949744222 6.5788213696345075 6.022022518062284 0 0 0
174 1 1 0.5897 3.9023888153941098 6.698979961980655 6.292149360155407 4 3 0
826 1 2 -1.1794 3.437968277941716 2.5082941846666102 12.5661659595959 -5 0 3
774 1 1 0.5897 0.779274337714987 4.447928187052263 13.834843904306135 2 -5 4
303 1 1 0.5897 2.0331801149357096 4.848532488959512 15.066632186930503 1 5 6
827 1 1 0.5897 2.569075300314823 2.2321052565358714 12.857694389111938 -5 0 3
302 1 1 0.5897 0.7618593845032979 4.160627935767769 15.516463088784914 1 5 6
380 1 1 0.5897 4.455782823327024 2.783969949803863 14.01122002152849 9 2 1
301 1 2 -1.1794 1.6528307553943709 3.9828182796556604 15.215210400435783 1 5 6
773 1 1 0.5897 1.405635334890631 4.806392413743289 12.504056558193955 2 -5 4
190 1 2 -1.1794 2.861438848176238 6.01154986837159 12.135744597191557 3 4 -5
192 1 1 0.5897 3.2698795401767558 5.509851626588805 11.430275355636644 3 4 -5
670 1 2 -1.1794 2.868136866335386 6.592078748410612 14.822487445040505 6 2 -1
671 1 1 0.5897 3.112283244613441 6.472792394449153 13.904646671034307 6 2 -1
104 1 1 0.5897 4.760617120799366 4.48558783627198 16.246341941229936 1 -1 4
253 1 2 -1.1794 3.0146311616202133 2.6637490308336766 17.167567735947316 3 7 -8
377 1 1 0.5897 4.298465101600988 2.3182386462369986 20.182660878161094 3 2 1
250 1 2 -1.1794 3.7642444871690928 5.657361713333257 20.749203779707226 3 -6 -2
376 1 2 -1.1794 3.663856536393307 2.8101620473308477 20.703717131691718 3 2 1
42 1 1 0.5897 0.743056219410549 3.557752480853675 20.392159703767206 -3 0 4
251 1 1 0.5897 3.6456846959161786 4.724336032175461 20.571378431133404 3 -6 -2
103 1 2 -1.1794 4.76580052463124 5.269445492912142 16.795672093946727 1 -1 4
319 1 2 -1.1794 2.329189962367573 6.386990716810212 18.340649787634202 -3 -1 0
320 1 1 0.5897 2.6971040634470214 6.222703818695837 17.47240323462481 -3 -1 0
252 1 1 0.5897 3.3012858500108737 6.098171721600457 20.036774211416695 3 -6 -2
831 1 1 0.5897 1.5437810584192557 3.688651372742461 18.156095387577434 3 4 1
255 1 1 0.5897 2.6041065763743325 3.169932087425688 16.46651479670273 3 7 -8
579 1 1 0.5897 4.8481932854461665 2.5540476883048058 17.475506815189185 5 1 -3
829 1 2 -1.1794 0.7045963996310762 3.7206302575185317 18.615390962234525 3 4 1
298 1 2 -1.1794 1.983560076421143 10.413382861514407 4.0377861611518036 -7 -1 3
300 1 1 0.5897 1.9527696047508711 10.874887528658707 3.199773323130867 -7 -1 3
581 1 1 0.5897 1.600960321574029 7.421767980009733 3.1980400960451925 -2 -3 0
148 1 2 -1.1794 4.554490286345871 7.414163627690578 2.6179339455183395 -4 -1 3
150 1 1 0.5897 4.208198760349719 7.994012247553147 1.9396487713162465 -4 -1 3
299 1 1 0.5897 2.6699953170962867 10.860471660304857 4.532892537795202 -7 -1 3
582 1 1 0.5897 2.176220539365555 8.680345429289325 3.8119522817842344 -2 -3 0
787 1 2 -1.1794 4.161783969082887 11.589174631629215 5.107089382298733 3 1 8
580 1 2 -1.1794 2.2643011517567846 7.727234055294424 3.816821570932459 -2 -3 0
149 1 1 0.5897 3.834094159910257 7.3160476032378785 3.240515259697819 -4 -1 3
244 1 2 -1.1794 1.6408599050232664 11.801730632806734 1.846071153903621 -2 1 -2
834 1 1 0.5897 0.7703746350368341 11.4089436832852 5.08398518615814 3 -1 0
696 1 1 0.5897 1.716804081238011 8.928872987149528 1.0481953746373396 1 -3 -1
694 1 2 -1.1794 0.7659265921315112 8.87590133620225 1.1443225290793746 1 -3 -1
345 1 1 0.5897 1.6069258331049388 8.958852933208556 5.82250642648882 0 3 -1
344 1 1 0.5897 2.16003181111122 9.82028174462213 6.9377788972510075 0 3 -1
791 1 1 0.5897 4.117435125509216 7.3929814444526984 9.777015218380104 2 7 -2
275 1 1 0.5897 4.3438612926602875 8.707676671937815 6.029293745147302 -4 4 -2
110 1 1 0.5897 1.9666580776347806 11.194413644558162 9.469240168408724 -1 -2 -7
792 1 1 0.5897 3.695233667129842 8.544687559788265 10.664285896146149 2 7 -2
790 1 2 -1.1794 4.467535789963867 8.072256172741225 10.353419141380092 2 7 -2
435 1 1 0.5897 1.3694752008666145 8.383388848518152 10.430591000570598 0 3 -1
343 1 2 -1.1794 2.2733974288201884 8.971809605627987 6.509431147154831 0 3 -1
109 1 2 -1.1794 1.7028027749992931 11.265435742026924 8.551867948257396 -1 -2 -7
111 1 1 0.5897 0.7629876462210283 11.083947934649437 8.55771608643122 -1 -2 -7
672 1 1 0.5897 1.990747232242867 6.97329361434698 14.789816028705605 6 2 -1
35 1 1 0.5897 3.3823549426581003 8.677945331485887 13.668382397761603 -4 0 -1
541 1 2 -1.1794 3.7921003000191438 10.604683917262461 16.005506164560444 -1 4 3
223 1 2 -1.1794 1.1481420415027255 11.208336803090456 14.702979247134254 5 1 -8
668 1 1 0.5897 4.245868281767302 7.576530252678928 15.631002098512077 -8 0 1
542 1 1 0.5897 2.8549736147945817 10.414812109454754 15.96142525429978 -1 4 3
34 1 2 -1.1794 3.752157081243269 9.457737748092686 13.254343280295783 -4 0 -1
36 1 1 0.5897 4.027001096223595 10.010434428589875 13.985918850475803 -4 0 -1
191 1 1 0.5897 2.748067121438142 6.889429098181853 11.771391531867646 3 4 -5
425 1 1 0.5897 2.3435281498493836 11.483348967992464 11.937740340031306 6 -2 3
426 1 1 0.5897 3.585857318102674 11.090443461195036 11.166987014803311 6 -3 3
433 1 2 -1.1794 1.866460507627344 8.594176726406225 11.221019295135218 0 3 -1
434 1 1 0.5897 2.079363627358248 9.522947272159504 11.130082357946348 0 3 -1
543 1 1 0.5897 4.200755813086288 9.756925567957165 16.1804471272421 -1 4 3
424 1 2 -1.1794 2.6299751027418363 11.080511281537941 11.118063960928305 6 -2 3
211 1 2 -1.1794 1.3453637071240527 8.676587174688049 17.040887407513967 5 2 5
463 1 2 -1.1794 4.12088544808899 11.211180871644553 21.16213009627308 5 6 -2
807 1 1 0.5897 1.822565514852618 10.976956208220113 18.3671400203586 5 -2 -2
805 1 2 -1.1794 2.739206359827564 11.200821464861708 18.52802247225159 5 -2 -2
16 1 2 -1.1794 3.3597535950337587 8.686006789398084 21.087464478372226 -3 4 3
806 1 1 0.5897 3.118879849627647 11.299780100618019 17.654948948007473 5 -2 -2
212 1 1 0.5897 0.8080951050811812 9.131635302310892 17.689339228192267 5 2 5
464 1 1 0.5897 3.9416881616081363 11.140114241597262 20.224546901207297 5 6 -2
213 1 1 0.5897 0.7182716533920634 8.352942965000064 16.39418740656503 5 2 5
18 1 1 0.5897 3.9405849796093833 8.367908473299497 20.39629422374989 -3 4 3
814 1 2 -1.1794 4.820503512441324 8.329729218346735 18.852894420438265 -4 10 -3
321 1 1 0.5897 1.7095717952304368 7.10421524373605 18.206942632307687 -3 -1 0
816 1 1 0.5897 3.971160134953765 8.308814775251626 18.41198796405497 -4 10 -3
17 1 1 0.5897 3.594185132441035 9.608079620760243 21.192455748693444 -3 4 3
349 1 2 -1.1794 4.075796197169355 14.352108505253787 4.607295449142246 -12 3 -1
245 1 1 0.5897 1.3032906857660207 12.64649124816365 2.1437734572950053 -2 1 -2
536 1 1 0.5897 1.1517495199642696 14.823109134390226 3.4562751773095504 6 6 4
358 1 2 -1.1794 3.270435950046891 14.462684964551173 1.1693766499849854 3 1 -3
359 1 1 0.5897 2.3793466037943714 14.789754488650017 1.292649425265653 3 1 -3
360 1 1 0.5897 3.828572052934581 15.131404538594063 1.5662543173785983 3 1 -3
350 1 1 0.5897 4.547915207344751 14.75206303920021 5.337596649003733 -12 3 -1
537 1 1 0.5897 2.3296307904932037 14.42400430892524 4.319489407458042 6 6 4
535 1 2 -1.1794 1.385133690880016 14.301374546480883 4.224081657419033 6 6 4
520 1 2 -1.1794 0.7564466431763726 15.738340499114615 1.8165980808735958 -3 0 -1
185 1 1 0.5897 3.402359714844483 16.42504557099206 3.7530603565981298 -3 6 4
788 1 1 0.5897 3.834347469447787 12.404724500282356 5.486383730702816 3 1 8
351 1 1 0.5897 4.73104132445633 13.81288476419271 4.164468398579206 -12 3 -1
246 1 1 0.5897 2.509148782126672 12.000298961860665 1.4955792681912126 -2 1 -2
789 1 1 0.5897 4.78070231544869 11.869565061080086 4.432885217318631 3 1 8
713 1 1 0.5897 2.783762971623937 14.161975864491362 7.158034479761747 -3 -2 0
456 1 1 0.5897 4.3639902594242574 13.962759146680128 8.887753067063379 4 -4 0
638 1 1 0.5897 4.6895494727668945 16.34548333804174 7.214234518961251 -5 0 1
712 1 2 -1.1794 3.3846371813667293 13.437730328487559 7.333106612026999 -3 -2 0
409 1 2 -1.1794 1.423208598135783 15.262458619865201 6.983845603523736 8 -1 -2
411 1 1 0.5897 0.8178232820542708 14.602176657952588 7.321115470020296 8 -1 -2
714 1 1 0.5897 2.8291149970969984 12.747046291420405 7.694445227612047 -3 -2 0
454 1 2 -1.1794 4.699619799156072 14.132867426116952 9.767888135716321 4 -4 0
594 1 1 0.5897 2.2804552864611454 16.419096879941844 8.035462719222673 -4 -1 -2
410 1 1 0.5897 1.3299105919247687 15.210005391099228 6.032657248341805 8 -1 -2
146 1 1 0.5897 3.5137971659505363 15.356179537907567 11.050186596074457 -3 0 -3
455 1 1 0.5897 4.8278464620881385 13.263766863213874 10.147937359926333 4 -4 0
238 1 2 -1.1794 2.0368373916424165 13.223448071381625 13.035308980580405 -6 -5 -1
145 1 2 -1.1794 3.0180638177799812 15.691840555249533 11.797033618893416 -3 0 -3
239 1 1 0.5897 1.622850462192024 12.683845656144445 13.708847739570215 -6 -5 -1
240 1 1 0.5897 1.3450216793017866 13.37664283211928 12.391773240806977 -6 -5 -1
123 1 1 0.5897 3.782517075717004 13.557524496593686 12.496613641572688 -1 0 1
164 1 1 0.5897 2.1012668608502936 15.6732116810617 15.275084055687213 3 2 -1
163 1 2 -1.1794 1.5202390701531954 15.793187544781167 14.52393656600576 3 2 -1
147 1 1 0.5897 2.1313402387644764 15.817923365792591 11.459357596704065 -3 0 -3
165 1 1 0.5897 1.8665295000997164 15.201610398800007 13.855787281863998 3 2 -1
289 1 2 -1.1794 4.81425779294703 13.079696902663503 15.197506104189463 -7 -3 -5
290 1 1 0.5897 4.461990883538016 12.201317884637755 15.34107471830864 -7 -3 -5
62 1 1 0.5897 4.693315015940388 16.17068529460827 15.70107834749786 -4 0 5
121 1 2 -1.1794 4.731426478701118 13.440384356044948 12.541894926425417 -1 0 1
63 1 1 0.5897 4.85692711561879 16.661303953643127 14.278276299918563 -4 0 5
291 1 1 0.5897 4.72127161369739 13.22462005656044 14.25593434492058 -7 -3 -5
441 1 1 0.5897 3.3033628602917497 15.027533565560637 17.464353524501337 2 0 -3
652 1 2 -1.1794 3.2849563229118326 13.97689000134134 19.003150264203303 -2 -2 -1
440 1 1 0.5897 2.642754356504272 16.29346509291576 16.9615206089298 2 0 -3
654 1 1 0.5897 2.8857311407288577 13.108930532732566 18.944274237514986 -2 -2 -1
653 1 1 0.5897 3.280773308398971 14.180011670217484 19.93853585361498 -2 -2 -1
236 1 1 0.5897 4.238639577810792 15.78394078637785 19.399905042690815 0 -3 -4
439 1 2 -1.1794 3.2039472616891613 15.570136351901148 16.682107369524815 2 0 -3
71 1 1 0.5897 1.0035469039582903 12.288947803660038 20.879871789829505 1 0 -3
465 1 1 0.5897 4.803566322871256 11.879061162186638 21.22603392847662 5 6 -2
235 1 2 -1.1794 4.353890326714289 16.732551321686444 19.45536434272517 0 -3 -4
171 1 1 0.5897 4.861236367240123 13.786608563398444 18.146250163875383 -6 3 -1
70 1 2 -1.1794 0.6963772954141025 12.738867752362843 20.092828926467245 1 0 -3
22 1 2 -1.1794 3.8576775645485886 20.155386557267697 1.84407467383674 -2 2 2
108 1 1 0.5897 4.383709559903508 19.92252108424092 4.727593938238778 -2 0 1
107 1 1 0.5897 4.824797672162643 19.01311691958248 5.854678940217081 -2 0 1
519 1 1 0.5897 2.5080681805203815 21.063275155390407 2.3079218873013434 1 -3 -2
184 1 2 -1.1794 2.96113327383866 17.267030189619796 3.6406950910688525 -3 6 4
7 1 2 -1.1794 1.0676852471105573 20.476180574076487 5.046766440333784 2 -3 1
23 1 1 0.5897 4.448836973839475 20.458408127627045 1.1548925606791682 -2 2 2
517 1 2 -1.1794 1.7833125693315774 21.611674333784954 2.6082644762585185 1 -3 -2
186 1 1 0.5897 3.465598083621463 17.87616854927861 4.17987447677249 -3 6 4
100 1 2 -1.1794 0.7876752614293394 17.752341865012955 5.518649543138433 5 -4 -1
9 1 1 0.5897 1.5618497782749672 20.987504370353932 5.687527739099465 2 -3 1
102 1 1 0.5897 1.513454205031846 17.45691969655413 4.968946477276712 5 -4 -1
545 1 1 0.5897 2.7003550539215433 17.527288660703935 1.680281988761162 -6 3 4
24 1 1 0.5897 3.2867994634176085 19.521955519505447 1.409208599051313 -2 2 2
106 1 2 -1.1794 4.600830418446482 19.011219755201715 4.924041268877004 -2 0 1
8 1 1 0.5897 1.2509215693638738 20.90034682002195 4.208488030854207 2 -3 1
489 1 1 0.5897 1.4815521397988074 19.68435457839246 7.890659579026609 0 -5 2
415 1 2 -1.1794 3.549548867573251 20.169188585889735 10.665159987038741 0 -3 -1
593 1 1 0.5897 2.8955642334007017 17.799165283172634 7.941136453457119 -4 -1 -2
488 1 1 0.5897 2.19756230689612 19.395255090835327 6.5885182861267895 0 -5 2
487 1 2 -1.1794 2.3395983144443746 19.455990806337894 7.533156234794662 0 -5 2
112 1 2 -1.1794 0.9627942018046762 20.923905928825036 10.291807767649654 -3 -2 4
416 1 1 0.5897 2.6160502136981236 20.336111324205575 10.535045537754767 0 -3 -1
268 1 2 -1.1794 4.449063182829432 21.55106599564892 8.270728430815181 1 4 7
270 1 1 0.5897 4.128724936244511 20.734942702601032 7.886637652980671 1 4 7
417 1 1 0.5897 3.9855128889590294 20.733346108995327 10.026504948361211 0 -3 -1
648 1 1 0.5897 4.186346149089418 18.3607509479529 10.787526168438168 -6 0 -4
592 1 2 -1.1794 3.012300804741933 16.94525497526531 8.357589770191524 -4 -1 -2
647 1 1 0.5897 4.4047537222510496 17.36685367320237 9.666681944525438 -6 0 -4
646 1 2 -1.1794 4.799651964440693 17.696049889656678 10.474088583855151 -6 0 -4
776 1 1 0.5897 3.3108485586541088 17.157275067895732 12.882585425429728 7 -6 2
775 1 2 -1.1794 3.3601189073656514 18.034350354769025 13.262799830815434 7 -6 2
89 1 1 0.5897 1.2651084727254152 21.20479328472568 14.724370373086074 7 -4 4
689 1 1 0.5897 1.621930811603829 19.64301163012793 16.07760285346123 5 -1 4
690 1 1 0.5897 3.133144672146339 19.55583957113975 16.055816763550716 5 -1 4
640 1 2 -1.1794 0.8589762108441364 18.785766581919795 12.659789046272008 3 1 -5
777 1 1 0.5897 2.4653607167815146 18.370031440530326 13.208588447209467 7 -6 2
688 1 2 -1.1794 2.4113600575322485 20.184290569124016 16.072691127673842 5 -1 4
88 1 2 -1.1794 0.8835689708714333 21.312098445228358 13.853092539141743 7 -4 4
828 1 1 0.5897 3.7552356402868776 21.64812816898973 12.033169061216292 -5 -1 3
90 1 1 0.5897 0.8075580749010447 20.420619146610676 13.512935474627279 7 -4 4
636 1 1 0.5897 2.5133356900495607 20.358775852068625 19.08813854699116 -9 1 4
762 1 1 0.5897 3.897929826163293 18.39133182650899 18.775047997094482 2 -4 0
635 1 1 0.5897 2.3860439982742223 21.627898074321457 19.90359930288337 -9 1 4
761 1 1 0.5897 4.44360745438513 19.16013979415196 17.59056614565879 2 -4 0
634 1 2 -1.1794 1.8681734059620343 20.924051842758573 19.51290721232375 -9 1 4
760 1 2 -1.1794 3.8908107350900467 19.256706864153067 18.366001456035587 2 -4 0
546 1 1 0.5897 1.9123962132216232 17.762367993619282 20.988706023119136 -6 3 3
254 1 1 0.5897 2.8536751861377065 21.619399451894537 16.930139965857173 3 6 -8
616 1 2 -1.1794 1.3778646323873946 17.51316732041855 17.248847794349867 0 2 0
544 1 2 -1.1794 2.8044704391553648 17.75355834893332 21.33558964025697 -6 3 3
618 1 1 0.5897 0.966965810713271 17.76776578392018 18.07501196203374 0 2 0
237 1 1 0.5897 3.8938019915685893 16.983781835488447 20.256243384996154 0 -3 -4
617 1 1 0.5897 0.8174220387456199 17.89621232192254 16.574013947824376 0 2 0
837 1 1 0.5897 6.922628117702754 4.27177877626216 5.6033891165600735 -2 1 -4
835 1 2 -1.1794 6.664013663358059 3.3562735664698664 5.497643740611348 -2 1 -4
5 1 1 0.5897 5.935326092949781 6.2888284444336255 2.314322338435518 -2 -1 0
52 1 2 -1.1794 6.924628338667954 6.205047411158563 4.958062569863938 -2 -2 2
6 1 1 0.5897 7.190826695090639 5.923525613611016 1.551375360370961 -2 -1 0
390 1 1 0.5897 5.35887593367605 4.248065387737631 2.2579555889040632 4 6 4
374 1 1 0.5897 7.675949580624231 3.4068067292200856 2.7272125757507295 4 6 0
4 1 2 -1.1794 6.570905862161185 5.582923431134983 2.196269938568544 -2 -1 0
389 1 1 0.5897 5.450122764601476 2.7612262387996767 2.527776747227298 4 6 3
54 1 1 0.5897 6.934540016286758 6.178625047623137 4.001269220835331 -2 -2 2
726 1 1 0.5897 5.036093593799831 2.4073999168493287 5.487405252901531 6 -4 4
375 1 1 0.5897 8.614486393884192 2.347993937510717 2.1887823805379014 4 6 0
373 1 2 -1.1794 8.5058795469177 3.2960687422676864 2.2633491681085074 4 6 0
158 1 1 0.5897 9.044159378870885 2.4643476099316306 5.227849596368274 3 4 0
53 1 1 0.5897 6.153671029242034 6.7290024830948765 5.175718754327637 -2 -2 2
432 1 1 0.5897 6.307517675803225 6.439139895856827 8.398920543109103 -8 -3 -2
471 1 1 0.5897 7.79364483658766 5.1090489706527045 8.613047257587695 3 -4 5
430 1 2 -1.1794 6.050520964393316 5.5542029457738336 8.139988468267351 -8 -3 -2
477 1 1 0.5897 8.694077489272184 4.520871092752874 10.644654089622813 3 -4 0
431 1 1 0.5897 5.606267308517408 5.198462838085957 8.909591160632425 -8 -3 -2
836 1 1 0.5897 6.935617499891806 2.93449304958386 6.3128393044588025 -2 1 -4
469 1 2 -1.1794 8.712040116251595 4.863274314179354 8.72416378896004 3 -4 5
470 1 1 0.5897 8.907887213177418 4.316490166322872 7.96332520542364 3 -4 5
318 1 1 0.5897 5.2718273169308425 3.709855286091782 10.977456397486277 -11 -6 -1
316 1 2 -1.1794 4.997687978474849 4.483697759663708 10.485294243201034 -11 -6 -1
317 1 1 0.5897 5.490350330204252 5.204546489340827 10.87758156257144 -11 -6 -2
628 1 2 -1.1794 6.48102498492192 6.501321645442543 11.417456242506825 -2 -2 1
679 1 2 -1.1794 8.547785067023616 2.350203366377668 14.410671002759468 -6 -3 1
264 1 1 0.5897 8.368902151590426 4.718210064755453 16.139730631706122 0 -1 4
226 1 2 -1.1794 5.900036523666348 5.687799024489351 14.064496197008035 5 -2 0
263 1 1 0.5897 7.6658921208131074 4.95544299274829 14.820142781210759 0 -1 4
381 1 1 0.5897 5.91930420382844 2.5650882121094423 14.330691424067036 9 2 1
475 1 2 -1.1794 8.658380124172409 3.909608391481966 11.380392259477018 3 -4 0
262 1 2 -1.1794 8.475198637480602 5.15070777672557 15.292472536389289 0 -1 4
379 1 2 -1.1794 5.134919294187975 3.0147143459720587 14.645051296774433 9 2 1
629 1 1 0.5897 6.324778962979755 6.167724099655488 12.300921650998255 -2 -2 1
680 1 1 0.5897 8.444529243090873 3.265760550004475 14.67011224982695 -6 -3 1
227 1 1 0.5897 5.4973604121816235 4.83439724816556 14.225067771970147 5 -2 0
445 1 2 -1.1794 6.577822836463548 2.037524259167915 11.441982705595622 4 -3 -3
446 1 1 0.5897 7.364479980299905 2.5777192431059337 11.516604843989482 4 -3 -3
228 1 1 0.5897 5.573278203492735 6.244186822365324 14.771522344996004 5 -2 0
188 1 1 0.5897 8.56722788731373 6.780948388087614 11.736563558667521 -4 5 -1
602 1 1 0.5897 8.995098550372596 6.763980146437138 14.8640088398679 0 1 0
681 1 1 0.5897 8.95484079321615 2.390430793038528 13.545280677560536 -6 -3 1
273 1 1 0.5897 6.9377864544326915 3.936632794396703 20.021902714543877 0 3 2
848 1 1 0.5897 6.084665792496325 6.177753963511687 18.784747174300755 4 -1 7
124 1 2 -1.1794 8.07609782725645 3.586438414655056 17.414147713090017 -2 0 1
125 1 1 0.5897 8.471237140612821 2.7366408131724516 17.21943200081694 -2 0 1
847 1 2 -1.1794 5.9999693139326595 5.474546778312613 19.428596119357948 4 -1 7
849 1 1 0.5897 5.180600600522762 5.664799646009857 19.885378048236056 4 -1 7
577 1 2 -1.1794 5.614221973699474 2.7145001745500132 18.026558984703176 5 1 -3
271 1 2 -1.1794 7.392959488183315 3.2241568395813474 20.470691318095614 0 3 2
858 1 1 0.5897 7.562186890174725 6.7097045660069705 16.34294828200462 1 2 -3
272 1 1 0.5897 7.57592047639254 3.5691260267632314 21.344620687538608 0 3 2
126 1 1 0.5897 7.145821645474122 3.396359578562362 17.535493674885807 -2 0 1
404 1 1 0.5897 8.965860503961892 6.60514620304872 18.339809846979414 7 -2 1
105 1 1 0.5897 4.937757873093316 4.942514089825713 17.678722139169842 1 -1 4
405 1 1 0.5897 9.026026226213258 6.1250341389583625 19.774288854304153 7 -2 1
294 1 1 0.5897 8.465205221622007 8.843403741386805 3.6030477002977292 -2 -2 2
267 1 1 0.5897 7.371110723584726 9.653014593433463 5.336808055815645 1 -2 1
278 1 1 0.5897 6.471858050890706 9.637788294945333 2.971346484103258 1 2 -1
279 1 1 0.5897 5.800934621653478 8.702439556658934 3.9546249498891686 1 2 -1
277 1 2 -1.1794 6.4575635464219046 9.396583978240695 3.8975309972272063 1 2 -1
461 1 1 0.5897 8.86653438763001 11.633826075021556 2.819430250996139 6 2 0
483 1 1 0.5897 8.76313313653495 7.301427080111085 1.638298181704486 -1 5 1
505 1 2 -1.1794 7.048065160288708 9.80392838998635 1.0694320945634157 2 2 0
481 1 2 -1.1794 8.274518478083364 7.148178113294501 0.8296068064174648 -1 5 1
143 1 1 0.5897 8.244645185485622 6.907492428203158 5.922187947499579 -4 3 3
553 1 2 -1.1794 5.371401285702472 11.547111847139245 10.158115034785457 -7 -7 4
136 1 2 -1.1794 8.808811749758203 8.995057919673165 9.766033842586332 5 -7 4
307 1 2 -1.1794 6.679382664757208 8.077687613625553 8.441718331927728 1 4 -3
142 1 2 -1.1794 8.78657748417616 7.3342130528170655 6.585836557432314 -4 3 3
309 1 1 0.5897 5.961320069460663 8.265433895435809 9.046152062820777 1 4 -3
266 1 1 0.5897 8.35156317727023 9.240547886952333 6.414047752590255 1 -2 1
265 1 2 -1.1794 7.852672998109292 9.991186852282103 6.0917620380417965 1 -2 1
846 1 1 0.5897 6.314032073536059 10.506225526124629 6.9152787906822715 1 -1 5
844 1 2 -1.1794 5.591948415447341 10.959313499323024 7.350639367133431 1 -1 5
308 1 1 0.5897 7.450395999724406 8.463154872944113 8.857897003816975 1 4 -3
555 1 1 0.5897 5.296192284958854 11.216053834879437 9.26314933678784 -7 -7 4
276 1 1 0.5897 5.594921923838787 8.275331521303338 6.763968123117723 -4 4 -2
144 1 1 0.5897 8.329415222290338 7.1703181740674005 7.410665236799879 -4 3 3
274 1 2 -1.1794 5.0917111326587845 8.113580741128054 5.965950716619608 -4 4 -2
501 1 1 0.5897 7.485325351487709 9.339110150878081 11.07656322156332 -3 0 -5
845 1 1 0.5897 4.886943312036429 10.964930089154159 6.703191344853976 1 -1 5
218 1 1 0.5897 7.202457806183116 10.87992287635231 15.193674424387943 6 -3 -2
509 1 1 0.5897 6.59812101323861 9.239705587165982 13.503175784676696 4 -1 3
508 1 2 -1.1794 6.992814108541889 9.126606036601792 14.367829963292852 4 -1 3
217 1 2 -1.1794 7.281290457637974 11.741322563570762 15.603527972444944 6 -3 -2
630 1 1 0.5897 5.724081666755317 7.0576235954324344 11.233643470182395 -2 -2 1
510 1 1 0.5897 6.298427032987157 8.737689768544612 14.899594913539586 4 -1 3
499 1 2 -1.1794 6.72796287682682 9.478528431473856 11.64506136408141 -3 0 -5
500 1 1 0.5897 6.122907802426962 9.997986716506254 11.115649869288195 -3 0 -5
603 1 1 0.5897 8.608024225593727 8.1366975353648 14.35624176343862 0 1 1
257 1 1 0.5897 9.024598496374281 11.499039192824208 12.87604520424982 1 -2 -1
258 1 1 0.5897 8.357786685393958 10.186020306540328 12.5250046585286 1 -2 -1
667 1 2 -1.1794 5.087829809299361 7.961798257656663 15.87373860316795 -8 0 2
669 1 1 0.5897 5.484474819894257 7.320067553026224 16.462856427690767 -8 0 2
450 1 1 0.5897 8.852072139238238 9.753602653321977 16.541418844708225 7 -5 -4
482 1 1 0.5897 7.889071613870863 7.9982411265943245 21.196890550696317 -1 5 0
507 1 1 0.5897 6.412115585806569 9.74139443865799 20.936305310095687 2 2 -1
857 1 1 0.5897 7.66427398120946 7.963973519367459 17.184517940811524 1 2 -3
585 1 1 0.5897 6.835780867395131 10.619261982213473 18.19165847568497 5 -3 -1
583 1 2 -1.1794 6.3375458101856506 11.093895553201516 18.85701990885997 5 -3 -1
815 1 1 0.5897 5.081060679827752 9.25044114087778 18.828277065401288 -4 10 -3
448 1 2 -1.1794 8.439996631775223 9.468331947924256 17.35691655548594 7 -5 -4
856 1 2 -1.1794 7.447387983612839 7.033136597840279 17.23650651857352 1 2 -3
506 1 1 0.5897 7.703288759136531 10.425571231682019 21.332021481311738 2 2 -1
210 1 1 0.5897 6.814626751253568 12.507801502390768 3.5881519536676256 2 -2 1
242 1 1 0.5897 8.82515278393291 14.1939891210957 1.8239076122599491 -4 -1 4
663 1 1 0.5897 5.542376608589881 13.63498809097944 1.1055735565682179 -1 -1 1
243 1 1 0.5897 7.842026008303944 15.227884949186643 2.3303034536057927 -4 -1 4
533 1 1 0.5897 5.870638629867094 16.014818197344173 2.8138943517628645 -10 -4 -3
550 1 2 -1.1794 7.343939405748369 15.729097087726869 3.999219755372358 -4 9 -4
208 1 2 -1.1794 5.934789553632537 12.654022169262579 3.2407015586544725 2 -2 1
241 1 2 -1.1794 8.230170778874088 14.882270727384803 1.526466374365521 -4 -1 4
532 1 2 -1.1794 5.491325004311952 15.935342884881063 1.9386772959778495 -10 -4 -3
552 1 1 0.5897 7.372712452475337 16.64089213270764 4.289055957339766 -4 9 -4
209 1 1 0.5897 5.967960044107056 12.306650391472587 2.349380485396205 2 -2 1
551 1 1 0.5897 8.150396848650981 15.343072512620008 4.341016218865921 -4 9 -4
460 1 2 -1.1794 8.71734617405943 12.318458978060928 3.471604934094746 6 2 0
534 1 1 0.5897 5.719751966939938 16.756271172723306 1.5026739612928635 -10 -4 -3
639 1 1 0.5897 6.156154829743765 16.267083922401056 6.8471224049894905 -5 0 1
296 1 1 0.5897 8.612565172597535 13.625787523419156 7.82284341899404 3 3 -2
529 1 2 -1.1794 7.336382476872954 15.048841584372605 10.005549041282908 -3 -4 -6
752 1 1 0.5897 6.187818648195039 14.004254090916628 7.168535013130224 0 -1 1
400 1 2 -1.1794 7.770903626146422 16.64879753322512 7.6525943207614935 -3 -3 0
751 1 2 -1.1794 6.822198109061791 13.342802063997656 7.444697952886293 0 -1 1
531 1 1 0.5897 6.946747072903468 15.392816881888372 10.809330948842955 -3 -4 -6
530 1 1 0.5897 6.623920101678003 14.574021026677169 9.577593528913695 -3 -4 -6
753 1 1 0.5897 6.358915945775861 12.510810494563115 7.347949204971311 0 -1 1
67 1 2 -1.1794 7.787726794504634 12.511150179527656 10.784569469261086 4 -2 -4
68 1 1 0.5897 7.561380817122474 13.411395974191288 10.550993161314977 4 -2 -4
637 1 2 -1.1794 5.284838085143417 16.01489937526523 6.541486635174205 -5 0 1
69 1 1 0.5897 8.738938560283342 12.522718730200644 10.890768717122468 4 -2 -4
402 1 1 0.5897 7.791600977956481 16.24097622933302 8.518312155013652 -3 -3 0
554 1 1 0.5897 6.276884540461972 11.84975885670435 10.226731703498634 -7 -7 4
118 1 2 -1.1794 6.075387164401959 15.972509662267438 12.43427456719494 2 -4 -2
73 1 2 -1.1794 7.611672612976784 15.419523765861872 15.643066692998694 -1 -3 3
122 1 1 0.5897 5.090400040584747 14.29476711411177 12.302371483801712 -1 0 1
219 1 1 0.5897 6.41137067466134 12.130382510608962 15.513632536104106 6 -3 -2
120 1 1 0.5897 6.913282467030325 16.345246499113138 12.708537757226605 2 -4 -2
809 1 1 0.5897 7.26695892049183 13.26917674689759 12.83714003369408 3 1 0
75 1 1 0.5897 7.5612185929744555 14.749785379569605 14.96107701765522 -1 -3 3
808 1 2 -1.1794 7.857590444945151 13.50895940173433 13.551183937858754 3 1 0
810 1 1 0.5897 7.565184287174043 12.978999286597713 14.292718351913036 3 1 0
74 1 1 0.5897 6.8182599950041025 15.941939393443302 15.525564199805917 -1 -3 3
61 1 2 -1.1794 5.233507059403725 16.741456831305385 15.154624438914407 -4 0 5
549 1 1 0.5897 8.077225855753607 16.45273268885807 14.423755382028027 5 -3 7
119 1 1 0.5897 5.643576726365622 16.679628155433164 11.954940019564848 2 -4 -2
282 1 1 0.5897 7.895590842102262 15.743543686103104 19.390698932480486 -1 -2 1
170 1 1 0.5897 5.4548901622717905 13.856691118269024 16.755393369530097 -6 3 -1
423 1 1 0.5897 8.624797079557345 13.586318570362481 18.09933166658483 -6 -1 3
281 1 1 0.5897 7.161483158382286 14.951685300511313 18.329609325417152 -1 -2 1
661 1 2 -1.1794 6.165950511205507 13.219695668249567 21.08934486174296 -1 -1 0
169 1 2 -1.1794 5.644489545765508 14.06316765726412 17.67060889283013 -6 3 -1
584 1 1 0.5897 6.603084816369731 12.007231635700947 18.749548674298463 5 -3 -1
280 1 2 -1.1794 8.019135990308065 15.049449383008096 18.743222803813996 -1 -2 1
662 1 1 0.5897 6.969538651179525 13.730118771465923 21.18904933122995 -1 -1 0
421 1 2 -1.1794 8.752098459950801 12.688103286216428 17.793941285434816 -6 -1 3
422 1 1 0.5897 8.291238824911169 12.652029219388492 16.95578378494003 -6 -1 3