LAMMPS data file via write_data, version 30 Jul 2021, timestep = 3500000

972 atoms
2 atom types
648 bonds
1 bond types
324 angles
1 angle types

-0.1339983526742028 20.133999352673 xlo xhi
-0.10635839703288674 20.10635939703399 ylo yhi
-0.2069792467106808 20.906977246710703 zlo zhi

Masses

1 1.008
2 15.999

Pair Coeffs # lj/cut/tip4p/long/omp

1 0 0
2 0.21084 3.1668

Bond Coeffs # harmonic/omp

1 450 0.9572

Angle Coeffs # harmonic/omp

1 55 104.52

Atoms # full

10 4 2 -1.1794 0.906115877519909 3.9219058007603484 3.5098401043810874 0 0 0
11 4 1 0.5897 0.8965880203560179 3.158916700487291 2.9319690644375944 0 0 0
12 4 1 0.5897 1.8275946176555629 4.035151698594539 3.742577777812105 0 0 0
16 6 2 -1.1794 3.9424935672653856 3.8177731543501245 3.3660879109535475 0 0 0
18 6 1 0.5897 3.7480810557796924 2.898147734845503 3.1850814506004004 0 0 0
31 11 2 -1.1794 0.6459204708320562 1.6033517834455642 1.8483275704333755 0 0 0
5 2 1 0.5897 3.8363324631334534 0.5233834551172446 2.4589605476415306 0 0 0
53 18 1 0.5897 9.900203288046967 3.676000201229704 3.8869599109516697 0 0 0
23 8 1 0.5897 2.120839265336326 0.8513946262713311 4.36566150214406 0 0 0
4 2 2 -1.1794 3.5075315182878977 0.8909245072881428 3.279231397210901 0 0 0
33 11 1 0.5897 1.2670494306734772 1.9200098500252105 1.1925742108907393 0 0 0
9 3 1 0.5897 4.834016758262697 4.265309567522729 5.023750351551444 0 0 0
273 91 1 0.5897 7.263351018670951 0.4200494107217475 1.8527724221008484 0 1 0
6 2 1 0.5897 4.124233691229384 0.5841150076477378 3.943781136592225 0 0 0
48 16 1 0.5897 7.241419383492305 4.0499944980474085 4.360648445117303 0 0 0
67 23 2 -1.1794 7.256724015739563 2.2892592495763155 1.598126444399563 0 0 0
46 16 2 -1.1794 7.998676355169138 4.100332686049234 3.7774571726589117 0 0 0
69 23 1 0.5897 6.520627401337299 2.5813451804080536 1.0606164586793565 0 0 0
68 23 1 0.5897 7.9790029261370865 2.183766532337896 0.9790651496280427 0 0 0
47 16 1 0.5897 7.753918762299496 3.568831326204961 3.0200483740399786 0 0 0
41 14 1 0.5897 9.875651022453068 0.5823884071387636 3.8833752110567756 0 0 0
17 6 1 0.5897 4.089949705939456 4.206183684241787 2.5038736643472044 0 0 0
29 10 1 0.5897 6.257672323713561 0.6156441424146122 4.797076927330847 0 0 0
325 109 2 -1.1794 2.3873717980881133 2.6392784506419775 6.916045947765237 0 0 0
326 109 1 0.5897 2.0902243909012412 1.988173539182735 6.280522545045443 0 0 0
327 109 1 0.5897 3.311351748512549 2.432924375314965 7.05682075537486 0 0 0
355 119 2 -1.1794 0.5728224686970131 1.8544472836356272 8.886738960884733 0 0 0
356 119 1 0.5897 1.3093766479164197 1.9392252517658393 8.281453584263703 0 0 0
28 10 2 -1.1794 5.438991007211543 0.4390695980779139 5.260424249713799 0 0 0
8 3 1 0.5897 5.4698947015639865 3.832538365070133 6.3275039568328655 0 0 0
330 110 1 0.5897 4.145113300631074 0.48209079237881525 9.872979405057084 0 0 0
360 120 1 0.5897 5.46010216424772 1.4314382063528936 6.792079545609639 0 0 0
392 131 1 0.5897 8.215936212077242 2.1790458992616824 8.166970276214792 0 0 0
391 131 2 -1.1794 7.672897943972711 2.2416659112954607 8.95260370907305 0 0 0
27 9 1 0.5897 2.1370451678222535 4.280413169885273 6.356686946219013 0 0 0
59 20 1 0.5897 8.740692186485333 1.5493754256632248 5.505285956597998 0 0 0
361 121 2 -1.1794 9.441518075017669 2.4875360722078486 6.753899194615298 0 0 0
342 114 1 0.5897 4.035747948732197 4.917725209377774 9.714740466451461 0 0 0
358 120 2 -1.1794 5.266398216484409 2.217538969276406 7.302693090969468 0 0 0
362 121 1 0.5897 9.322184100273645 3.4228530030899695 6.588964890584228 0 0 0
359 120 1 0.5897 5.9905570747748085 2.283889533340358 7.9250026553515465 0 0 0
393 131 1 0.5897 7.527883926791102 1.3332130756618532 9.21708075377276 0 0 0
24 8 1 0.5897 1.947762706959708 0.031821234569527235 5.626545837770972 0 0 0
7 3 2 -1.1794 5.541531914330428 4.484127423512116 5.630066144192821 0 0 0
22 8 2 -1.1794 1.6073320762211463 0.8022349546023421 5.171838773581853 0 0 0
341 114 1 0.5897 3.9337366918267156 3.448052828459598 10.063483153180202 0 0 0
60 20 1 0.5897 8.589461899828462 0.06226089852828354 5.7453834660370795 0 0 0
335 112 1 0.5897 0.7696722736299476 3.5612663887081415 10.0249775911351 0 0 0
340 114 2 -1.1794 3.5716980839026746 4.305729617128849 10.285937038388205 0 0 0
58 20 2 -1.1794 8.402423180960215 0.7484719516500034 5.104851858673226 0 0 0
649 217 2 -1.1794 2.0286109084903656 2.0649103248850342 14.080974051533113 0 0 0
650 217 1 0.5897 1.905943264947242 1.3871733729061473 13.416325734963166 0 0 0
329 110 1 0.5897 4.640963320119488 1.1221613780285467 11.151965096007196 0 0 0
336 112 1 0.5897 1.7819702991773374 4.515610879304851 10.621829422595198 0 0 0
350 117 1 0.5897 2.313911850011557 3.915835987298027 13.824339575380707 0 0 0
346 116 2 -1.1794 2.012191563192893 0.2710449997657242 11.938773482740958 0 0 0
717 239 1 0.5897 6.2500292719406785 2.4384591089533822 15.28583828230607 0 0 0
348 116 1 0.5897 2.481650970752885 0.8333095533506482 11.322671059901218 0 0 0
384 128 1 0.5897 9.517521825150808 0.9295191030599341 11.492428027056189 0 0 0
651 217 1 0.5897 1.3652312257257821 1.873668452110734 14.743863370228876 0 0 0
683 228 1 0.5897 4.004933043405638 2.0784514246377013 14.192920208132879 0 0 0
354 118 1 0.5897 5.596571526644356 0.4102376412176344 13.190790982647455 0 0 0
332 111 1 0.5897 4.543730263094601 4.224069189986619 11.85048387551973 0 0 0
377 126 1 0.5897 9.505402834964146 4.036858060033793 10.647035265693457 0 0 0
372 124 1 0.5897 6.782949298510496 4.269706045642522 11.368367753565762 0 0 0
383 128 1 0.5897 8.626150387843094 1.7081449135703923 12.43625064189002 0 0 0
685 229 2 -1.1794 9.120474696280636 2.8229989669209483 13.903280571116808 0 0 0
353 118 1 0.5897 6.773463303784246 0.495222784401399 12.242525495636016 0 0 0
686 229 1 0.5897 8.478259679904376 2.9355859511912854 14.603900880971802 0 0 0
382 128 2 -1.1794 8.684827273197742 0.878974179328072 11.961646317430219 0 0 0
682 228 2 -1.1794 4.962071459868235 2.082454083659749 14.193755016228906 0 0 0
352 118 2 -1.1794 5.8914746110562035 0.13235633406455322 12.323713076738164 0 0 0
684 228 1 0.5897 5.199353233397881 2.8357648751670914 13.65302821385199 0 0 0
347 116 1 0.5897 1.098986456996227 0.3144647485177028 11.655422168217523 0 0 0
331 111 2 -1.1794 5.246673027533441 4.1908324943420485 12.499201631962793 0 0 0
370 124 2 -1.1794 7.607402827363367 4.309086382520729 10.883784740441227 0 0 0
386 129 1 0.5897 9.326599035185993 4.786932053347216 13.513991694075202 0 0 0
334 112 2 -1.1794 0.8569047678049692 4.443049934490574 10.387052086508753 0 0 0
349 117 2 -1.1794 2.3074728415283863 4.870320971652048 13.896433852177312 0 0 0
687 229 1 0.5897 9.847059763358674 2.356570513291753 14.316367420115956 0 0 0
328 110 2 -1.1794 4.065594144956903 1.2753710961799902 10.40262336085023 0 0 0
371 124 1 0.5897 7.685004695588606 3.4485125397703777 10.471935792162924 0 0 0
652 218 2 -1.1794 3.8184405182957106 1.157522164716443 16.93386577898431 0 0 0
653 218 1 0.5897 2.9247209384198016 0.961372252140251 17.214807081188805 0 0 0
35 12 1 0.5897 5.1810591363735305 1.7319489246399764 20.07307186981122 0 0 -1
664 222 2 -1.1794 3.733360881466515 3.765265813675973 17.404908308992137 0 0 0
671 224 1 0.5897 1.9045647182765486 1.3894675123389455 19.390817538208005 0 0 0
670 224 2 -1.1794 1.6444774195085534 0.8591179411050103 18.63770866051378 0 0 0
672 224 1 0.5897 0.6895796823606327 0.8196780348461489 18.69025023752843 0 0 0
656 219 1 0.5897 5.019021856124001 4.363774615820997 18.62342023685768 0 0 0
666 222 1 0.5897 3.8845136806938925 2.833854952677281 17.243942625317906 0 0 0
707 236 1 0.5897 8.843811725130053 0.23457805101345758 19.445036135941145 0 0 0
654 218 1 0.5897 3.985392595573174 0.5435074617500494 16.218865667607222 0 0 0
655 219 2 -1.1794 5.670275285445169 4.4286682855652515 19.321778515180114 0 0 0
38 13 1 0.5897 8.962018922602033 1.9785325222138859 20.083181912930197 0 0 -1
681 227 1 0.5897 0.42099698210530745 2.4548388859154713 16.63920085021823 0 0 0
677 226 1 0.5897 4.976936450774294 0.7022774023904362 18.18482549173712 0 0 0
659 220 1 0.5897 0.5842885808778369 3.822643651447498 18.633697544821246 0 0 0
658 220 2 -1.1794 0.9923102466395475 3.8315617909060977 17.767990789349756 0 0 0
665 222 1 0.5897 2.8044935095404333 3.8224753994472023 17.62863103632433 0 0 0
657 219 1 0.5897 6.487472224332551 4.140225167078504 18.915466546138543 0 0 0
702 234 1 0.5897 9.65938177772799 4.096095948463508 17.765981580126805 0 0 0
676 226 2 -1.1794 5.747182907518197 0.6280070125911008 18.74801983739236 0 0 0
694 232 2 -1.1794 7.9484569526442534 4.093884279178107 17.770415566403948 0 0 0
695 232 1 0.5897 7.5751928032689495 3.586225689149461 17.04997045354301 0 0 0
708 236 1 0.5897 7.70229510065762 0.7193184515674861 18.576999917339606 0 0 0
706 236 2 -1.1794 8.633853119858168 0.856682754082053 18.748613323097004 0 0 0
689 230 1 0.5897 9.824580093208313 0.984709714084057 17.22487637835186 0 0 0
660 220 1 0.5897 0.5599418529145668 4.549996126041063 17.306369008014638 0 0 0
679 227 2 -1.1794 0.1949190842544969 1.665551256874061 16.147184906183206 0 0 0
36 12 1 0.5897 5.051079393695865 3.2032936784856276 20.405121522342114 0 0 -1
711 237 1 0.5897 9.489126905770174 4.589696091719714 20.440148615119508 0 0 0
2 1 1 0.5897 2.508834600726001 3.3620938295884075 20.845538455118866 0 0 -1
37 13 2 -1.1794 9.192835165239119 2.6855450766367035 20.68568254635845 0 0 -1
1 1 2 -1.1794 2.4628467197418504 2.4069314685091356 20.887868150594286 0 0 -1
34 12 2 -1.1794 5.169169997568527 2.343629689484107 20.80915225935007 0 0 -1
3 1 1 0.5897 3.3742402215394236 2.120012787342892 20.83132879283775 0 0 -1
715 239 2 -1.1794 7.098415270628017 2.4577297567111454 15.728503211760474 0 0 0
884 295 1 0.5897 0.26588045032357055 -0.0847071563771209 15.684059622118625 0 1 0
716 239 1 0.5897 7.382416532991565 1.5437274462306638 15.742874517841459 0 0 0
19 7 2 -1.1794 0.4260906565504513 6.0917545340516135 1.7695865208136419 0 0 0
674 225 1 0.5897 1.7198037822768695 5.638524500949901 0.3550233039589257 0 0 1
149 50 1 0.5897 9.912134174543466 7.821462345371204 4.088468591706928 0 0 0
710 237 1 0.5897 8.76615566690782 5.589192121920712 0.20368360181569112 0 0 1
56 19 1 0.5897 6.607199636454789 5.933262065140081 1.638003886977554 0 0 0
15 5 1 0.5897 4.370505645390693 6.586488096315872 2.1345834909735637 0 0 0
177 59 1 0.5897 8.341443799795531 9.306012990733915 1.38210803357778 0 0 0
14 5 1 0.5897 3.917557763278464 5.8577163261313885 0.8875082601340019 0 0 0
112 38 2 -1.1794 4.3464155116420535 8.115848545708147 3.4238971487349668 0 0 0
20 7 1 0.5897 0.44080330945190305 5.307182610515274 2.3176862405709535 0 0 0
114 38 1 0.5897 3.462618725098172 8.176563554367235 3.7862728038753475 0 0 0
141 47 1 0.5897 1.0965771081966287 7.814576015674603 1.8727267545527138 0 0 0
176 59 1 0.5897 7.782113805722359 7.964151310866173 1.8046008760766261 0 0 0
140 47 1 0.5897 1.2577905253828667 9.23929726747662 2.358647353622539 0 0 0
55 19 2 -1.1794 7.559071945941795 6.026345853816782 1.675684892463318 0 0 0
13 5 2 -1.1794 4.659335388617217 5.944487671166133 1.4861036837840225 0 0 0
143 48 1 0.5897 6.268488142719387 8.851851077314446 0.9609427352864421 0 0 0
113 38 1 0.5897 4.918843682790542 8.088777504495297 4.190408877348318 0 0 0
110 37 1 0.5897 2.4249272327990075 9.01725909322077 0.27146013011158976 0 0 0
175 59 2 -1.1794 7.7110128402289675 8.902710041925571 1.978774458768315 0 0 0
139 47 2 -1.1794 1.360903923274429 8.687811290247867 1.5832075051869405 0 0 0
57 19 1 0.5897 7.807636179442611 5.61659789041286 2.504158468583418 0 0 0
673 225 2 -1.1794 2.4985948665033377 5.3556706400282605 -0.1241157602350391 0 0 1
145 49 2 -1.1794 9.558704772582459 9.77767789030097 0.3175779925544251 0 0 0
132 44 1 0.5897 0.9761498618836282 7.768000281368822 4.8627973726382185 0 0 0
130 44 2 -1.1794 1.9325162524406103 7.804505415202775 4.849484542342204 0 0 0
166 56 2 -1.1794 8.500015637868295 7.284484519378603 5.0181224072073745 0 0 0
111 37 1 0.5897 3.8123853991202075 9.44910615218551 -0.15297960836177893 0 0 0
142 48 2 -1.1794 5.673947766924784 9.148632314619984 0.2721135022980583 0 0 0
167 56 1 0.5897 8.764067902512954 6.522300438147165 5.5334206805419175 0 0 0
437 146 1 0.5897 4.376757385814771 7.314976455955112 9.569295769735895 0 0 0
25 9 2 -1.1794 2.0032630788995696 5.1976027553738 6.117655830415469 0 0 0
131 44 1 0.5897 2.209743479367318 6.977551976349206 5.243825014609135 0 0 0
339 113 1 0.5897 4.446897697529696 6.278519496044029 7.478482162663935 0 0 0
463 155 2 -1.1794 0.12680172217883118 8.592661315462033 9.27693407366158 0 0 0
435 145 1 0.5897 2.0823174206563357 9.081706428710953 6.186977889939512 0 0 0
337 113 2 -1.1794 4.742046880176076 6.033753656019769 8.35538853419231 0 0 0
469 157 2 -1.1794 9.053590702296393 9.184576608226578 7.180275526772682 0 0 0
438 146 1 0.5897 4.10852983325698 8.713535916402213 10.083132865859946 0 0 0
345 115 1 0.5897 0.2083728767107385 6.817939445170154 8.64203403295172 0 0 0
433 145 2 -1.1794 2.2573551593854573 9.449480829010346 7.053076571341571 0 0 0
464 155 1 0.5897 0.9255544436165948 8.789121422662188 8.787554495791227 0 0 0
338 113 1 0.5897 5.665644219018793 5.80873485501295 8.243672886286019 0 0 0
61 21 2 -1.1794 9.356931567209147 5.2711314666308 6.627101258804843 0 0 0
379 127 2 -1.1794 7.402077716375307 5.855896765161034 8.733837181193389 0 0 0
62 21 1 0.5897 8.659941748698671 5.508864604975384 7.238459417024344 0 0 0
137 46 1 0.5897 5.624477122477008 6.393585456993894 5.410041633472342 0 0 0
343 115 2 -1.1794 0.22738375409498546 5.982009206347349 8.176129036025381 0 0 0
500 167 1 0.5897 7.476176723812971 9.261090651038275 9.957537665541635 0 0 0
470 157 1 0.5897 8.673639802169154 9.043360976930238 8.047286481046573 0 0 0
501 167 1 0.5897 6.5865433734602385 8.881162421565492 8.793217371080145 0 0 0
466 156 2 -1.1794 5.316844660823683 9.249331026984747 7.433354001173166 0 0 0
499 167 2 -1.1794 7.268050433259289 8.535210540173287 9.369368899741277 0 0 0
380 127 1 0.5897 7.250737924315281 6.748932869462325 9.043413069373658 0 0 0
468 156 1 0.5897 4.362800644711694 9.304359868164298 7.3795871466016685 0 0 0
467 156 1 0.5897 5.532364209676336 8.411456776889079 7.023853479304709 0 0 0
26 9 1 0.5897 1.3376279872963612 5.510617399996791 6.7300244663869595 0 0 0
381 127 1 0.5897 7.410786829434172 5.324168360719432 9.529618990659912 0 0 0
344 115 1 0.5897 0.4522975400973277 5.337997667599679 8.847519281712705 0 0 0
168 56 1 0.5897 8.541185079492635 8.016398376985887 5.633567237404751 0 0 0
436 146 2 -1.1794 4.0760891174794605 7.792640493762197 10.342285338989091 0 0 0
136 46 2 -1.1794 5.883020150650527 7.286061260618776 5.640063029474424 0 0 0
138 46 1 0.5897 6.8028033197362445 7.3436141559856205 5.381575561066667 0 0 0
443 148 1 0.5897 0.9254672909609314 9.964071678786793 10.12950565815515 0 0 0
471 157 1 0.5897 9.992771151156743 9.274415894405648 7.341527579716621 0 0 0
757 253 2 -1.1794 2.711663356586681 8.734030969274835 14.019500142221368 0 0 0
533 178 1 0.5897 0.06098620453562589 7.13951176617202 12.125484094961989 1 0 0
456 152 1 0.5897 2.1391528562262376 6.203225505046516 12.591930561451626 0 0 0
668 223 1 0.5897 1.0174224572633952 5.353138053586729 14.960631911665704 0 0 0
759 253 1 0.5897 2.6720500602001955 8.09760148770376 13.305721992154897 0 0 0
491 164 1 0.5897 9.37138352373412 7.67622064312146 11.179247530158273 0 0 0
454 152 2 -1.1794 2.0747282044794293 7.050637907519677 12.15150933943229 0 0 0
455 152 1 0.5897 2.7112393751348502 6.99947454233385 11.438566025954625 0 0 0
790 264 2 -1.1794 5.474221930447658 9.153913210984298 13.91693810766207 0 0 0
791 264 1 0.5897 5.776846659645128 9.35395896080656 14.802596830366795 0 0 0
789 263 1 0.5897 1.37131189550605 8.322218987578601 15.296006708799158 0 0 0
705 235 1 0.5897 7.88948605057943 6.13871189941567 14.945369126560877 0 0 0
792 264 1 0.5897 4.53551132934937 8.994295152823009 14.014364730346768 0 0 0
387 129 1 0.5897 9.122461841917255 6.198726036361525 13.006933304141237 0 0 0
793 265 2 -1.1794 9.136221094533045 9.239996318313546 14.210880146748604 0 0 0
794 265 1 0.5897 9.058919153920053 8.627285847169919 13.479634705540844 0 0 0
462 154 1 0.5897 5.3846387626489145 7.329161606532887 11.476227189706883 0 0 0
460 154 2 -1.1794 5.975057371916925 7.07060460397876 12.183751595421207 0 0 0
385 129 2 -1.1794 9.493324524015824 5.702817138600725 13.736740178427029 0 0 0
461 154 1 0.5897 5.9990659819799825 7.8301006912174245 12.765783548932045 0 0 0
492 164 1 0.5897 7.91703489624599 7.712557037545849 11.5978147508471 0 0 0
351 117 1 0.5897 3.0674067657969712 5.074979731171949 14.441132611528563 0 0 0
490 164 2 -1.1794 8.805465745422092 7.667471963926949 11.951057716691622 0 0 0
333 111 1 0.5897 5.379584090350468 5.103343571348257 12.755954645034608 0 0 0
661 221 2 -1.1794 4.693026609462977 5.643036296685558 15.494471557705769 0 0 0
758 253 1 0.5897 2.39122953001893 9.548868187208985 13.632744393947132 0 0 0
704 235 1 0.5897 6.5055092525511045 5.814572539757269 15.466050791347724 0 0 0
667 223 2 -1.1794 0.32441230302660007 5.622780732018349 15.563208864638368 0 0 0
824 275 1 0.5897 7.944731646527661 9.089235010042099 15.473124699322534 0 0 0
144 48 1 0.5897 5.84491076239486 8.559451675162009 20.651417023937356 0 0 -1
823 275 2 -1.1794 7.332462432204923 8.80955616901332 16.153549808638147 0 0 0
760 254 2 -1.1794 4.546179650370408 7.864007384367305 17.29661270588954 0 0 0
762 254 1 0.5897 5.366474027099089 7.864215491859657 17.789735502369545 0 0 0
703 235 2 -1.1794 7.385533975744657 6.055949855280982 15.75481609413016 0 0 0
780 260 1 0.5897 3.204351590673056 7.435998750253795 18.40991229748995 0 0 0
779 260 1 0.5897 2.5756482031598833 7.922644470855344 19.69805335062946 0 0 0
778 260 2 -1.1794 2.550884864036338 7.201793297593203 19.068831840779094 0 0 0
761 254 1 0.5897 4.225579614519424 8.763443156709958 17.36375539877322 0 0 0
816 272 1 0.5897 9.013090234960961 8.453517096100367 20.009665771345546 0 0 0
786 262 1 0.5897 7.359851360854085 7.427112961584284 19.34657102208569 0 0 0
696 232 1 0.5897 7.880828664808492 5.004380628676156 17.482853800001465 0 0 0
825 275 1 0.5897 7.33620424305599 7.853736896561642 16.101685540074094 0 0 0
787 263 2 -1.1794 0.6528438528868014 8.272474422161489 15.92640128813752 0 0 0
109 37 2 -1.1794 2.90459718445137 9.41587818992079 20.659401528342723 0 0 -1
815 272 1 0.5897 9.390103138573462 6.988605968007326 19.94703819769252 0 0 0
814 272 2 -1.1794 9.086895873758133 7.7160993848726935 19.403910367908612 0 0 0
784 262 2 -1.1794 6.408064588499112 7.326008477646995 19.341308469368787 0 0 0
785 262 1 0.5897 6.265038586757013 6.392342764410698 19.496544556792802 0 0 0
675 225 1 0.5897 2.574906219040331 5.978450832286208 20.267043636173412 0 0 0
788 263 1 0.5897 0.865897554522245 8.932943820347262 16.585580761839932 0 0 0
858 286 1 0.5897 0.6464354264586074 7.418390708198564 18.584074752439122 1 0 0
663 221 1 0.5897 4.674332433233639 6.49893142493858 15.922640141076887 0 0 0
669 223 1 0.5897 0.5526356464109733 6.52033018832253 15.805218084248018 0 0 0
662 221 1 0.5897 4.594959316487167 5.014569469289222 16.20967443800238 0 0 0
709 237 2 -1.1794 9.56900961029477 5.468637825703197 20.81071805549214 0 0 0
122 41 1 0.5897 4.632403529670314 11.937122976395958 1.880241241376071 0 0 0
120 40 1 0.5897 1.0328436222400552 11.329286554403243 2.870061596959366 0 0 0
129 43 1 0.5897 0.6821998402531132 13.225280346093747 1.842098668311761 0 0 0
819 273 1 0.5897 8.53242721967601 12.682661994828862 0.38990831281928406 0 0 1
118 40 2 -1.1794 1.465491543994323 10.670296902670772 3.4129345707275913 0 0 0
222 74 1 0.5897 3.914370408495251 13.959194100458944 2.5529398729785786 0 0 0
123 41 1 0.5897 4.215340514182935 12.359762003044134 0.48787233936760077 0 0 0
121 41 2 -1.1794 4.836387259603287 12.564464812131952 1.186758007160359 0 0 0
119 40 1 0.5897 2.4003217748469057 10.816525499940239 3.26851986233669 0 0 0
127 43 2 -1.1794 0.6742380323112249 12.433817268964066 1.3038513102181184 0 0 0
220 74 2 -1.1794 4.065249990006892 14.498428816478388 3.329171074803457 0 0 0
783 261 1 0.5897 1.9973290821130356 12.412002905766647 0.061713343364629136 0 0 1
124 42 2 -1.1794 4.269977462186559 10.950262255706631 3.3016679802417577 0 0 0
240 80 1 0.5897 2.6124692532728773 14.335586276083932 4.306485979889065 0 0 0
125 42 1 0.5897 4.522643236363935 11.111032748424675 4.210668225542337 0 0 0
276 92 1 0.5897 9.433911980628391 14.343764895120739 4.527566356192744 0 0 0
154 52 2 -1.1794 7.9776534603825 10.644031068071957 4.072580541346291 0 0 0
246 82 1 0.5897 5.536664999187466 14.161833051836918 4.472395061186251 0 0 0
163 55 2 -1.1794 7.542269875445359 13.236028236144566 1.8517115970900218 0 0 0
164 55 1 0.5897 6.643476573411419 13.386751790918575 1.5592082589577265 0 0 0
165 55 1 0.5897 7.452336212822439 12.68619636211894 2.6299650028375345 0 0 0
146 49 1 0.5897 9.476240836424525 10.630459106110429 -0.10924221505715566 0 0 0
156 52 1 0.5897 8.916259251548968 10.827164857675939 4.032258633180409 0 0 0
188 63 1 0.5897 0.11710013929024404 11.292896770448035 5.009600817658576 1 0 0
817 273 2 -1.1794 9.301761603923035 12.474151725571934 -0.13985506133801234 0 0 1
238 80 2 -1.1794 1.828212816858721 14.200910575990388 4.83837026466044 0 0 0
155 52 1 0.5897 7.812142519099169 10.072824031005311 3.32263123659597 0 0 0
126 42 1 0.5897 4.4769548991107575 10.027311939338277 3.154701971382777 0 0 0
133 45 2 -1.1794 2.1620641327668713 12.290264303293894 6.754848318535636 0 0 0
134 45 1 0.5897 1.6295781754995793 12.648588603488156 7.46485606965976 0 0 0
135 45 1 0.5897 3.057441118916874 12.310670758768005 7.092496463179563 0 0 0
450 150 1 0.5897 4.1652849374202825 11.11511852680765 9.623568129033705 0 0 0
575 192 1 0.5897 5.918542080660256 15.022046818657051 6.488193741495931 0 0 0
446 149 1 0.5897 4.336048878634927 13.314933983224124 8.912471058137797 0 0 0
239 80 1 0.5897 2.062180101517909 13.490077188658422 5.4351433832168246 0 0 0
451 151 2 -1.1794 0.2637904287337865 12.88049421644126 8.878735686036425 0 0 0
445 149 2 -1.1794 4.431926368695903 12.476031355668756 8.461612953590269 0 0 0
170 57 1 0.5897 9.125930098644671 12.445521034360343 6.104185094864333 0 0 0
117 39 1 0.5897 5.673201564839932 10.59787387765166 6.497413433564714 0 0 0
171 57 1 0.5897 8.983577325672757 11.065126237392004 6.7093105427383195 0 0 0
453 151 1 0.5897 0.5630125449613134 12.251034605244419 9.53476506429087 0 0 0
245 82 1 0.5897 6.0136543657184705 13.120270839917566 5.461995877231406 0 0 0
487 163 2 -1.1794 7.12217060387861 12.546767506516954 8.878488045109476 0 0 0
489 163 1 0.5897 7.357236071191034 13.41479705938076 9.206383413784337 0 0 0
488 163 1 0.5897 7.7780966996467855 12.357966421914531 8.207564377032027 0 0 0
447 149 1 0.5897 5.372272468003639 12.395286057106572 8.302352702509708 0 0 0
480 160 1 0.5897 7.431634837361281 11.411142399874395 10.224264837128876 0 0 0
169 57 2 -1.1794 9.008041227685915 11.99387624476589 6.939753366133688 0 0 0
115 39 2 -1.1794 5.683920737123131 11.16624353316116 5.727390750011849 0 0 0
434 145 1 0.5897 2.287743189821514 10.395530022033729 6.910503838126584 0 0 0
244 82 2 -1.1794 6.244359951697531 13.970532392087735 5.08774278249924 0 0 0
573 191 1 0.5897 1.1281535487470642 14.895202244152074 9.3674620640468 0 0 0
274 92 2 -1.1794 9.013430676503493 14.080063951232859 5.345907615436995 0 0 0
317 106 1 0.5897 0.07208655687628368 14.28654838705977 5.485462612151981 1 0 0
544 182 2 -1.1794 4.201102488339608 14.701954899683008 10.227939289122263 0 0 0
275 92 1 0.5897 8.08008240140399 14.046925715840889 5.136379209643379 0 0 0
116 39 1 0.5897 6.492367874176234 10.9353133141776 5.2700055657249925 0 0 0
457 153 2 -1.1794 2.332611863748226 11.349236273177832 13.627636029863433 0 0 0
458 153 1 0.5897 1.6363146275649327 11.543732177163529 14.25486787035751 0 0 0
459 153 1 0.5897 3.1238390723791634 11.709500038050333 14.02801698102592 0 0 0
600 200 1 0.5897 8.675009041843909 14.62511971143578 12.210659613600592 0 0 0
563 188 1 0.5897 2.069036038259474 13.144260003714773 12.15167052552638 0 0 0
562 188 2 -1.1794 2.0398036798238928 14.032292979850654 11.795633243362902 0 0 0
442 148 2 -1.1794 1.1096228401646606 10.843739286262384 10.458928704014072 0 0 0
449 150 1 0.5897 4.302309087721132 10.987982123158975 11.125658376934474 0 0 0
441 147 1 0.5897 5.552077237108049 10.645921314619088 13.151177829081009 0 0 0
444 148 1 0.5897 2.0313010868528805 10.81578360583134 10.715557337961139 0 0 0
598 200 2 -1.1794 8.61294391132415 13.82990472252302 11.681525729314286 0 0 0
546 182 1 0.5897 4.859652126780961 14.359569550227164 10.832232728480905 0 0 0
642 214 1 0.5897 -0.008176351094602324 14.326837710136804 11.885954464864575 1 0 0
900 300 1 0.5897 5.561685026302255 14.86471322544242 13.671735344061918 0 0 0
568 190 2 -1.1794 5.972348663983669 13.939099461786327 12.247123738616724 0 0 0
493 165 2 -1.1794 9.332143228057417 11.998088773654755 13.635128564875576 0 0 0
440 147 1 0.5897 6.500962010651849 11.158936364044862 12.08921516263085 0 0 0
599 200 1 0.5897 8.874036393944257 13.125683351386606 12.27487429685939 0 0 0
439 147 2 -1.1794 5.682703249105821 11.369765078101809 12.538771784085649 0 0 0
570 190 1 0.5897 6.907213188258636 14.099197186179731 12.118586889471409 0 0 0
494 165 1 0.5897 8.696343653478062 12.220403108024861 14.315131334746157 0 0 0
569 190 1 0.5897 5.905320733551695 12.991777836877263 12.366916071241588 0 0 0
770 257 1 0.5897 5.746025888096833 12.649869815409316 15.279490662787174 0 0 0
448 150 2 -1.1794 3.927776449627401 10.552165223966206 10.360282596869839 0 0 0
769 257 2 -1.1794 4.806416305084731 12.473925355596661 15.231284112884135 0 0 0
479 160 1 0.5897 8.658871562787112 10.79338051200564 10.859733333380706 0 0 0
478 160 2 -1.1794 7.703083045550195 10.743154249122219 10.853743957269543 0 0 0
545 182 1 0.5897 3.365374661037257 14.416017813818463 10.596583289766494 0 0 0
795 265 1 0.5897 9.093496268336791 10.10555119100211 13.80445458960786 0 0 0
564 188 1 0.5897 2.1177999975078015 14.600787096083252 12.561678601086143 0 0 0
512 171 1 0.5897 -0.04379354580371597 11.356383556124053 11.878904722463746 1 0 0
811 271 2 -1.1794 7.490855902451861 12.859930605673902 15.404581667676386 0 0 0
774 258 1 0.5897 4.345462609959036 10.95653234333206 16.63919721040921 0 0 0
768 256 1 0.5897 1.0875843473550886 11.13206197805786 16.953384597487624 0 0 0
888 296 1 0.5897 2.346429598057245 13.68578835086304 19.207460786385113 0 0 0
818 273 1 0.5897 9.222516850565679 13.037072854524475 20.204082289036226 0 0 0
886 296 2 -1.1794 2.05508253387983 14.502733807728037 18.802565508145076 0 0 0
777 259 1 0.5897 0.8723445404373511 13.123194578524373 15.77365770360334 0 0 0
965 322 1 0.5897 0.2837061737101124 14.291472879957702 18.89839594408898 1 0 0
773 258 1 0.5897 3.1178686539203304 10.470020022039616 17.379413195545894 0 0 0
772 258 2 -1.1794 4.0684696718171915 10.548243208342107 17.45931292002351 0 0 0
813 271 1 0.5897 7.513382844175417 12.362696832818816 16.222078158997032 0 0 0
766 256 2 -1.1794 1.2473774426096353 10.394161935676701 17.541711072256902 0 0 0
781 261 2 -1.1794 2.624046503832989 12.237119145226648 20.4737522044681 0 0 0
804 268 1 0.5897 7.673127952920299 10.433558817244165 17.29755400624344 0 0 0
763 255 2 -1.1794 5.688517136826728 11.796625303019116 19.45144616822442 0 0 0
764 255 1 0.5897 5.111424311177365 11.388499562307418 18.806083165900837 0 0 0
869 290 1 0.5897 3.1271886617194853 14.76574517686355 17.4163336324648 0 0 0
765 255 1 0.5897 5.597792152168196 11.25158261178857 20.232972973613773 0 0 0
812 271 1 0.5897 7.534313420838573 13.775835390054484 15.679351858348522 0 0 0
892 298 2 -1.1794 6.1146919831490525 14.404177522102243 18.81862664040762 0 0 0
922 308 2 -1.1794 8.927604663598203 14.313732541452811 18.932304316082092 0 0 0
802 268 2 -1.1794 7.803419749462572 11.255833708696453 17.769880299119496 0 0 0
803 268 1 0.5897 7.160763632048896 11.22979577577899 18.478657554845963 0 0 0
893 298 1 0.5897 7.0590615741064635 14.391395377074499 18.663271392410604 0 0 0
870 290 1 0.5897 4.53065857677075 14.216799854296738 17.559998925283963 0 0 0
894 298 1 0.5897 5.937403873945628 13.588181749540146 19.286529887655014 0 0 0
767 256 1 0.5897 0.6694552519240811 10.552850461065194 18.28794631770877 0 0 0
924 308 1 0.5897 9.577355218186032 14.369311928573936 18.231765391202746 0 0 0
868 290 2 -1.1794 3.933970568874403 14.612366489804495 16.9247254744255 0 0 0
810 270 1 0.5897 9.654758121457528 11.03993428570457 17.907376300636045 0 0 0
782 261 1 0.5897 2.6044539458295017 11.286182599938915 20.365919953883417 0 0 0
771 257 1 0.5897 4.398437428179334 13.233344579086504 15.647261772758291 0 0 0
775 259 2 -1.1794 0.4835853208982118 12.256984828210086 15.651982772004521 0 0 0
247 83 2 -1.1794 0.9804808215815375 15.190252959581509 1.9644204601615072 0 0 0
224 75 1 0.5897 4.87793459636853 17.739430036207487 4.971143212927633 0 0 0
233 78 1 0.5897 4.170798765159075 17.741203646585284 2.6555423079745166 0 0 0
890 297 1 0.5897 1.7009579451672954 19.018954909698948 0.038619898411621945 0 0 1
263 88 1 0.5897 7.150519770226426 17.895134928984355 4.3055878081022785 0 0 0
271 91 2 -1.1794 7.228614632026155 19.698707020052346 1.6463759007755363 0 0 0
232 78 2 -1.1794 3.894476802726306 17.222038277259422 3.41064659924047 0 0 0
264 88 1 0.5897 8.573631360486857 17.838688253813473 3.792589359567094 0 0 0
230 77 1 0.5897 3.9603480117710665 19.2392979602867 0.449436510022042 0 0 0
927 309 1 0.5897 8.695596036764803 19.56843912890141 0.5591253422401387 0 0 1
226 76 2 -1.1794 1.4144433115413444 17.809736156260676 3.7443218517524324 0 0 0
227 76 1 0.5897 1.2135438572011001 18.332439229756744 2.968139889976313 0 0 0
234 78 1 0.5897 2.9700016911509457 17.440972499733682 3.527008505814754 0 0 0
228 76 1 0.5897 0.6066070799293602 17.821910775232254 4.257446166962458 0 0 0
248 83 1 0.5897 1.1710198601998543 15.730554578945274 2.731126602127943 0 0 0
235 79 2 -1.1794 0.5516656520139307 18.95730941748372 1.3192705653090984 0 0 0
250 84 2 -1.1794 5.466749044916881 15.986233884436908 -0.14145476041239807 0 0 0