LAMMPS data file via write_data, version 30 Jul 2021, timestep = 12500000

1008 atoms
2 atom types
672 bonds
1 bond types
336 angles
1 angle types

-3.2703485299438295 14.880347529499277 xlo xhi
-0.17911437025142618 22.759113370249523 ylo yhi
-0.0926973927403889 19.322695392736453 zlo zhi
-0.11247370827374248 -7.16671780311068 0.09717412832161526 xy xz yz

Masses

1 1.008
2 15.999

Pair Coeffs # lj/cut/tip4p/long/omp

1 0 0
2 0.21084 3.1668

Bond Coeffs # harmonic/omp

1 450 0.9572

Angle Coeffs # harmonic/omp

1 55 104.52

Atoms # full

122 41 1 0.5897 -2.8182019045035314 2.1654265337521847 1.3112911389682198 1 0 0
158 53 1 0.5897 -4.775766178069256 4.638152943879529 4.239630972947768 1 0 0
56 19 1 0.5897 -1.323906765407076 3.9827681518852325 2.6174930947316835 0 0 0
86 29 1 0.5897 -2.4603972030406065 1.4860354165425333 3.586940251622844 1 0 0
55 19 2 -1.1794 -0.6389464349077656 4.3971300111153075 3.142418978936199 0 0 0
123 41 1 0.5897 -3.59313439437104 3.000090568501254 2.308730915351156 1 0 0
121 41 2 -1.1794 -2.7131654128675082 2.6783172791326755 2.1127328705795225 1 0 0
87 29 1 0.5897 -3.4208036851494765 1.0745560373818535 4.682415679885381 1 0 0
57 19 1 0.5897 0.1410198227301689 4.363852886450759 2.5885760485701517 0 0 0
114 38 1 0.5897 -3.4983044406056027 5.282561300143438 1.8280608331124721 1 0 0
482 161 1 0.5897 -1.2815707218232595 0.17655483951414724 0.9726995985381217 1 1 0
85 29 2 -1.1794 -2.492022786510356 1.226679041213845 4.507827306795611 1 0 0
602 201 1 0.5897 -0.6918535044306573 5.273128238192228 0.2055911282664435 1 0 1
134 45 1 0.5897 -2.560224385696277 2.45232909112034 6.006102412719409 1 0 0
135 45 1 0.5897 -1.7539507897622415 3.57484558229726 6.6243298914663775 1 0 0
669 223 1 0.5897 -5.288261497086467 1.7013064416120822 8.654462807078712 1 0 0
159 53 1 0.5897 -3.565204051392328 4.6897123191463 5.147539810270269 1 0 0
67 23 2 -1.1794 -2.7398738334347086 0.526229542368879 8.05843925151425 0 0 0
69 23 1 0.5897 -3.120122193152688 1.1298754653210623 8.696677822401098 0 0 0
133 45 2 -1.1794 -2.641724258374401 3.340647978751319 6.353435056324268 1 0 0
126 42 1 0.5897 -4.390294347551656 3.041486691243267 6.910123634627991 1 0 0
124 42 2 -1.1794 -5.206465847065858 2.5602511159803973 7.0462519428001835 1 0 0
97 33 2 -1.1794 -4.516839462597636 4.51440113793508 9.364937813781816 1 0 0
98 33 1 0.5897 -4.617482505320671 5.0928623056817734 8.608932441256181 1 0 0
68 23 1 0.5897 -3.492183813350928 0.0684415087538505 7.683133070006576 0 0 0
125 42 1 0.5897 -5.88963156709513 3.2294772536771097 7.003657028822585 1 0 0
667 223 2 -1.1794 -5.513111273887082 1.087615345753119 9.353787257155073 1 0 0
157 53 2 -1.1794 -4.251513720488639 5.239317654354139 4.768939546176925 1 0 0
561 187 1 0.5897 -4.719905722583924 3.5620691946521514 12.308837629655137 0 0 0
559 187 2 -1.1794 -4.166208196574247 4.1409089429041375 12.833029349827545 0 0 0
625 209 2 -1.1794 -6.140038077415197 2.598743263611463 11.713416149991279 1 0 0
668 223 1 0.5897 -5.939277907830003 1.6278646526019958 10.019210174725147 1 0 0
591 197 1 0.5897 -5.5426430753872244 0.3225024144028472 14.073073462240519 1 0 0
589 197 2 -1.1794 -6.2207195588435376 0.9972488781742146 14.10926590356975 1 0 0
626 209 1 0.5897 -6.163323590683498 1.9095121835480886 12.377274839460013 1 0 0
524 175 1 0.5897 -3.2414707563866556 3.1781225290090656 9.754067834555864 0 0 0
627 209 1 0.5897 -6.954744010467742 3.084384775797208 11.842822195406026 1 0 0
606 202 1 0.5897 -6.608987862751427 4.717242248975144 9.981566216568963 1 0 0
662 221 1 0.5897 -8.114960692589197 4.490212927682528 14.041874821772764 1 0 0
523 175 2 -1.1794 -2.6928710024406906 2.4704805577390694 10.09271049375357 0 0 0
99 33 1 0.5897 -4.240889953201766 5.09366257028112 10.075375730094606 1 0 0
986 329 1 0.5897 -4.569293348579547 -0.08492763376212314 10.477200569947852 1 1 0
20 7 1 0.5897 -6.0045727783078515 2.364412370910389 18.480990505446513 0 0 -1
630 210 1 0.5897 -8.702463450638072 1.853908418377129 16.14826275550181 1 0 0
637 213 2 -1.1794 -5.9523552695020285 3.2163965321017534 15.848604378716187 1 0 0
572 191 1 0.5897 -7.082691550901771 0.1353740715988223 17.38731703743253 0 0 0
639 213 1 0.5897 -6.335859340973604 3.8541400604594616 15.246435486666675 1 0 0
164 55 1 0.5897 -9.192227914937416 1.8028644478454123 18.420020063804103 1 0 -1
638 213 1 0.5897 -6.703638471490862 2.826062039973485 16.295096033854783 1 0 0
628 210 2 -1.1794 -8.52996633941005 2.409155919625043 16.908760095454348 1 0 0
165 55 1 0.5897 -10.010390218034921 0.6361824838897601 18.931300107605445 1 0 -1
571 191 2 -1.1794 -6.3201847417947725 0.578619331415115 17.759502207378638 0 0 0
573 191 1 0.5897 -6.032581135422105 0.00553064950324092 18.47029078555108 0 0 0
603 201 1 0.5897 -7.27571314462994 4.0590033739849565 19.13826307407188 1 0 0
629 210 1 0.5897 -8.987351116863142 3.2278975069502973 16.71681945377501 1 0 0
614 205 1 0.5897 -8.034947103636565 5.558523854892718 17.316881217499656 1 0 0
601 201 2 -1.1794 -8.05130093845348 4.615296031960389 19.06493228183247 1 0 0
101 34 1 0.5897 -10.01801285190654 4.2643383332961236 19.11059685340799 1 0 -1
163 55 2 -1.1794 -9.523710811659784 1.4061923978140027 19.225611286806476 1 0 -1
590 197 1 0.5897 -5.808444560229857 1.7272794642204174 14.571279666670927 1 0 0
593 198 1 0.5897 -8.143624279002356 0.7022227107018737 14.483044882131619 1 0 0
661 221 2 -1.1794 -7.519860529792831 5.102482127329124 14.474733583691568 1 0 0
290 97 1 0.5897 -2.1516423800720426 10.6118651519359 2.527504596157169 1 0 0
146 49 1 0.5897 -1.1476993236740336 6.41010825103168 1.9424676220329236 1 0 0
332 111 1 0.5897 -2.0746714820693777 9.327058318871346 0.6964255185920307 1 0 0
289 97 2 -1.1794 -2.721715076375508 9.874209294015511 2.310139649403966 1 0 0
145 49 2 -1.1794 -0.4722522370443567 6.701688922016673 1.3301540155566862 1 0 0
113 38 1 0.5897 -3.4984931810393007 6.06511127605421 3.1241559021386616 1 0 0
147 49 1 0.5897 -0.9080762572702903 7.358604020858135 0.7870895659349831 1 0 0
255 85 1 0.5897 -2.544341681065207 8.404556568501672 3.776255180376455 1 0 0
112 38 2 -1.1794 -3.1546578629276176 6.080048018264028 2.2309676719931937 1 0 0
291 97 1 0.5897 -3.593172591023204 10.153659705238383 2.590668760188001 1 0 0
253 85 2 -1.1794 -2.5648907523754616 8.300242835546634 4.727569141648372 1 0 0
187 63 2 -1.1794 0.8544143566318043 10.398093441891222 0.2648679077836456 0 0 0
8 3 1 0.5897 -1.0460743587191699 5.689783020719384 4.441679084015705 0 0 0
331 111 2 -1.1794 -1.8211446229236814 8.739904386842973 -0.01583585203643971 1 0 0
224 75 1 0.5897 -0.9454570171247343 10.874756320382428 3.960324540599279 0 0 0
189 63 1 0.5897 0.7669498622227469 9.80012394715812 1.0072036345813289 0 0 0
110 37 1 0.5897 -4.740266847431918 6.144498026550577 6.256074781226445 1 0 0
237 79 1 0.5897 -2.8317862551926067 8.604643021219895 8.489400320197602 0 0 0
111 37 1 0.5897 -5.535701588356169 7.005004793761355 7.214662333966846 1 0 0
294 98 1 0.5897 -4.541928095966067 10.03633233849906 8.343124783871534 1 0 0
292 98 2 -1.1794 -4.675681345539022 10.416375395045351 7.47478714004304 1 0 0
236 79 1 0.5897 -3.3818459920525674 7.3258569602624535 7.8940228512263815 0 0 0
293 98 1 0.5897 -3.79164775717072 10.562884148004935 7.138295750936597 1 0 0
302 101 1 0.5897 -2.2661777742855502 9.74655707752844 5.7933616758773985 1 0 0
301 101 2 -1.1794 -2.2919836591871943 10.65869488237115 6.082736519205159 1 0 0
235 79 2 -1.1794 -2.562161838149863 7.789170035673827 8.066686246264423 0 0 0
109 37 2 -1.1794 -4.754765012752433 6.453908193045765 7.161838962905074 1 0 0
303 101 1 0.5897 -1.5723976368598813 10.732021155457861 6.70982461806978 1 0 0
837 279 1 0.5897 -6.061475434358103 8.456725031765421 9.112286945900742 1 0 0
258 86 1 0.5897 -5.184784054244778 9.356436602465186 6.0331496643451885 1 0 0
257 86 1 0.5897 -4.592512735808858 8.242316642347095 5.196398543638654 1 0 0
254 85 1 0.5897 -2.0114211705166447 7.537886545793173 4.8974649209125 1 0 0
7 3 2 -1.1794 -0.9154755607845142 6.271353747289698 5.1907623141613985 0 0 0
691 231 2 -1.1794 -2.659936713875119 10.269828488628768 9.363365916520374 0 0 0
650 217 1 0.5897 -3.8452888904510956 7.219392592743961 11.561635976512216 1 0 0
794 265 1 0.5897 -6.041156922770892 10.495545024072888 12.330702268029334 1 0 0
616 206 2 -1.1794 -7.01689545845027 6.446448400920379 12.077529704566674 1 0 0
759 253 1 0.5897 -6.5042851030779705 8.57980299277532 13.689411844752907 1 0 0
649 217 2 -1.1794 -4.401242187028673 6.62090850054083 11.062493550543312 1 0 0
617 206 1 0.5897 -7.717618277769212 7.091452633352976 11.980965501476478 1 0 0
651 217 1 0.5897 -5.231032392500273 6.610090882558368 11.539473434623734 1 0 0
795 265 1 0.5897 -6.400177908064857 9.408379589631076 11.339969972889822 1 0 0
793 265 2 -1.1794 -6.648889733172984 9.7692568228671 12.190978401420887 1 0 0
513 171 1 0.5897 -4.443582630857622 5.742740580544616 14.02580469473762 0 0 0
836 279 1 0.5897 -5.012965655404898 8.069193702249674 10.133405393219762 1 0 0
618 206 1 0.5897 -7.238333709918467 5.756105728420879 11.45237855435162 1 0 0
835 279 2 -1.1794 -5.462459295023843 8.827586935314727 9.760394260546036 1 0 0
663 221 1 0.5897 -7.247788891517173 5.703493170001565 13.78120404420644 1 0 0
693 231 1 0.5897 -2.8352923036336724 9.892543041149287 10.225435484179041 0 0 0
798 266 1 0.5897 -9.061018287407219 9.793013946849912 16.506367084660695 1 0 0
758 253 1 0.5897 -6.100345116745322 8.66328881087304 15.146162797960452 1 0 0
739 247 2 -1.1794 -6.23867903200685 8.093172268657087 17.847003567402382 0 0 0
741 247 1 0.5897 -6.59515478860384 8.857375521655975 18.300090088144884 0 0 0
796 266 2 -1.1794 -8.700098978746496 10.440966343687704 17.111615793510794 1 0 0
613 205 2 -1.1794 -8.090852759946788 6.307289684216 16.723118599769414 1 0 0
805 269 2 -1.1794 -6.0156063443784635 10.524275569634208 15.791689070407656 1 0 0
740 247 1 0.5897 -7.007526912930045 7.635765740454792 17.506422580827845 0 0 0
512 171 1 0.5897 -5.174858957717527 6.910782154336542 14.652810994226309 0 0 0
333 111 1 0.5897 -9.005520011684268 9.38780057531994 18.616802782347165 1 0 -1
797 266 1 0.5897 -7.823875529037682 10.624111221312287 16.772678659518697 1 0 0
615 205 1 0.5897 -7.8540380419489235 5.952255686875667 15.866292692450093 1 0 0
807 269 1 0.5897 -5.373875484469769 10.975397293161418 16.340419679947843 1 0 0
511 171 2 -1.1794 -4.373135865084374 6.3927070758267615 14.725076777813145 0 0 0
762 254 1 0.5897 -8.225118380664362 8.479380716890647 14.938926119651935 1 0 0
757 253 2 -1.1794 -6.514725279629844 8.082920188271629 14.507500745340753 1 0 0
654 218 1 0.5897 -10.218763878757127 7.35863769464395 18.718834062303024 1 0 0
806 269 1 0.5897 -6.477175878379185 11.227442306038702 15.334633548463007 1 0 0
280 94 2 -1.1794 -3.734733021712832 14.06938255329053 2.6547083755785232 1 0 0
223 75 2 -1.1794 -0.9332637029544344 11.637493922389599 3.382047365559628 0 0 0
314 105 1 0.5897 -2.0380865969220467 14.52980166630085 2.285463475928309 1 0 0
500 167 1 0.5897 -1.708196899618007 15.749235065745726 0.5264489457587517 1 0 0
270 90 1 0.5897 -2.8333020572084315 12.274630018304869 0.2248739643912323 1 0 0
282 94 1 0.5897 -3.7124109166872343 13.48251567203813 3.4106038491899886 1 0 0
313 105 2 -1.1794 -1.1503167408391861 14.550510038284466 1.9281659334818735 1 0 0
315 105 1 0.5897 -1.0140101811580728 13.67207955436338 1.572952964958263 1 0 0
225 75 1 0.5897 -1.0573841446933372 12.384628423555789 3.9675136985189328 0 0 0
423 141 1 0.5897 -2.712441412329696 16.418303797141153 4.314157395348281 1 0 0
281 94 1 0.5897 -3.6688714726929805 13.48772440783498 1.897282918008293 1 0 0
769 257 2 -1.1794 -1.0439842324361774 12.310640682363388 0.30196725816871695 1 0 1
771 257 1 0.5897 -0.3481297734721771 11.653243603093758 0.30277900635583604 1 0 1
499 167 2 -1.1794 -2.2621177011520466 16.48363088048253 0.2614183400037926 1 0 0
327 109 1 0.5897 -4.209650705998156 12.918439841396586 5.829316615644693 1 0 0
403 135 2 -1.1794 -2.9679588475819303 15.35845527038537 8.105633955672534 0 0 0
175 59 2 -1.1794 -1.0530458449873388 13.673706431092288 5.209755896058304 0 0 0
267 89 1 0.5897 -4.18467414538981 13.041882049755856 8.887541418793102 1 0 0
277 93 2 -1.1794 -4.987438800062352 13.671739504196566 7.4601467021995775 1 0 0
278 93 1 0.5897 -4.292786161635321 14.324650725747148 7.546737029746203 1 0 0
326 109 1 0.5897 -3.318115691598786 11.842533293606555 5.246441925937111 1 0 0
405 135 1 0.5897 -3.221792214125657 16.06740425886297 8.696674857259628 0 0 0
404 135 1 0.5897 -2.1418323909332297 15.651098634505404 7.720826694846978 0 0 0
176 59 1 0.5897 -1.6682808693411468 14.40676166823974 5.187396559954762 0 0 0
279 93 1 0.5897 -5.768764248074625 14.105827187738736 7.802722893789939 1 0 0
422 141 1 0.5897 -2.797945357972087 16.629441880786707 5.810888540092751 1 0 0
421 141 2 -1.1794 -2.750628152494607 15.943755906795264 5.144601461466766 1 0 0
425 142 1 0.5897 -4.569598639742222 15.955952605667918 5.335245036458596 1 0 0
325 109 2 -1.1794 -4.002476085591601 12.468733024484779 5.0100653948642915 1 0 0
1004 335 1 0.5897 -5.994902622773372 16.809216008303647 9.238907837818596 1 0 0
462 154 1 0.5897 -5.460275035340711 16.896900809345905 6.800592167541059 1 0 0
266 89 1 0.5897 -3.560937316199664 11.834038122654768 9.554143906791731 1 0 0
729 243 1 0.5897 -4.807738224469114 12.31197378394879 13.632841523731605 0 0 0
819 273 1 0.5897 -4.289616413300687 14.105963321385556 10.614275377356176 1 0 0
831 277 1 0.5897 -8.339232389715665 12.28654113062346 14.313217193795902 1 0 0
774 258 1 0.5897 -5.565350654719461 12.008459342998536 9.956328892162333 1 0 0
818 273 1 0.5897 -5.155731385965092 14.492259993128002 11.794318643948998 1 0 0
784 262 2 -1.1794 -6.79484794861231 14.04677108035102 12.362522594747277 1 0 0
1005 335 1 0.5897 -5.552712858767746 16.145682175454606 10.525928605216682 1 0 0
786 262 1 0.5897 -6.965738405415548 13.85460016487473 13.284532349095953 1 0 0
817 273 2 -1.1794 -4.463767300332959 14.824412677951141 11.222444525648923 1 0 0
1003 335 2 -1.1794 -6.33171812460364 16.447856245174822 10.05877531614934 1 0 0
727 243 2 -1.1794 -4.7361116989007614 11.620309738866148 12.974920686565321 0 0 0
265 89 2 -1.1794 -3.9682436516954604 12.678721517958971 9.746397332752624 1 0 0
785 262 1 0.5897 -7.561682613043613 14.542102278843272 12.074381030825872 1 0 0
728 243 1 0.5897 -3.859465656719941 11.729524901356065 12.606437803124035 0 0 0
773 258 1 0.5897 -6.558564402769014 12.212753340654777 11.08044824428418 1 0 0
772 258 2 -1.1794 -6.497837804270679 11.945743200884133 10.163196418766077 1 0 0
907 303 2 -1.1794 -6.481824314596125 15.69653881103122 18.006090116976864 0 0 0
679 227 2 -1.1794 -4.571719046604867 14.066326289328543 14.81552659601681 0 0 0
770 257 1 0.5897 -8.051272427124914 12.925199398755478 18.927958203482284 1 0 0
830 277 1 0.5897 -7.934297210090157 13.029741467452821 15.5686043125839 1 0 0
783 261 1 0.5897 -7.7272294953386576 14.594911833444566 17.288301975216378 1 0 0
781 261 2 -1.1794 -8.307066400372845 13.833271622480256 17.287819025963906 1 0 0
909 303 1 0.5897 -6.143275089866055 15.050118099680846 18.625673835958374 0 0 0
927 309 1 0.5897 -6.178400542481167 16.990708068768207 15.352400857866224 1 0 0
782 261 1 0.5897 -9.188701642219616 14.202843014206302 17.337242010516583 1 0 0
926 309 1 0.5897 -5.52336743573988 15.783451400509596 14.715459512974789 1 0 0
908 303 1 0.5897 -5.703669820103629 16.034692019700017 17.56300189702381 0 0 0
930 310 1 0.5897 -8.113986151222894 16.09699203004431 14.844745502519377 1 0 0
501 167 1 0.5897 -8.947916669403618 16.99859191042534 18.96242195123314 1 0 -1
925 309 2 -1.1794 -6.289775703796964 16.35296560206468 14.647214775664834 1 0 0
829 277 2 -1.1794 -7.582057449523062 12.673427454999638 14.752989516616763 1 0 0
965 322 1 0.5897 -8.721707151595087 17.090847031613826 16.613969929714493 1 0 0
448 150 2 -1.1794 -3.6761090383512363 21.649422569558194 2.4946088819814296 1 0 0
391 131 2 -1.1794 -0.8549114945991079 19.626366715404494 3.4068327202790667 0 0 0
355 119 2 -1.1794 0.7691116982279791 18.028585776912493 0.41852478529717807 0 0 0
938 313 1 0.5897 -0.7611914622359293 20.54435902185787 0.7909714996296757 1 0 1
495 165 1 0.5897 -3.8020101671986657 20.639243862578116 3.960880962490842 1 0 0
393 131 1 0.5897 -0.7981585512855709 20.40277266006018 3.96394255117431 0 0 0
483 161 1 0.5897 -1.7977115384280171 22.393041698091345 2.2407864643999487 1 0 0
457 153 2 -1.1794 -3.0240527203624135 17.693716388447065 2.6845496564062765 1 0 0
459 153 1 0.5897 -2.5386001069053927 18.48945976970839 2.9025075908464943 1 0 0
449 150 1 0.5897 -3.7022112394688804 20.982035935695126 1.8088177431447974 1 0 0
481 161 2 -1.1794 -1.0312140188540107 22.672308984454464 1.7401398100247332 1 0 0
392 131 1 0.5897 -0.7483156929768366 18.89027437333399 4.009422120602991 0 0 0
437 146 1 0.5897 -2.8278573166559493 19.926583023206444 0.09067750149817658 1 0 0
939 313 1 0.5897 -0.31832055475512977 19.25590564260671 0.13065131194068283 1 0 1
458 153 1 0.5897 -2.6459718370196654 17.40141388327524 1.8551774776859082 1 0 0
493 165 2 -1.1794 -4.018954155614422 20.12080507018432 4.735741198834686 1 0 0
356 119 1 0.5897 0.41887112922777714 17.19601538455754 0.10143512710388208 0 0 0
937 313 2 -1.1794 -0.9480561655708013 19.97198677207821 0.04673529110782054 1 0 1
494 165 1 0.5897 -4.41061575092205 20.74890600744099 5.342722578546344 1 0 0
447 149 1 0.5897 -5.68890272344532 21.94034387729654 7.064609300288288 1 0 0
471 157 1 0.5897 -3.7545100205807023 18.15965570787859 7.122014173677333 1 0 0
470 157 1 0.5897 -3.018723980209503 18.940931991197587 6.054304249631822 1 0 0
445 149 2 -1.1794 -4.763651850825415 21.76150425961767 6.896614434280876 1 0 0
446 149 1 0.5897 -4.537551239813156 21.065919380529436 7.514198262127026 1 0 0
460 154 2 -1.1794 -5.489835713884508 17.38197392614328 7.625335566317418 1 0 0
469 157 2 -1.1794 -2.904053934203334 18.233640058939084 6.6890493697432545 1 0 0
344 115 1 0.5897 -1.1337420971297116 21.586326703344984 5.625245012016845 0 0 0
860 287 1 0.5897 -3.3067457372367564 18.523170713201072 9.597453796563903 0 0 0
461 154 1 0.5897 -6.114523436151215 18.08948106654159 7.465365090444121 1 0 0
433 145 2 -1.1794 -4.4220845770214385 19.888448212118533 8.982450723236594 1 0 0
435 145 1 0.5897 -5.378543856416268 19.92110060383348 9.002097071305407 1 0 0
434 145 1 0.5897 -4.146100080653813 20.56094689982548 9.605338731427613 1 0 0
343 115 2 -1.1794 -0.9895519821762138 22.023801937899595 4.786152007664274 0 0 0
345 115 1 0.5897 -1.602645648357906 22.75898352623964 4.790223962135912 0 0 0
941 314 1 0.5897 -6.992445982535932 20.47955695544064 10.454521388005517 1 0 0
985 329 2 -1.1794 -4.246822488360674 22.18466481738361 11.00647854733747 1 0 0
848 283 1 0.5897 -4.395030004677974 20.922191187256914 13.830473952591236 0 0 0
954 318 1 0.5897 -5.7051950470861055 21.564463515268876 11.730424778760753 1 0 0
962 321 1 0.5897 -6.412128100866193 17.584853632250333 13.047135254431812 1 0 0
896 299 1 0.5897 -4.946206892147929 19.04201419283102 12.510377730680341 0 0 0
961 321 2 -1.1794 -6.498251635311689 18.11426469336948 12.25427062810159 1 0 0
895 299 2 -1.1794 -4.12917514044985 19.403683462338858 12.853952178927461 0 0 0
952 318 2 -1.1794 -6.633482827105356 21.355678028480135 11.835167569126828 1 0 0
859 287 2 -1.1794 -2.771348890693901 17.834229791549504 9.991307818506446 0 0 0
998 333 1 0.5897 -7.007764010862202 20.93895913910538 13.960350786187325 1 0 0
963 321 1 0.5897 -6.526253152790201 17.476006304778128 11.54138982630371 1 0 0
897 299 1 0.5897 -3.930169445432636 18.863237229548012 13.618589253669843 0 0 0
987 329 1 0.5897 -3.4942533834033656 22.634612829166386 11.390637164767643 1 0 0
953 318 1 0.5897 -7.079762588128162 22.19866449643707 11.753874143010721 1 0 0
964 322 2 -1.1794 -8.61894592116603 17.819569211997173 17.226192317297162 1 0 0
975 325 1 0.5897 -5.663008378815272 19.184571887400306 16.68957877229777 1 0 0
847 283 2 -1.1794 -4.354025229732508 21.624105895719346 14.480105577913216 0 0 0
974 325 1 0.5897 -7.063093106892776 18.60879747213115 16.67118588684609 1 0 0
973 325 2 -1.1794 -6.319308077541901 18.8085450178502 16.102793110363727 1 0 0
949 317 2 -1.1794 -8.530528994809323 21.763031164885454 17.141609680987095 1 0 0
950 317 1 0.5897 -8.265026477270025 21.471029664128366 16.26953209894596 1 0 0
951 317 1 0.5897 -8.150430975722681 21.116999080388574 17.73706316839526 1 0 0
999 333 1 0.5897 -7.02346300751971 20.098313201619188 15.219371231051653 1 0 0
997 333 2 -1.1794 -7.498587287405796 20.797270597464145 14.769801980977592 1 0 0
966 322 1 0.5897 -9.35091946996413 18.40401646882063 17.028629781810196 1 0 0
71 24 1 0.5897 3.2638657608835713 0.7779439065970858 1.7640505150256496 0 0 0
47 16 1 0.5897 1.9088236022253904 5.40251383782434 1.6344841613551728 0 0 0
54 18 1 0.5897 2.916293864075694 3.532635114987843 2.8455044625486225 0 0 0
32 11 1 0.5897 1.2673407165793948 1.5955589512267307 2.9277119588298524 0 0 0
528 176 1 0.5897 4.24520897041321 1.7385723395585404 0.10224012563160215 0 0 1
6 2 1 0.5897 3.656517078317571 1.5322473310815974 4.545666117299791 0 0 0
52 18 2 -1.1794 3.5450422054704243 2.971569805826823 3.299666628364667 0 0 0
46 16 2 -1.1794 1.8123048177096557 4.780557381184499 2.3556898782247746 0 0 0
31 11 2 -1.1794 1.3222277509076896 1.3804406908048572 1.9965598399844473 0 0 0
16 6 2 -1.1794 5.420186341007518 4.664636668597297 0.1937644304069775 0 0 0
48 16 1 0.5897 1.9535467002481015 5.3040869904214 3.1445953601138394 0 0 0
70 24 2 -1.1794 4.024876449633868 0.417225802807758 1.3090653092468412 0 0 0
78 26 1 0.5897 0.148122780615898 3.0130202010383202 4.20161216521296 0 0 0
53 18 1 0.5897 3.911572754597323 3.5286748791936735 3.986462866131829 0 0 0
76 26 2 -1.1794 0.6744464314940863 2.330383792732764 4.618023291162954 0 0 0
33 11 1 0.5897 0.6079752147006054 0.7599631958382622 1.8509429312319874 0 0 0
21 7 1 0.5897 1.2908809171830136 2.4640941752295067 0.5612071206997024 0 0 0
72 24 1 0.5897 4.441323180060574 -0.15469957558658742 1.95394894677873 0 0 0
402 134 1 0.5897 2.103929128073652 0.07186887605610603 8.882625334447333 0 1 0
77 26 1 0.5897 0.06291771809663382 1.8756223615883214 5.197168835397995 0 0 0
59 20 1 0.5897 1.6536639025430073 3.209667951473605 5.895001950935945 0 0 0
34 12 2 -1.1794 -0.22812592099353735 1.1932422332093169 7.187231011326862 0 0 0
35 12 1 0.5897 -0.14395215285890073 1.9238304652363194 7.800064683415978 0 0 0
45 15 1 0.5897 0.482993887235164 4.661888135352976 6.870970482137372 0 0 0
58 20 2 -1.1794 2.1209142748099588 3.990424730222305 6.192472264575036 0 0 0
44 15 1 0.5897 -0.3084666304751633 4.919291816780233 8.135577753806208 0 0 0
60 20 1 0.5897 2.848689058068068 3.6507117429425224 6.713410475184895 0 0 0
36 12 1 0.5897 -1.0923017144400329 0.8245994489776258 7.370403891139498 0 0 0
43 15 2 -1.1794 -0.407633571792426 4.652545511983973 7.221582024564972 0 0 0
401 134 1 0.5897 1.1617930127719411 0.0473361655155303 7.697651699156442 0 1 0
4 2 2 -1.1794 3.780599768166274 0.9167688423816518 5.268237012946195 0 0 0
5 2 1 0.5897 3.2053361918039727 0.18103967394812343 5.058184306654414 0 0 0
11 4 1 0.5897 2.1779166733427466 5.521636214808662 5.287882255865267 0 0 0
522 174 1 0.5897 1.9764727500598056 5.241362137253783 9.001019695227605 0 0 0
520 174 2 -1.1794 2.058281859640495 4.499388251915958 9.600279559474346 0 0 0
557 186 1 0.5897 0.0832425219055688 2.7101001312890918 13.78325479313619 0 0 0
537 179 1 0.5897 -2.55070319762667 1.4902182606584053 11.589095803843016 0 0 0
550 184 2 -1.1794 -1.544491507496998 5.189328218993303 12.20455625888526 0 0 0
558 186 1 0.5897 -0.4140698643399725 3.85351772476025 12.924441585300245 0 0 0
574 192 2 -1.1794 0.25817976872400106 0.26683222150110564 10.934543817919247 0 0 0
556 186 2 -1.1794 0.2735248270163533 3.61815760345591 13.547550304003671 0 0 0
536 179 1 0.5897 -2.2891044781987056 1.2505591780134673 13.06094655098808 0 0 0
535 179 2 -1.1794 -2.239869672378373 0.8260031192423287 12.20439035615936 0 0 0
552 184 1 0.5897 -2.357223205196976 4.686696824482801 12.148705572239107 0 0 0
576 192 1 0.5897 -0.5090541981590704 0.507312703360325 11.453931522101833 0 0 0
525 175 1 0.5897 -1.8099773122334808 2.68667671477201 9.792726831591148 0 0 0
23 8 1 0.5897 0.30427315633028895 1.922646728623862 10.149821076969774 0 0 0
508 170 2 -1.1794 -0.07051978752832078 1.0328524803610302 14.412424519611879 0 0 0
22 8 2 -1.1794 -0.0910657995372186 2.664328730252166 9.69156043939116 0 0 0
24 8 1 0.5897 0.5720526136052206 3.3534042396625905 9.733464196209464 0 0 0
560 187 1 0.5897 -3.744205964273336 3.5604779504605917 13.46660471717842 0 0 0
551 184 1 0.5897 -1.5654060947631612 5.583558257201586 13.076613999148124 0 0 0
575 192 1 0.5897 0.8679400823086203 -0.11164067222823121 11.568093482454906 0 0 0
539 180 1 0.5897 -3.367893512633466 1.3433455637053022 17.492414320743634 0 0 0
582 194 1 0.5897 -2.477653705500239 2.8859367307106294 14.930684256879628 0 0 0
563 188 1 0.5897 -1.2804367086472306 4.956635631722943 15.522730498254013 0 0 0
564 188 1 0.5897 -2.31967542883486 4.474496995086212 16.512325221235017 0 0 0
562 188 2 -1.1794 -1.5566373001230067 4.182609427512922 16.013507193489836 0 0 0
538 180 2 -1.1794 -3.7875563456378902 0.8414292479115741 16.79359435721343 0 0 0
581 194 1 0.5897 -3.202011209177475 1.5926447294144002 15.238509573533726 0 0 0
547 183 2 -1.1794 -4.1312391421931345 4.973402576890619 17.059730817862295 0 0 0
540 180 1 0.5897 -4.655306884693575 0.6299076705181053 17.137799051138572 0 0 0
549 183 1 0.5897 -4.875901971016719 4.4211216742106965 16.821451539342412 0 0 0
548 183 1 0.5897 -4.058907683361006 5.601717058157075 16.341211379889643 0 0 0
509 170 1 0.5897 -0.1208482413850227 1.5179559144357357 15.236137248107397 0 0 0
580 194 2 -1.1794 -2.896387927985476 2.134348495455564 14.510943851439071 0 0 0
527 176 1 0.5897 -3.881212266663179 2.837186590308306 18.9106381664961 0 0 0
526 176 2 -1.1794 -3.0553205851662977 2.382928757924522 18.74366687811264 0 0 0
18 6 1 0.5897 -2.2531543083478516 4.088365764703746 19.15504136842072 0 0 -1
19 7 2 -1.1794 -5.719053627131105 2.997983986307814 19.139381111430083 0 0 -1
245 82 1 0.5897 0.8248241589119125 9.427699642527799 4.209345472761638 0 0 0
240 80 1 0.5897 3.3290121438910694 7.315217924964353 1.0329383582113554 0 0 0
220 74 2 -1.1794 3.0716023190439135 10.797653779567774 3.3114591537431584 0 0 0
10 4 2 -1.1794 1.9876234935191857 6.231075368904334 4.674004209330752 0 0 0
238 80 2 -1.1794 3.522146587637553 7.861085881519513 1.7952612726102 0 0 0
199 67 2 -1.1794 1.1173319048594177 8.703970131271042 2.491195088238056 0 0 0
239 80 1 0.5897 3.971537958377601 8.625722395871776 1.4353099564512248 0 0 0
201 67 1 0.5897 2.060875312465962 8.600097976100319 2.3678896251129204 0 0 0
188 63 1 0.5897 1.7927414002991418 10.410470669484166 0.07608432266948478 0 0 0
200 67 1 0.5897 0.7429952229963162 7.877308873179835 2.1864152004414192 0 0 0
174 58 1 0.5897 3.1241347805048916 9.25690307796963 4.581455462004039 0 0 0
221 74 1 0.5897 3.944504444011197 10.6275756260759 2.95741363392288 0 0 0
696 232 1 0.5897 3.9972395470025663 10.906193953556528 0.09803418125372426 0 0 1
694 232 2 -1.1794 3.5679272416251537 10.068713366307694 -0.07712428159586356 0 0 1
203 68 1 0.5897 -0.8060227209411899 8.320878901775664 7.466678887001392 0 0 0
64 22 2 -1.1794 1.961279047919188 7.09065715324416 8.04243263005768 0 0 0
191 64 1 0.5897 0.2421413671967514 9.877696560306164 8.856835597925382 0 0 0
202 68 2 -1.1794 0.012528602846637149 8.812455074575922 7.3988165664966425 0 0 0
246 82 1 0.5897 0.2109689415412861 9.239470560600141 5.580318968243417 0 0 0
173 58 1 0.5897 2.821335277204125 7.903861617690284 5.18945958355967 0 0 0
204 68 1 0.5897 0.6814225208182023 8.21138153600963 7.726990791093069 0 0 0
588 196 1 0.5897 -1.55274980949849 6.502840264587347 9.168160589697093 0 0 0
172 58 2 -1.1794 3.456844615723318 8.619316192035418 5.213254948967624 0 0 0
65 22 1 0.5897 2.302482810804852 7.796634172152753 8.591609498560478 0 0 0
209 70 1 0.5897 3.1190131245443755 10.882647507018662 6.906683675425339 0 0 0
66 22 1 0.5897 2.741536142184742 6.653963694157369 7.700683575027244 0 0 0
586 196 2 -1.1794 -1.0121864724814373 5.818582478903532 9.563116599284466 0 0 0
692 231 1 0.5897 -1.7390352807206266 10.528809381550959 9.39768699883382 0 0 0
12 4 1 0.5897 1.0581374896211697 6.418858688433195 4.804728567813388 0 0 0
244 82 2 -1.1794 0.6317654703183235 9.89392173270087 5.0227945883279785 0 0 0
9 3 1 0.5897 -0.7689870513828625 5.6812159011130445 5.93008065322951 0 0 0
678 226 1 0.5897 -0.07166207697216453 9.558915124999066 14.16597423792498 0 0 0
744 248 1 0.5897 -0.07914697263036796 7.178900518790269 10.535235643203148 0 0 0
703 235 2 -1.1794 -2.7394750356439186 8.706399585525704 11.845560887898408 0 0 0
742 248 2 -1.1794 0.01927209449578715 7.820640968912046 11.238714345631621 0 0 0
705 235 1 0.5897 -2.855058937814653 9.033038775626236 12.73790229978633 0 0 0
743 248 1 0.5897 0.0040051012661308505 8.668299439829008 10.794238985979485 0 0 0
704 235 1 0.5897 -1.9708180441405636 8.138043904098588 11.895765338766036 0 0 0
724 242 2 -1.1794 0.29952932613806116 11.233520591828148 13.283422784361816 0 0 0
192 64 1 0.5897 0.6410120838894948 10.986542249781273 9.807483379402473 0 0 0
190 64 2 -1.1794 0.02833328487628739 10.25765749672934 9.709029036022118 0 0 0
587 196 1 0.5897 -1.364869122832268 5.7142798224978115 10.446838123979651 0 0 0
748 250 2 -1.1794 -3.173623148484759 9.649881922733238 14.402985731712725 0 0 0
750 250 1 0.5897 -3.976159804609738 10.136327756128868 14.214087235849522 0 0 0
676 226 2 -1.1794 0.08211683132593262 8.885910773359436 14.82910012839363 0 0 0
707 236 1 0.5897 -4.252184831330587 8.135599066371343 17.026684249429167 0 0 0
706 236 2 -1.1794 -3.5038008795804485 8.73166966784142 16.996315307522003 0 0 0
570 190 1 0.5897 -0.7713858256698227 7.130177239347382 17.607649645284702 0 0 0
749 250 1 0.5897 -3.2671063405111536 9.377689684220035 15.315915017736002 0 0 0
708 236 1 0.5897 -2.764654290902781 8.204550823621146 17.299983049725384 0 0 0