LAMMPS data file via write_data, version 30 Jul 2021, timestep = 4750000

864 atoms
2 atom types
576 bonds
1 bond types
288 angles
1 angle types

0.1371355012043871 18.070436898792835 xlo xhi
1.2530587764204064 22.376119023582767 ylo yhi
0.1673049911584581 22.045890808837648 zlo zhi

Masses

1 1.00794
2 15.9994

Pair Coeffs # lj/cut/tip4p/long/omp

1 0 0
2 0.21084 3.1668

Bond Coeffs # harmonic/omp

1 450 0.9572

Angle Coeffs # harmonic/omp

1 55 104.52

Atoms # full

144 1 1 0.5897 1.1786956141865679 3.8608896386346654 3.4936716160329264 1 4 3
102 1 1 0.5897 5.226592927829526 3.5552773590370843 3.1832812384322557 5 -4 1
84 1 1 0.5897 2.8441406347487166 5.127272753171292 0.3157447480398986 0 -3 -5
208 1 2 -1.1794 7.669925243158472 2.025502889916331 1.3428442957908904 0 -2 3
32 1 1 0.5897 2.121999429759329 3.712770798071852 1.4889552791243925 3 7 1
82 1 2 -1.1794 1.8958869310866495 5.02586060929299 0.23349919979929024 0 -3 -5
687 1 1 0.5897 6.286045248716585 5.625030677829136 5.131346235185429 8 -7 -4
101 1 1 0.5897 4.746283262890637 2.4486474692449685 4.097922592859713 5 -4 1
471 1 1 0.5897 5.234034474915123 6.04317623760184 2.881440824253864 1 -5 4
100 1 2 -1.1794 4.674237218082778 2.773723956631558 3.2005008994162494 5 -4 1
33 1 1 0.5897 2.9644692541185984 2.825603986729372 2.3806256085089377 3 7 1
137 1 1 0.5897 0.9712736198508342 1.7355761110117356 1.26059437393293 6 -7 0
307 1 2 -1.1794 8.538464142691748 4.5234504753239015 1.0244425012031284 -1 4 -2
31 1 2 -1.1794 2.075270965911472 2.933756246380177 2.0431827110722045 3 7 1
308 1 1 0.5897 8.20935654460055 3.6465168469735447 1.2217001777078367 -1 4 -2
469 1 2 -1.1794 5.884280140371292 5.372279235578176 3.0895083476809746 1 -5 4
143 1 1 0.5897 1.114624397620326 4.902524422884225 4.590397348560717 1 4 3
142 1 2 -1.1794 0.5727632056571917 4.448628744833062 3.9449465226942166 1 4 3
367 1 2 -1.1794 4.532446201999622 5.157673899180455 0.5299137003047906 3 5 -1
794 1 1 0.5897 0.2675906566096021 5.442866922158865 1.0169608033752948 -4 1 6
369 1 1 0.5897 4.837769914451327 4.878720822164707 1.3931547784334 3 5 -2
470 1 1 0.5897 6.699747972635958 5.8582864135854305 3.2121351175176174 1 -5 4
210 1 1 0.5897 6.747512823957016 1.7712497226911963 1.3701345514656247 0 -2 3
209 1 1 0.5897 8.053235886302867 1.6220057574564324 2.1216171789830165 0 -2 3
98 1 1 0.5897 1.604797291796324 6.11966588779054 6.962751670067407 4 -5 6
516 1 1 0.5897 8.745705859234793 3.673097617908428 7.011555608513717 -5 -3 1
515 1 1 0.5897 7.861716654082776 2.4531033415792 6.86315082073451 -5 -3 1
340 1 2 -1.1794 4.202674947382602 5.756219832332186 7.7438862658303655 3 5 1
541 1 2 -1.1794 0.7426009854122857 3.646160645398631 7.706926778971215 -5 1 2
342 1 1 0.5897 3.9250176446558243 4.951369383585703 8.181324062200007 3 5 1
791 1 1 0.5897 2.5443980645966415 2.8205981393006003 8.146418596925798 3 5 -1
774 1 1 0.5897 8.314846782271593 3.5829069232914836 8.978706883270007 2 -4 3
685 1 2 -1.1794 6.445841177084537 5.646199645472001 6.074871996177964 8 -7 -4
543 1 1 0.5897 1.0092247528745375 4.546122561002898 7.894611581826516 -5 1 2
323 1 1 0.5897 0.25346901441297853 2.055034740292393 10.63383319896078 7 -1 -2
772 1 2 -1.1794 8.495689227276213 3.8130020687184394 9.890081438363206 2 -4 3
90 1 1 0.5897 8.15936386183874 5.654242996776248 9.751598300184263 8 -1 3
686 1 1 0.5897 6.838206594171905 4.7954167774735925 6.270969373358956 8 -7 -4
790 1 2 -1.1794 3.4744491467678404 2.986727270891671 8.300139385471942 3 5 -1
387 1 1 0.5897 1.6338273871204354 5.577903189878091 9.793606742902488 -5 2 1
792 1 1 0.5897 3.6749132392560777 2.5046808902650035 9.102439202976775 3 5 -1
711 1 1 0.5897 4.514914624962783 2.07610694426434 6.501362137201926 -3 -1 -2
514 1 2 -1.1794 7.917978329939575 3.297133952974977 7.311126069766125 -5 -3 1
852 1 1 0.5897 0.4981433086585693 2.219157883974023 6.361210094842462 -6 0 -4
341 1 1 0.5897 4.970221404118322 5.4991439169827805 7.232992604530829 3 5 1
542 1 1 0.5897 0.4299377624727104 3.3084969392948973 8.546251979043632 -5 1 2
812 1 1 0.5897 5.066924442119786 6.266104375216503 9.265657641722441 -6 7 -3
856 1 2 -1.1794 4.291973378093697 1.4744326890739774 10.450398627225292 1 2 -5
97 1 2 -1.1794 1.5594294955363315 6.224618095150902 6.012406829406266 4 -5 6
385 1 2 -1.1794 1.2106427798569528 5.99438878551808 9.042814136363411 -5 2 1
324 1 1 0.5897 0.5641891687503195 3.536521437828247 10.61149076052825 7 -1 -2
850 1 2 -1.1794 0.32180303605195154 1.386270914734403 5.923677241948588 -6 0 -4
608 1 1 0.5897 7.872024314350076 2.3218653493730828 10.96028143986485 6 3 1
813 1 1 0.5897 6.230573974103001 6.531781429955421 10.19688317091613 -6 7 -3
858 1 1 0.5897 5.130722641853682 1.2704197796547838 10.036759609194679 1 2 -5
709 1 2 -1.1794 4.713277831144051 1.5312206276567188 5.739787422866928 -3 -1 -2
848 1 1 0.5897 3.3642737225066295 2.2495679899116663 16.210244186329653 5 -1 3
271 1 2 -1.1794 5.7106779997424315 5.001630936263102 12.460786140313834 -2 3 3
346 1 2 -1.1794 6.509327585308802 3.7026101087010503 16.36877588899607 -3 4 -2
847 1 2 -1.1794 3.249986052205798 1.3021611738355188 16.135609205192225 5 -1 3
664 1 2 -1.1794 5.90836097149221 1.3174638301649533 14.956018424669136 2 0 2
661 1 2 -1.1794 1.3586991720357553 5.135876348386778 11.538355178253527 -2 -3 -1
326 1 1 0.5897 2.8620893873212956 5.027091261120306 14.646955781343662 -2 -1 -1
391 1 2 -1.1794 8.478820786689255 4.684303877933048 13.344325076688463 4 -2 0
662 1 1 0.5897 1.9636163286843829 5.3453298302762215 12.249991754282835 -2 -3 -1
347 1 1 0.5897 6.935675661148023 4.448726022800254 15.947159268804596 -3 4 -2
392 1 1 0.5897 7.748451787935034 4.7172182590561125 12.726499786097905 4 -2 0
830 1 1 0.5897 0.6653002774447961 3.2837809371548743 14.564238122943165 4 4 2
86 1 1 0.5897 8.372508700606131 5.4740750276954975 15.036073517399402 -2 5 1
696 1 1 0.5897 4.903131978897742 3.543909502539442 12.828872556066745 1 -1 0
273 1 1 0.5897 5.566242508135762 5.329786053391739 11.57328107260789 -2 3 3
327 1 1 0.5897 3.3699126014234633 6.33363771644684 14.075200598915238 -2 -1 -1
253 1 2 -1.1794 1.7804848853223705 2.3131047789474657 13.495288687542253 3 8 -7
463 1 2 -1.1794 3.674395616176863 4.0517876407298274 16.013098631681363 6 3 -2
694 1 2 -1.1794 4.463375607663244 2.698801129415532 12.921713700214848 1 -1 0
325 1 2 -1.1794 2.6884783667186674 5.671250555839813 13.960558549798698 -2 -1 -1
272 1 1 0.5897 5.570700943961401 5.762915917801992 13.023877458828492 -2 3 3
695 1 1 0.5897 4.462401314992624 2.330435738807007 12.038239703977988 1 -1 0
465 1 1 0.5897 4.624624750201724 4.123080738580247 16.103744191886474 6 3 -2
666 1 1 0.5897 6.331712769470142 1.9962604259805485 15.481617847410092 2 0 2
665 1 1 0.5897 5.623807209894424 1.7709332348847862 14.162540899669326 2 0 2
254 1 1 0.5897 2.615106063124678 2.6039580316575974 13.127830451628759 3 8 -7
85 1 2 -1.1794 7.978079290765481 5.982611924403962 15.744641988089926 -2 5 1
255 1 1 0.5897 2.0223780493278203 1.6650087283119013 14.15686211802719 3 8 -7
663 1 1 0.5897 0.5816552292308006 5.664303500696661 11.72057192441534 -2 -3 -1
607 1 2 -1.1794 7.9229920315285325 1.3861985256592333 11.155615378361592 6 3 1
311 1 1 0.5897 0.7908080385460015 6.448941770631104 16.316313808232835 -2 1 3
122 1 1 0.5897 1.1844462367416064 1.2584312075330573 12.129660399507006 1 0 0
854 1 1 0.5897 5.641092531377401 3.141719659463964 20.413870766831735 -2 1 0
853 1 2 -1.1794 5.034462118880662 2.900090948754479 21.113755040879852 -2 1 0
106 1 2 -1.1794 6.833021525365628 3.2854216028898184 19.10626762326033 -2 1 3
424 1 2 -1.1794 3.1495092543708303 4.516837858601304 18.670087576585203 7 0 1
636 1 1 0.5897 0.27347211033535335 3.4144175036100424 19.55166241966308 -8 3 -1
348 1 1 0.5897 6.765280340499446 3.7683526152985523 17.28876367527519 -3 4 -2
855 1 1 0.5897 5.047548362424182 1.9430350761175714 21.12289787272652 -2 1 0
499 1 2 -1.1794 6.9760756197916605 5.936090781892424 21.185757792452726 -1 0 -2
212 1 1 0.5897 8.481416334673861 6.097639824805483 18.80580145051448 2 1 2
83 1 1 0.5897 1.776659678259762 4.534920844038211 21.299082396205797 0 -3 -6
108 1 1 0.5897 6.3274968638139155 2.539597672503721 18.783143117759188 -2 1 3
464 1 1 0.5897 3.33249778506247 4.2913038025336245 16.87447650405 6 3 -2
500 1 1 0.5897 6.161372528154368 5.6357904078376 21.5887151788425 -1 0 -2
698 1 1 0.5897 4.651999280510818 5.671516545233813 19.142565484951987 -2 1 -3
635 1 1 0.5897 1.0958351315562742 2.2095195062029256 19.956364968506357 -8 3 -1
425 1 1 0.5897 2.586430932142191 3.8622957714762047 19.08329000418226 7 0 1
107 1 1 0.5897 7.5633164591965985 2.8916305774614903 19.583585695241624 -2 1 3
634 1 2 -1.1794 1.0546461972087164 3.1618340024898632 20.043835967144737 -8 3 -1
501 1 1 0.5897 7.6636521528373915 5.458640031975729 21.649987863787118 -1 0 -2
426 1 1 0.5897 2.5541814177479676 5.225132921392729 18.424879121643357 7 -1 1
679 1 2 -1.1794 8.83938087774642 2.1024604782367025 20.855583143939448 -6 -4 -1
681 1 1 0.5897 8.422908931068458 2.1470256277339326 21.716285306375568 -6 -4 -1
699 1 1 0.5897 5.911432334933957 6.329556646395954 19.664746174856113 -2 1 -3
213 1 1 0.5897 8.549369819364424 6.334118939666115 17.31201501565441 2 1 2
697 1 2 -1.1794 5.07040109406955 6.525457496433518 19.251814225723635 -2 1 -3
368 1 1 0.5897 4.600062526769311 4.372751641964221 21.864845087035075 3 5 -2
167 1 1 0.5897 6.76760661054254 9.604973472727696 5.227404389118781 0 -1 4
403 1 2 -1.1794 4.608792961822078 10.509408333371002 2.623423406069803 6 0 1
700 1 2 -1.1794 1.7915353388887105 8.308348715589158 2.626753439007809 5 1 4
252 1 1 0.5897 8.417134312706672 7.083371567541623 2.7063539630153546 2 -3 1
659 1 1 0.5897 1.052716259092435 8.36440695522256 0.8521297710873308 0 -2 4
632 1 1 0.5897 2.367401492665329 11.6714052992222 5.107070668926561 5 5 5
735 1 1 0.5897 7.499413128164137 7.09054442424712 0.5920786313320465 -2 0 -2
701 1 1 0.5897 2.6998128487050117 8.050948988674012 2.468620977936147 5 1 4
600 1 1 0.5897 4.425584379390972 7.792774878280114 1.5120357827615214 0 -4 -3
250 1 2 -1.1794 8.207756536105634 6.748877263061862 3.5784143757735833 2 -3 1
405 1 1 0.5897 5.479603872165574 10.648825976075408 2.2512703016359645 6 0 1
439 1 2 -1.1794 5.305146283125345 10.619341295615197 5.279965341834072 0 -1 0
357 1 1 0.5897 3.0780089461075484 11.102744002281158 1.6819945507790586 0 -2 4
593 1 1 0.5897 8.560336097131373 11.090710267542434 2.9195586689393966 -1 -1 -2
598 1 2 -1.1794 4.530618934713551 7.694903001551849 2.458402681843358 0 -4 -3
702 1 1 0.5897 1.7469690883311604 8.463953019753188 3.5701599470171783 5 1 4
599 1 1 0.5897 4.491050571826318 8.588957002469517 2.797986679537089 0 -4 -3
734 1 1 0.5897 8.612889423746989 8.064319229970451 0.2699149950520888 -2 0 -2
251 1 1 0.5897 7.950612284901692 7.524154077113594 4.077452072484724 2 -3 1
404 1 1 0.5897 4.749409273518861 10.51118282946037 3.570251278338709 6 0 1
166 1 2 -1.1794 7.604691747894426 9.162751661593404 5.085994170881097 0 -1 4
302 1 1 0.5897 7.304920324673259 11.162073294027692 0.9070059507697229 0 2 10
594 1 1 0.5897 8.572457384643311 10.03628449833389 4.005788053578053 -1 -1 -2
301 1 2 -1.1794 6.917603588359038 11.426156081964336 1.7415459735260161 0 2 10
733 1 2 -1.1794 8.035974118197954 7.782001303158975 0.9796377887665139 -2 0 -2
181 1 2 -1.1794 0.9116805218185766 8.762549275425105 5.536149664646456 -3 3 -3
355 1 2 -1.1794 2.413040535906784 11.483840457658852 1.1085871955019906 0 -2 4
183 1 1 0.5897 1.7798113382730212 9.154735568328459 5.62991762768734 -3 3 -3
63 1 1 0.5897 2.6453912580811236 9.227377918368555 8.415991848926387 -1 0 3
61 1 2 -1.1794 2.385443593887994 8.636983806710074 9.123177684045306 -1 0 3
89 1 1 0.5897 8.47962543282845 7.055687703353122 10.226285976216872 8 -1 3
799 1 2 -1.1794 3.947732148937475 8.369140258067322 6.345641923690878 2 1 4
580 1 2 -1.1794 5.635273550603316 9.03647541244654 8.574751887078989 1 -5 -1
581 1 1 0.5897 5.24058904693757 9.765536230831636 9.053219697167433 1 -5 -1
749 1 1 0.5897 7.978737692871433 11.0168550783472 10.21914259302189 2 4 1
582 1 1 0.5897 5.387272465290483 8.258920484638882 9.074930193876618 1 -5 -1
337 1 2 -1.1794 8.809829278272792 7.205735291105007 6.994701391513422 -3 1 2
503 1 1 0.5897 3.3559070062362673 9.10301752918184 10.920322301264196 -5 1 3
338 1 1 0.5897 8.725051978414898 6.974450191581213 7.919649984933759 -3 1 2
88 1 2 -1.1794 7.985099089060269 6.57611415058804 9.561701119186564 8 -1 3
386 1 1 0.5897 1.4825238525017985 6.91085541710993 9.092044328646079 -5 2 1
801 1 1 0.5897 4.300589178236187 8.508290744321705 7.224470591664862 2 1 4
732 1 1 0.5897 7.37299631533087 9.724579344973248 8.476285484876195 -1 0 -6
62 1 1 0.5897 1.5890715508605522 9.028422853771662 9.482041694317159 -1 0 3
168 1 1 0.5897 8.016201303017855 9.145954095473243 5.950047383872152 0 -1 4
372 1 1 0.5897 4.19700910092427 11.742461268214504 10.323451440246002 4 6 -4
730 1 2 -1.1794 8.191070370904638 10.210234392627893 8.581757940181845 -1 0 -6
99 1 1 0.5897 1.1981592513297332 7.101806828094118 5.884842086506966 4 -5 6
731 1 1 0.5897 8.115882294645345 10.94272388679157 7.970182160496196 -1 0 -6
370 1 2 -1.1794 4.234440303379036 11.27832858737136 9.487129109964926 4 6 -4
633 1 1 0.5897 3.572631112694766 11.746489352459623 6.020104577115776 5 5 5
811 1 2 -1.1794 5.288728528846672 6.674110305464391 10.102643562305847 -6 7 -3
182 1 1 0.5897 0.48661324828751873 8.916063707141987 6.37993464993335 -2 3 -3
339 1 1 0.5897 7.947597562553541 7.022641812555187 6.621539230148337 -3 1 2
631 1 2 -1.1794 2.6777043978489754 11.410033567170974 5.9740236672803855 5 5 5
441 1 1 0.5897 5.422076840246429 11.286858517369588 5.955951945557775 0 -1 0
800 1 1 0.5897 3.7495147138321885 7.433302130586898 6.312023653304002 2 1 4
440 1 1 0.5897 4.922398836748932 9.873834975691532 5.742526951473454 0 -1 0
119 1 1 0.5897 8.873128253665216 7.6693131438818245 13.445590172845817 5 -2 -1
590 1 1 0.5897 2.574688618580824 9.171687076580154 14.247956567362316 2 5 2
843 1 1 0.5897 4.690327337841634 7.917835378922424 14.316273879388248 -3 2 -1
358 1 2 -1.1794 2.5885951665573934 11.054677280844434 16.42499060961923 3 2 -8
589 1 2 -1.1794 3.4299524950127864 9.588988458045392 14.351058965794266 2 5 2
360 1 1 0.5897 2.869119859517514 10.632703105704712 15.612921643011262 3 2 -8
120 1 1 0.5897 7.717398822772721 8.646882330744617 13.468579782713821 5 -2 -1
842 1 1 0.5897 5.5843699196130325 6.945125797716366 15.05544750040141 -3 2 -1
502 1 2 -1.1794 4.013335279298082 8.854294422140832 11.570041934112878 -5 1 3
645 1 1 0.5897 0.6528036700930843 7.72517493450435 14.57170399412138 4 -4 1
557 1 1 0.5897 5.692167826181554 9.100629205466408 11.88902185222778 2 2 1
118 1 2 -1.1794 8.405227256777842 8.274874509832639 14.02064385045208 5 -2 -1
644 1 1 0.5897 0.24449026985468958 9.180065405263607 14.479836584930304 4 -4 1
556 1 2 -1.1794 6.536762189897447 9.32070504614183 12.282078551962579 2 2 1
329 1 1 0.5897 0.34254405909872376 9.910420474506703 11.386928315277574 4 6 2
591 1 1 0.5897 3.7654320279741906 9.67245110502322 13.4584742611846 2 5 2
293 1 1 0.5897 6.430655387572391 11.01710171035918 13.169901821114188 -1 -2 3
558 1 1 0.5897 6.934672558706639 9.936507037046741 11.66671808761544 2 2 1
841 1 2 -1.1794 5.122397703069589 7.06846684128083 14.22624177296995 -3 2 -1
643 1 2 -1.1794 0.6739614149442107 8.481755804946184 13.985734504210354 4 -4 1
87 1 1 0.5897 7.914295445628892 6.871510174801369 15.395341040868136 -2 5 1
691 1 2 -1.1794 1.0584630534080262 11.54210671379576 12.240044363149327 0 0 4
750 1 1 0.5897 9.057869184916617 11.042239956576553 11.280593361450578 2 4 1
504 1 1 0.5897 4.2748352037356385 7.968182898821373 11.31977347630797 -5 1 3
292 1 2 -1.1794 6.183658454900273 11.760987757101505 13.71931796060895 -1 -2 3
748 1 2 -1.1794 8.149742020068652 11.29745531536744 11.118167120584094 2 4 1
49 1 2 -1.1794 7.571948141874182 10.771497452321775 20.848694090847218 8 1 -2
50 1 1 0.5897 8.246779053711078 10.098894634254815 20.940613820728217 8 1 -2
783 1 1 0.5897 7.435761518136965 9.604626790399998 19.00839014771288 -3 0 0
781 1 2 -1.1794 7.611086409017596 9.353156623207312 18.101617534164383 -3 0 0
548 1 1 0.5897 3.895727210730407 8.878002851910551 17.48394668618102 4 -2 4
658 1 2 -1.1794 0.9422117530317621 8.559001427726693 21.800051979404003 0 -2 3
268 1 2 -1.1794 4.122700474678377 8.003002302794965 21.672868568265827 2 5 5
819 1 1 0.5897 4.476652122078277 11.697331774688125 19.689235679939294 3 -4 1
544 1 2 -1.1794 0.5009602618606088 11.335546129608433 20.79972491329245 -4 3 3
550 1 2 -1.1794 5.488789547329515 7.800822151718119 16.897205925665524 -3 6 -4
707 1 1 0.5897 4.640529804214486 9.371214446270814 20.6818676136402 -2 -1 -7
51 1 1 0.5897 8.046382706601532 11.548769807915873 20.55366497382272 8 1 -2
638 1 1 0.5897 2.01486726873798 7.58529270553624 18.050984912685422 -9 -1 2
708 1 1 0.5897 5.799848996580854 10.312435426501738 20.432962667140572 -2 -1 -7
547 1 2 -1.1794 3.3056502705019954 9.144378963496898 18.189003297846384 4 -2 4
549 1 1 0.5897 3.8864123833657236 9.456202851128982 18.883043350086886 4 -2 4
269 1 1 0.5897 4.402945959385021 7.568901824419122 20.867109909128736 2 5 5
706 1 2 -1.1794 4.953095033653279 10.04365948897487 20.07660845738142 -2 -1 -7
211 1 2 -1.1794 8.697682535084386 6.7645023097048265 18.15405854759279 2 1 2
489 1 1 0.5897 8.472993230309696 11.000915897171694 17.346378882990706 3 -7 2
637 1 2 -1.1794 1.5940673979094642 6.725569476646677 18.05601545536065 -9 -1 2
551 1 1 0.5897 5.289892359571173 7.109012222270732 17.52813736270494 -3 6 -4
782 1 1 0.5897 8.047061027918478 8.503619517396896 18.168189278634365 -3 0 0
270 1 1 0.5897 3.1671451643979784 8.01639944373303 21.61839375829203 2 5 5
660 1 1 0.5897 0.7930388509679536 9.503977917632481 21.768519527183777 0 -2 3
552 1 1 0.5897 6.173543228818156 8.320247942953037 17.318544579459484 -3 6 -4
546 1 1 0.5897 0.8254503804550025 11.666040356879355 19.962038745863055 -4 3 3
359 1 1 0.5897 2.818919366947069 10.429530160988277 17.112269361984353 3 2 -8
639 1 1 0.5897 0.9560863710908861 6.774829806651478 18.76790510845187 -9 -1 2
545 1 1 0.5897 1.1767245782235563 11.579897083761281 21.432088628851815 -4 3 3
487 1 2 -1.1794 9.041315626884126 11.700225100489167 17.023593979373246 3 -7 2
411 1 1 0.5897 0.588939529339024 16.84175074581759 5.452857485577223 4 1 -5
559 1 2 -1.1794 2.92681110343958 15.103206127824405 3.962015735587544 4 0 2
141 1 1 0.5897 1.6444669943879615 12.189409945166139 2.8460278089435223 -1 -2 2
427 1 2 -1.1794 8.326890665992705 13.57093122814325 4.181210181237495 1 2 -3
560 1 1 0.5897 2.1737581433198794 15.693987906907294 3.971925684115797 4 0 2
648 1 1 0.5897 8.013634332810373 16.828389211723945 4.504435863955079 -7 1 1
257 1 1 0.5897 5.482343388075225 14.119859411088864 1.5012657779495946 -1 -1 -2
409 1 2 -1.1794 0.5657158260288688 16.679888582358892 4.509735333928902 4 1 -5
140 1 1 0.5897 0.5809523654203601 12.516749941811472 3.8724964071443364 -1 -2 2
303 1 1 0.5897 6.7488548054659105 12.36307989431638 1.6420023081443116 0 2 10
356 1 1 0.5897 2.8420720192387154 12.243908821615333 0.7155962641936376 0 -2 4
671 1 1 0.5897 5.798945363258877 16.438812840887053 3.6700191480127637 6 3 0
737 1 1 0.5897 8.702697494758215 16.57178916430206 1.5767470827844512 1 -2 0
139 1 2 -1.1794 1.5269979296635043 12.540371766797726 3.728772555911916 -1 -2 2
396 1 1 0.5897 3.163954414500216 17.006084233160355 0.5430294009372578 3 -2 5
256 1 2 -1.1794 6.303189937215899 14.178291292212077 1.9901485174086495 -1 -1 -2
428 1 1 0.5897 7.502041877564038 13.788096429766291 3.7468426402673827 1 2 -3
672 1 1 0.5897 4.349516767747758 16.085249984576947 3.4131254584227 6 3 0
647 1 1 0.5897 7.960941447835861 15.318354735613635 4.598709746441184 -7 1 1
184 1 2 -1.1794 3.993217548563786 13.811041711075749 0.4049114111743087 0 6 5
561 1 1 0.5897 2.5646335782343734 14.257140504996325 3.6989107090866695 4 0 2
736 1 2 -1.1794 8.011983697513386 16.24376654329118 1.0009636418887076 1 -2 0
258 1 1 0.5897 6.763120024403373 14.921058498432181 1.5990048859833663 -1 -1 -2
646 1 2 -1.1794 7.44327648262643 16.105780331061457 4.7666383402266 -7 1 1
753 1 1 0.5897 3.8198005235962698 15.061608862398161 5.455364167666215 0 -3 -1
185 1 1 0.5897 3.609545469141435 14.687954159937561 0.39941033026595935 0 6 5
483 1 1 0.5897 0.6572399382217806 15.45923912052803 0.6207750121799861 2 2 0
429 1 1 0.5897 8.964095202580598 13.509975886888556 3.469536032851713 1 2 -3
670 1 2 -1.1794 5.001212788298705 16.768578521991536 3.2563899536102094 6 3 0
236 1 1 0.5897 7.467423516366544 15.855315649040095 6.509023147482617 1 -4 -2
443 1 1 0.5897 2.6058464230029226 14.99848558399358 8.965803527586361 4 5 0
444 1 1 0.5897 3.0064081469469484 15.13980474477456 7.5127155475248975 4 5 0
814 1 2 -1.1794 5.903396619338379 14.790277452563549 9.835970674136194 -5 7 -2
131 1 1 0.5897 8.964996801406413 13.020007264788903 7.0145874367482905 -6 1 -1
770 1 1 0.5897 4.379076972710043 14.573243519396764 10.254751362716535 4 0 1
751 1 2 -1.1794 4.411375316174339 15.112057575578214 6.206175538893211 0 -3 -1
235 1 2 -1.1794 7.483083473096131 15.990724769752115 7.456472302701885 1 -4 -2
130 1 2 -1.1794 8.387578759789097 12.368008084033615 6.617426150354167 -6 1 -1
690 1 1 0.5897 5.925512053531065 16.34526895930417 10.636898505256216 5 -1 3
69 1 1 0.5897 1.106309574134619 16.587199194158174 7.445017607368946 6 -1 -3
769 1 2 -1.1794 3.4633084953920066 14.364761673076336 10.43953669743379 4 0 1
752 1 1 0.5897 4.808678273415987 15.9804503402014 6.140740985662806 0 -3 -1
570 1 1 0.5897 6.46404169805408 12.66727504941487 6.943671403785782 3 1 0
442 1 2 -1.1794 2.256941887647152 15.220843073109558 8.102622059118186 4 5 0
237 1 1 0.5897 8.376523441898819 16.27923553267035 7.642898583217838 1 -4 -2
569 1 1 0.5897 5.2326868622187925 13.536901224100918 6.804306219778321 3 1 0
568 1 2 -1.1794 5.5305791133311555 12.696879402049824 7.153405467751697 3 1 0
513 1 1 0.5897 1.553511646607276 12.361066614870296 6.886656069017269 0 0 -2
816 1 1 0.5897 6.220778980922792 15.181944423808552 9.022288175451944 -5 7 -2
511 1 2 -1.1794 0.9483696909776187 12.962213011708345 7.320986830247076 0 0 -2
815 1 1 0.5897 6.681994609358465 14.402117324982 10.235134718598179 -5 7 -2
512 1 1 0.5897 1.4938399253946373 13.703591778919929 7.583751031233235 0 0 -2
371 1 1 0.5897 4.39817348384594 11.96377908957932 8.839380223563252 4 6 -4
132 1 1 0.5897 8.394906371345503 12.578040130479561 5.683559427111019 -6 1 -1
389 1 1 0.5897 0.23490793654209075 12.023924927532432 10.359302203611259 0 5 4
820 1 2 -1.1794 8.225854783860816 14.181923947553765 11.062938700266699 1 -2 5
821 1 1 0.5897 7.969721330237644 14.527053208816113 11.91821796331196 1 -2 5
682 1 2 -1.1794 4.77619708011491 12.976488563545935 15.942555150797414 5 2 -7
630 1 1 0.5897 3.3912726750887954 16.07126502716435 15.518161071274061 -1 -3 4
401 1 1 0.5897 6.421199858496163 16.13702168929747 12.787003421016216 -1 -3 1
616 1 2 -1.1794 2.3343793231789904 15.854511624823159 12.448938268860541 0 3 2
294 1 1 0.5897 6.983184893701275 12.282425953846154 13.790854221474147 -1 -2 3
771 1 1 0.5897 3.2144617158205757 14.97299220265579 11.135514117745684 4 0 1
53 1 1 0.5897 4.646619712286498 12.429889357234893 12.628648699065623 -4 -1 3
629 1 1 0.5897 3.9095739977691357 14.663173573842904 15.316865078977951 -1 -3 4
263 1 1 0.5897 7.719017338574992 15.200031033129315 15.751828662808803 2 -2 6
684 1 1 0.5897 5.329621557866926 12.53399921307449 15.29901333209564 5 2 -7
822 1 1 0.5897 8.252947342079796 13.2329831462125 11.185398701006529 1 -2 5
400 1 2 -1.1794 7.1082700665296406 15.64359273436072 13.234982780363904 -1 -3 1
628 1 2 -1.1794 3.5959207648404345 15.43007021670898 14.837566588970489 -1 -3 4
618 1 1 0.5897 2.6040851395716675 15.594850441893941 13.329872738329524 0 3 2
335 1 1 0.5897 8.522352089162036 13.083997908050122 15.760052729788898 5 0 2
402 1 1 0.5897 6.906583159351355 15.742057488106502 14.165513820234462 -1 -3 1
555 1 1 0.5897 8.782076180481509 16.12041647074733 13.259686055858722 -6 -7 3
617 1 1 0.5897 1.4492268151382266 16.201062881212145 12.561327069509053 0 3 2
334 1 2 -1.1794 8.4359149285998 13.450294284344368 14.879953619335966 5 0 2
683 1 1 0.5897 4.048048431207381 12.372567587474347 16.088554560533247 5 2 -7
52 1 2 -1.1794 3.779027417729271 12.304065286470513 12.244371828154296 -4 -1 3
54 1 1 0.5897 3.649169408469847 13.072239513617317 11.688256511959688 -4 -1 3
693 1 1 0.5897 1.858583144563547 11.959946024563473 12.558531228567182 0 0 4
692 1 1 0.5897 0.38124737894568306 11.81856687420076 12.857429732633813 0 0 4
262 1 2 -1.1794 6.9512001449195004 15.737535249477073 15.946230238112685 2 -2 6
264 1 1 0.5897 6.443064729845324 15.214685047211756 16.56644828182292 2 -2 6
394 1 2 -1.1794 2.625010863698603 16.330176677028383 22.010633694158777 3 -2 5
180 1 1 0.5897 1.731843081719331 12.10196561390212 17.746061258211384 -4 1 0
420 1 1 0.5897 7.166712005904375 16.168953522120965 18.4621476410288 -7 -1 5
818 1 1 0.5897 3.419747118309628 12.731229871598785 19.36387679560358 3 -3 1
155 1 1 0.5897 8.823336825163995 16.892572641370535 19.879937175395867 2 4 -5
113 1 1 0.5897 7.722227829552108 13.446206434427795 18.97781983155658 -2 -1 0
838 1 2 -1.1794 6.093761682046428 14.297933222582719 18.0813840298338 -4 -3 -3
840 1 1 0.5897 5.694704381928485 13.710011725318482 17.440032841405205 -4 -3 -3
395 1 1 0.5897 2.5721263228508926 16.59149048283721 21.091316660343693 3 -2 5
817 1 2 -1.1794 4.318277731869868 12.641321636138006 19.68134211326253 3 -3 1
418 1 2 -1.1794 7.534141716272611 17.03821550767748 18.622208923470637 -7 -1 5
839 1 1 0.5897 5.69317997891133 14.051214899230386 18.91497922486389 -4 -3 -3
179 1 1 0.5897 1.1092854108685497 13.280909590553087 18.463261008453237 -4 1 0
112 1 2 -1.1794 8.299618562213796 13.17934814571554 19.69314351708497 -2 -1 0
178 1 2 -1.1794 1.6326104330782907 12.493691535673014 18.61376707670098 -4 1 0
186 1 1 0.5897 4.275755152032746 13.667040898288256 21.38036480377628 0 6 4
114 1 1 0.5897 9.036933099020787 13.78793060363686 19.646143720480417 -2 -1 0
738 1 1 0.5897 8.452117043027913 16.081151330109073 22.045250820363478 1 -2 -1
758 1 1 0.5897 5.4639006113993105 19.84668808410657 3.012694056141138 0 0 2
136 1 2 -1.1794 0.6488898730039034 22.106533242196097 0.7639673364615412 6 -8 0
457 1 2 -1.1794 4.112822773374241 18.50412489859212 0.9622960805445777 -1 0 -2
47 1 1 0.5897 7.38807168903447 20.18797085772576 3.4224823126619417 3 -2 1
757 1 2 -1.1794 5.657222387864719 19.318659743288883 3.787325985145668 0 0 2
287 1 1 0.5897 2.8247491224756796 19.924371173074555 1.7288652657326247 5 2 2
204 1 1 0.5897 0.9008411125295838 19.513946392336294 3.4181113214233068 -4 1 1
450 1 1 0.5897 1.7073615988660351 21.389298219503406 5.2439443194843625 2 -2 -6
807 1 1 0.5897 8.921589891165125 19.173420758763047 4.547745921570118 4 -2 -3
759 1 1 0.5897 5.528090802983864 18.414790081574992 3.499985739740074 0 0 2
518 1 1 0.5897 4.687278530495412 21.115846338761823 1.4895987241643747 -1 -1 -2
48 1 1 0.5897 8.658991652104584 19.977262263342467 2.6273551798441637 3 -2 1
517 1 2 -1.1794 5.424943116660439 21.427326757530437 2.0140428847211913 -1 -1 -2
46 1 2 -1.1794 8.32129956234908 20.400721822900472 3.416586653682838 3 -2 1
288 1 1 0.5897 1.8949738452334428 21.118920782900517 1.70836018519447 5 2 2
128 1 1 0.5897 7.454750019723243 17.913588190984335 0.4390021393857825 -1 0 -4
286 1 2 -1.1794 2.3905671964805983 20.555572185685254 2.302699543585784 5 2 2
459 1 1 0.5897 4.488542673444387 19.05755764087031 0.27761783409013663 -1 0 -2
449 1 1 0.5897 2.6190157907531804 20.84604358693941 4.164314121806329 2 -2 -6
519 1 1 0.5897 5.046650257601632 22.09246861245346 2.589100248116584 -1 -1 -2
458 1 1 0.5897 4.868473599687691 18.191528602718773 1.4598052521026226 -1 0 -2
710 1 1 0.5897 3.9396303622754707 22.10094532538649 5.632550914846217 -3 -2 -2
448 1 2 -1.1794 2.49880436827107 20.866933501706406 5.113694412604269 2 -2 -6
276 1 1 0.5897 5.015792036378376 18.51642617608017 5.410168205744031 -2 1 -2
203 1 1 0.5897 0.20214444015904726 18.324078151995803 4.040974799767016 -4 1 1
805 1 2 -1.1794 9.102121699182048 18.414812959166078 5.1028480104010185 4 -2 -3
275 1 1 0.5897 4.5032857969656215 18.534930002345785 6.8345465500862685 -2 1 -2
423 1 1 0.5897 2.59720924960636 20.06719293726308 9.204208554285229 -3 3 2
862 1 2 -1.1794 7.427824809477441 18.956514736711952 7.189901663667739 1 -2 1
689 1 1 0.5897 6.328713119512853 17.782296610683364 10.890397769471624 5 -1 3
93 1 1 0.5897 7.091094006826198 18.80165264405015 9.191358972633305 1 -5 0
740 1 1 0.5897 6.448360664665503 21.634950437871645 6.124363956539493 2 -2 2
863 1 1 0.5897 8.117383670645772 18.695180184808123 6.5796264868985865 1 -2 1
111 1 1 0.5897 2.3130616320593513 18.662161480476154 7.518406933109846 0 -1 -5
421 1 2 -1.1794 2.6436219026784027 20.39626188150175 10.10186291404837 -3 3 2
741 1 1 0.5897 7.468541608205162 20.66051650068305 6.673525253700419 2 -2 2
92 1 1 0.5897 8.153772208395441 19.310883037045183 10.141753106319316 1 -5 0
864 1 1 0.5897 6.624072716264615 18.6015053341625 6.810183448041588 1 -2 1
68 1 1 0.5897 0.4221470408262604 17.78795386665416 8.063050543123294 6 -1 -3
109 1 2 -1.1794 2.881819688630866 19.42667327910105 7.60934725247971 0 -1 -5
110 1 1 0.5897 2.90198940273459 19.816121022988693 6.735188472058853 0 -1 -5
609 1 1 0.5897 7.5032113802336164 22.084692901026333 10.407439063487422 6 2 1
778 1 2 -1.1794 6.4917084540657415 21.491831970995896 9.11633005252178 -3 0 -2
91 1 2 -1.1794 7.220761299762828 19.103323115420785 10.090467673361262 1 -5 0
780 1 1 0.5897 6.763832984001569 20.597163210773093 9.320599885353298 -3 0 -2
67 1 2 -1.1794 0.7739714663066517 17.46005410495244 7.235446605839025 6 -1 -3
857 1 1 0.5897 3.73376135983984 21.847920260272865 10.243540593874705 1 1 -5
274 1 2 -1.1794 5.072703951493666 18.04501317791694 6.241282093847797 -2 1 -2
739 1 2 -1.1794 7.351514171631503 21.580552910824572 6.436722923288637 2 -2 2
422 1 1 0.5897 2.966036788969416 19.65408568455741 10.61317140658974 -3 3 2