LAMMPS data file via write_data, version 30 Jul 2021, timestep = 500000

2016 atoms
2 atom types
1344 bonds
1 bond types
672 angles
1 angle types

-3.189731371362938 14.79973037048191 xlo xhi
-0.7185022995445713 45.86889029954642 ylo yhi
-0.054892290010188916 19.2848902900095 zlo zhi
-0.05746538191979853 -6.868398374502436 0.14369284342848335 xy xz yz

Masses

1 1.008
2 15.999

Atoms # full

123 41 1 0.5897 -3.5926467301202827 1.958727583183022 2.5056499699939834 1 0 0
157 53 2 -1.1794 -3.9138934475825486 4.826495291882062 4.738742206092424 1 0 0
122 41 1 0.5897 -2.7175468578674105 1.3820773431273583 1.4131760615376652 1 0 0
121 41 2 -1.1794 -2.7071754809302986 1.637496157652783 2.335599255701128 1 0 0
87 29 1 0.5897 -3.566003515867437 0.34635503026509107 4.966679634790413 1 0 0
158 53 1 0.5897 -4.523019817246339 4.324805282649897 4.197019045848684 1 0 0
159 53 1 0.5897 -3.4064490411396475 4.163215427324531 5.206421052180675 1 0 0
113 38 1 0.5897 -2.9971111510076933 5.654293898603462 3.152100872872079 1 0 0
114 38 1 0.5897 -3.1224198200818605 4.931178032776926 1.828000922465502 1 0 0
86 29 1 0.5897 -2.5438111878123744 0.7042216778673989 3.9088954196872083 1 0 0
85 29 2 -1.1794 -2.626373973080274 0.3280454004716036 4.78518520573964 1 0 0
1490 497 1 0.5897 -1.1207916649332783 -0.43112007986479794 1.061735299315795 1 1 0
110 37 1 0.5897 -4.235827483265789 5.8447109737968255 6.3698657379307395 1 0 0
133 45 2 -1.1794 -2.6841802258469976 2.750889196595757 6.341798667141718 1 0 0
112 38 2 -1.1794 -2.973449909932148 5.797840264116228 2.2060329754100585 1 0 0
602 201 1 0.5897 -0.40903400500663034 4.615789383231089 0.16958660738757117 1 0 1
4 2 2 -1.1794 3.5894143341913347 0.2828770952465216 5.067178946363207 0 0 0
55 19 2 -1.1794 -0.7170056495425867 3.4040221034482325 3.402623594391028 0 0 0
33 11 1 0.5897 0.6249786576709435 0.060006589499194796 2.118034573754987 0 0 0
58 20 2 -1.1794 2.037989657929862 3.6356471448428582 6.057486493321678 0 0 0
56 19 1 0.5897 -1.4065798745819456 2.8578371721908034 3.025315094098446 0 0 0
7 3 2 -1.1794 -0.8215911717436786 5.667881048446557 4.946189283930107 0 0 0
53 18 1 0.5897 4.311868931026898 2.626942299902035 2.9768860527107064 0 0 0
47 16 1 0.5897 1.8053093406526841 4.661213262751594 1.4135732609821012 0 0 0
9 3 1 0.5897 -0.8286718809207931 4.917575810970886 4.3518845641942345 0 0 0
78 26 1 0.5897 0.07603280196632056 2.282672097815235 4.5803613572513155 0 0 0
46 16 2 -1.1794 1.5992609744410062 4.222869277253964 2.2391708866824955 0 0 0
76 26 2 -1.1794 0.7553032704485902 1.6430230990536878 4.793893983128913 0 0 0
54 18 1 0.5897 2.857839567171758 3.0345355995839327 3.08363897707995 0 0 0
5 2 1 0.5897 2.877976765818751 -0.30072996722858947 4.803633488061291 0 0 0
59 20 1 0.5897 1.6720196065712125 2.9726229414679186 5.472109472228747 0 0 0
11 4 1 0.5897 2.044871724628191 5.423621827839423 5.210174250756104 0 0 0
71 24 1 0.5897 2.901978520202081 0.20899638193908399 1.694081297400927 0 0 0
52 18 2 -1.1794 3.547860921309101 2.562725608474342 3.5499247676630117 0 0 0
57 19 1 0.5897 -0.05064019847164314 3.456571815541431 2.7174912405850735 0 0 0
77 26 1 0.5897 0.44126248206344165 1.2166006004947125 5.591238353470434 0 0 0
70 24 2 -1.1794 3.5071802948220396 -0.2042245628906888 1.0783084922687431 0 0 0
31 11 2 -1.1794 1.147732102968198 0.861744182898676 2.1056676957417766 0 0 0
6 2 1 0.5897 3.5657845678455935 0.9942946088244999 4.427238744775391 0 0 0
48 16 1 0.5897 1.6284010124350337 4.91975467141015 2.894692453172358 0 0 0
32 11 1 0.5897 1.1693568248814614 1.1482362950524552 3.0187214149784634 0 0 0
21 7 1 0.5897 1.0999058030664983 1.6522174623397956 0.5831512909544754 0 0 0
18 6 1 0.5897 4.8940098162957755 3.4929829594150705 0.004664832515352588 0 0 0
16 6 2 -1.1794 5.298703627670071 4.339201905394249 0.1953033635186247 0 0 0
134 45 1 0.5897 -2.3013899698461504 1.9476386600153863 5.989026192171488 1 0 0
8 3 1 0.5897 -0.8457092388002683 5.281040162264526 5.821391623665413 0 0 0
22 8 2 -1.1794 -0.007125061268669519 1.9235702344918786 9.953636933451465 0 0 0
23 8 1 0.5897 0.11918582963412616 1.1245163416347022 10.465248777857008 0 0 0
24 8 1 0.5897 0.6123597938180652 2.5493118212768433 10.32898311112003 0 0 0
34 12 2 -1.1794 -0.1765601833760404 0.6280607582959719 7.323663208456962 0 0 0
35 12 1 0.5897 0.08028571989927435 1.1392703705123974 8.091062280260616 0 0 0
36 12 1 0.5897 -0.9544084266877233 0.14662136716346807 7.6053977176177625 0 0 0
43 15 2 -1.1794 -0.5321737677673894 4.307485490137517 7.420041494402315 0 0 0
44 15 1 0.5897 -0.48093592415076447 4.696422459679704 8.293147585118932 0 0 0
45 15 1 0.5897 0.2701066430518688 3.791693069796489 7.339621588070772 0 0 0
1409 470 1 0.5897 2.070983864913095 -0.4226112510415813 8.763644120843582 0 1 0
625 209 2 -1.1794 -5.748336385748784 2.1935690347245105 12.012623082791958 1 0 0
60 20 1 0.5897 2.768527279758266 3.1953898277191675 6.491817824944633 0 0 0
627 209 1 0.5897 -6.642982229237628 2.4892969912936374 12.18091887491246 1 0 0
69 23 1 0.5897 -2.903965479183883 0.5041497192534756 8.779095206319605 0 0 0
97 33 2 -1.1794 -4.324484626130628 4.19992375043223 9.452491734744664 1 0 0
98 33 1 0.5897 -4.418695702363796 4.613069413418743 8.594218172626151 1 0 0
99 33 1 0.5897 -3.9918302979299196 4.896231701320185 10.01879460264166 1 0 0
535 179 2 -1.1794 -2.074494513912125 0.4486094903805624 12.6408409335937 0 0 0
522 174 1 0.5897 2.1421527000836385 4.918684919495278 9.328799490899415 0 0 0
124 42 2 -1.1794 -5.162575895033257 1.8325655955551308 7.471866582929162 1 0 0
669 223 1 0.5897 -5.382892774521045 1.01593381405039 9.09292434677829 1 0 0
126 42 1 0.5897 -4.313473797614652 2.2301499965302702 7.279130790189084 1 0 0
668 223 1 0.5897 -5.588211646802089 1.2250529081668509 10.57817454240642 1 0 0
576 192 1 0.5897 -0.6027049983275923 -0.4962288103360887 11.673697697010377 0 0 0
667 223 2 -1.1794 -5.524058095103911 0.5408875224773624 9.911833879106352 1 0 0
67 23 2 -1.1794 -2.469812849762028 -0.28860417872569255 8.464076412649016 0 0 0
523 175 2 -1.1794 -2.6480890289164893 2.122480017318873 10.267893297606303 0 0 0
524 175 1 0.5897 -3.186743485359449 2.8999218686445283 10.120922771836243 0 0 0
525 175 1 0.5897 -1.7471393703567615 2.4418051440392783 10.21778761889205 0 0 0
626 209 1 0.5897 -5.564613542343158 1.5719391021737592 12.716899171505084 1 0 0
537 179 1 0.5897 -2.276385561117581 1.0653989563136872 11.937282364445656 0 0 0
552 184 1 0.5897 -2.5455625220334026 4.314573397615071 12.485677285906032 0 0 0
606 202 1 0.5897 -6.264149244631939 4.339233867916624 9.738870706192262 1 0 0
135 45 1 0.5897 -1.9468348647103602 3.2133380122950266 6.740107194596232 1 0 0
550 184 2 -1.1794 -1.6317188316331173 4.5819281422902 12.387696833513372 0 0 0
574 192 2 -1.1794 0.07461137632997827 -0.5830345286652098 11.002941378930512 0 0 0
558 186 1 0.5897 -0.5222540951415917 3.496022634698483 12.815155135641463 0 0 0
618 206 1 0.5897 -6.828588004258474 5.553420862180654 11.586059012684586 1 0 0
587 196 1 0.5897 -1.2523165579343787 4.980627167635004 10.531597318744796 0 0 0
586 196 2 -1.1794 -0.6286609238165854 5.401864872596085 9.940134728224924 0 0 0
1410 470 1 0.5897 1.0046335347856035 -0.6490504895757399 7.71322285543257 0 1 0
1994 665 1 0.5897 -4.306614547917889 -0.43285980810908403 10.880307056739511 1 1 0
125 42 1 0.5897 -5.790218231505083 2.548832849870171 7.376023559415945 1 0 0
588 196 1 0.5897 -1.1665521741975753 5.971481923313915 9.390249567542966 0 0 0
630 210 1 0.5897 -8.45720536129619 1.306975677321561 16.26950166339438 1 0 0
557 186 1 0.5897 -0.030224410964629023 2.1815617963290603 13.382475792910105 0 0 0
164 55 1 0.5897 -8.78907130568663 1.0998881725880632 18.398915006548393 1 0 -1
513 171 1 0.5897 -4.139048940138761 5.701055794394581 14.253292926174195 0 0 0
593 198 1 0.5897 -7.436907440361559 0.1908436117943113 14.371693362109928 1 0 0
662 221 1 0.5897 -7.830578370274222 4.313091558609572 14.015218847681549 1 0 0
527 176 1 0.5897 -2.794573626221137 1.1756271423592743 19.11338948879193 0 0 0
84 28 1 0.5897 -4.286143226728281 5.477901627003895 18.542252646211118 0 0 -1
661 221 2 -1.1794 -7.270123833763399 4.943218327540113 14.468021951976954 1 0 0
639 213 1 0.5897 -6.028081326816727 3.512347535762186 15.357225622139149 1 0 0
559 187 2 -1.1794 -4.084353736714644 3.9724332872053454 13.496409662124854 0 0 0
538 180 2 -1.1794 -3.421954339949444 0.24209400727563635 16.560221025632906 0 0 0
539 180 1 0.5897 -3.304050971586415 0.9709658064183373 17.16936124164276 0 0 0
540 180 1 0.5897 -4.319912405558306 -0.05335646762472779 16.710450066672365 0 0 0
547 183 2 -1.1794 -3.692316452973177 4.365989755577361 17.130497810938976 0 0 0
548 183 1 0.5897 -3.672615528788156 5.04784119668465 16.459014137221693 0 0 0
549 183 1 0.5897 -4.284200746825246 3.7006079865420274 16.779583293687672 0 0 0
663 221 1 0.5897 -7.018022899133433 5.570487054398092 13.79038730020492 1 0 0
592 198 2 -1.1794 -8.351608389074777 0.425860689999465 14.52744493880911 1 0 0
591 197 1 0.5897 -5.0932118621291735 -0.26319703057717636 14.401280860771392 1 0 0
628 210 2 -1.1794 -8.230452014563486 1.9154292156142527 16.972760810968637 1 0 0
561 187 1 0.5897 -3.6175955933301553 3.2961399993821203 13.987254838082077 0 0 0
562 188 2 -1.1794 -1.1222045989074463 3.7141573642605845 16.491522070763537 0 0 0
563 188 1 0.5897 -1.0448683473358518 4.55580322806952 16.042243844153354 0 0 0
564 188 1 0.5897 -1.8932624492241397 3.810415711568523 17.050450058260573 0 0 0
638 213 1 0.5897 -6.497777876445227 2.4351466732609106 16.31161766574325 1 0 0
163 55 2 -1.1794 -9.296032769261469 0.6838170396405083 19.096118292786393 1 0 -1
580 194 2 -1.1794 -2.3552600615283126 2.0564611615050397 14.745134485013182 0 0 0
581 194 1 0.5897 -2.7063367277495285 1.401652469461098 15.34861058749597 0 0 0
582 194 1 0.5897 -1.837600380428067 2.6404832925203108 15.29934166565633 0 0 0
589 197 2 -1.1794 -5.552434959291933 0.5438920201255097 14.169142403237409 1 0 0
590 197 1 0.5897 -5.349405865847211 1.1491623623209903 14.88232889407107 1 0 0
601 201 2 -1.1794 -7.593699234502103 4.151648241335303 18.840998898698466 1 0 0
508 170 2 -1.1794 0.5026002983645972 0.34175919825164036 14.660461241441128 0 0 0
615 205 1 0.5897 -7.730664911186683 5.55029282646532 15.987800350586701 1 0 0
637 213 2 -1.1794 -5.729603258715345 2.7315205907484965 15.823479696082451 1 0 0
614 205 1 0.5897 -7.930471230416758 5.222885151655181 17.45229031262214 1 0 0
571 191 2 -1.1794 -6.03811167158716 -0.2845840095580805 17.527323353936843 0 0 0
20 7 1 0.5897 -5.987218278843454 1.3606289971051635 18.48957293238226 0 0 -1
165 55 1 0.5897 -9.813852505548422 0.014109230558116082 18.649401937043685 1 0 -1
556 186 2 -1.1794 0.26784416611154427 2.9666390306566703 12.923109879515781 0 0 0
528 176 1 0.5897 -3.8701871220396225 2.2010117057714513 18.8246953624529 0 0 0
629 210 1 0.5897 -8.823740489456465 2.656381768660464 16.849636759139962 1 0 0
514 172 2 -1.1794 -0.9927905094661602 5.925544757584894 14.839522225144751 0 0 0
603 201 1 0.5897 -6.954443703162802 3.439248334422908 18.842683996564446 1 0 0
536 179 1 0.5897 -2.159390762683442 0.9636104215133614 13.443198625705698 0 0 0
551 184 1 0.5897 -1.46895175582734 5.158362339214077 13.134314963781561 0 0 0
526 176 2 -1.1794 -2.9451831393003385 2.0101439169538913 18.669447053696267 0 0 0
560 187 1 0.5897 -4.761275777620815 3.4960297235611106 13.015777644627367 0 0 0
19 7 2 -1.1794 -5.7499406246845135 2.1196194477417576 19.02233633844049 0 0 -1
613 205 2 -1.1794 -8.0248410650476 5.931043264940747 16.81526779891547 1 0 0
101 34 1 0.5897 -9.339310401880478 4.080184986093498 19.199743366606107 1 0 -1
257 86 1 0.5897 -4.488419866515546 8.114813000803247 4.594151043047228 1 0 0
332 111 1 0.5897 -2.0065191539863863 8.96899866568342 0.8207845538940914 1 0 0
291 97 1 0.5897 -3.616799374641842 9.88815008337736 2.3627314759524687 1 0 0
289 97 2 -1.1794 -2.6888901630733146 9.689718903199685 2.2371133876105875 1 0 0
326 109 1 0.5897 -3.2880539341018107 11.557339856781718 5.349402312493792 1 0 0
290 97 1 0.5897 -2.2297679551348084 10.352664956950624 2.7527802808306645 1 0 0
258 86 1 0.5897 -5.156651966311699 8.856221232962596 5.732400236795897 1 0 0
147 49 1 0.5897 -0.9644108313714708 7.027569615812741 0.6250252756193606 1 0 0
255 85 1 0.5897 -2.414526635594705 8.464467248006924 3.7065693746178696 1 0 0
253 85 2 -1.1794 -2.4872566657941473 7.943930788194065 4.506542936606003 1 0 0
325 109 2 -1.1794 -3.763666922923912 12.304230902642605 4.985937112363906 1 0 0
146 49 1 0.5897 -1.405112041117353 6.171766710697954 1.7934572525177568 1 0 0
331 111 2 -1.1794 -1.8955178919564986 8.555356896017063 -0.03524852695994796 1 0 0
12 4 1 0.5897 0.8759871337040135 6.278328297667818 4.768713440658987 0 0 0
221 74 1 0.5897 4.2804071437834095 10.556043739914823 3.1439818437423885 0 0 0
29 10 1 0.5897 4.782953249185628 6.335935923621556 2.5197665064925743 0 0 0
173 58 1 0.5897 2.9097301280888823 7.583530483417322 4.866942548075009 0 0 0
245 82 1 0.5897 0.5856731660983394 9.364206752904362 4.244746766692531 0 0 0
225 75 1 0.5897 -0.9089195107336918 12.382547893402357 3.990821528114962 0 0 0
301 101 2 -1.1794 -2.36408530657636 10.314541339831576 6.374004566928825 1 0 0
302 101 1 0.5897 -2.1151124796486256 9.502029958952411 5.933512915912878 1 0 0
254 85 1 0.5897 -1.813832099311577 7.269761169852273 4.416208378164506 1 0 0
214 72 2 -1.1794 1.6629710563336602 12.288714176517155 2.4252807361496944 0 0 0
239 80 1 0.5897 3.8093834640225817 8.288801492217912 1.6468434828815572 0 0 0
696 232 1 0.5897 4.363487610074633 10.522447262688098 0.42422456222798716 0 0 1
187 63 2 -1.1794 0.7460041610087131 9.955700036236372 0.19752087501038795 0 0 0
201 67 1 0.5897 1.6527002351306566 8.208196519528093 2.425520193423204 0 0 0
694 232 2 -1.1794 3.6886520923733057 9.846183670502562 0.4831218552263592 0 0 1
238 80 2 -1.1794 3.3967488277822904 7.525620288599802 2.0511928841122486 0 0 0
145 49 2 -1.1794 -0.6294986474190525 6.435451752971217 1.298381160604733 1 0 0
222 74 1 0.5897 2.827138189621092 10.977303583729068 3.1916489404924007 0 0 0
224 75 1 0.5897 -0.5227639897474918 10.926304659639039 4.139168726251361 0 0 0
223 75 2 -1.1794 -1.0826085359654596 11.51290411791989 3.63060550417963 0 0 0
244 82 2 -1.1794 0.5771255439527723 9.942931155737037 5.007119568679213 0 0 0
174 58 1 0.5897 3.378233174814704 9.00982411409997 4.6719508800703755 0 0 0
200 67 1 0.5897 0.27626494209632124 7.789316498343673 1.9546397692524353 0 0 0
240 80 1 0.5897 3.1435428900884554 6.970703185809252 1.3135203898925925 0 0 0
199 67 2 -1.1794 0.7354577528642006 8.481708559144352 2.4299700402128934 0 0 0
216 72 1 0.5897 0.7545115006658776 11.995921761934563 2.3534602289235274 0 0 0
188 63 1 0.5897 0.626164197298805 9.389494489600825 0.9599227324323134 0 0 0
220 74 2 -1.1794 3.5897378817946866 10.824956657497069 3.7496723486845585 0 0 0
228 76 1 0.5897 1.8172638954456213 11.0436680650572 6.059146144274837 0 0 0
246 82 1 0.5897 0.4805110319183532 9.353318399222431 5.754933946532601 0 0 0
184 62 2 -1.1794 5.380641883461391 12.033878590098151 0.35155848983198185 0 0 0
189 63 1 0.5897 1.6531802651941687 10.254416907535841 0.2606410049935872 0 0 0
172 58 2 -1.1794 3.5466460616124698 8.221685283686615 5.188340443792079 0 0 0
10 4 2 -1.1794 1.8187503865381203 6.164837620343359 4.648346424657896 0 0 0
226 76 2 -1.1794 2.169933487543555 11.395258612784541 6.876585310120126 0 0 0
303 101 1 0.5897 -1.5399657121554395 10.668729140857161 6.708011135892603 1 0 0
718 240 2 -1.1794 -1.5878711392823588 11.99433271467743 12.373875132514186 0 0 0
836 279 1 0.5897 -4.95628371977815 8.093038420468586 10.27832869019804 1 0 0
190 64 2 -1.1794 0.6374636702983358 9.415710864604039 9.840803325827428 0 0 0
191 64 1 0.5897 0.6343047534085433 9.231307790982173 8.901549666504623 0 0 0
192 64 1 0.5897 1.2588869890266432 10.136719127746572 9.941718326889289 0 0 0
202 68 2 -1.1794 0.2887416508049312 8.245884314277532 7.219946216476879 0 0 0
203 68 1 0.5897 -0.5032267987750516 7.850427901334088 7.584097189023333 0 0 0
204 68 1 0.5897 0.9684952376241069 7.584565286961215 7.349371739244244 0 0 0
744 248 1 0.5897 -0.09219200523838422 6.643461681923909 11.013500591375331 0 0 0
267 89 1 0.5897 -4.236653294603302 12.062798374458596 8.876783530885723 1 0 0
835 279 2 -1.1794 -5.676993690054545 8.543298878366148 9.837879040370643 1 0 0
793 265 2 -1.1794 -6.3913664908321 9.891914729690518 12.057028036702366 1 0 0
235 79 2 -1.1794 -1.9304430619918138 7.15731257175463 8.353146561626627 0 0 0
236 79 1 0.5897 -2.7605793034630217 6.833924827005699 8.003180252881764 0 0 0
237 79 1 0.5897 -2.141108202528328 8.018802082298853 8.713214751174743 0 0 0
64 22 2 -1.1794 2.2300214835279037 6.405543152736243 8.096563317519381 0 0 0
266 89 1 0.5897 -3.657145993965922 10.81583530198418 9.51002695042117 1 0 0
212 71 1 0.5897 -0.8798014553585718 12.588005793749064 8.445770632722091 0 0 0
292 98 2 -1.1794 -4.948441967606481 9.856587019913222 7.226707410086227 1 0 0
293 98 1 0.5897 -4.00499865545552 9.946241576668298 7.0923321851106005 1 0 0
211 71 2 -1.1794 -0.6023014588497384 12.099093536704423 7.671064898337734 0 0 0
111 37 1 0.5897 -5.107232729464863 6.578023063401003 7.3672181815205 1 0 0
617 206 1 0.5897 -6.951637234979034 6.979784465009021 12.078151844202624 1 0 0
227 76 1 0.5897 1.4056526037038681 11.496223435408176 7.443929092569756 0 0 0
837 279 1 0.5897 -6.167332196352978 7.844715474870787 9.404576014964436 1 0 0
265 89 2 -1.1794 -4.255607166796478 11.543149204053893 9.680405252644404 1 0 0
650 217 1 0.5897 -3.292365217215085 6.777163820965485 11.40603889779453 1 0 0
704 235 1 0.5897 -1.499356098230872 7.750782984059997 12.3338503097334 0 0 0
794 265 1 0.5897 -5.670158851018243 10.487479297793717 12.260401185625046 1 0 0
691 231 2 -1.1794 -2.303599269772561 9.49546737620776 9.812295986082724 0 0 0
692 231 1 0.5897 -1.3976192574833224 9.775775492127824 9.682615216457027 0 0 0
693 231 1 0.5897 -2.367860537972887 9.317727524552355 10.75064053655683 0 0 0
703 235 2 -1.1794 -2.41741232208658 7.997049554647516 12.446498092440907 0 0 0
774 258 1 0.5897 -6.123541239872823 11.718646987829578 9.811446256158133 1 0 0
294 98 1 0.5897 -5.034302767996674 9.551376514979816 8.129860184748972 1 0 0
795 265 1 0.5897 -6.176858445419512 9.541702713113978 11.192417244762071 1 0 0
719 240 1 0.5897 -1.525167829219141 12.533628296272436 11.58556474141327 0 0 0
726 242 1 0.5897 -0.4013516581465639 10.782177345483134 12.707730533059786 0 0 0
742 248 2 -1.1794 0.09467902452102273 7.393774313270891 11.577694202534445 0 0 0
743 248 1 0.5897 0.22350032714617063 8.123467648262757 10.971759193488195 0 0 0
109 37 2 -1.1794 -4.232026660512065 6.206825091068373 7.255905321131593 1 0 0
688 230 2 -1.1794 1.925633859744683 12.011728798563327 10.114523437084918 0 0 0
649 217 2 -1.1794 -3.9541969510365202 6.449228730324937 10.797254542697043 1 0 0
616 206 2 -1.1794 -6.439737586993717 6.179722957773255 12.196585998511997 1 0 0
651 217 1 0.5897 -4.762152941615431 6.4274886752854545 11.310023621237356 1 0 0
65 22 1 0.5897 2.51460434302838 7.13506204088188 8.64703402386984 0 0 0
66 22 1 0.5897 3.0274473862354405 6.1120985283321625 7.655895315245082 0 0 0
690 230 1 0.5897 1.4819802141301635 12.534161759047626 9.446387333244441 0 0 0
516 172 1 0.5897 -0.4871476557647494 6.737818931323286 14.81229772716662 0 0 0
798 266 1 0.5897 -8.63110761035622 9.54654935089698 16.328808816797135 1 0 0
829 277 2 -1.1794 -7.205217560827587 12.493997701921863 14.447363081569227 1 0 0
512 171 1 0.5897 -4.623763539064633 6.942923305954571 14.970662169170756 0 0 0
759 253 1 0.5897 -5.706631328232936 8.269061924780848 13.68519025253699 1 0 0
678 226 1 0.5897 0.33937671385312296 8.832414549261445 14.083971015734505 0 0 0
568 190 2 -1.1794 -1.601448162414636 7.0518735202424265 18.15341794420899 0 0 0
715 239 2 -1.1794 -3.976394322554974 12.39272423383435 17.050287318893233 0 0 0
717 239 1 0.5897 -3.0617622373691056 12.270763215186442 16.795821170636877 0 0 0
796 266 2 -1.1794 -8.561403688390786 10.251514684948965 16.972526977247334 1 0 0
695 232 1 0.5897 -3.149026190576307 9.545756178816648 18.975541742485497 0 0 0
807 269 1 0.5897 -5.043796385043554 11.138169664232986 16.229747697400597 1 0 0
806 269 1 0.5897 -6.246913052492259 11.25257433220306 15.318073345407855 1 0 0
706 236 2 -1.1794 -3.564167572848346 8.829018493460268 17.300108058797612 0 0 0
707 236 1 0.5897 -4.487591369707003 8.596020257481834 17.39596041387194 0 0 0
708 236 1 0.5897 -3.0995315737099327 7.993648511062759 17.349511104295033 0 0 0
333 111 1 0.5897 -9.09587177454911 9.344972880099808 18.68102558606214 1 0 -1
724 242 2 -1.1794 0.28882280459056453 10.270483760368801 13.129612621218035 0 0 0
831 277 1 0.5897 -8.026673460501982 12.078621493697323 14.184951347752953 1 0 0
83 28 1 0.5897 -5.185713153878712 6.640550996620597 18.903870891895664 0 0 -1
805 269 2 -1.1794 -5.802704875695525 10.648410106071857 15.912912226484433 1 0 0
676 226 2 -1.1794 0.38534101883770955 8.19178502486786 14.793670974659303 0 0 0
797 266 1 0.5897 -7.621594890156248 10.417570470190551 17.04575456464577 1 0 0
730 244 2 -1.1794 -1.3041693790835929 11.564573934725486 16.057232965335373 0 0 0
731 244 1 0.5897 -1.7760817071850221 10.863230059685687 15.608215310846223 0 0 0
732 244 1 0.5897 -0.7033928436719874 11.109894709566223 16.647569032533774 0 0 0
739 247 2 -1.1794 -6.299977897593484 7.765495104453871 17.97381443601965 0 0 0
740 247 1 0.5897 -6.992233211955785 7.358554770641893 17.45288252534492 0 0 0
741 247 1 0.5897 -6.663852100237586 8.610356232390908 18.23836724314203 0 0 0
748 250 2 -1.1794 -2.6375647304011007 9.489158369876206 14.691570470504896 0 0 0
749 250 1 0.5897 -2.9567744771540125 9.109941535643802 15.510421203884459 0 0 0
750 250 1 0.5897 -3.4066994759547775 9.90772464113656 14.30506447220642 0 0 0
757 253 2 -1.1794 -6.100696228447482 8.148085830036553 14.549074775445796 1 0 0
758 253 1 0.5897 -6.074454614877457 9.017463587743684 14.948695414962838 1 0 0
762 254 1 0.5897 -8.134511505779841 8.216354411423362 14.73793629899881 1 0 0
729 243 1 0.5897 -4.3653028769813 12.103612330922935 13.56887096587743 0 0 0
725 242 1 0.5897 0.6797423168467542 10.871622824149666 13.763660487127868 0 0 0
570 190 1 0.5897 -0.8739024215348827 6.843182456804201 17.56748185968201 0 0 0
769 257 2 -1.1794 -7.64338570315019 12.454026258442953 19.152300594927652 1 0 0
511 171 2 -1.1794 -3.893316872241172 6.325340595830852 14.936001242889471 0 0 0
727 243 2 -1.1794 -4.12528831402037 11.239056142188776 13.23551177120361 0 0 0
705 235 1 0.5897 -2.43736778839002 8.476628153809875 13.274638088627801 0 0 0
569 190 1 0.5897 -1.6977679557129441 6.2740743942330806 18.702919951815723 0 0 0
716 239 1 0.5897 -3.941764571102067 12.577998944236551 17.98873271316863 0 0 0
770 257 1 0.5897 -8.563652633348056 12.192547533848954 19.18267025003115 1 0 0
82 28 2 -1.1794 -4.431611669489707 6.141088234238779 19.216953002722484 0 0 -1
728 243 1 0.5897 -3.2415496199636964 11.353457296972852 12.886065476810604 0 0 0
720 240 1 0.5897 -1.4413787502904327 12.606020511079018 13.09539161077946 0 0 0
515 172 1 0.5897 -1.9057807046173378 6.21191138272159 14.864120494171226 0 0 0
771 257 1 0.5897 -7.157916228062813 11.637195767728688 19.26751978795032 1 0 0
425 142 1 0.5897 -4.160370047047649 15.564523952361139 5.207786585849727 1 0 0
280 94 2 -1.1794 -3.3670147973639457 13.64061882573836 2.507979890989615 1 0 0
281 94 1 0.5897 -3.459651672247202 13.305958147969392 3.399961731771916 1 0 0
458 153 1 0.5897 -2.7491293318854186 17.13670435708894 1.6514087192010294 1 0 0
457 153 2 -1.1794 -2.9796828628504457 17.608378800635098 2.45177100913417 1 0 0
327 109 1 0.5897 -3.985406861300956 12.840877512313288 5.746890631712162 1 0 0
282 94 1 0.5897 -2.445703670001067 13.89114856863866 2.440109971877035 1 0 0
500 167 1 0.5897 -1.760734650008578 15.410488278762166 0.43085882444416057 1 0 0
459 153 1 0.5897 -2.216467944134684 18.155890499691903 2.6359688633636806 1 0 0
423 141 1 0.5897 -2.615509786799911 16.317408990840867 3.6877410728026585 1 0 0
421 141 2 -1.1794 -2.3465963424877225 15.92083298871308 4.5163553570328 1 0 0
470 157 1 0.5897 -2.8140574681743655 18.597141631782517 6.017115981108638 1 0 0
391 131 2 -1.1794 -1.0619406946871228 19.263471159380487 3.2440179606270294 0 0 0
422 141 1 0.5897 -2.340899489260095 16.64739873389386 5.139474041171688 1 0 0
313 105 2 -1.1794 -0.8961003399086405 14.301650910887265 1.7668879089929346 1 0 0
355 119 2 -1.1794 0.8188826730166126 17.56057697868844 0.34271813512639604 0 0 0
340 114 2 -1.1794 3.7409027468040668 15.843664268148995 5.041963031507346 0 0 0
341 114 1 0.5897 3.25670231693642 15.018060994778239 5.030421380793626 0 0 0
177 59 1 0.5897 0.16808524732485974 14.103965065973107 5.250112064990394 0 0 0
390 130 1 0.5897 3.9218172689438138 18.6802439915946 3.818106250678339 0 0 0
413 138 1 0.5897 1.0909277808964442 18.147287102077893 5.1314502072032875 0 0 0
353 118 1 0.5897 4.933404548406233 18.84021923106934 0.06473663710216734 0 0 0
369 123 1 0.5897 0.9651930926391072 16.693592129862495 3.212502614905013 0 0 0
315 105 1 0.5897 -0.5594012518657054 13.676181203458803 1.125308220650569 1 0 0
356 119 1 0.5897 0.9157546651374764 17.083045614473882 1.166597500394873 0 0 0
408 136 1 0.5897 4.10537014498262 16.206640782396224 1.433646377907654 0 0 0
179 60 1 0.5897 2.1944169694323605 13.078355091450398 5.537390062900433 0 0 0
252 84 1 0.5897 3.138582239052478 14.088080387290233 0.4433236822500465 0 0 0
368 123 1 0.5897 2.0682999735093714 15.886520328473576 2.5616861079352744 0 0 0
314 105 1 0.5897 -0.1315072685625105 14.81701465441694 2.023771870294089 1 0 0
176 59 1 0.5897 -1.241999486671625 14.592137934971408 4.9950542617538884 0 0 0
175 59 2 -1.1794 -0.7495563680216266 13.84584146267171 5.336676548749358 0 0 0
412 138 2 -1.1794 0.47148445506260384 17.44101856085276 4.947934834552373 0 0 0
388 130 2 -1.1794 3.6330569053052226 18.007477819821666 3.20149502159204 0 0 0
367 123 2 -1.1794 1.1234128823056286 16.03687079921611 2.5343502282421784 0 0 0
414 138 1 0.5897 -0.3831022284418637 17.871460082500995 4.924311200147446 0 0 0
389 130 1 0.5897 3.5855163955069997 17.20716945339927 3.7244146442165054 0 0 0
180 60 1 0.5897 2.0434227622932744 13.290947758949313 4.0461385602924205 0 0 0
178 60 2 -1.1794 2.0467702977667344 13.759175637301752 4.880981093716334 0 0 0
406 136 2 -1.1794 3.7401234367052876 15.453037838257611 1.8972052543044704 0 0 0
407 136 1 0.5897 4.503638573716496 14.991096215081086 2.243335002393483 0 0 0
250 84 2 -1.1794 2.4849328188817665 13.553322245094744 -0.007195830366256546 0 0 0
215 72 1 0.5897 1.8122463673276679 12.804525834702696 1.6329011265069342 0 0 0
1003 335 2 -1.1794 -5.801641187849326 16.04513951057683 10.044218668059925 1 0 0
232 78 2 -1.1794 1.873232285894245 14.203507662268889 8.331352823820037 0 0 0
912 304 1 0.5897 0.7762680132339286 14.94094162268494 11.542321428054906 0 0 0
234 78 1 0.5897 1.2793511158196287 14.763024035988883 7.8309458031463075 0 0 0
277 93 2 -1.1794 -4.324109970049256 13.50923769312915 7.632253830283969 1 0 0
278 93 1 0.5897 -3.7527478584136498 14.265699293738857 7.764601034684692 1 0 0
279 93 1 0.5897 -5.210600022818785 13.860941787226924 7.713515291195674 1 0 0
358 120 2 -1.1794 0.20388176634695698 17.86789667487956 9.57700585511139 0 0 0
359 120 1 0.5897 0.5820949384835972 17.09447787799662 9.995275281699637 0 0 0
360 120 1 0.5897 0.852031184388454 18.558024990381806 9.717815359994775 0 0 0
370 124 2 -1.1794 0.07031339264803149 16.123581140800315 7.398426324422118 0 0 0
371 124 1 0.5897 0.1727141366159719 16.856004029423975 8.006106926727272 0 0 0
963 321 1 0.5897 -5.820549576088325 17.043066386088288 11.566265345833544 1 0 0
471 157 1 0.5897 -3.1617372002462054 17.54675858716713 7.050389451941385 1 0 0
403 135 2 -1.1794 -2.7038794269741824 15.508480693658846 8.394187625061337 0 0 0
404 135 1 0.5897 -1.855786908613445 15.68848079437894 7.988554694574789 0 0 0
405 135 1 0.5897 -2.873562662248988 16.27278467967489 8.94486355322756 0 0 0
460 154 2 -1.1794 -5.173203295058794 17.20677264153498 7.519146708650314 1 0 0
461 154 1 0.5897 -5.734088271995299 17.93924952492112 7.264116355264587 1 0 0
911 304 1 0.5897 -0.5417548557861318 15.684789190825448 11.507498569953844 0 0 0
961 321 2 -1.1794 -5.947664092868978 17.66928584233887 12.278935808612752 1 0 0
396 132 1 0.5897 2.2744264174285087 18.913751743867 6.549445148671952 0 0 0
893 298 1 0.5897 -0.3147742701647971 18.707356799055322 12.585605712422819 0 0 0
754 252 2 -1.1794 -1.159882498928035 13.457596665583809 9.854714565848475 0 0 0
755 252 1 0.5897 -0.563475012472824 14.152712129069549 10.132766599465139 0 0 0
756 252 1 0.5897 -1.9938620244129952 13.902711386737566 9.704702129214674 0 0 0
784 262 2 -1.1794 -6.7487161292779545 13.765565517991298 12.092091818335007 1 0 0
896 299 1 0.5897 -4.709981719821614 19.008151022381433 12.82461743711877 0 0 0
817 273 2 -1.1794 -4.104015462209942 13.941634844720875 11.130695126528272 1 0 0
818 273 1 0.5897 -4.9205705548154075 13.867034899971319 11.624529915904642 1 0 0
819 273 1 0.5897 -4.06357225680974 13.13874986397727 10.611133810236993 1 0 0
859 287 2 -1.1794 -2.4387508333176906 17.583874810470228 10.023228203850723 0 0 0
860 287 1 0.5897 -2.8662272056110734 18.439898724859322 9.99753677806285 0 0 0
861 287 1 0.5897 -1.5082408858023317 17.77679895518048 9.90870465571764 0 0 0
871 291 2 -1.1794 -2.3664501688501867 15.83352729159132 12.266894494302901 0 0 0
872 291 1 0.5897 -2.5863158011421 16.52412840777311 11.641665802872756 0 0 0
873 291 1 0.5897 -2.816827749100093 15.056921331001517 11.934869301340619 0 0 0
1005 335 1 0.5897 -5.206469451926461 15.295988667509498 10.07083249698502 1 0 0
1004 335 1 0.5897 -5.508503173917502 16.557876562290467 9.290970370974751 1 0 0
910 304 2 -1.1794 0.22458689598336923 15.477181481331986 10.972885029546793 0 0 0
469 157 2 -1.1794 -2.455354971442493 17.83553766382236 6.472599243510966 1 0 0
233 78 1 0.5897 2.6645540416886364 14.153392991696256 7.795164796949656 0 0 0