LAMMPS (30 Jul 2021)
  using 1 OpenMP thread(s) per MPI task
package omp 0
using multi-threaded neighbor list subroutines
echo both

include		in.partitions
variable        pid world 0
include		in.temp
variable        temperature equal 244.09
variable	tempDamp equal 100.0
include		in.pressure
variable        pressure equal 4500.0
variable        pressureDamp equal 1000.0 # This is 1 ps
include		in.seed
variable        seed world 745823

units		real
atom_style	full
read_restart    restart.lmp.${pid}
read_restart    restart.lmp.0
Reading restart file ...
  restart file = 30 Jul 2021, LAMMPS = 30 Jul 2021
  restoring atom style full from restart
  triclinic box = (-3.1634841 -0.37928682 -0.080708173) to (14.773483 22.959286 19.310706) with tilt (-0.041695164 -6.9439270 -0.11707643)
  4 by 4 by 4 MPI processor grid
  restoring pair style lj/cut/tip4p/long/omp from restart
  restoring bond style harmonic/omp from restart
  restoring angle style harmonic/omp from restart
  1008 atoms
  672 bonds
  336 angles
Finding 1-2 1-3 1-4 neighbors ...
  special bond factors lj:    0        0        0       
  special bond factors coul:  0        0        0       
     2 = max # of 1-2 neighbors
     1 = max # of 1-3 neighbors
     1 = max # of 1-4 neighbors
     2 = max # of special neighbors
  special bonds CPU = 1.694 seconds
  read_restart CPU = 2.110 seconds

include 	in.setup
variable	out_freq equal 1000
variable	out_freq2 equal 10000
variable	out_freq3 equal 1000

timestep	2.0

neigh_modify    delay 7 every 1

include		in.tip4p
# This is TIP4P/Ice

# create groups ###
group ox type 2
336 atoms in group ox
group hy type 1
672 atoms in group hy

# set charges - beside manually ###
set group ox charge -1.1794
Setting atom values ...
  336 settings made for charge
set group hy charge 0.5897
Setting atom values ...
  672 settings made for charge

# ### TIP3P Potential Parameters ###
pair_style lj/cut/tip4p/long/omp 2 1 1 1 0.1577 8.5
pair_coeff 1 1*2 0.000 0.000
pair_coeff 2 2 0.21084 3.1668
bond_style  harmonic
bond_coeff  1 450 0.9572
angle_style harmonic
angle_coeff 1 55 104.52
kspace_style pppm/tip4p/omp 1.0e-5
pair_modify tail yes

thermo          ${out_freq}
thermo          1000
thermo_style    custom step temp pe etotal epair emol press lx ly lz vol pxx pyy pzz pxy pxz pyz enthalpy

restart 	${out_freq3} restart.lmp.${pid} restart2.lmp.${pid}
restart 	1000 restart.lmp.${pid} restart2.lmp.${pid}
restart 	1000 restart.lmp.0 restart2.lmp.${pid}
restart 	1000 restart.lmp.0 restart2.lmp.0


include         in.dump
dump            myDump all atom ${out_freq2} dump.water.${pid}
dump            myDump all atom 10000 dump.water.${pid}
dump            myDump all atom 10000 dump.water.0
dump            myDump2 all dcd ${out_freq2} dump.dcd
dump            myDump2 all dcd 10000 dump.dcd
dump_modify     myDump append yes
dump_modify     myDump2 append yes


variable natoms 	equal  "count(all)"                        # NUMBER ATOMS
variable H      	equal  "enthalpy/v_natoms"                 # ENTHALPY-per-atom
variable Vol      	equal  "vol/v_natoms"                 # volume-per-atom
fix AVG all 		ave/time ${out_freq} 1 ${out_freq} v_Vol v_H file vol_enthalpy.dat
fix AVG all 		ave/time 1000 1 ${out_freq} v_Vol v_H file vol_enthalpy.dat
fix AVG all 		ave/time 1000 1 1000 v_Vol v_H file vol_enthalpy.dat



fix 		1 all shake 1e-6 200 0 b 1 a 1
       0 = # of size 2 clusters
       0 = # of size 3 clusters
       0 = # of size 4 clusters
     336 = # of frozen angles
  find clusters CPU = 0.015 seconds
fix             2 all nph tri ${pressure} ${pressure} ${pressureDamp}
fix             2 all nph tri 4500 ${pressure} ${pressureDamp}
fix             2 all nph tri 4500 4500 ${pressureDamp}
fix             2 all nph tri 4500 4500 1000
fix             3 all temp/csvr ${temperature} ${temperature} ${tempDamp} ${seed}
fix             3 all temp/csvr 244.09 ${temperature} ${tempDamp} ${seed}
fix             3 all temp/csvr 244.09 244.09 ${tempDamp} ${seed}
fix             3 all temp/csvr 244.09 244.09 100 ${seed}
fix             3 all temp/csvr 244.09 244.09 100 745823


run             250000
PPPM initialization ...
  extracting TIP4P info from pair style
  using 12-bit tables for long-range coulomb (../kspace.cpp:340)
  G vector (1/distance) = 0.38282683
  grid = 24 30 36
  stencil order = 5
  estimated absolute RMS force accuracy = 0.0019899742
  estimated relative force accuracy = 5.9927481e-06
  using double precision FFTW3
  3d grid and FFT values/proc = 4050 480
Last active /omp style is kspace_style pppm/tip4p/omp
Neighbor list info ...
  update every 1 steps, delay 7 steps, check yes
  max neighbors/atom: 2000, page size: 100000
  master list distance cutoff = 10.8154
  ghost atom cutoff = 10.8154
  binsize = 5.4077, bins = 5 5 4
  1 neighbor lists, perpetual/occasional/extra = 1 0 0
  (1) pair lj/cut/tip4p/long/omp, perpetual
      attributes: half, newton on, omp
      pair build: half/bin/newton/tri/omp
      stencil: half/bin/3d/tri
      bin: standard
Per MPI rank memory allocation (min/avg/max) = 9.340 | 9.348 | 9.355 Mbytes
Step Temp PotEng TotEng E_pair E_mol Press Lx Ly Lz Volume Pxx Pyy Pzz Pxy Pxz Pyz Enthalpy 
10250000    249.51144   -4838.4385   -4339.3848   -4838.4385            0    3711.6037    17.936967    23.338573    19.391414    8117.6962    3689.6767    3107.9596    4337.1749    194.07695     1827.748     882.4547   -3899.9744 
10251000     242.0198    -4855.053   -4370.9835    -4855.053            0    5028.7484    18.077139    23.064658    19.331438    8060.1084    5925.8023    3680.4521    5479.9907    -570.1758   -1139.9754   -777.24598   -3779.8621 
10252000    245.31637   -4853.2104   -4362.5473   -4853.2104            0    4492.6793    18.016822     22.89004    19.561122    8067.1196     4578.066    6060.6019    2839.3701   -681.88077    206.00188    181.22917   -3833.9806 
10253000    244.10678   -4859.4646   -4371.2209   -4859.4646            0    4380.7904    18.241527    22.704156    19.527694    8087.5595    3494.8743    5089.1315    4558.3652    641.55101   -982.12171    1136.9486   -3854.5121 
10254000    228.81522   -4859.8165   -4402.1578   -4859.8165            0    5659.0507    18.219721     22.71847    19.471067    8059.5455    5718.7495    6222.7711    5035.6313    918.82669    830.86395    2396.5342   -3736.9919 
10255000    232.68718    -4831.392   -4365.9888    -4831.392            0     4559.715    18.092562    22.854501    19.531786    8076.3249    4779.4472    5921.9821    2977.7159    -563.7028    562.50151    135.08708   -3828.9232 
10256000    243.52598   -4839.2252   -4352.1432   -4839.2252            0    3453.7651    18.257385    23.223741    19.182185    8133.3381    1470.4052    3049.5669    5841.3233   -1609.9513    587.49606   -1444.3096     -3942.47 
10257000    257.28546   -4881.8246   -4367.2218   -4881.8246            0    4403.3647    17.933685    23.197266     19.34275     8046.825    5013.6011    3782.9586    4413.5343    749.81453    138.39838   -776.86869   -3850.4664 
10258000    239.05284   -4848.9168   -4370.7816   -4848.9168            0    4140.2708    18.047589    23.161488    19.375012    8098.9298    6041.4506    2673.6493    3705.7127   -623.39382   -1030.8787    -563.1833   -3881.7552 
10259000    253.09287   -4840.6494   -4334.4324   -4840.6494            0    3264.4846    18.138707    22.863429    19.560814    8112.1248    4428.7999     2730.957     2633.697     1052.262   -1052.0077    1603.3774    -3948.221 
10260000    247.62259   -4846.5216   -4351.2458   -4846.5216            0     5124.479     18.26413    22.723583    19.415583    8057.9809    3729.2351     5744.622    5899.5799    918.09442    250.54941   -581.13348   -3749.0304 
10261000    235.78503   -4839.9822    -4368.383   -4839.9822            0    6256.7264    18.156606    22.706921    19.524705    8049.6574    6678.1346     7100.975    4991.0695    425.07331    945.71038    66.484008   -3633.8683 
10262000    247.44873   -4820.1635   -4325.2355   -4820.1635            0    3907.3575    18.237239     22.82642    19.536352    8132.8049    4794.8033    3610.6087    3316.6606   -1397.1511   -1406.8501   -1533.0426   -3861.7892 
10263000    254.70806   -4843.4917   -4334.0441   -4843.4917            0    3029.1234    18.150662    22.985644    19.520644    8144.1034    2398.7883    3059.2855    3629.2964    1235.0534    565.99009   -297.36692   -3974.2648 
10264000    235.10266   -4840.5213   -4370.2869   -4840.5213            0    6030.4152    18.157179    22.985885    19.278601     8046.094    4540.8431    4715.8609    8834.5417    429.02379   -182.48342   -422.22916   -3662.6537 
10265000    247.69128   -4857.4933   -4362.0802   -4857.4933            0    3193.9446    17.992504     22.84097    19.674855    8085.7012    2828.0723    3989.5841    2764.1775   -836.30956   -384.29617   -635.81661   -3985.4449 
10266000     243.1892   -4850.2766   -4363.8681   -4850.2766            0    4369.8549    18.217559    22.924897     19.30416     8062.106    2894.7989    4137.2624    6077.5036     100.3021   -160.42073   -132.82033   -3850.0713 
10267000    240.64633   -4845.9304    -4364.608   -4845.9304            0    3832.3412     18.02933    22.776952    19.722308    8099.0286     5411.523    3412.5578    2672.9429    302.32603   -68.101314   -585.80455   -3911.9471 
10268000    240.46106   -4870.2364   -4389.2846   -4870.2364            0    3941.8771    18.313651    22.992274    19.278759    8117.7548    3021.7213    4567.3493    4236.5605    148.32172    30.085783   -75.499112   -3922.6092 
10269000    247.14585   -4858.7177   -4364.3955   -4858.7177            0    6726.2175    18.087517    22.756496    19.481724    8018.8436    7219.1354    6495.6577    6463.8595    1397.9895   -164.84361    609.36518   -3577.7871 
10270000    250.08668   -4861.0983    -4360.894   -4861.0983            0    5177.8636    18.138427    22.850694    19.451591    8062.2103    5209.7973    4902.3268    5421.4667   -985.56276    664.50354    355.65831   -3752.0857 
10271000    238.11707   -4869.8593   -4393.5957   -4869.8593            0    523.08993    18.399666    22.766863    19.497397    8167.5114    576.02489    1444.5307   -451.28582    119.14008    -433.4234    1210.2363    -4331.288 
10272000    241.07822   -4847.6087   -4365.4224   -4847.6087            0     5167.911    18.047173    22.690715    19.631125    8039.0098     4690.511    6808.1075    4005.1144    168.52903    1129.4817   -1005.9079   -3759.5329 
10273000    239.21571   -4877.4161   -4398.9551   -4877.4161            0    3560.1887    18.180803     22.77985    19.503958    8077.6803    4916.0942    3788.5481    1975.9239   -1243.2992    470.70008   -1166.3757   -3979.5482 
10274000    249.60674   -4818.6335   -4319.3892   -4818.6335            0     5283.878    18.211785     22.91669     19.35766    8078.9937     3590.999    6243.5484    6017.0866   -383.81351   -1167.1708    679.33927   -3696.8224 
10275000    254.84646   -4843.0199   -4333.2955   -4843.0199            0    3948.0962    18.097505    22.749481    19.611505      8074.23    3557.9972    5398.2745    2888.0169    413.72943    -273.5139   -1087.1191   -3868.3899 
10276000    245.76833   -4828.0259   -4336.4589   -4828.0259            0    4888.1129    18.255491    22.766381    19.411157    8067.4998    3614.9091    4923.5759    6125.8538   -979.09107   -841.29563   -1065.1457   -3761.3421 
10277000    252.60348   -4842.6003   -4337.3621   -4842.6003            0    3800.0778    18.284548    23.002741    19.334129    8131.8327     3206.777    4488.3821    3705.0743   -646.53929    855.35535    1399.8567    -3886.694 
10278000    239.41687   -4859.9407   -4381.0774   -4859.9407            0    5071.1317    17.891343    23.038915    19.526079    8048.5934    8631.6068    3940.6097    2641.1785   -145.00137    42.507729    710.24497   -3785.8255 
10279000    252.63159   -4863.8335   -4358.5391   -4863.8335            0    5491.6385    18.042955    23.027997    19.359734    8043.8364    5713.1868    5526.7358    5234.9929   -409.58578    111.67977   -331.89821   -3714.3089 
10280000    260.86658   -4864.3176   -4342.5522   -4864.3176            0    3812.5063    18.182232    22.917946    19.432011    8097.3077    3139.0612     3519.948    4778.5097    354.78593   -304.59618    1946.9749   -3892.3298 
10281000    258.23606   -4853.1217   -4336.6177   -4853.1217            0    4245.7677    18.057847     22.84735    19.579459    8077.9745    4514.8951    4391.3691    3831.0389   -25.766126   -370.38304   -1574.8382   -3836.4282 
10282000    245.23812   -4841.4456   -4350.9391   -4841.4456            0    5583.3555    18.240787    22.960661     19.25728    8065.3442    3733.1853    5731.4151    7285.4661   -662.46676    225.08868    832.38029   -3694.1982 
10283000    233.78915   -4832.2932   -4364.6861   -4832.2932            0    4959.2842    17.996064    23.103134    19.480365    8099.2631    4910.7389    4714.3952    5252.7183   -1017.9805   -33.415579   -793.39862   -3778.8982 
10284000    238.42796   -4873.8138   -4396.9284   -4873.8138            0    4238.1098    17.923335    23.292057      19.3863    8093.2246    5557.9982    2806.7092     4349.622    328.98011    111.35972    2916.0495   -3896.6985 
10285000    244.19627   -4882.1079   -4393.6852   -4882.1079            0    6196.1232    18.095194    23.074111    19.179387    8007.9794    7657.2388     6079.205    4851.9259    1949.4807    1300.9602     1247.573   -3670.0514 
10286000    232.10391   -4856.7337   -4392.4972   -4856.7337            0    5394.6802     18.01022    23.015891    19.420641    8050.2686     5419.242    5729.0555    5035.7431    186.04358    1480.1258    945.93873   -3759.1353 
10287000    250.40197   -4856.2387   -4355.4038   -4856.2387            0    6653.6523    18.093999    22.896235    19.337436     8011.199    5248.6869    7929.7607    6782.5092   -1403.4816    1133.1373    832.20388   -3578.0236 
10288000     238.3762   -4850.8403   -4374.0584   -4850.8403            0    5069.2933    18.183944    22.927367    19.355481    8069.4928    3694.5477    6980.4057    4532.9265    908.74306    365.72321    7.7930552   -3777.4773 
10289000    232.66769   -4834.6494   -4369.2853   -4834.6494            0    4571.6002    18.037613    23.068477    19.370444    8060.0467      4921.95    4258.4383    4534.4122   -850.12891   -861.55707    130.24976   -3831.9051 
10290000    252.70234   -4867.9555   -4362.5196   -4867.9555            0    3024.1632    18.107418    23.027977    19.473422     8119.973    3740.1684    2645.0334    2687.2878    157.12549   -622.45141     2809.655   -4004.3938 
10291000    240.04462    -4845.631   -4365.5121    -4845.631            0    4971.6448    18.290831    22.770814    19.412733    8085.3475    4271.3451    5914.2746    4729.3148   -402.75249   -645.49969   -855.28328   -3779.2732 
10292000    251.74382   -4862.4109   -4358.8922   -4862.4109            0    5135.3115    18.162603     22.59574    19.537124    8017.9858    5579.2794     5112.642    4714.0133   -213.75159   -216.68847   -917.40809   -3758.3991 
10293000    235.63888   -4817.6326   -4346.3257   -4817.6326            0    3253.1875    18.383121      22.6911    19.537013    8149.5373    560.23414    5488.8022     3710.526    599.45832    1207.2496    104.89509   -3959.6758 
10294000    240.89298    -4874.953   -4393.1373    -4874.953            0     3785.061    18.169752     23.01227      19.3786    8102.7206    4460.1832    2677.0459    4217.9539    1526.4979   -306.73196    218.29421   -3945.8571 
10295000    247.27264   -4890.5522   -4395.9764   -4890.5522            0    5348.9746     17.99132    22.940668    19.403108    8008.3011    5187.2766    4776.2277    6083.4195    89.324548   -86.226586    1178.6755   -3771.2544 
10296000    239.79876   -4863.7788   -4384.1517   -4863.7788            0    5146.0848    18.130357    23.070851    19.270867    8060.6714    5603.6114    5336.8472    4497.7957   -420.88166      1130.74   -813.80903   -3779.1953 
10297000    250.32966   -4861.4752    -4360.785   -4861.4752            0    5674.4291    17.901432     23.17269    19.438017    8063.3625    7138.3654    5243.4999    4641.4219   -1002.1294    799.94416   -1461.9723   -3693.4956 
10298000    243.16364   -4866.6125   -4380.2552   -4866.6125            0    5354.3118    17.943943    23.228818     19.26733    8030.9428    7958.0368    3556.7586    4548.1401   -4.0710033   -536.81304    1744.3956   -3753.1418 
10299000    252.65213   -4850.3423   -4345.0068   -4850.3423            0    4596.4261    18.215391    22.941428    19.358551    8089.6884    3946.7483    5003.3997    4839.1304   -259.16195    -770.4768    1059.1717   -3802.7213 
10300000    241.16676   -4873.8075   -4391.4442   -4873.8075            0    3118.3911    18.074349    23.011309    19.493587    8107.6646    2210.0531    2873.1685    4271.9518    512.46357   -647.94217    -735.2859   -4022.7195 
10301000    253.43616    -4816.773   -4309.8693    -4816.773            0     4435.305    18.338137    23.107194    19.182523    8128.4577    5251.6726    2977.6441    5076.5984    -852.9084    147.38432   -1070.6987   -3784.0851 
10302000    244.53271   -4871.4371   -4382.3414   -4871.4371            0    3373.7994    17.982083    22.931373    19.560469    8065.8347    4022.0956    4073.3912    2025.9114    428.10312   -320.79257    577.73151   -3985.4749 
10303000    242.46448   -4886.6778   -4401.7188   -4886.6778            0    4952.4466    18.291961     22.71247    19.331477    8031.3704    5325.8832    5103.0321    4428.4244     124.6325    532.65969    1631.0138   -3821.6423 
10304000    258.63933    -4853.792   -4336.4814    -4853.792            0    3740.4702    18.129257    22.604534    19.816466    8120.8554    4161.6927    5172.1703    1887.5476   -1695.6265    386.04389   -1351.4498   -3893.4812 
10305000    242.62525   -4831.4537   -4346.1732   -4831.4537            0    4773.9836    18.378751     22.73943    19.424504     8117.934    3703.4075    5136.3276    5482.2158    65.252066    256.68835    528.27469    -3780.973 
10306000    258.83282   -4844.0558   -4326.3582   -4844.0558            0    4574.4068     18.08453    22.938622    19.495689    8087.4785    3511.4195    5618.3124    4593.4886    298.37848   -333.34818   -289.58735    -3786.818 
10307000    229.19993   -4857.5668   -4399.1387   -4857.5668            0    4141.9144    18.032315    23.148799    19.339606    8072.8624    4969.6716    4208.8712    3247.2004   -1044.3694   -181.69344   -605.55267   -3911.4928 
10308000    238.90163   -4847.0778    -4369.245   -4847.0778            0    4139.9617    18.053386    23.385592    19.121186    8072.7569    4287.1188    2828.9571    5303.8093   -811.50364   -305.62705   -1310.4449   -3881.8354 
10309000    236.11536   -4844.0199     -4371.76   -4844.0199            0    3692.2649    17.966218    23.128807    19.524269    8113.0595    2292.0619    4387.9193    4396.8136    1987.7041    843.14551    697.60239   -3934.8888 
10310000    246.11566   -4854.4119   -4362.1502   -4854.4119            0    6237.9342    18.083887    23.073176    19.192557    8008.1465    6047.5786    5818.9504    6847.2735    217.33047   -611.07078   -2094.0166   -3633.6181 
10311000    241.94773   -4828.6113   -4344.6859   -4828.6113            0    4823.0806    17.936907    23.043987    19.567929    8088.1656    8782.5453    3579.9613    2106.7353    428.22643   -142.78666    1339.8211   -3775.7669 
10312000    254.87359    -4837.361   -4327.5823    -4837.361            0    4060.4961    18.247475    22.957073    19.338059     8100.879    2738.5891    3994.1322    5448.7669    581.71425   -71.202307    375.30011   -3847.8631 
10313000    252.51182   -4839.9872   -4334.9323   -4839.9872            0    2853.4877    18.107013    22.976054    19.491045     8108.815    2886.2262    4495.0615    1179.1752    341.68752    619.04156   -686.61819   -3997.4824 
10314000    237.30608   -4854.3905    -4379.749   -4854.3905            0     4305.515    18.217727    22.870097    19.399433    8082.6025    4874.3416    3753.2913     4288.912    -1130.047    623.16677   -266.09145   -3872.2301 
10315000    241.44648    -4875.074   -4392.1512    -4875.074            0     3799.036    18.314412    22.467759    19.673705    8095.4108    3809.5067    4985.5293    2602.0721    1226.0169   -935.09558   -940.46017   -3943.6246 
10316000    246.89367   -4824.9347   -4331.1169   -4824.9347            0    3895.4366    18.171576    22.827984    19.585343    8124.4004    3871.7351    4618.3623    3196.2125   -446.18187   -559.59678    723.66727    -3869.562 
10317000    231.76115    -4842.125   -4378.5741    -4842.125            0    1873.7031    18.241865    22.879419    19.528238    8150.3695    1548.3364    2351.7989    1720.9739   -525.47831   -702.94361    109.17505   -4155.8568 
10318000    246.55803   -4858.9734   -4365.8269   -4858.9734            0    5466.5878    18.116264     22.93812    19.372183    8050.1696    4278.4858    6000.6763    6120.6012    1577.5633    731.68638    1498.6291   -3724.0305 
10319000    241.42054   -4888.4576   -4405.5867   -4888.4576            0    4823.9746    18.039884    23.014708    19.385382    8048.4745    4517.8383    4943.5772    5010.5082    505.02234    1319.2684    -1366.671   -3839.3546 
10320000    243.27813   -4845.7389   -4359.1526   -4845.7389            0    4437.5226    18.160971    23.184582    19.190248    8080.1407    3246.0864    3255.4002    6811.0812   -295.52789    244.17074    469.97408   -3836.2324 
10321000    239.95371   -4839.5226   -4359.5855   -4839.5226            0    3954.3206    18.124133     22.93416    19.502006    8106.2381    5093.8244    4624.7038    2144.4337     312.2612   -908.06014    335.56481   -3892.1011 
10322000    257.06253   -4835.2563   -4321.0994   -4835.2563            0    3284.6597    18.131989    22.911985     19.61086    8147.1327    4579.5478    3237.5156    2036.9157   -161.44948   -155.40159   -385.34258   -3930.8241 
10323000    240.80722   -4884.1556   -4402.5114   -4884.1556            0    5901.7055       18.313    22.782885    19.195993    8009.0095    4865.2656    5116.8895    7722.9614   -180.68735   -558.82325   -1468.7317   -3713.1734 
10324000    231.97443   -4865.3991   -4401.4216   -4865.3991            0    3871.8352    18.110329    22.998857    19.508887    8125.7804    3224.9086    4449.2044    3941.3926    1413.7276   -224.62208    1176.5402   -3942.5853 
10325000    230.93114   -4838.3655   -4376.4747   -4838.3655            0    3679.9652    18.196373    22.931122    19.399862    8094.8497    3903.6779    3845.6819    3290.5358   -978.98913   -570.36548   -952.32202   -3942.0361 
10326000    247.11373   -4852.0543   -4357.7963   -4852.0543            0    4237.9282    18.126249    22.981995    19.460046    8106.6144    4940.2123    4262.1923    3511.3802     232.5294    -448.4264   -167.07936   -3856.7602 
10327000     229.5371   -4867.3295   -4408.2269   -4867.3295            0    5883.2448    18.041465    22.829537    19.443833    8008.4927    6909.8599    4833.7617    5906.1126   -539.85058   -942.50655    155.76448   -3721.0895 
10328000    265.05556   -4846.9345   -4316.7907   -4846.9345            0    6539.5297    18.104587    22.905975    19.361226    8029.1626    7068.5297    4903.8413    7646.2183   -270.59354   -863.73619    600.81553   -3551.0307 
10329000    238.85803   -4870.7028   -4392.9572   -4870.7028            0    3741.6349    18.044254    23.064232    19.485245    8109.3082    6073.6809    3132.9507    2018.2732   -308.00867   -111.63766    1094.5993   -3950.4492 
10330000    254.08015   -4850.7572   -4342.5655   -4850.7572            0    4086.3084    18.227994    22.926188    19.317206    8072.6296    3544.2339    3824.2137    4890.4777    363.18284   -89.671912   -657.52153   -3861.4803 
10331000     246.4503   -4852.9143   -4359.9832   -4852.9143            0    4024.5417    18.075616    22.867537     19.56911    8088.7902     4318.118    4369.0574    3386.4497   -1491.5569   -408.38536    35.176892   -3885.2213 
10332000    243.05264   -4879.3003    -4393.165   -4879.3003            0    4633.0396    18.039526     23.05476    19.395156    8066.3861    5721.9184    3785.7913     4391.409   -223.99206   -633.06835    1597.3785   -3848.1344 
10333000    250.70734   -4853.0966    -4351.651   -4853.0966            0    3914.1879    18.085716    23.162129    19.361969    8110.8005    4802.7166    3030.8009    3909.0461   -628.99035   -465.54016   -1328.9035   -3888.6507 
10334000    244.94923   -4828.3123   -4338.3836   -4828.3123            0    4706.1353    17.947146    23.154958    19.487109     8098.168    3944.0906    4879.2502    5295.0651   -475.80102   -465.94037   -1724.5098   -3782.5727 
10335000    243.67102   -4863.2482   -4375.8761   -4863.2482            0    6949.5919    18.062098    23.073078     19.16861    7988.4836    6495.6472    5579.9598    8773.1687    316.85337   -913.13735   -2290.1246   -3566.2219 
10336000    227.24817   -4841.3118   -4386.7874   -4841.3118            0    3387.3645      18.1239    22.900135    19.551259    8114.5498    2841.5287    3888.3897    3432.1751    843.53767   -579.28872   -2236.0146   -3985.9186 
10337000    227.82832   -4845.4364   -4389.7517   -4845.4364            0    4831.4524    18.131498    22.970957    19.355438    8061.4984    5206.6871     4438.794     4848.876    402.07081   -425.49283   -270.77403   -3821.7242 
10338000    236.86141     -4840.34   -4366.5879     -4840.34            0    2044.5815    18.122525    23.140243    19.453836    8158.1536    1645.4163     2132.598      2355.73    1392.7939   -424.58985   -1441.8261    -4123.327 
10339000    230.92781   -4874.6601    -4412.776   -4874.6601            0    5668.4464    18.001671    22.916632    19.436262    8018.1903    6479.6434    5402.7459    5122.9499    451.28881    246.44359    340.05836   -3749.9244 
10340000    240.40876   -4858.0304   -4377.1832   -4858.0304            0    3561.6142    18.201453    22.832749    19.503453    8105.4244    1317.2019    4365.6438    5001.9969    912.49067   -221.28286    634.65023   -3956.1673 
10341000    234.12878   -4855.6129   -4387.3264   -4855.6129            0    2774.1099    18.166554    22.865639    19.555387    8123.1098    2454.7139    3422.3885    2445.2275    979.55857    256.14319   -1243.7006   -4058.6853 
10342000    258.60921   -4893.4722   -4376.2218   -4893.4722            0    4872.7775    18.078592    22.942908     19.33929    8021.4631    4756.3324     4800.485    5061.5152    190.41721   -762.69041    869.33763   -3806.1809 
10343000    241.78494   -4830.0775   -4346.4777   -4830.0775            0    3563.3222    18.103333    23.084069    19.452451    8129.1515    4723.0222    2150.2849    3816.6594   -600.67345    -400.5418    639.10509   -3924.0269 
10344000    251.75823   -4871.1683   -4367.6207   -4871.1683            0    5374.7626    18.198641     22.98792    19.214042    8038.1737     3585.539     5704.646    6834.1029    -165.4852    319.16308   -735.47516   -3737.5453 
10345000    235.59872   -4880.7643   -4409.5377   -4880.7643            0    3886.7963    18.049141    22.971048    19.478657    8076.0008    2915.3065    4317.3923    4427.6902   -609.11843   -30.996118    50.026562   -3951.7501 
10346000    245.56253   -4848.5963   -4357.4409   -4848.5963            0    5815.3553    18.151028    22.909544     19.32414    8035.5912    5316.0714    6104.4051    6025.5894    257.19244    1445.0973    1201.2436   -3675.9344 
10347000    234.37277    -4834.971   -4366.1965    -4834.971            0    4294.0912    17.955901    23.195707     19.40904    8083.8618    5529.8919    4074.2322    3278.1495   -85.596954    336.45751    1761.1713   -3859.9453 
10348000    239.48009   -4859.2561   -4380.2663   -4859.2561            0    4791.3687     18.20892    22.888141     19.35431    8066.2636    6150.9696    3696.3462    4526.7902     264.5992   -658.71163     157.3594   -3816.6185 
10349000    232.90703   -4839.1149   -4373.2721   -4839.1149            0    4305.6905     18.19346    22.748098    19.548208    8090.3505    4743.0147    4471.0468      3703.01    339.84544    11.242074    2632.8677    -3865.246 
10350000    243.99066   -4855.1244   -4367.1129   -4855.1244            0    4592.9385     18.28721    22.416403    19.693001    8072.8199    3421.5432    6808.6506    3548.6217    6.5514348      354.523    506.93031   -3826.3688 
10351000    228.85775    -4868.561   -4410.8172    -4868.561            0    3637.1043    18.380806    22.655736    19.440257    8095.5199    3349.7182    3613.1365    3948.4581   -1314.2564    -449.2923   -273.95489    -3981.403 
10352000    232.71715   -4828.4405   -4362.9774   -4828.4405            0    3184.7257    18.212218    23.026151    19.396222     8133.947    3788.4314    3467.6414    2298.1044    -567.8556   -8.8095914   -63.688488   -3985.1885 
10353000    244.56307    -4840.503   -4351.3466    -4840.503            0    5610.2693    18.070744    23.069866    19.291307    8042.3458    6122.0713    4326.0505    6382.6861   -53.389069   -292.95906    130.82687   -3693.3217 
10354000    249.87212   -4845.0836   -4345.3085   -4845.0836            0    3649.8685    17.825352    23.285187    19.426303    8063.2104    4866.7419    3332.6219    2750.2416   -52.608326   -81.722233   -935.33007   -3916.1071 
10355000    251.57259   -4825.4706   -4322.2943   -4825.4706            0    6294.8331    18.083047    23.217003    19.109249    8022.7157    6604.2963    4770.5028    7509.7001   -677.16506     427.3279    117.00216   -3585.7795 
10356000    235.85243   -4866.0969   -4394.3629   -4866.0969            0    3238.6511     18.01821    22.939674    19.614459    8107.2808    5142.0157    3214.7225    1359.2153    1074.3982    337.71246    1503.4129   -4011.4365 
10357000     252.9905   -4874.7739   -4368.7617   -4874.7739            0    3230.5404    18.186745    22.876173    19.539913    8129.4461    3438.8458    4052.8491    2199.9262   -211.46179   -350.72486    1159.3549     -3985.75 
10358000    253.76153   -4849.1744     -4341.62   -4849.1744            0    3393.7508    18.344995    22.919263    19.285792     8108.784    2582.2752    3065.0377    4533.9394   -698.30154    659.61586   -688.77774   -3940.2808 
10359000    241.62291   -4861.9352   -4378.6595   -4861.9352            0    4778.1235    18.023309    22.790995    19.581007    8043.2735    5588.6354    5111.2036    3634.5315    387.68707    -247.1122   -788.88316   -3818.1718 
10360000     261.7043    -4869.515   -4346.0741    -4869.515            0    3907.5344    18.281239    22.891665    19.343317    8094.9461    3014.2708     4074.442    4633.8904   -1073.9025    220.34617   -1333.4287   -3884.7643 
10361000    246.37042   -4829.1131   -4336.3418   -4829.1131            0    3873.6856     18.01525    22.927151    19.639271    8111.7721    5561.2611    4225.0922    1834.7036    1146.9342    697.15226    3410.6285   -3878.0775 
10362000    237.40757   -4842.7735    -4367.929   -4842.7735            0    4808.3581    18.136763    22.984755    19.338831    8061.7603     5025.106     4322.148    5077.8203    2075.9346   -596.75731    655.35454   -3802.5983 
10363000    242.11517   -4864.8665   -4380.6062   -4864.8665            0    4125.8142    18.238966    22.847294    19.418591    8091.9408    3710.6328    5367.1832    3299.6266    1700.3876     188.2025     532.9889   -3893.7079 
10364000    238.14153   -4828.7214   -4352.4089   -4828.7214            0    2212.7603    18.322441    22.668205    19.656748     8164.172    3339.4349    2834.2191    464.62701    951.03902   -419.07882    751.63054   -4088.9442 
10365000    235.94987   -4846.0782   -4374.1493   -4846.0782            0    3891.7519    18.099634    22.865438    19.562288    8095.9713    4462.9023    4013.8497    3198.5036   -98.903093   -895.30091   -1448.1564   -3914.6446 
10366000    240.04334   -4876.8132   -4396.6969   -4876.8132            0    4381.4286    18.143889    22.939463    19.348803    8053.1861      5246.21    3516.9583    4381.1174     410.2942   -352.86916   -462.42782   -3882.1092 
10367000    232.19614     -4868.49   -4404.0691     -4868.49            0    5572.7486    18.002804    23.127817    19.357819    8059.9292    5371.7672    4325.2276    7021.2509    774.54631    697.49226   -687.42777   -3749.0159 
10368000    246.95319   -4880.6615   -4386.7246   -4880.6615            0    5701.1902    17.928625    23.106071    19.346644    8014.5423    7164.6768    5583.8735    4355.0204    569.41876    767.04395    1919.3601   -3720.3474 
10369000    243.17101   -4876.3579   -4389.9858   -4876.3579            0    4396.2257    18.080571    23.064891    19.317423    8055.8752    2641.6224     5605.589    4941.4657   -163.25593     1799.574    555.15275   -3873.4879 
10370000    243.24096   -4868.0066   -4381.4946   -4868.0066            0    4197.0061     18.09497    22.947741    19.425221     8066.103    4771.3753    4316.4468    3503.1962    165.78701    499.26796    -934.6399   -3887.7763 
10371000    244.91682   -4881.3485   -4391.4846   -4881.3485            0    4316.0659    18.285185    22.845348    19.361801    8088.0326    2671.4817      4886.91    5389.8059    -1406.117   -384.28035    586.33681   -3882.3803 
10372000    251.54754   -4842.8936   -4339.7674   -4842.8936            0    4476.3749    18.110841    22.865394    19.534352    8089.4002    5159.7957    4467.4728    3801.8563   -1399.2902   -788.12323    462.68234   -3811.6644 
10373000    242.46952   -4860.5443   -4375.5754   -4860.5443            0    2555.4106    18.145886    22.997479    19.444779    8114.4934    1378.4012    2506.6473    3781.1833   -1252.1409    -1123.473   -513.67129   -4073.1641 
10374000    246.20152   -4846.6833   -4354.2498   -4846.6833            0    4975.1101    18.162537    23.032982    19.245167     8050.973    4642.8349    4257.0075     6025.488    1204.8142    -272.7557    1822.6564   -3770.0963 
10375000    252.92471   -4846.7773   -4340.8966   -4846.7773            0    4335.4915     18.07611     22.87919    19.500314    8064.6818    4845.1085     4525.229    3636.1371   -1354.1319   -236.82089   -1946.3445   -3830.9773 
10376000    243.42789   -4875.8661   -4388.9802   -4875.8661            0    3068.6299    18.354705    22.721066    19.429658    8102.9147    349.66047    5354.7937    3501.4354   -1044.3316     1087.825   -588.25302    -4026.352 
10377000    235.98669    -4858.136   -4386.1334    -4858.136            0    5111.6624    18.184771    22.570001    19.661477    8069.6662    3654.4169    6119.5375    5561.0326    1048.7751    1779.0615    1154.8886   -3784.5531 
10378000    248.79151   -4879.1651   -4381.5514   -4879.1651            0    4695.1021    18.339459    22.763598    19.333315    8071.1192    5470.1822    4541.9519    4073.1723    22.535652    544.20492   -888.38025   -3828.8956 
10379000    250.10936   -4823.8866   -4323.6369   -4823.8866            0    3311.6911    18.041273    23.018369    19.621537    8148.4451    4175.8341    3567.1895    2192.0498   -151.08727    1018.9248   -982.68077   -3930.0865 
10380000    242.05778   -4885.8921   -4401.7467   -4885.8921            0    4600.9925    18.083664    22.994194    19.287039    8019.9228     4341.987    4252.4689    5208.5218    617.36061   -340.69113    832.24162   -3863.6038 
10381000    242.48894   -4887.2106   -4402.2028   -4887.2106            0     5394.672    18.104715    22.915272    19.362735    8033.1044    6160.7998    4762.3781    5260.8382   -370.62754   -745.78889    618.90776   -3770.1922 
10382000    257.66007   -4857.9617   -4342.6098   -4857.9617            0    5281.6273    17.959034      22.8961    19.611992     8064.291    5062.3347    5339.7407    5442.8064   -518.11575    512.81982    -2635.098   -3721.4407 
10383000    248.15718    -4849.213    -4352.868    -4849.213            0     4154.213    18.166912    22.934652    19.441096    8100.1675     3739.556    4325.8772     4397.206    1396.7464    168.80004    684.99035   -3862.1199 
10384000    237.89477   -4864.3272   -4388.5083   -4864.3272            0    5529.4973    18.040711    22.910929    19.373883    8007.7962    6130.9706    5636.5065    4821.0149   -295.08364    554.00452   -1778.1307   -3742.7432 
10385000    235.98405   -4860.4375   -4388.4402   -4860.4375            0    2964.6624    18.161843     22.99431    19.457809    8125.9519    3502.6885    3176.7119    2214.5868   -268.49761    1505.9018   -290.55723    -4037.102 
10386000    248.38723    -4852.114   -4355.3088    -4852.114            0    4825.8392    18.251537    22.878236    19.384233    8094.1381    4828.7074    5036.6466    4612.1635    649.22405   -489.49425    368.26728   -3785.6441 
10387000    242.57463   -4862.5597   -4377.3804   -4862.5597            0    5544.2267    18.078601    22.804945    19.518119     8046.959    4252.9139    6200.3234    6179.4428   -64.872552    593.63134   -658.43915   -3726.7286 
10388000    241.59335   -4853.5113   -4370.2948   -4853.5113            0    3686.2142    18.270574    22.847132     19.35323    8078.6231    1202.9633     4221.084    5634.5954    774.42768   -989.59278   -2029.1019   -3935.9908 
10389000    238.28396   -4871.9276   -4395.3302   -4871.9276            0    4380.6871    18.107769    22.941793    19.416888    8066.2547    4831.4385    3951.1668    4359.4561    1239.0627   -218.84984   -1909.2433   -3879.9947 
10390000    249.51443   -4855.5638   -4356.5041   -4855.5638            0     4843.283    18.125471    22.958651    19.399635    8072.8938    5581.1536    4540.1241    4408.5713   -230.77434     158.8043    276.41563   -3786.2808 
10391000    247.30502   -4875.0077   -4380.3671   -4875.0077            0    4002.3934    18.117796    23.116946    19.316487    8090.2882    2457.7642    3660.2658    5889.1503   -608.56973    936.41041   -588.02012   -3908.1305 
10392000    251.10439   -4877.1965   -4374.9567   -4877.1965            0    5040.5686    18.159365     22.95353     19.29243    8041.5004    6094.5132    4404.6774    4622.5153   -509.48676     137.1507    586.84342   -3783.8138 
10393000    241.86245   -4857.2838   -4373.5291   -4857.2838            0    5297.5653    18.124124    22.856648    19.414925    8042.7631    5546.5006    5916.5836    4429.6116    811.35008    64.094504    1860.3304   -3752.1488 
10394000    245.56523   -4860.4425   -4369.2817   -4860.4425            0    3778.5155    18.080442    22.734697    19.647696    8076.2515    4350.9246    4511.1305    2473.4913    -565.6996    331.97653    -862.0003   -3924.2337 
10395000     249.1656   -4869.8531   -4371.4911   -4869.8531            0     4742.763    18.232586    22.835766    19.327429    8047.0735    5259.6679    4170.4424    4798.1788   -19.691642   -730.07082    552.04198   -3814.8884 
10396000    237.52114   -4859.2743   -4384.2027   -4859.2743            0    5148.9518    17.954314    22.940125    19.553509     8053.586    6271.5571    4794.5388    4380.7596   -1416.2634    995.06638   -1178.7622   -3779.4413 
10397000    230.43876   -4851.6866   -4390.7806   -4851.6866            0    7212.1503    18.003239     22.98118    19.293738     7982.508    7116.7179    7322.2135    7197.5194   -998.14637    302.98805    587.88798    -3551.166 
10398000     239.5784   -4857.3585   -4378.1721   -4857.3585            0    4386.7268    18.018351    23.075695    19.388817     8061.598    4914.0574    3758.4318    4487.6911    269.73499   -382.76792     667.0718   -3862.4241 
10399000    243.42165   -4827.9258   -4341.0524   -4827.9258            0    4053.0944    18.150351    23.043265    19.364121    8098.9146    3280.8219    3584.7278    5293.7337    86.421245    1643.3874   -938.36527   -3862.3238 
10400000    252.34807   -4891.0816   -4386.3543   -4891.0816            0    3650.6583     18.13262    23.054698    19.333765    8082.3271     4581.088    2692.2403    3678.6466    280.07853   -367.16073    1268.0497   -3956.0422 
10401000    248.98386   -4829.0916   -4331.0931   -4829.0916            0    5396.7304    18.109485    23.045054    19.377784     8087.009    6293.7317    4483.5577    5412.9016   -39.197428    327.95397   -673.40717   -3694.5988 
10402000    245.82215   -4844.9109   -4353.2362   -4844.9109            0    5011.6655    18.059522    23.010124    19.329719    8032.5005    4050.5379    5598.3816     5386.077    762.27776    186.25072    718.65409   -3766.1407 
10403000     249.6876   -4853.0471    -4353.641   -4853.0471            0    4768.6131    18.210176    22.713904    19.579651    8098.6173    3866.8571    6366.3453    4072.6369    354.73012      1126.33   -384.88257     -3790.42 
10404000    248.21893   -4873.3675    -4376.899   -4873.3675            0    5203.1617    18.368582    22.512414    19.486284    8057.9898    4078.4846     6270.832    5260.1686    1297.0713   -378.25731   -131.44434   -3765.4363 
10405000    240.73371    -4863.099   -4381.6019    -4863.099            0    5854.2901    18.189229    22.801017    19.380358    8037.6724    5341.5205     5458.774    6762.5759     2391.949   -341.31758    814.88413   -3695.3549 
10406000     238.9867    -4882.332   -4404.3291    -4882.332            0    3751.4081    18.092782     23.06701    19.387835    8091.4428     2394.868    3732.2273    5127.1289   -430.48539    1064.5256    218.11181   -3961.6427 
10407000    245.34309    -4858.452   -4367.7355    -4858.452            0    5890.3225      18.0255     23.19323    19.144069    8003.5523    8114.4137    4357.5167    5199.0372   -597.44952   -605.58087   -1489.5303   -3680.1959 
10408000    240.29991   -4880.3337   -4399.7041   -4880.3337            0    3976.3482    18.025755    23.064647    19.398799    8065.1998    4723.2177    3114.4453    4091.3817   -879.41224   -701.39147    107.15845   -3931.9955 
10409000    235.23978    -4864.035   -4393.5264    -4864.035            0    3944.8902    18.156325    23.114653    19.266949    8085.8985    1330.1869    4225.1854    6279.2982   -118.50657   -683.83082     706.9014   -3928.3271 
10410000    247.75494   -4853.7594   -4358.2189   -4853.7594            0    5311.7662    18.139095    23.008094    19.316512     8061.669    3818.9821    6295.0892    5821.2274    638.64793    1428.8245   -636.05046   -3733.7083 
10411000    241.87428   -4877.3677   -4393.5893   -4877.3677            0     4461.989    18.069523     22.91177    19.491022    8069.3757    5636.3068    4523.6469    3226.0133    498.84959    615.98089     1507.989   -3868.4865 
10412000     235.0205   -4840.0278   -4369.9578   -4840.0278            0    3940.5822    18.281904    22.950282    19.315935    8104.4801    3966.1075    3780.3603    4075.2788    56.453798    501.10179    502.35808   -3904.1986 
10413000    240.83068   -4851.8414   -4370.1503   -4851.8414            0    6096.5593    18.070491    22.620409     19.61879     8019.414    6627.1481    6657.3555    5005.1743    1313.4154   -166.53627    1691.0182   -3657.1276 
10414000    235.43486   -4849.7327   -4378.8339   -4849.7327            0    3745.6605    18.080398    23.087028    19.408452    8101.5274    3658.5622    4232.3734    3346.0459    105.18767   -627.34362   -462.80555   -3936.2748 
10415000    237.52215   -4853.6309   -4378.5573   -4853.6309            0    4971.7575    17.985927    23.026195    19.494747       8073.7    6338.4222    4701.9175    3874.9328   -1306.5442   -500.09078    1020.0289   -3793.1496 
10416000    245.93634   -4820.6952   -4328.7921   -4820.6952            0    4840.2913    18.160993    23.078215    19.268602    8075.9201    3414.0938    4547.0268    6559.7534    1316.3146    343.25162    377.39247   -3758.7074 
10417000    233.97927   -4857.9474     -4389.96   -4857.9474            0    4802.0409    17.958759    23.209973    19.414043    8092.2061    3781.9815    5723.4898    4900.6513   -124.25275    933.05176   -1553.1266   -3823.2398 
10418000    230.80421   -4806.7779    -4345.141   -4806.7779            0    4666.1472    18.213208    23.234932    19.165341    8110.4398    3197.8178    3666.6427    7133.9809   -1073.1102   -954.84256    173.36684   -3793.2177 
10419000    245.12785    -4825.787   -4335.5011    -4825.787            0    7019.5688    18.039532    22.956819    19.393191    8031.3077     7711.032    7780.1788    5567.4957   -460.03113    544.74087   -197.10432   -3513.3103 
10420000    240.28289   -4842.6812   -4362.0857   -4842.6812            0    3293.5406    18.108964    22.970351    19.497073    8110.1825    4897.6231     2405.035    2577.9637   -488.48907    143.83145   -86.798394   -3972.5301 
10421000    250.18736   -4862.1964   -4361.7908   -4862.1964            0    5104.5592    18.375877    22.682641    19.426476    8097.2159    3118.1235    6115.5196    6080.0345   -1454.4112    602.55267   -1349.2119   -3758.9955 
10422000    241.76469   -4861.1175   -4377.5583   -4861.1175            0    5518.2373    18.099878    22.601527    19.688313    8054.1916    4873.3105    6845.7887    4835.6127   -546.85471   -58.344619    1219.3163   -3729.3744 
10423000    241.65593   -4873.1153   -4389.7736   -4873.1153            0    4427.4222    18.317103    22.749282    19.392586    8080.9085    3711.0934    5418.8115    4152.3616    452.99847    471.76956   -215.35223   -3867.9941 
10424000    237.56978   -4856.7759    -4381.607   -4856.7759            0     4063.144    18.173879    22.900471    19.459885    8099.0172    4005.2685    4317.1936      3866.97    448.37779     575.6249    961.06368   -3901.6852 
10425000    245.00862   -4866.4178   -4376.3703   -4866.4178            0    5218.2439    17.988458    22.912631    19.420294    8004.3245    5235.3397    5552.4938    4866.8983    206.69255   -1280.0875    -532.7311   -3767.2193 
10426000    234.98693   -4843.5036   -4373.5007   -4843.5036            0    4635.2862    18.126297    23.138198    19.188709    8047.9337    2565.5051    4583.7648    6756.5888    61.754143   -49.088892    449.43152   -3829.4531 
10427000    249.44966   -4850.8521   -4351.9219   -4850.8521            0    3141.7362    18.006167    23.088153    19.505399    8108.9627    3954.1174    2482.2521    2988.8392   -213.14443   -274.07251   -872.23024   -3980.3774 
10428000    248.45811   -4859.3462   -4362.3993   -4859.3462            0    2876.1162    18.167681    22.994415    19.385221    8098.2771    2513.3304    2817.4124    3297.6059    368.64892   -1427.0124    222.23937   -4022.7154 
10429000     248.8584   -4855.6652   -4357.9176   -4855.6652            0    4702.7265    18.137099    22.845828    19.528368    8091.7169    4979.3703    5419.0828    3709.7263   -414.54983      724.689   -234.84747   -3802.9517 
10430000    243.92016   -4853.8357   -4365.9652   -4853.8357            0    4024.1769    18.231329    23.042603    19.240134    8082.7277    2898.7794    3257.7569    5915.9943     687.6925   -1024.7491   -131.40433   -3891.6021 
10431000    242.91473   -4862.2519   -4376.3924   -4862.2519            0    4949.2644    18.072147    23.130417    19.271973    8055.9989    5405.4049     4398.221    5044.1672   -434.14346    113.55809   -1230.5892   -3794.9109 
10432000    241.81884    -4844.765   -4361.0974    -4844.765            0    2846.8208    18.050403    23.121988    19.465956    8124.3346    2734.8826    2870.5185    2935.0611    936.45625   -990.74737    -867.1872   -4023.7916 
10433000    235.42888   -4862.4555   -4391.5687   -4862.4555            0    4504.9823    18.095796    23.075636    19.362692    8085.3181    4695.0225    4051.0204     4768.904    1313.9785    459.19756    929.45264   -3860.3589 
10434000    230.01024   -4857.3328   -4397.2839   -4857.3328            0    4913.9183    18.180402    22.756949    19.475268     8057.512    6022.8934    4272.2717      4446.59     195.4457   -272.08432    1704.7793   -3819.8467 
10435000    254.43965   -4857.9702   -4349.0595   -4857.9702            0    2848.3093    18.319358    22.762451    19.541745    8148.7808    347.69837    4925.3539    3271.8757   -178.43065    1124.9443   -486.16258   -4010.5618 
10436000    250.18058   -4848.4103   -4348.0182   -4848.4103            0    5552.0408    18.194379    22.772764    19.454186    8060.5753    5891.9542    5569.8557    5194.3126    647.63851   -177.79876   -249.85663   -3695.3468 
10437000     235.3935   -4850.8872   -4380.0712   -4850.8872            0    3991.7327     18.19612     22.81694     19.41466     8060.574    2590.9781    5123.3521    4260.8678    1060.2975    306.73824    138.71546   -3910.8222 
10438000    254.98055   -4848.8285   -4338.8359   -4848.8285            0    6278.7154    18.097598    22.807839    19.436079    8022.5741     3832.302    6515.0713    8488.7729    678.16911   -1425.8947    992.79793   -3604.2198 
10439000    234.81778   -4870.2585    -4400.594   -4870.2585            0    3535.9408    18.211622    22.914402     19.38579    8089.8535    3489.6966    3303.4438    3814.6821   -1078.0149   -598.39854   -214.60708   -3983.4158 
10440000    260.41511   -4844.6464    -4323.784   -4844.6464            0    4981.6478    18.078773    22.995432    19.384998    8058.9094    4525.6761    4720.5549    5698.7123   -542.27748   -70.704474    2230.0958   -3738.2863 
10441000    249.77324    -4857.205   -4357.6276    -4857.205            0    4149.6234    17.995893    23.042937    19.427974    8056.3579    6250.6023    3502.2452    2696.0228    192.59805   -619.20394   -945.94611    -3870.073 
10442000    243.39084   -4843.3876   -4356.5758   -4843.3876            0    5014.3401    17.981712    23.162186    19.404769    8082.0036    5183.0627    4834.1287     5025.829   -348.76715    1221.7656    726.63374   -3765.5469 
10443000    246.95952   -4859.9325    -4365.983   -4859.9325            0    5861.4922    17.941711    23.243722     19.23319    8020.8586    7465.9947      4772.14     5346.342    643.13757   -584.04781   -131.06999   -3680.3291 
10444000    248.27696   -4863.2785   -4366.6939   -4863.2785            0    3462.8083    18.059784    23.213387    19.305642      8093.48    3875.9925    2632.2683     3880.164    655.15708    229.12904    20.471567   -3957.9609 
10445000    238.54863   -4852.0087    -4374.882   -4852.0087            0    3143.4795    18.033968    23.029268    19.486632    8092.9754    2095.1785    3263.4919    4071.7682   -1292.5005    367.77862   -697.01225   -4003.8642 
10446000     232.9767   -4849.9267   -4383.9445   -4849.9267            0    1557.2728    18.249414    22.821449    19.584055    8156.3296    827.55229    2541.5799    1302.6863   -629.17025   -825.46969   -544.17254   -4198.7043 
10447000    238.78783   -4849.0929   -4371.4877   -4849.0929            0    4158.9906    18.272243    22.636894    19.572071    8095.5335    4099.6994    3846.1493    4531.1231   -459.24961   -709.49447   -1259.1269   -3880.4563 
10448000     242.9163   -4852.1018   -4366.2392   -4852.1018            0    3607.1812    18.178465    22.771712    19.551143    8093.2888     4114.643    4106.5468    2600.3538    358.51762   -688.29884   -423.56592   -3940.4753 
10449000    251.94214   -4860.1125    -4356.197   -4860.1125            0    2126.5569    18.167823    23.186521    19.414047    8178.1406    3005.3113    718.14536    2656.2142    1133.1833    171.09539   -591.87915    -4102.563 
10450000    248.30918   -4870.9352   -4374.2862   -4870.9352            0    4081.6564    17.925209    22.972494    19.593782    8068.4598    5290.5214    3736.1064    3218.3415    1285.7136    608.87451    1.5476774   -3893.9968 
10451000    241.32866   -4855.0585   -4372.3713   -4855.0585            0    4255.6122    18.250338     23.03599    19.256904    8095.8837    3252.1836    4734.3199     4780.333    839.53778   -952.66013    301.97924   -3869.9105 
10452000    232.54575   -4837.1541   -4372.0338   -4837.1541            0    3314.9413    18.092646    22.759297    19.675965    8102.0884    3691.6903     4374.864    1878.2697    1287.9424   -468.53314    638.17744   -3980.3382 
10453000    229.98955   -4858.4547   -4398.4472   -4858.4547            0    4167.4571     18.22852    22.817309    19.418712    8076.7431    3720.6635     4422.806    4358.9017   -93.734315   -279.25576   -1244.8886   -3907.5582 
10454000    244.43043   -4893.9113   -4405.0202   -4893.9113            0    4023.1095    18.130299    22.949254    19.405244    8074.0724    3138.7224    4229.9089    4700.6971   -267.53863   -24.395222    419.18637   -3931.2908 
10455000    237.42952   -4878.1224   -4403.2341   -4878.1224            0    3280.0334     18.15278     23.18302    19.297194    8120.9591    4340.9557    2365.4069    3133.7375   -89.171523     309.7499   -1438.9956   -4014.7605 
10456000    248.52817    -4890.408   -4393.3209    -4890.408            0    4509.4041    17.903188    23.152191    19.455536    8064.2812    4412.6419    4611.5213    4504.0489   -1837.9702     344.3811    -976.8447   -3862.9732 
10457000    240.43991   -4849.2973   -4368.3878   -4849.2973            0    5367.4014    18.117894    23.161833    19.143625    8033.5005    5002.3698    4488.6228    6611.2115    95.710762   -595.94381    1174.6322   -3739.5411 
10458000    252.49747   -4856.1487   -4351.1225   -4856.1487            0    4894.8629    17.953728    22.834895    19.674087    8065.8151    6070.0329    5556.9714    3057.5843    637.92113    31.241008    49.176648   -3775.3318 
10459000    247.61471   -4871.7926   -4376.5326   -4871.7926            0     3634.272    18.240909    22.836098    19.453921    8103.5541    1669.9364    4104.1998    5128.6797   -4.0102862    598.41426   -106.12553    -3947.027 
10460000    254.43518   -4858.4111   -4349.5093   -4858.4111            0    4554.7926    18.229798     22.72686    19.484442    8072.5227    2175.4335    6106.3287    5382.6155    236.56761    1200.4785   -71.042577    -3813.276 
10461000    242.70974   -4845.6328   -4360.1834   -4845.6328            0    4796.9896    18.170947      22.6566    19.604729    8071.1078    3879.1373    5354.0505     5157.781   -1114.9708    451.83663   -2960.3711   -3795.5353 
10462000    245.44006   -4858.0705   -4367.1601   -4858.0705            0    3635.1036    18.227502    22.793508    19.511079    8106.2429    3062.6106    4106.9202    3735.7801    976.73666   -44.327541    122.08683   -3937.4136 
10463000    240.46746   -4855.8777   -4374.9131   -4855.8777            0    3235.9005    18.166637    23.086694    19.313439    8100.2029    3570.7948     3165.517    2971.3899    -154.5755   -1636.2048   -473.16957    -3992.646 
10464000    247.40971   -4871.6998   -4376.8498   -4871.6998            0    4025.1814    17.871508    23.285004    19.401681    8073.7795    4454.4264    4375.5011    3245.6166   -367.65098   -368.70807   -75.481566   -3902.8935 
10465000    218.47601   -4852.5489   -4415.5699   -4852.5489            0    3840.7295    18.020202    23.272462    19.324561    8104.2273    4635.3955    3167.2843    3719.5086   -9.3218263   -243.24181    575.28783    -3961.627 
10466000    235.82236   -4844.5357   -4372.8618   -4844.5357            0    5499.3967    17.967245    23.176618    19.289365    8032.4771    6472.5621    4507.3549     5518.273    806.28474   -308.30068   -561.03399   -3728.6326 
10467000    232.60803   -4874.5461   -4409.3013   -4874.5461            0    4455.6132    18.168437    22.935535    19.329041    8054.4658    3341.0141    4767.0058    5258.8196    246.59372    591.89163   -64.195973   -3885.9177 
10468000    237.71577   -4828.3551   -4352.8942   -4828.3551            0    3684.6498    18.106455    22.972918    19.556637    8134.7419    2565.2162    3973.6139    4515.1194   -184.45188    305.58209     28.23892   -3915.7588 
10469000    238.40238   -4848.8968   -4372.0626   -4848.8968            0     4899.097    18.198734    22.903603    19.321783    8053.6395    2855.3411    5570.0062    6271.9438    1264.8811   -123.44869    1137.7535   -3796.6437 
10470000    229.80116   -4856.8603   -4397.2296   -4856.8603            0    5376.8255    17.914044    22.899237    19.621627    8049.1436    6944.6999    5492.8294    3692.9472   -793.27028   -425.36518   -64.428441   -3766.0521 
10471000     239.4096    -4860.848   -4381.9993    -4860.848            0    5475.1734    18.067687    22.838003    19.412579    8010.2101     6231.562     5427.088    4766.8703   -447.28629   -702.64071   -514.26546   -3742.3857 
10472000    230.38526   -4870.5816   -4409.7826   -4870.5816            0    4580.6694     18.08809    22.891936    19.471316    8062.5153     7709.888    3323.1684    2708.9517    662.41616   -690.94807   -1185.1852   -3871.1714 
10473000    229.26282    -4857.417    -4398.863    -4857.417            0    5151.9558    18.195428    22.558708    19.556465    8027.2514    5885.1455    6176.2314    3394.4906   -1198.1139     600.1092   -1624.9317   -3795.7275 
10474000    247.24401   -4858.9563   -4364.4377   -4858.9563            0    3788.2897    18.445962     22.57275    19.414125    8083.5776    3452.7799    4137.1146    3774.9745     425.6367    576.27099    361.03037   -3917.8336 
10475000    245.26099   -4880.4618   -4389.9096   -4880.4618            0    5744.8168    18.210607    22.454766     19.56413    8000.0646    5904.1509    6044.2241    5286.0755    -837.2964     717.1669    750.02788   -3719.6461 
10476000    236.80505   -4849.9237   -4376.2844   -4849.9237            0    3521.4416    18.137591    22.849739    19.560067     8106.459    2290.3759     4572.087    3701.8621   -1306.8051    1054.5068   -927.84614   -3959.9641 
10477000    248.76735   -4805.5367   -4307.9713   -4805.5367            0    6226.9762    18.024045    23.052809    19.330917    8032.0901     6584.911    6266.3721    5829.6456     1245.801    220.11843     2043.697   -3578.5446 
10478000    249.44069   -4837.1757   -4338.2635   -4837.1757            0    6053.8449    17.948725    23.263504    19.259544    8041.8274    6549.5171    5052.4016    6559.6159   -1001.0147    21.809505    965.37153   -3628.2576 
10479000    243.03731   -4836.0276    -4349.923   -4836.0276            0    5013.6174    18.013098    23.209332    19.265985    8054.5683    5263.4356    4551.0869    5226.3298   -1188.8599     85.01117   -841.38189   -3760.9853 
10480000    258.32216   -4849.9958   -4333.3196   -4849.9958            0    3203.1847    18.029048     23.10436    19.473405    8111.6394    3527.8187    3454.7688    2626.9664   -414.57627    150.90423    67.599414    -3954.383 
10481000    255.05724   -4852.6104   -4342.4644   -4852.6104            0    5206.5855    18.271398    22.812983    19.358734    8069.2061    4173.5701    6142.2611    5303.9252    282.73574    622.35349    473.79867   -3729.7477 
10482000    247.00571   -4858.1787   -4364.1368   -4858.1787            0     3825.009    18.136688     22.66611    19.671704     8086.805     5667.055    3783.4955    2024.4763   -2112.5589   -411.37978   -1361.6064   -3913.0238 
10483000     251.7712   -4886.4752   -4382.9017   -4886.4752            0     5286.923    18.161721    22.651821    19.541912    8039.4654    4434.9503    6313.5884    5112.2303    795.78478   -613.50077    270.22682   -3763.0239 
10484000    249.49606   -4851.8022   -4352.7792   -4851.8022            0    5606.8788    18.221438     22.76382    19.430659    8059.6339    4783.7998    6553.6386     5483.198    2348.3478   -602.12657    185.19033   -3693.7383 
10485000     240.8103   -4865.8718   -4384.2214   -4865.8718            0    4878.0279    18.127997    22.760729    19.494509    8043.5598     4481.617    4811.4519    5341.0147    724.65795   -521.15561   -1480.8503   -3811.9943 
10486000    234.69334   -4847.4315   -4378.0158   -4847.4315            0     4794.821    18.251081    22.750408    19.438371    8071.1915    5521.7387    4800.8244       4061.9   -60.821137   -76.377475   -853.09282   -3813.6172 
10487000    231.32499   -4845.8955   -4383.2169   -4845.8955            0    3594.3263    18.170274    22.863096    19.506239    8103.4518    3098.8794    4432.6138    3251.4857    612.39223    842.36387   -1888.0976   -3958.4375 
10488000    255.86562   -4857.6262   -4345.8634   -4857.6262            0    4918.7929    18.012457    23.022984    19.378762    8036.3828    5460.8867    4618.5036    4676.9882    503.68992   -619.35917    328.54643   -3769.3691 
10489000    242.67222   -4850.6448   -4365.2703   -4850.6448            0    4269.3175    18.000232    23.045705      19.3978    8046.7513    4167.1586    5013.8581     3626.936   -1481.8141    986.75247    -1121.538   -3864.2505 
10490000    238.81731   -4831.3528   -4353.6886   -4831.3528            0    3912.8604    18.175508    23.015019    19.345433    8092.3816    3859.6621    3132.9968    4745.9222    700.89442    -1402.086    661.28885   -3891.8964 
10491000     244.3713   -4872.9103   -4384.1375   -4872.9103            0    5169.5198    18.000688    22.919057    19.460657    8028.6655    7676.4236    3916.3252    3915.8108    158.59319   -355.14677    48.283342   -3778.8392 
10492000    244.74122   -4860.3809   -4370.8682   -4860.3809            0    5045.7871    18.176938    22.884584     19.33024    8040.8324    5110.2234    5794.8301    4232.3079    421.17085   -737.82815   -1432.5578   -3779.1624 
10493000    253.78267   -4842.3898   -4334.7931   -4842.3898            0    4049.1139    18.124227    22.897514    19.568404    8120.8828    4651.8389    4616.6907    2878.8122    828.47688    441.68283   -218.10329   -3855.2373 
10494000    254.32231   -4863.4794   -4354.8034   -4863.4794            0    5784.0302    18.100474    22.898816     19.40775     8044.113    4764.4307    6224.8587    6362.8012    572.64172    532.43641    1290.3012   -3676.2491 
10495000     248.4444   -4827.4697   -4330.5502   -4827.4697            0     3871.759    18.193509    22.907235    19.430743    8098.0146     5611.937    3363.3471    2639.9928   -288.69875   -532.54304   -922.23777   -3873.2906 
10496000    242.78657   -4863.3231   -4377.7199   -4863.3231            0    3705.1021    18.177493    22.921724    19.450883    8104.3944    2533.7954    4548.5492    4032.9617   -506.67012    418.56386    1543.2355   -3939.7981 
10497000    247.44187   -4870.1606   -4375.2463   -4870.1606            0    4090.0627    18.141074    22.817818    19.535115    8086.3606     5780.374    3603.1651     2886.649   -815.64155   -513.32501    1143.0043   -3892.8999 
10498000      238.122   -4819.7169   -4343.4435   -4819.7169            0    4186.2717    18.336493    22.771957    19.446476    8120.0284    2280.7228    4884.2202     5393.872   -2416.7263    583.58738   -636.78679   -3847.6956 
10499000    243.52065   -4861.6981   -4374.6267   -4861.6981            0    3611.2993    18.001465    23.071895    19.437973    8073.1325    4898.9904     3001.463    2933.4445   -363.21129   -782.51544     277.5535   -3949.4383 
10500000    246.64543   -4827.4403    -4334.119   -4827.4403            0    4279.4163    18.180022    23.110386       19.301    8109.2634    3813.9854    4596.3891    4427.8744    246.08309   -820.22379   -413.92525   -3828.0126 
Loop time of 581.286 on 64 procs for 250000 steps with 1008 atoms

Performance: 74.318 ns/day, 0.323 hours/ns, 430.081 timesteps/s
99.0% CPU use with 64 MPI tasks x 1 OpenMP threads

MPI task timing breakdown:
Section |  min time  |  avg time  |  max time  |%varavg| %total
---------------------------------------------------------------
Pair    | 27.723     | 32.088     | 35.616     |  30.3 |  5.52
Bond    | 0.28529    | 0.30083    | 0.31477    |   1.1 |  0.05
Kspace  | 278.46     | 286.92     | 298.84     |  26.8 | 49.36
Neigh   | 4.2849     | 4.8714     | 5.5888     |  14.9 |  0.84
Comm    | 102.81     | 116.03     | 126.03     |  46.4 | 19.96
Output  | 1.7114     | 1.7143     | 1.7197     |   0.1 |  0.29
Modify  | 123.82     | 129.15     | 133.69     |  23.6 | 22.22
Other   |            | 10.21      |            |       |  1.76

Nlocal:        15.7500 ave          20 max          11 min
Histogram: 1 1 2 12 17 14 3 8 3 3
Nghost:        2459.42 ave        2481 max        2440 min
Histogram: 4 5 10 6 10 7 9 7 4 2
Neighs:        5157.72 ave        6645 max        3597 min
Histogram: 1 1 2 12 17 14 3 8 3 3

Total # of neighbors = 330094
Ave neighs/atom = 327.47421
Ave special neighs/atom = 2.0000000
Neighbor list builds = 8536
Dangerous builds = 0

unfix		3
unfix		2
unfix		1

write_data	data.final.${pid}
write_data	data.final.0
System init for write_data ...
PPPM initialization ...
  extracting TIP4P info from pair style
  using 12-bit tables for long-range coulomb (../kspace.cpp:340)
  G vector (1/distance) = 0.38250402
  grid = 24 30 32
  stencil order = 5
  estimated absolute RMS force accuracy = 0.0020268702
  estimated relative force accuracy = 6.1038593e-06
  using double precision FFTW3
  3d grid and FFT values/proc = 4080 384
Last active /omp style is kspace_style pppm/tip4p/omp
WARNING: Not all mixed pair coeffs generated from mixing. Use write_data with 'pair ij' option to store all pair coeffs. (../write_data.cpp:312)

write_restart   restart.lmp.${pid}
write_restart   restart.lmp.0
System init for write_restart ...
PPPM initialization ...
  extracting TIP4P info from pair style
  using 12-bit tables for long-range coulomb (../kspace.cpp:340)
  G vector (1/distance) = 0.38250402
  grid = 24 30 32
  stencil order = 5
  estimated absolute RMS force accuracy = 0.0020268702
  estimated relative force accuracy = 6.1038593e-06
  using double precision FFTW3
  3d grid and FFT values/proc = 4080 384
Last active /omp style is kspace_style pppm/tip4p/omp
Total wall time: 0:09:44
