LAMMPS data file via write_data, version 30 Jul 2021, timestep = 29000000

864 atoms
2 atom types
576 bonds
1 bond types
288 angles
1 angle types

0.12339698026924673 18.08417541973126 xlo xhi
0.20377812198234402 23.425399678026572 ylo yhi
0.09968417716822664 22.11351162282532 zlo zhi

Masses

1 1.00794
2 15.9994

Atoms # full

707 1 1 0.5897 3.2415368264609694 1.930309100838537 3.947038111158146 0 0 0
706 1 2 -1.1794 3.2601485471297815 2.0157612079311997 2.993824587159828 0 0 0
30 1 1 0.5897 5.452183234783264 4.1377686973350745 2.60243163353123 0 0 0
708 1 1 0.5897 2.394628309137967 2.3553436329843107 2.766369884164321 0 0 0
29 1 1 0.5897 4.6483846681104914 2.860785541312534 2.479235708512629 0 0 0
28 1 2 -1.1794 5.443422007230469 3.2884197527502335 2.161052823078669 0 0 0
495 1 1 0.5897 8.32556257650131 2.39985840389404 2.826978673878961 0 0 0
1 1 2 -1.1794 0.7570099539282921 3.089289953754329 2.1449914338954503 0 0 0
494 1 1 0.5897 6.812760950121723 2.417458549154803 2.7736993510918797 0 0 0
493 1 2 -1.1794 7.551154754164339 1.9454156621032856 3.158609711202715 0 0 0
846 1 1 0.5897 7.5065032143242405 1.8616544576778917 4.919614342616038 0 0 0
3 1 1 0.5897 0.8070717116046723 4.027411605323058 2.328599919161925 0 0 0
20 1 1 0.5897 0.5793509328962272 3.067550233192159 0.4089869690988697 0 0 0
136 1 2 -1.1794 5.566621437659844 5.9949667246769085 2.9987941090816634 0 0 0
597 1 1 0.5897 1.0080675473189769 5.6776684549111245 3.6547218825557457 0 0 0
595 1 2 -1.1794 1.0414585227489273 5.727838604557154 2.699410379734422 0 0 0
137 1 1 0.5897 5.421079648578511 5.9103467009633555 3.941087630147522 0 0 0
819 1 1 0.5897 7.536698444524475 0.27006339137643864 2.536201435999532 0 0 0
181 1 2 -1.1794 0.8784537565490466 5.603959142223259 5.53369260015923 0 0 0
188 1 1 0.5897 2.9372752236565494 0.335249523208249 2.394974107370121 0 1 0
668 1 1 0.5897 5.465759866240142 3.3949469299390773 0.2508537290903803 0 0 0
676 1 2 -1.1794 5.029699091142426 5.6790827883819635 10.540279440602644 0 0 0
34 1 2 -1.1794 0.8621967944522833 3.129351698069968 9.239760189028576 0 0 0
419 1 1 0.5897 8.834443941012701 2.8267540018569197 6.531674083884209 0 0 0
685 1 2 -1.1794 5.318506986471205 5.588392739948001 5.633963643118571 0 0 0
487 1 2 -1.1794 3.1081010655031265 1.8828080278179866 5.697703657585113 0 0 0
488 1 1 0.5897 2.2601854257824967 2.276751968272221 5.902746419009735 0 0 0
356 1 1 0.5897 7.683489528304495 1.1609284071044383 10.133425300902937 0 0 0
83 1 1 0.5897 4.522300387776268 2.5759862087887435 6.541096269111434 0 0 0
489 1 1 0.5897 3.0313582847385883 0.9775321946421762 5.999158332819012 0 0 0
276 1 1 0.5897 6.094744212871145 2.789391484792429 9.923897923553106 0 0 0
84 1 1 0.5897 6.034030555256715 2.601930699816207 6.465539531669671 0 0 0
82 1 2 -1.1794 5.284365476794547 3.093739652106213 6.800696456416634 0 0 0
355 1 2 -1.1794 7.66631834647656 2.0628915747750076 10.453510125268812 0 0 0
675 1 1 0.5897 3.0232046406996846 0.9063567371086184 10.104042232504908 0 0 0
274 1 2 -1.1794 5.2807929491133025 3.107085807956174 9.53307420181838 0 0 0
785 1 1 0.5897 0.7934517716458809 3.0510195979207775 7.419920099786669 0 0 0
36 1 1 0.5897 1.621886185180829 2.7423673552819086 9.674863467872926 0 0 0
845 1 1 0.5897 7.346956471503765 0.9400368514007209 6.11006531046427 0 0 0
183 1 1 0.5897 0.794091186802857 4.700315606700804 5.837993293237248 0 0 0
673 1 2 -1.1794 3.0690644314575994 1.8317745990222147 10.344434726324579 0 0 0
35 1 1 0.5897 0.8145664961416855 4.020054263228214 9.587134361022137 0 0 0
784 1 2 -1.1794 0.7951781845227459 3.054395731469166 6.462714225879356 0 0 0
112 1 2 -1.1794 0.8304907694128254 5.730328474750197 10.300159469838198 0 0 0
275 1 1 0.5897 5.406845419669037 2.994161176551065 8.590943714823126 0 0 0
674 1 1 0.5897 3.9190623647051197 2.1234957506624124 10.014913047318792 0 0 0
844 1 2 -1.1794 7.484817135483889 1.8580652040235583 5.876574562897386 0 0 0
678 1 1 0.5897 4.977282954850111 4.798385602771527 10.16890981371167 0 0 0
686 1 1 0.5897 5.391450912504336 4.684640502866309 5.940881460152582 0 0 0
677 1 1 0.5897 5.8881241553165875 6.003554089710958 10.268235806271745 0 0 0
687 1 1 0.5897 4.455547487928218 5.8745749002610665 5.933259684707247 0 0 0
166 1 2 -1.1794 3.039745744522549 1.9175658008737635 13.050272147017193 0 0 0
167 1 1 0.5897 3.102298187139118 1.9307201599250439 12.095197509580665 0 0 0
457 1 2 -1.1794 5.08523376119055 3.2606234893141006 14.132210341998984 0 0 0
458 1 1 0.5897 5.894464058675148 2.8291586149104373 13.85803043741518 0 0 0
459 1 1 0.5897 4.391024732294052 2.771566835210349 13.690485141203547 0 0 0
762 1 1 0.5897 5.219487280302442 5.107592877472041 13.631696735625205 0 0 0
594 1 1 0.5897 8.26609035911654 2.347382854059756 13.66575270906376 0 0 0
168 1 1 0.5897 2.293661299155769 2.4830743741134556 13.249720846349929 0 0 0
71 1 1 0.5897 5.110964876481018 3.3240999671924465 15.856946064392716 0 0 0
592 1 2 -1.1794 7.4807656539071345 2.0314121391195545 13.218965616390767 0 0 0
466 1 2 -1.1794 0.7632221522826759 3.320972696307553 13.82908942477378 0 0 0
593 1 1 0.5897 7.434425926149776 1.1020413922976515 13.443493705192616 0 0 0
468 1 1 0.5897 0.7704372374993758 3.3171327985657544 14.786266032243915 0 0 0
365 1 1 0.5897 0.7487980141411983 5.083935540362977 13.307599499375037 0 0 0
737 1 1 0.5897 2.795463762155062 0.2705540810891061 13.666176160124062 0 1 0
357 1 1 0.5897 7.72517698840985 1.9809008799894008 11.405384956478233 0 0 0
113 1 1 0.5897 0.8910621492647598 5.9644365451134345 11.226327589194527 0 0 0
364 1 2 -1.1794 0.752314209789626 5.992771494415721 13.007105569063036 0 0 0
133 1 2 -1.1794 0.6277763220836792 3.1348552835287884 16.464415589614354 0 0 0
761 1 1 0.5897 5.099863823726514 5.834781961915731 12.309254757772486 0 0 0
760 1 2 -1.1794 5.173552861434931 5.984976291164065 13.251732312449432 0 0 0
21 1 1 0.5897 0.5769910771466533 3.981835576480761 21.216133876192238 0 0 0
667 1 2 -1.1794 5.336386916927084 3.3990157864368458 21.316249893597885 0 0 0
81 1 1 0.5897 3.079931022084146 0.43538673377465953 21.209335824518618 0 1 0
571 1 2 -1.1794 0.6186251043002525 5.540121457483156 17.892286641523633 0 0 0
646 1 2 -1.1794 0.5388075676293222 5.719142677136757 20.64599237186085 0 0 0
754 1 2 -1.1794 7.44038385216474 1.9958821897071672 17.635263529990652 0 0 0
669 1 1 0.5897 4.475651195717253 2.999858229422406 21.18975683899584 0 0 0
142 1 2 -1.1794 5.187424532457061 5.960773781039304 20.457527996194848 0 0 0
70 1 2 -1.1794 5.1449930208642884 3.380413262137855 16.811896261776795 0 0 0
134 1 1 0.5897 0.5721375066702331 3.944027822425345 16.972782889550302 0 0 0
755 1 1 0.5897 7.423595496740489 1.992569336656749 18.592336510176068 0 0 0
19 1 2 -1.1794 0.5427641762695876 3.0585108389229467 21.46634324045135 0 0 0
40 1 2 -1.1794 7.567031741407845 2.0539054125783522 20.33367672701621 0 0 0
72 1 1 0.5897 4.3484376484110285 2.9391714126449764 17.106863115438728 0 0 0
569 1 1 0.5897 2.2278828250001563 2.423860067427033 21.010920630491867 0 0 0
42 1 1 0.5897 7.500127789168229 1.1508045829360816 20.643871844356546 0 0 0
290 1 1 0.5897 2.76450031999607 1.3311162418325748 17.593027009905512 0 0 0
278 1 1 0.5897 5.1824405789667525 5.084858211922077 17.32522896286806 0 0 0
41 1 1 0.5897 6.791904726499591 2.4880678570560044 20.68988356497475 0 0 0
756 1 1 0.5897 6.692869387968627 2.5383799118301655 17.384002461816166 0 0 0
143 1 1 0.5897 5.28262528890464 5.0955606924317784 20.85581694987095 0 0 0
291 1 1 0.5897 2.0738679103226763 2.666090847343892 17.411688833159587 0 0 0
570 1 1 0.5897 2.901765274533421 2.2114843504770754 19.672011382316477 0 0 0
648 1 1 0.5897 0.6674616841857389 5.596318128003833 19.70544857762335 0 0 0
568 1 2 -1.1794 3.060470915773029 2.166659172523695 20.614907808538618 0 0 0
289 1 2 -1.1794 2.807003924040815 2.2483374079079126 17.863579794666016 0 0 0
277 1 2 -1.1794 5.368069596427616 5.97019218569246 17.638308062109623 0 0 0
144 1 1 0.5897 5.1934241239291 5.793112565232044 19.515130366083483 0 0 0
323 1 1 0.5897 7.47923011407116 0.3025551384458085 17.005387224912504 0 1 0
360 1 1 0.5897 9.046946352700996 2.7328278811818008 21.128791575979243 0 0 0
599 1 1 0.5897 9.003484040068322 2.7912829226168085 17.21325907560552 0 0 0
123 1 1 0.5897 3.459855239684269 8.786727751735407 2.955527717334748 0 0 0
121 1 2 -1.1794 3.3865481582533357 9.678863137263942 3.2946568816805195 0 0 0
122 1 1 0.5897 3.184974414695882 9.566645088283309 4.223651972169756 0 0 0
44 1 1 0.5897 1.9140491648466473 10.451496138322684 2.431311524659889 0 0 0
218 1 1 0.5897 6.092047125875522 10.91616428265745 2.4721335044531667 0 0 0
417 1 1 0.5897 8.248810292742592 7.0637237657271355 2.2239550992850696 0 0 0
219 1 1 0.5897 4.608483779509522 10.628336570498162 2.561089174825278 0 0 0
254 1 1 0.5897 3.3928156142428714 7.176717774158835 1.1118582867250746 0 0 0
415 1 2 -1.1794 7.490272892814792 7.551174765142514 1.9026793698615705 0 0 0
217 1 2 -1.1794 5.238760094743741 11.246473274861726 2.1910962795336295 0 0 0
66 1 1 0.5897 7.556531483370791 9.963757987918607 3.9115146962957157 0 0 0
65 1 1 0.5897 7.558987136842808 9.250289972097324 2.576241778543246 0 0 0
64 1 2 -1.1794 7.621402291663288 10.120776113547741 2.969497564798976 0 0 0
253 1 2 -1.1794 3.361307086432778 7.224189586887089 2.067377003032613 0 0 0
255 1 1 0.5897 2.5931460749932 6.7063592104566405 2.308184973386087 0 0 0
416 1 1 0.5897 6.735626008226859 7.085358727409424 2.2628525000532465 0 0 0
43 1 2 -1.1794 1.141777806562069 10.790667593453188 1.9788082672106875 0 0 0
396 1 1 0.5897 0.8803897154313027 10.968074628380124 0.16821693476282068 0 0 0
138 1 1 0.5897 4.761216612902384 6.391032953919564 2.666161368442463 0 0 0
45 1 1 0.5897 1.0261291836598971 11.673511380720091 2.3302316758539114 0 0 0
363 1 1 0.5897 5.158547212062018 10.954251929642078 0.456776328713908 0 0 1
596 1 1 0.5897 0.2356902871657809 6.182860364042057 2.454672000569271 1 0 0
162 1 1 0.5897 7.539282574345419 7.25807799274516 0.16167525983302058 0 0 1
165 1 1 0.5897 8.806905502689812 6.30481564552255 6.034966992311193 0 0 0
712 1 2 -1.1794 7.510111129553454 9.7551858659688 5.713497561561187 0 0 0
577 1 2 -1.1794 5.17091885606844 10.972770914266205 6.50904493182062 0 0 0
13 1 2 -1.1794 0.7546499924767687 10.93828865684853 9.31503313300267 0 0 0
527 1 1 0.5897 7.3275184209387945 7.822011180319856 9.714582205882651 0 0 0
145 1 2 -1.1794 7.314677323049473 7.135032447926589 6.58150587026653 0 0 0
10 1 2 -1.1794 2.9974321109527624 6.783571497125149 6.6481968663761455 0 0 0
147 1 1 0.5897 7.2974175422512335 7.00814380780821 7.530112472634331 0 0 0
258 1 1 0.5897 3.8397907130212667 10.20541373461492 9.928712388199939 0 0 0
114 1 1 0.5897 1.5125133210816666 6.250979155578726 9.87591645466586 0 0 0
820 1 2 -1.1794 7.33319417801203 9.604829523123083 10.200912342238912 0 0 0
146 1 1 0.5897 6.607211913818097 6.580647981569779 6.252310826726073 0 0 0
580 1 2 -1.1794 5.22585746966203 11.163040996498117 9.285282509172674 0 0 0
528 1 1 0.5897 8.124063356669957 6.534964968594884 9.745866915432478 0 0 0
526 1 2 -1.1794 7.3247247938041715 6.921931596082967 9.388786315223934 0 0 0
794 1 1 0.5897 2.217487814440382 9.998993201197148 6.276585089408023 0 0 0
256 1 2 -1.1794 3.0670507833206506 9.811400011404704 10.333469758158262 0 0 0
15 1 1 0.5897 1.5588967273522767 10.608257563631938 9.715613287801345 0 0 0
793 1 2 -1.1794 2.95758838969971 9.446298825862131 6.025606228429434 0 0 0
11 1 1 0.5897 2.225037451882198 6.369834148318175 6.262932943008913 0 0 0
12 1 1 0.5897 2.9738617743748548 7.684151220219037 6.324598141949265 0 0 0
651 1 1 0.5897 3.593161362399384 6.585342272014692 9.731566634958087 0 0 0
257 1 1 0.5897 3.054028962505111 8.91345495286339 10.002090660466752 0 0 0
649 1 2 -1.1794 2.9812965683234536 7.217906472369915 9.355110467627833 0 0 0
581 1 1 0.5897 5.971454416902752 10.60132524808786 9.496882856404572 0 0 0
650 1 1 0.5897 3.01250073616616 7.050652152442562 8.413138587351613 0 0 0
795 1 1 0.5897 3.7301864373493165 9.942893569459027 6.295261577107506 0 0 0
713 1 1 0.5897 8.333673875480386 10.108940321514599 6.049339348346582 0 0 0
551 1 1 0.5897 0.8468674618528427 11.111820099137391 7.6279513577656335 0 0 0
550 1 2 -1.1794 0.8560552589576224 11.107375521094138 6.670793035814572 0 0 0
582 1 1 0.5897 5.109795114329444 11.06201633128406 8.340517046103802 0 0 0
714 1 1 0.5897 7.476029663315207 8.861399449970095 6.054483535845237 0 0 0
578 1 1 0.5897 6.0185467502116206 10.592780287046905 6.278141572927031 0 0 0
822 1 1 0.5897 8.103177011915058 9.98480444115557 9.777895958911586 0 0 0
828 1 1 0.5897 7.659012993230059 7.383683366921782 14.863988709288456 0 0 0
261 1 1 0.5897 0.9825275570210119 10.938384176126544 14.884635294250858 0 0 0
332 1 1 0.5897 2.986137586203071 7.9829992794308335 13.80274870023163 0 0 0
797 1 1 0.5897 3.16676351273455 9.614764379910753 12.12524065770374 0 0 0
796 1 2 -1.1794 3.2141639114195453 9.616595653855956 13.081275208289739 0 0 0
798 1 1 0.5897 2.432356046726405 10.093683313081279 13.35941259868191 0 0 0
722 1 1 0.5897 4.746338841011629 10.403025648032603 13.683597087038688 0 0 0
259 1 2 -1.1794 0.9506511220230754 11.006948278946131 13.930402384385616 0 0 0
721 1 2 -1.1794 5.455705817906236 10.98520113412727 13.955814447383895 0 0 0
723 1 1 0.5897 5.451232321298022 10.938181256700924 14.911866900605395 0 0 0
331 1 2 -1.1794 2.8868822381657755 7.144107503032463 14.252977690396124 0 0 0
225 1 1 0.5897 2.876802637614753 7.1640864087886476 16.047271597210962 0 0 0
826 1 2 -1.1794 7.6162398147901795 7.3768996776666755 13.90775432233727 0 0 0
475 1 2 -1.1794 7.701945210333707 9.851222422079461 12.820865691265542 0 0 0
476 1 1 0.5897 6.942679184473511 10.310033565841334 13.180323121013974 0 0 0
477 1 1 0.5897 7.608325493968005 8.951120636750899 13.132862929116124 0 0 0
827 1 1 0.5897 6.778980909109134 6.958234706338843 13.70794838296457 0 0 0
333 1 1 0.5897 3.714970158339151 6.689487553940174 14.09870584162617 0 0 0
366 1 1 0.5897 1.560125694578245 6.360805838723079 13.365139362620505 0 0 0
851 1 1 0.5897 9.03588596305631 6.171368839223114 13.616644207178721 0 0 0
821 1 1 0.5897 7.493154980072546 9.719032397256422 11.137729817084184 0 0 0
679 1 2 -1.1794 5.2888628223989915 10.807256935300064 16.602175400165507 0 0 0
260 1 1 0.5897 0.1804103914697759 10.497399488333636 13.678799824417915 0 0 0
520 1 2 -1.1794 7.569335654923422 7.271882921618372 16.63315508599736 0 0 0
287 1 1 0.5897 8.821369230410117 10.690200935668827 21.093929323692542 0 0 0
246 1 1 0.5897 9.052132033793058 10.57223918244574 16.924275340799085 0 0 0
521 1 1 0.5897 6.765028583744069 6.84509882172437 16.92834353004981 0 0 0
711 1 1 0.5897 8.977289994990578 6.314190570438405 17.197542931843316 0 0 0
462 1 1 0.5897 9.019766528407596 6.211634549383893 20.68882862187032 0 0 0
445 1 2 -1.1794 0.8184110176510638 10.873898685702347 16.637774431987644 0 0 0
6 1 1 0.5897 2.9160359433773397 7.8318049146847475 21.04313812872809 0 0 0
140 1 1 0.5897 6.554912322719247 10.151997070589196 20.741080406869827 0 0 0
4 1 2 -1.1794 2.931778069590923 6.948379562057305 21.41137387884873 0 0 0
688 1 2 -1.1794 2.9293016864131722 9.525217484438246 20.4567578674947 0 0 0
647 1 1 0.5897 1.3258248565923514 6.179182073768913 20.937837004612383 0 0 0
8 1 1 0.5897 7.4937739483221115 9.859901824565359 18.533243411209895 0 0 0
522 1 1 0.5897 7.540319981920547 8.141239449688301 17.032733327700875 0 0 0
361 1 2 -1.1794 5.152109208231021 10.904363300367198 21.51471013552227 0 0 0
279 1 1 0.5897 4.534802820773387 6.433812090369517 17.555176371501652 0 0 0
625 1 2 -1.1794 3.120791231484351 9.744436868355086 17.661610914300326 0 0 0
689 1 1 0.5897 3.6263164972887503 10.073204231438057 20.817444611131968 0 0 0
690 1 1 0.5897 2.1288216406920513 10.0301554361442 20.599810984770926 0 0 0
572 1 1 0.5897 1.3930706655910674 6.029192794847942 17.614347089768764 0 0 0
627 1 1 0.5897 2.3110288358549083 10.133619137943164 17.33143490534796 0 0 0
626 1 1 0.5897 3.0253722479554854 9.763471986132213 18.61387379701911 0 0 0
7 1 2 -1.1794 7.535765384140154 9.78329902895761 17.580026667476076 0 0 0
160 1 2 -1.1794 7.614496735030673 7.160702130730498 21.22623284604466 0 0 0
141 1 1 0.5897 7.412315963159594 8.906258916717206 20.670822511210332 0 0 0
139 1 2 -1.1794 7.398235710180375 9.830545707315961 20.422246160298116 0 0 0
9 1 1 0.5897 6.688051832935257 10.107226919762299 17.27565583589604 0 0 0
224 1 1 0.5897 2.9767438428490873 8.028858570016968 17.285886159027655 0 0 0
161 1 1 0.5897 6.792500197301297 6.747909507357795 20.96143958433735 0 0 0
394 1 2 -1.1794 0.7359801139005568 11.011599480257662 21.236791723516006 0 0 0
5 1 1 0.5897 3.7254151469845342 6.552436610212715 21.051427383946248 0 0 0
223 1 2 -1.1794 2.826476441504759 7.126990375223056 17.00243907685003 0 0 0
680 1 1 0.5897 4.560902617657185 10.336094125925634 17.007497724096737 0 0 0
446 1 1 0.5897 0.8016306575170361 11.755500689994427 17.010316360771654 0 0 0
681 1 1 0.5897 5.2098493621699 11.701878338534076 16.93339050817466 0 0 0
200 1 1 0.5897 5.418489810673188 13.618645198628114 4.836028789420925 0 0 0
173 1 1 0.5897 4.641019208493691 14.214813965852487 2.7936921766670144 0 0 0
172 1 2 -1.1794 5.4214789307747715 13.754559565000196 3.1023095087982293 0 0 0
293 1 1 0.5897 2.9441977580728014 16.699058527621943 2.7783838301955197 0 0 0
558 1 1 0.5897 3.0821914802652737 14.841513728697137 1.2508287869811943 0 0 0
556 1 2 -1.1794 3.1201788926602143 15.018613448759696 2.190750511005835 0 0 0
557 1 1 0.5897 2.3385560679466457 14.595797236722921 2.5464076399834985 0 0 0
478 1 2 -1.1794 7.570272182923564 14.952533616446145 2.0520904019318253 0 0 0
174 1 1 0.5897 5.298643614930998 12.851276471028251 2.8102854590307613 0 0 0
479 1 1 0.5897 8.269840922924963 14.408234663129495 2.413414162797187 0 0 0
449 1 1 0.5897 7.64827732519554 16.541020368531946 2.642989556994257 0 0 0
480 1 1 0.5897 6.764932667454046 14.572093593923322 2.4026474081407643 0 0 0
373 1 2 -1.1794 0.9058269420654053 13.48827210916087 2.977989826989521 0 0 0
374 1 1 0.5897 0.75525892603349 13.47012234777838 3.9231123139710453 0 0 0
308 1 1 0.5897 7.604500341598695 17.239145136739253 4.775361074287198 0 0 0
294 1 1 0.5897 2.7698654064409087 17.498370093095893 4.052239929752943 0 0 0
448 1 2 -1.1794 7.6827160664821985 17.415182237135788 3.03150591827598 0 0 0
317 1 1 0.5897 7.539661092549934 14.825271903114634 0.34588671574713403 0 0 0
292 1 2 -1.1794 2.721013225615601 17.572880426405426 3.0991808563096677 0 0 0
655 1 2 -1.1794 0.6874687819559038 13.579195720796834 5.66739062758346 0 0 0
238 1 2 -1.1794 2.9359510149520083 17.346183741244126 5.754219795991135 0 0 0
186 1 1 0.5897 7.4704231092266085 16.478379852089773 10.246548247307462 0 0 0
454 1 2 -1.1794 5.094827664351599 13.750820777264293 10.360177949206687 0 0 0
518 1 1 0.5897 7.419311216751659 15.609767304977069 6.413382692456955 0 0 0
201 1 1 0.5897 6.110723999089647 13.926834213861607 6.146657586428786 0 0 0
378 1 1 0.5897 7.411858913029212 14.864161142997085 8.64117659460786 0 0 0
376 1 2 -1.1794 7.480649363254565 14.844772379998616 9.595719970881914 0 0 0
766 1 2 -1.1794 0.73095317437285 13.518246152903659 10.11534608540626 0 0 0
307 1 2 -1.1794 7.542152672255118 17.18491504035206 5.7289990193182145 0 0 0
16 1 2 -1.1794 2.8643997104596783 14.76025913285984 6.566607562163413 0 0 0
656 1 1 0.5897 1.4273729409937301 14.101079266672217 5.977856992331613 0 0 0
382 1 2 -1.1794 3.038923825395981 17.49135113518807 10.375348468878466 0 0 0
517 1 2 -1.1794 7.4653553485739685 14.754532089412335 6.840866662612554 0 0 0
456 1 1 0.5897 5.102862777500207 12.8269621389949 10.10974915717607 0 0 0
199 1 2 -1.1794 5.299801972555723 13.5697497419741 5.784595540716174 0 0 0
812 1 1 0.5897 3.654077476085488 14.483358323648043 9.63509204117673 0 0 0
17 1 1 0.5897 2.9298833635188184 14.825134441521332 7.51936978506641 0 0 0
519 1 1 0.5897 8.302127627302802 14.38807698596252 6.55500104089046 0 0 0
384 1 1 0.5897 3.127588320729821 16.580853947816152 10.093527816823794 0 0 0
377 1 1 0.5897 6.620343417444061 14.54803017434181 9.892364191125973 0 0 0
811 1 2 -1.1794 2.9408061634325824 15.00981384435125 9.274119113860394 0 0 0
813 1 1 0.5897 2.1453393684429884 14.606862458245761 9.622054459218756 0 0 0
18 1 1 0.5897 3.718818975607972 14.429740659852216 6.289273759427722 0 0 0
239 1 1 0.5897 2.8921091445526277 16.450262893905197 6.088420738650026 0 0 0
184 1 2 -1.1794 7.405951236254222 17.374576268498835 10.576645527918426 0 0 0
552 1 1 0.5897 0.8589043661252873 12.0329082486518 6.426518342181195 0 0 0
14 1 1 0.5897 0.7470838715120555 11.871961685586935 9.525993151927638 0 0 0
59 1 1 0.5897 8.875503278091433 13.921036251576668 10.24381380107741 0 0 0
309 1 1 0.5897 8.349686976919156 17.58961210219003 6.045704141865347 0 0 0
579 1 1 0.5897 5.221179957608793 11.877318017320032 6.199922183662435 0 0 0
767 1 1 0.5897 0.7021027592478314 13.466374788535878 11.070717747132681 0 0 0
429 1 1 0.5897 5.900799572446664 14.060277120322333 13.394920974524696 0 0 0
232 1 2 -1.1794 2.82194937521792 14.856623070281524 13.754806604900505 0 0 0
234 1 1 0.5897 2.778136105293306 14.828149567100928 14.710589736743891 0 0 0
606 1 1 0.5897 2.7557717181709447 16.566857359750976 13.35348008479944 0 0 0
427 1 2 -1.1794 5.167701034316681 13.567359713955067 13.026402816435603 0 0 0
233 1 1 0.5897 3.6668858345399955 14.460739568951157 13.541401465032493 0 0 0
639 1 1 0.5897 1.468104047518901 13.846985102002176 13.11346226924308 0 0 0
428 1 1 0.5897 5.282577545219465 12.67869183152584 13.3630920827458 0 0 0
297 1 1 0.5897 8.153707239518962 14.355186379980813 13.763656485833007 0 0 0
296 1 1 0.5897 7.482125993111257 14.884419725462143 15.012980565161502 0 0 0
295 1 2 -1.1794 7.374884489070508 14.82379200135451 14.063726204484603 0 0 0
270 1 1 0.5897 7.438677880782578 16.48608332689335 13.50020234614761 0 0 0
638 1 1 0.5897 0.6650787430932629 12.568167225443354 13.221748897095098 0 0 0
637 1 2 -1.1794 0.6692176558788229 13.425712376001956 12.796430006462629 0 0 0
604 1 2 -1.1794 2.8606841430424974 17.48460951347598 13.102452067281764 0 0 0
269 1 1 0.5897 7.349114718716268 17.42298863696442 12.31435982825328 0 0 0
605 1 1 0.5897 2.9734665989108398 17.462101511103185 12.152173059177551 0 0 0
268 1 2 -1.1794 7.394345182291802 17.4142889533952 13.270465180507538 0 0 0
823 1 2 -1.1794 2.997517631180812 14.841499925566334 16.544573250275995 0 0 0
455 1 1 0.5897 4.986388440115651 13.740742899434064 11.311173874110722 0 0 0
715 1 2 -1.1794 2.874081526518846 17.44793030076358 20.57509093846255 0 0 0
159 1 1 0.5897 7.248226584794389 17.568958272675715 19.704019767053737 0 0 0
610 1 2 -1.1794 7.278699342585787 17.41242978615955 17.971239971888167 0 0 0
117 1 1 0.5897 8.971056791181349 14.079631884145858 20.617872317595804 0 0 0
584 1 1 0.5897 2.875015485098113 16.5718159841909 17.221581204719428 0 0 0
49 1 2 -1.1794 7.370769800584632 15.01324390645993 16.8503294115849 0 0 0
124 1 2 -1.1794 5.072710230699533 13.518499686933621 17.64565873348937 0 0 0
683 1 1 0.5897 5.968213843912451 13.960148148273214 20.805471066733176 0 0 0
157 1 2 -1.1794 7.334405713588673 17.54058005116523 20.65692829289423 0 0 0
316 1 2 -1.1794 7.488420992200946 14.734190120368597 21.40822409145163 0 0 0
682 1 2 -1.1794 5.218473865755943 13.504806071688645 20.422377809604235 0 0 0
451 1 2 -1.1794 0.949424649550538 13.701395960761348 20.337820125774243 0 0 0
318 1 1 0.5897 7.3351108943827175 15.623823954978814 21.089893742091462 0 0 0
126 1 1 0.5897 5.83588728928045 13.989271504098335 17.310780148906623 0 0 0
452 1 1 0.5897 0.9830029636340946 12.784767595663762 20.611594902159176 0 0 0
825 1 1 0.5897 2.194130691380546 14.491920222728005 16.930041811249183 0 0 0
50 1 1 0.5897 7.321135248347937 15.868492387879677 17.277378512303194 0 0 0
51 1 1 0.5897 8.139623507750802 14.59548893044275 17.238371782576124 0 0 0
125 1 1 0.5897 5.188135695075643 13.519337856073426 18.595886703739986 0 0 0
664 1 2 -1.1794 3.0950101480250023 14.865256758050293 21.46205983997666 0 0 0
666 1 1 0.5897 2.997701903713859 15.78483994838616 21.214686463738794 0 0 0
665 1 1 0.5897 2.3034965209496114 14.442163121663466 21.129329801939704 0 0 0
684 1 1 0.5897 4.457729582294414 14.00613691678178 20.715869116593304 0 0 0
824 1 1 0.5897 3.6958580426030503 14.301343660298311 16.91439048064357 0 0 0
53 1 1 0.5897 0.7442012985745234 13.54368337437282 18.473570160910143 0 0 0
52 1 2 -1.1794 0.810751487341218 13.514603311839174 17.519117467155738 0 0 0
583 1 2 -1.1794 2.9096362253715466 17.363794504932116 17.75810656570726 0 0 0
362 1 1 0.5897 5.1672617187380165 11.817098373631364 21.226649900278623 0 0 0
716 1 1 0.5897 2.885061149282441 17.422639033741746 19.618275905063882 0 0 0
267 1 1 0.5897 5.84353083107016 21.703151936080026 2.6618044507109384 0 0 0
696 1 1 0.5897 1.3190433046857843 22.098230010166375 2.6550316663545903 0 0 0
266 1 1 0.5897 4.331892199174215 21.767097653593922 2.611068394260101 0 0 0
265 1 2 -1.1794 5.056548745472506 21.22334748557205 2.919967774267319 0 0 0
228 1 1 0.5897 5.005411730757124 19.556798065488152 2.599864730396011 0 0 0
343 1 2 -1.1794 0.5437015710505291 19.109537398207415 2.0773662096071326 0 0 0
249 1 1 0.5897 5.174825219469472 21.10959446841195 4.798768853477173 0 0 0
226 1 2 -1.1794 5.088097550206479 18.66999569833621 2.249106601698238 0 0 0
187 1 2 -1.1794 2.8731262410555645 22.656815056907973 2.0754598439033813 0 0 0
818 1 1 0.5897 8.144573807673659 22.1053498633378 2.5124923448936753 0 0 0
189 1 1 0.5897 2.924078411071859 22.736102911353115 1.122893416715811 0 0 0
344 1 1 0.5897 1.2867268747826737 18.60743545601668 2.4120495342692707 0 0 0
817 1 2 -1.1794 7.3948797296360125 22.608672922701352 2.1949205841266854 0 0 0
345 1 1 0.5897 0.6789040408590267 19.135750759808502 1.1301137301464168 0 0 0
694 1 2 -1.1794 0.5153613849067125 21.681741557073885 2.9661986214276355 0 0 0
413 1 1 0.5897 0.7035960749976629 21.259963013369457 4.746991667415948 0 0 0
695 1 1 0.5897 0.5660279548982388 20.78501320046726 2.6351343394824136 0 0 0
227 1 1 0.5897 4.258729679737802 18.246243973597785 2.469953372806832 0 0 0
450 1 1 0.5897 6.844677907745505 17.81461050197015 2.79838826382911 0 0 0
321 1 1 0.5897 9.037304649779303 18.323666072832346 2.34667088752469 0 0 0
498 1 1 0.5897 7.524538986636323 22.70882388542892 0.39070707910908914 0 0 0
602 1 1 0.5897 5.141979732701324 18.865533121972774 0.46601897694795724 0 0 0
94 1 2 -1.1794 0.6597553474598198 21.222157605049645 10.130955189852145 0 0 0
240 1 1 0.5897 3.7804726632321266 17.67582612404106 6.0613063617807015 0 0 0
31 1 2 -1.1794 7.383290929151115 22.43495879123671 6.769537597109491 0 0 0
414 1 1 0.5897 0.6592458865407781 20.349554692282688 5.955786642673684 0 0 0
387 1 1 0.5897 5.3695531104688685 19.373969490107278 6.356308189016022 0 0 0
101 1 1 0.5897 6.105876586035948 18.28671895767185 9.82792532783277 0 0 0
32 1 1 0.5897 8.169355315855944 21.923284955473484 6.578472375299095 0 0 0
248 1 1 0.5897 4.477786323551231 21.565028202577764 6.0631358141034415 0 0 0
386 1 1 0.5897 6.183443253172467 18.103615042416912 6.481741545765283 0 0 0
403 1 2 -1.1794 0.8093724871748823 18.658603177935696 9.377615166777971 0 0 0
700 1 2 -1.1794 3.023148613489928 22.462294851505852 6.614428397415004 0 0 0
702 1 1 0.5897 2.230363202415271 21.991088815086798 6.358201072643268 0 0 0
342 1 1 0.5897 0.701555977419757 18.665501569763236 7.493946043807439 0 0 0
185 1 1 0.5897 8.135374161412203 17.83587247745554 10.162696014490692 0 0 0
86 1 1 0.5897 7.315881483721936 22.633305793445246 8.57844177711516 0 0 0
39 1 1 0.5897 3.781732036627877 21.994949478313877 9.814769311806456 0 0 0
405 1 1 0.5897 0.859890981024042 19.562340879201898 9.689074323902302 0 0 0
38 1 1 0.5897 2.2689102868635005 22.009986234389636 9.761366312501217 0 0 0
33 1 1 0.5897 6.672437611249172 21.946909588460407 6.3539599309195705 0 0 0
553 1 2 -1.1794 5.233103972204847 21.303100171794974 10.68715133743382 0 0 0
404 1 1 0.5897 1.5464003900488483 18.217587123223858 9.80010441959781 0 0 0
383 1 1 0.5897 3.8337586977413376 17.919509112055174 10.057349804556676 0 0 0
85 1 2 -1.1794 7.2921532521891015 22.637846685847606 9.535350209813105 0 0 0
555 1 1 0.5897 5.193586528334747 20.458144328160607 10.239072261122987 0 0 0
100 1 2 -1.1794 5.381685836313885 18.830674177908513 9.518288845262571 0 0 0
102 1 1 0.5897 5.416295391896819 18.75620935824913 8.564599953631099 0 0 0
87 1 1 0.5897 8.071329586548678 22.147348818243515 9.797068530715995 0 0 0
247 1 2 -1.1794 5.215631891779664 21.040285343689803 5.7525949078086605 0 0 0
37 1 2 -1.1794 3.043459058381254 22.43835881137671 9.396983943613352 0 0 0
554 1 1 0.5897 5.977474800958857 21.752439188609543 10.286884884432087 0 0 0
341 1 1 0.5897 1.4103712410421527 18.33669162410459 6.1972677220330565 0 0 0
385 1 2 -1.1794 5.361902757112176 18.50699492680193 6.7620088412758035 0 0 0
340 1 2 -1.1794 0.6135811632631124 18.738426980130882 6.54357465184547 0 0 0
701 1 1 0.5897 3.018426679087895 22.437437357732712 7.571304678004811 0 0 0
412 1 2 -1.1794 0.7150300543337529 21.271415061087062 5.704065747444534 0 0 0
96 1 1 0.5897 0.5425003104369983 21.3490618893614 11.072444479992434 0 0 0
88 1 2 -1.1794 5.083458368508838 21.330522643906022 13.409729808950733 0 0 0
381 1 1 0.5897 1.3405578041527015 21.747947862288996 13.323668662509167 0 0 0
90 1 1 0.5897 5.136885538104721 20.4101568363144 13.667346506488594 0 0 0
763 1 2 -1.1794 5.140748891688702 18.757656381843603 14.212478930018538 0 0 0
738 1 1 0.5897 3.5757012781522284 22.216960975719147 13.904946345896056 0 0 0
89 1 1 0.5897 5.1098543932212985 21.313865924367846 12.453026048504324 0 0 0
736 1 2 -1.1794 2.7388187642993373 22.639628698040326 14.097730772040572 0 0 0
789 1 1 0.5897 6.559974665782053 22.258289321959708 13.73890684530314 0 0 0
765 1 1 0.5897 5.891071101509609 18.21446807621185 13.971291145436675 0 0 0
787 1 2 -1.1794 7.393769174595877 22.672732019696028 13.960788736081195 0 0 0
503 1 1 0.5897 1.4674272217884308 18.33401694078377 13.742818789005264 0 0 0
764 1 1 0.5897 4.3882806185020735 18.31560896055364 13.819302663981388 0 0 0