LAMMPS data file via write_data, version 30 Jul 2021, timestep = 13750000

864 atoms
2 atom types
576 bonds
1 bond types
288 angles
1 angle types

0.6693324952931299 17.53823990470513 xlo xhi
1.8799165378737364 21.749261262126517 ylo yhi
0.8165840808754918 21.3966117191215 zlo zhi

Masses

1 1.00794
2 15.9994

Pair Coeffs # lj/cut/tip4p/long/omp

1 0 0
2 0.21084 3.1668

Bond Coeffs # harmonic/omp

1 450 0.9572

Angle Coeffs # harmonic/omp

1 55 104.52

Atoms # full

863 1 1 0.5897 3.8909206983024904 5.945974175546621 2.819236218725902 3 -2 3
862 1 2 -1.1794 4.039847154066653 6.0075172286297285 3.762823236384275 3 -2 3
541 1 2 -1.1794 2.9792306701360043 2.2231649619272433 3.5843456347501843 -4 0 2
421 1 2 -1.1794 1.4206155485215952 4.817377015254289 4.588400487082673 -3 -1 6
17 1 1 0.5897 3.8543553692041463 2.6096759924497777 5.385592799962761 -6 1 6
106 1 2 -1.1794 3.3886233110203094 6.084307880243849 1.1833233825946412 -2 0 2
107 1 1 0.5897 3.978423828209284 6.835594191169553 1.1197722356460884 -2 0 2
422 1 1 0.5897 2.240045781518627 5.30887515088331 4.530805086467313 -3 -1 6
752 1 1 0.5897 2.001628403819117 2.913499958967508 1.138970019487135 7 0 1
658 1 2 -1.1794 1.004395130810347 6.7116450397562355 2.1902976447074387 -1 0 0
660 1 1 0.5897 1.460121095689401 5.870852609650488 2.1484675055303315 -1 0 0
423 1 1 0.5897 0.9983112631685995 4.954614887284865 3.740364089482662 -3 -1 6
542 1 1 0.5897 2.5604321231021334 3.069260157529019 3.74262421085789 -4 0 2
757 1 2 -1.1794 0.7072163864983764 3.8011586034044123 1.9943494966197202 3 1 3
474 1 1 0.5897 4.196254070894476 2.8227527986633696 0.8939163838888291 0 -1 -4
689 1 1 0.5897 3.6208021326555637 5.501522492603172 8.579682418157706 1 -7 4
161 1 1 0.5897 3.1798935225282063 3.1895228655075836 9.28784816993353 1 8 1
688 1 2 -1.1794 2.9656783795871298 4.975410990721674 9.03831987716818 1 -7 4
158 1 1 0.5897 4.597226309828088 4.64564456448875 6.555342330487124 0 1 1
160 1 2 -1.1794 3.3735509235351655 2.3044888061333877 9.596943329623395 1 8 1
843 1 1 0.5897 2.0119151371190966 3.1140528579777635 6.953809995442014 -3 2 2
157 1 2 -1.1794 4.804897449957422 5.469115629051176 6.997066276565819 0 1 1
690 1 1 0.5897 2.3895189047812373 5.617629922961557 9.452951977666531 1 -7 4
841 1 2 -1.1794 1.0947617275123354 3.3879172390652537 6.9412854009469065 -3 2 2
159 1 1 0.5897 4.092264119165543 6.059337677634644 6.751883069559252 0 1 1
18 1 1 0.5897 4.498352383062888 2.1680515189462586 6.682668092137092 -6 1 6
800 1 1 0.5897 0.6736836152935636 6.225464066879018 10.97880327031193 -1 -1 5
16 1 2 -1.1794 4.02604841357871 2.897997973348725 6.282103576170656 -6 1 6
858 1 1 0.5897 0.7966507126779518 5.676767012286885 7.771214172049969 -1 1 -4
162 1 1 0.5897 3.066415618840004 2.2943203213802024 10.503525202719556 1 8 1
799 1 2 -1.1794 1.3086447085163015 6.808090250627835 10.562013846900777 -1 -1 5
842 1 1 0.5897 0.9996375238926496 3.8706740964463755 6.120177890110269 -3 2 2
136 1 2 -1.1794 1.5235824074964683 3.0237359597307023 11.904130279715737 5 -6 1
137 1 1 0.5897 1.5494623027024306 3.852000904532547 12.38334671846316 5 -6 1
703 1 2 -1.1794 1.9395882096492454 5.356726448424897 13.460958755870115 3 4 -3
705 1 1 0.5897 2.120519691256376 5.524986066168914 14.38577095590338 3 4 -3
165 1 1 0.5897 4.26313975631559 2.742736081457566 15.791797755321749 -1 4 -2
704 1 1 0.5897 2.7910869437758796 5.129401752395999 13.087320835509955 3 4 -3
215 1 1 0.5897 4.1370047210364165 2.4212481156389165 13.26681855973691 -4 0 4
840 1 1 0.5897 4.061524906924705 3.946976776251789 12.017929157331094 -1 -2 -4
838 1 2 -1.1794 4.269410037904315 4.796003628661259 12.40816317678822 -1 -2 -4
164 1 1 0.5897 2.8886332803426567 3.2911756689919596 15.472311008299226 -1 4 -2
163 1 2 -1.1794 3.7756650125881275 3.2191921108187245 15.119724723685202 -1 4 -2
285 1 1 0.5897 4.534692426378846 4.699789816447973 15.945266143462806 5 -1 -3
748 1 2 -1.1794 2.488143019558411 6.814144916058144 15.81051781373942 4 8 -4
750 1 1 0.5897 3.343227341089474 6.397577101479534 15.918369513724391 4 8 -4
214 1 2 -1.1794 4.26099614967546 1.9360825537036794 12.45099940492617 -4 0 4
839 1 1 0.5897 4.166818441926286 5.421433293067356 11.690783412628074 -1 -2 -4
283 1 2 -1.1794 4.876453902249282 5.59167447311534 16.00902552907658 5 -1 -3
138 1 1 0.5897 1.005638514666557 3.2149796752482067 11.122150675457178 5 -6 1
763 1 2 -1.1794 3.6353494264094595 4.905200890305723 19.041804775338164 -5 -2 -4
620 1 1 0.5897 1.4094084303162107 3.0263745908503656 17.309255969799857 3 -2 4
764 1 1 0.5897 2.7233851903127615 4.808814690143488 18.767279358603723 -5 -2 -4
117 1 1 0.5897 1.8277870287581854 2.4663548186785764 19.58060725997108 -1 -3 2
765 1 1 0.5897 4.091887618524733 4.1788926407669855 18.617093560555894 -5 -2 -4
619 1 2 -1.1794 1.5120850228683596 3.6846262418115776 16.621837529404253 3 -2 4
115 1 2 -1.1794 1.3796735165130043 2.2308384998079527 18.768171824255646 -1 -3 2
478 1 2 -1.1794 4.86513575148452 2.6123292774787648 17.62646874686586 -1 4 -5
108 1 1 0.5897 3.5885945436220985 5.556145498719088 20.990449118099356 -2 0 1
749 1 1 0.5897 2.0105415922475594 6.5922455852047666 16.609879123508414 4 8 -4
305 1 1 0.5897 3.940156985449944 6.7718745142097685 18.54833668116583 -3 -2 -6
751 1 2 -1.1794 2.547993582219576 2.371012421996146 21.150177700498872 7 0 0
271 1 2 -1.1794 0.9331981439056787 6.411093723622668 18.143627897259904 -3 1 6
270 1 1 0.5897 4.249797282550281 10.12616562903388 3.5948747765984734 7 5 6
10 1 2 -1.1794 4.787807000975441 11.583973219476764 0.9552812046703871 -10 2 2
787 1 2 -1.1794 3.105623729727705 9.584904768459728 2.34909075672409 3 -5 9
268 1 2 -1.1794 4.871510267281214 10.629510000957012 4.120649812549285 7 5 6
365 1 1 0.5897 1.2111655013719127 7.758441522739531 3.7959343953702898 5 8 0
788 1 1 0.5897 2.319770678987347 9.535677886045189 1.804709629590167 3 -5 9
789 1 1 0.5897 3.6976329830031536 8.931967196820501 1.975559780470239 3 -5 9
269 1 1 0.5897 4.737913255873632 10.316405180944582 5.015321404231672 7 5 6
366 1 1 0.5897 2.0497051889962714 9.018097418131077 3.7485773637600133 5 8 0
364 1 2 -1.1794 1.5656968797643065 8.453127417047067 4.350972027904509 5 8 0
614 1 1 0.5897 1.274210396115551 9.63330827307544 5.541545459858154 -9 5 5
659 1 1 0.5897 1.4327342620484926 7.25011755545236 1.5247636376407818 -1 0 0
65 1 1 0.5897 2.8283364092755203 7.674013748200077 5.8022699265937705 6 2 -2
51 1 1 0.5897 1.8960286827441324 9.949552084728987 7.739120551453682 8 1 -2
191 1 1 0.5897 3.6980316842631087 8.304088729275179 9.036652228160936 7 4 -8
190 1 2 -1.1794 4.545890140910749 8.018006389073692 9.376685585208625 7 4 -8
198 1 1 0.5897 0.8580968094185942 9.97913817519083 10.1479426732656 -7 -1 -3
49 1 2 -1.1794 2.377412725399931 9.934422723958837 8.566383698977493 8 1 -2
312 1 1 0.5897 4.671334748404824 8.194324278423485 6.56425324179885 6 4 5
613 1 2 -1.1794 1.1275512434064017 10.381208003327128 6.12073676099252 -9 5 6
66 1 1 0.5897 2.2074068357912093 7.307413007917793 7.1335092583770034 6 2 -2
197 1 1 0.5897 0.9363404113951077 8.675363843288523 10.913562315103336 -7 -1 -3
50 1 1 0.5897 3.198344292184851 10.387935298914858 8.374677233140225 8 1 -2
64 1 2 -1.1794 3.046888815760278 7.347767905508864 6.675264936027329 6 2 -2
192 1 1 0.5897 4.760359009896599 8.65772627468942 10.055738671509287 7 4 -8
267 1 1 0.5897 4.192794009011623 10.635973796660252 10.742436007223798 -2 -2 0
676 1 2 -1.1794 3.1577831044704276 7.836963429585975 12.506739849994803 1 2 -2
520 1 2 -1.1794 0.9273264231068681 8.568011446788026 14.635452996545256 -4 1 -5
521 1 1 0.5897 1.3760449540536404 8.825882972906975 13.830166322186784 -4 1 -5
264 1 1 0.5897 3.362009599846678 10.74535367716008 14.295970680627228 2 -1 1
397 1 2 -1.1794 1.9250863504406086 10.851152132914196 13.128440781683816 8 -2 -6
677 1 1 0.5897 3.583656780504637 8.478962443257094 11.93857673943699 1 2 -2
522 1 1 0.5897 1.4270940411776543 7.818487110176832 14.959192785362882 -4 1 -5
262 1 2 -1.1794 4.110665373486082 10.38979350421285 14.774958921877918 2 -1 1
398 1 1 0.5897 1.1392362477106102 11.196145421058022 13.552425856634942 8 -2 -6
263 1 1 0.5897 4.163221988810659 9.476139707458799 14.494214073763416 2 -1 1
399 1 1 0.5897 1.6051123286467592 10.448710279892378 12.320947362241695 8 -2 -6
678 1 1 0.5897 3.7637870533333997 7.725427799978591 13.23932079251517 1 2 -2
265 1 2 -1.1794 4.685097248173567 9.992013157461757 11.251638222052236 -2 -2 0
801 1 1 0.5897 1.9730886639571663 6.959248233260261 11.234331326271286 -1 -1 5
496 1 2 -1.1794 1.8054888343205606 8.265063035662976 20.38925451772318 -1 0 -1
304 1 2 -1.1794 4.014266692875939 7.69601275846134 18.78677432851675 -3 -2 -6
497 1 1 0.5897 1.0875946134164503 7.717440929932713 20.071339407284142 -1 0 -1
341 1 1 0.5897 3.0093539103686715 8.84900749572516 17.803759829884036 -1 4 -2
243 1 1 0.5897 1.9182649703423582 10.443143873893879 19.700230845102254 -2 1 3
410 1 1 0.5897 1.5889606753363084 11.22503590208867 16.573021606732667 5 -3 -4
340 1 2 -1.1794 2.358701290094318 9.415272760709282 17.388648635451972 -1 4 -2
498 1 1 0.5897 2.577239049960019 7.943529322922663 19.923051219600836 -1 0 -2
242 1 1 0.5897 3.375386176565519 10.519967801092553 19.296475063264566 -2 1 3
12 1 1 0.5897 4.055705848660049 11.202914545499407 21.050376790665013 -10 2 1
241 1 2 -1.1794 2.691949642786992 11.003594563297256 19.760523979858014 -2 1 3
342 1 1 0.5897 2.4344958282328832 9.222910066871815 16.45399524961891 -1 4 -2
306 1 1 0.5897 4.789518505994102 8.00362421980443 18.316996409030665 -3 -2 -6
236 1 1 0.5897 4.707306998703597 14.493637420792247 3.2602315136294404 1 2 -4
322 1 2 -1.1794 3.3716734990561017 13.483512767100573 2.3263578477586035 11 0 -2
211 1 2 -1.1794 2.6531014855028996 16.513647668460642 4.541809907246468 2 1 -1
324 1 1 0.5897 2.441039354383289 13.283460012688865 2.2252346779078556 11 0 -2
389 1 1 0.5897 2.8911876036009803 12.771171003471943 4.403401175666728 1 3 2
323 1 1 0.5897 3.820832027391617 12.690533761760944 2.033481212740422 11 0 -2
388 1 2 -1.1794 2.2450411886937713 12.909997235056137 5.095909175252558 1 3 3
212 1 1 0.5897 3.2881487408818595 15.806337417387951 4.4288750882661425 2 1 -1
238 1 2 -1.1794 2.30243463845728 16.634226234602615 1.670501590750507 -5 -4 -1
239 1 1 0.5897 3.2208057666874583 16.52796925345347 1.4221152596740092 -5 -4 -1
508 1 2 -1.1794 4.86239866193825 16.72539790213246 0.9448285842005828 4 -1 5
390 1 1 0.5897 1.936198909170145 12.03098774806039 5.315732535560597 1 3 3
240 1 1 0.5897 2.301818457124476 16.560112176772286 2.6248770621355595 -5 -4 -1
213 1 1 0.5897 1.9422737402442303 16.11949264540189 5.0474860317101875 2 1 -1
718 1 2 -1.1794 0.7922395916196692 13.346223279050252 1.4796409371474573 6 3 2
297 1 1 0.5897 0.7063289365287193 13.324332233535856 4.620619007111168 3 3 1
610 1 2 -1.1794 3.0111422461675765 13.780868439877946 7.718636018759598 4 3 -3
786 1 1 0.5897 1.1493194743436503 14.836672977038335 10.129878179527081 9 2 6
781 1 2 -1.1794 4.467941548192467 16.120520888159025 10.782310170683003 -2 1 0
200 1 1 0.5897 0.981414554150255 12.495375934379629 8.631903557652187 2 -6 -2
184 1 2 -1.1794 3.4497867605668064 12.750969056843278 10.151838527652844 0 6 -1
612 1 1 0.5897 2.598697381960079 13.518813543776652 6.895509615003982 4 3 -3
782 1 1 0.5897 3.5994851034474302 16.11218715451352 10.379770023755919 -2 1 0
611 1 1 0.5897 3.333834212692406 14.66691852198287 7.553964041647685 4 3 -3
482 1 1 0.5897 1.500820141209759 15.979304743263588 8.510538410817233 6 5 5
186 1 1 0.5897 3.328855130067548 13.070278476012316 9.257507181093157 0 6 -1
481 1 2 -1.1794 1.7820745470928954 16.215517630391897 9.39452811605159 6 5 5
144 1 1 0.5897 3.2157075526488454 16.221839321879123 6.568048036869026 -3 1 7
142 1 2 -1.1794 4.018918161799249 16.304201576844182 7.082263106044588 -3 1 7
785 1 1 0.5897 1.7863350447419268 13.53845492482862 10.578160106375575 9 2 6
784 1 2 -1.1794 0.9707323472631348 14.037339077639563 10.625349675299448 9 2 6
391 1 2 -1.1794 1.0403584785789541 15.903390890944129 6.7645314121148274 2 -3 0
185 1 1 0.5897 4.079316272955352 13.358455509881413 10.540512650077451 0 6 -1
634 1 2 -1.1794 3.519926314056893 13.222327599514443 13.21544948278293 -8 3 1
21 1 1 0.5897 3.438835339258645 15.101818093953593 13.54125947876472 -4 -5 3
20 1 1 0.5897 3.109718449016453 15.996165169477345 14.71767806169626 -4 -5 2
19 1 2 -1.1794 3.4230939657568316 16.019410724894634 13.813466098315065 -4 -5 3
360 1 1 0.5897 0.8422010205219999 14.605160440932108 12.395173975314826 6 2 -1
636 1 1 0.5897 2.8672937560481335 12.522593796023646 13.185804927057527 -8 3 1
635 1 1 0.5897 4.295155318389515 12.81147662138932 13.598305108463046 -8 3 1
359 1 1 0.5897 1.1834994781391637 14.036830923029408 13.75629853154395 6 2 -1
409 1 2 -1.1794 1.4416039113240895 12.084037716404483 16.17714000108002 5 -3 -4
440 1 1 0.5897 1.1033756518357491 15.687690500515128 16.066702156278474 3 2 3
183 1 1 0.5897 4.183874540096918 16.284146182749556 18.61174397376989 -7 2 -5
505 1 2 -1.1794 2.685670624220121 13.9335300926396 19.83884161297251 7 0 -4
738 1 1 0.5897 2.2206514674787687 15.873525972165003 19.395267613254802 -3 2 -2
506 1 1 0.5897 2.5023864305551005 14.189591617719808 20.742816694691413 7 0 -4
736 1 2 -1.1794 2.3284982498856612 16.702719042221865 18.92928952113919 -3 2 -2
441 1 1 0.5897 2.0026815535598566 15.885081361516725 17.26857089002445 3 2 3
577 1 2 -1.1794 3.731775678181399 13.586728447853202 16.414204241152056 -1 3 0
507 1 1 0.5897 2.516969213837018 12.991510806758495 19.817326047082666 7 0 -4
579 1 1 0.5897 4.149433614178074 13.631355653918709 17.2743895096388 -1 3 0
578 1 1 0.5897 3.1596241450264193 14.353624397789925 16.385129046198124 -1 3 0
439 1 2 -1.1794 2.004401673974956 15.56582773346798 16.366125555424798 3 2 3
795 1 1 0.5897 4.373581608748994 13.517677330991573 19.23268489242878 -11 5 3
335 1 1 0.5897 0.7070685684990181 13.760155105239383 18.679930968441155 3 1 3
221 1 1 0.5897 0.7769194033363481 16.334105311902547 21.307698801921955 2 0 6
411 1 1 0.5897 2.269652219855814 12.548989557804186 16.297472844001714 5 -3 -4
753 1 1 0.5897 2.4225974648524176 21.349005606905298 0.8958860102962254 7 -1 1
72 1 1 0.5897 3.137795694543415 18.09850620637038 5.318766792750123 4 0 -5
450 1 1 0.5897 4.028737158566764 20.407982941668877 2.9861841124458577 3 2 1
415 1 2 -1.1794 1.05860424374137 20.479796412416963 4.561145812944922 -5 0 -3
715 1 2 -1.1794 2.5130963623108222 19.340286664009113 1.310346332047167 4 -9 2
716 1 1 0.5897 3.437718619006803 19.551592763692668 1.1809221341505034 4 -9 2
717 1 1 0.5897 2.519243520033393 18.469187737335563 1.7071769692269512 4 -9 2
71 1 1 0.5897 4.090701492670167 19.214911602084005 4.947641447040501 4 0 -5
448 1 2 -1.1794 4.81389937454895 19.8619409825556 3.027874486251167 3 2 1
70 1 2 -1.1794 3.3727822886061363 18.99899788831453 5.542872203514044 4 0 -5
417 1 1 0.5897 1.5371405187902656 19.926122622986185 5.17826317047842 -5 0 -3
543 1 1 0.5897 2.375913352413698 21.451873664809824 3.961086514696729 -4 -1 2
416 1 1 0.5897 0.7370206806687456 19.87326786886692 3.894033885814905 -5 0 -3
309 1 1 0.5897 3.9302181252261548 18.521444574765194 9.582785553283502 0 9 -3
308 1 1 0.5897 4.727208483008934 19.16258408564543 8.466588035640296 0 9 -3
357 1 1 0.5897 1.4636921268835583 19.200937736463093 8.75193336490587 0 -2 1
846 1 1 0.5897 2.528536293704576 21.11645333368798 8.372997262486486 3 -2 4
845 1 1 0.5897 2.666300842386833 20.318356538385864 7.093833666490181 3 -2 4
143 1 1 0.5897 3.8614350411075864 17.055034339839885 7.654780899319991 -3 1 7
307 1 2 -1.1794 4.056696959705983 18.500248586175587 8.634164899165068 0 9 -3
844 1 2 -1.1794 2.015735777077694 20.650158880787068 7.7127407164470165 3 -2 4
483 1 1 0.5897 1.7004097034135883 17.1687659642039 9.425679032206483 6 5 5
355 1 2 -1.1794 0.8575141686896072 18.73716546153167 9.32968149367387 0 -2 1
772 1 2 -1.1794 4.272439545266177 18.92396858800096 11.460436999213858 0 -3 1
773 1 1 0.5897 3.7496586090500186 19.61512122440068 11.867048834067914 0 -3 1
147 1 1 0.5897 1.9508711568762893 19.184233525227977 15.009803305662391 0 -1 -2
194 1 1 0.5897 3.3829907724962185 18.173496392426767 16.113404876410485 3 -3 2
532 1 2 -1.1794 2.0444753065721737 20.108646428439865 13.13294261786319 -10 -1 -2
696 1 1 0.5897 1.7277373188109773 18.4087197230054 12.677663621358183 0 -4 0
534 1 1 0.5897 1.336379045257217 20.225180774158698 12.499423188327404 -10 -1 -2
694 1 2 -1.1794 1.6036843786729695 17.536138339044587 12.304115765618322 0 -4 0
533 1 1 0.5897 2.677767363973859 20.792116528462948 12.913454671230902 -10 -1 -2
695 1 1 0.5897 2.3123836983889 17.012154993059816 12.67768931403652 0 -4 0
146 1 1 0.5897 1.0808724204267564 17.97387938123456 15.275036922829226 0 -1 -2
145 1 2 -1.1794 1.7319156853139515 18.54281983449552 15.685854852580517 0 -1 -2
193 1 2 -1.1794 4.310706577879326 17.942021966972362 16.066363124490117 3 -3 2
783 1 1 0.5897 4.538042113741455 16.986651965880665 11.183865828316781 -2 1 0
737 1 1 0.5897 1.8664834090870766 17.343611476022623 19.469774231264317 -3 2 -2
230 1 1 0.5897 4.117690963469046 19.347708035030795 19.269867521051154 4 2 -2
294 1 1 0.5897 1.3382723435368287 19.290677672695825 20.5619820426515 4 -1 1
195 1 1 0.5897 4.42107617576386 17.257735013932923 16.7265831971568 3 -3 2
648 1 1 0.5897 2.4023071694936093 19.248083377517073 17.877622584811242 -5 -4 -3
292 1 2 -1.1794 0.9833392332000199 18.829994616071378 19.801639049624377 4 -1 1
646 1 2 -1.1794 3.047120751455992 19.953577111442524 17.930940667958097 -5 -4 -3
647 1 1 0.5897 2.5676774768233974 20.688497332369256 18.313506620605878 -5 -4 -3
229 1 2 -1.1794 4.706005391391279 18.888261588810487 19.869136287167308 4 2 -2
509 1 1 0.5897 4.765970389162449 17.435624687439415 20.89034364435355 4 -1 4
480 1 1 0.5897 4.565173577731276 21.593152038507757 17.818516323317944 -1 3 -5
377 1 1 0.5897 8.058496699099425 6.111803752186837 2.2654320468613665 4 2 5
665 1 1 0.5897 8.435271057510546 3.2299466908913503 2.334419339429159 -2 1 4
664 1 2 -1.1794 8.44580117947682 2.5801804748145325 1.6315493633017155 -2 1 4
830 1 1 0.5897 5.037497639079256 4.302727208054124 3.856523260777815 5 -2 7
829 1 2 -1.1794 5.717479922192511 3.6941879863385507 3.567314925226308 5 -2 7
831 1 1 0.5897 5.598506025752965 3.634250530647633 2.6193787643817434 5 -2 7
687 1 1 0.5897 7.531407962352717 4.917895324645151 3.7802283070369898 8 -9 -3
685 1 2 -1.1794 8.446147202395352 4.8793314012939675 3.5007635583119097 8 -9 -3
90 1 1 0.5897 6.492414166177371 2.13250552173189 4.351146683345485 9 -2 -1
380 1 1 0.5897 7.012761236896438 6.603206476847966 5.136513547109831 3 3 -1
864 1 1 0.5897 4.891411783696311 6.437209074537642 3.8438591581114934 3 -2 3
376 1 2 -1.1794 7.726285267435189 6.6804638528603295 1.5707475546014191 4 2 5
686 1 1 0.5897 8.934110949315683 5.279212239266077 4.220703342676854 8 -9 -3
379 1 2 -1.1794 7.189659371994436 5.952215489913448 5.815672119945253 3 3 -1
472 1 2 -1.1794 5.084017256834146 3.1786362770908134 0.9332633474362706 0 -1 -4
381 1 1 0.5897 6.333680566357675 5.772601471360138 6.2047463189208525 3 3 -1
790 1 2 -1.1794 7.6539326347880055 3.0907922529390066 6.819284785776771 4 4 -2
544 1 2 -1.1794 6.028018077900145 3.00614973198945 9.335960841755764 -5 3 3
176 1 1 0.5897 8.498410166107181 6.386232514499214 7.545998205799107 -2 -4 8
546 1 1 0.5897 5.994068040718093 3.934520638993075 9.56682130760071 -5 3 3
792 1 1 0.5897 6.931188922300671 3.0669865330701036 7.4465119478629695 4 4 -2
791 1 1 0.5897 7.798847387710688 4.022711416242465 6.655355288193594 4 4 -2
545 1 1 0.5897 5.11628358180112 2.7166055716962907 9.371120744729389 -5 3 3
254 1 1 0.5897 6.8009342244136555 2.4861140025244093 10.94462101922684 2 11 -9
175 1 2 -1.1794 8.727746928428726 6.0629016377867355 8.417319756576546 -2 -4 8
394 1 2 -1.1794 6.252849153025246 5.621410736141719 9.772192870856015 8 -3 6
395 1 1 0.5897 7.121784079333267 5.805971544214664 9.41552641813692 8 -3 6
396 1 1 0.5897 5.699564323635032 6.324778717595324 9.432339090168814 8 -3 5
852 1 1 0.5897 6.461177922481241 3.106270745907894 14.330878500116704 -5 1 -2
768 1 1 0.5897 7.7554676516566525 5.3594391155580805 14.682544503350112 -2 -6 5
851 1 1 0.5897 5.950875662017183 4.406126888746342 13.745931069577528 -5 1 -2
255 1 1 0.5897 7.0567440924232026 3.0134121133226106 12.340591576369517 2 11 -9
850 1 2 -1.1794 6.75765411131172 3.9355370865610024 13.955689797632942 -5 1 -2
766 1 2 -1.1794 8.236202333924933 6.012920790380922 15.190655440056657 -2 -6 5
767 1 1 0.5897 7.8711744701269915 5.946865202074514 16.073109228760174 -2 -6 5
253 1 2 -1.1794 6.918880778046807 2.2023214805005784 11.851213711867114 2 11 -9
30 1 1 0.5897 5.316175416055333 6.843501736786166 14.800616075833867 -10 0 5
642 1 1 0.5897 6.736685379654209 6.480530523408656 11.331778046670836 4 1 -7
216 1 1 0.5897 5.2051029902678545 1.9651359015572538 12.295607441786167 -4 0 4
524 1 1 0.5897 8.66823101331926 5.422217190135976 21.123394114518675 4 3 1
300 1 1 0.5897 6.54934501960772 5.6211459845701315 18.482999796652898 -6 -1 2
550 1 2 -1.1794 6.215701633703745 5.515434876107671 20.21676226940646 -4 3 -5
372 1 1 0.5897 7.583565051032038 1.8936373576711196 20.887953268408133 4 7 -3
34 1 2 -1.1794 8.255140159089581 2.826209024162726 18.07618133605289 -1 6 -2
35 1 1 0.5897 8.2511218505941 2.17622946929353 17.373440359622542 -1 6 -2
299 1 1 0.5897 7.555203391359402 4.813189923051555 17.69077443412902 -6 -1 2
298 1 2 -1.1794 6.8895974373904 5.494775089512929 17.597224917267923 -6 -1 2
551 1 1 0.5897 5.813968116054093 4.6917289858689095 20.49324375041472 -4 3 -5
552 1 1 0.5897 6.52009440693163 5.918778117137046 21.029770276193453 -4 3 -5
473 1 1 0.5897 5.63123311511125 2.5035083661597914 21.11194608493946 0 -1 -5
371 1 1 0.5897 7.333206174145085 2.189347565470071 19.424376649710695 4 7 -3
284 1 1 0.5897 5.575016883936634 5.534963949385872 16.66103754869652 5 -1 -3
479 1 1 0.5897 5.818278798438245 2.5653548658669902 17.70161217597302 -1 4 -5
525 1 1 0.5897 8.915228338246363 3.9339005205680304 21.25012721841418 4 3 1
434 1 1 0.5897 8.952518413876021 9.120741873945729 4.171187891377032 1 3 -1
11 1 1 0.5897 5.099299994075678 10.873969914640501 1.516697740155083 -10 2 2
711 1 1 0.5897 7.833186145307581 11.131123165131813 1.7062010723414804 -7 -4 0
709 1 2 -1.1794 7.25491244228727 10.397481186379727 1.915258177977904 -7 -4 0
530 1 1 0.5897 8.125378095202528 11.440256078374322 5.488211789648678 -5 1 -6
796 1 2 -1.1794 6.365787446301923 7.7583252070889746 4.122949066982519 -2 -7 -1
618 1 1 0.5897 6.02736255756231 7.673137498717734 1.6841460684494758 -3 1 -3
616 1 2 -1.1794 5.2221372112436555 8.013625987401884 1.2942530977874762 -3 1 -3
435 1 1 0.5897 8.506312275685364 9.4192259048342 2.7555724338645557 1 3 -1
433 1 2 -1.1794 8.853373731412635 8.718788838903965 3.3080881315029216 1 3 -1
797 1 1 0.5897 5.980773353803536 8.40795283871732 4.711226270684595 -2 -7 -1
710 1 1 0.5897 7.0222342947347025 10.025307647818332 1.0645639547221115 -7 -4 0
798 1 1 0.5897 7.001825576558836 8.2511910468892 3.604424476137688 -2 -7 -1
378 1 1 0.5897 8.48649932754577 7.193473820049389 1.2964392528848636 4 2 5
600 1 1 0.5897 8.06576327839473 9.087071317892011 8.599554860608567 -2 -4 -6
598 1 2 -1.1794 7.804671510982085 8.951770617076082 7.688585476441112 -2 -4 -6
458 1 1 0.5897 5.126085783778373 10.36902611312819 7.049682560170976 1 0 -4
77 1 1 0.5897 7.336920830158158 10.808791483530864 9.809524306109994 -6 -3 -5
311 1 1 0.5897 6.068903180396443 8.697766968289173 6.856597285919706 6 4 5
459 1 1 0.5897 5.559089683846571 11.332955907604466 8.133907771107408 1 0 -4
76 1 2 -1.1794 6.879824179304147 11.535119303489408 9.385422049024056 -6 -3 -5
599 1 1 0.5897 7.987245631932274 9.787950287487611 7.259870562797434 -2 -4 -6
754 1 2 -1.1794 8.10781445127237 9.019880397070754 10.352402921049285 -2 -3 -5
529 1 2 -1.1794 8.612528216758207 11.202151367265747 6.277122409605283 -5 1 -6
755 1 1 0.5897 7.512991613132081 8.49442186076079 10.887601048495174 -2 -3 -5
310 1 2 -1.1794 5.269252946513769 8.918537768190438 6.3789547101315245 6 4 5
756 1 1 0.5897 8.680863153374233 9.452918176040711 10.985185848696847 -2 -3 -5
457 1 2 -1.1794 4.886832087549964 11.197103829311988 7.466123298589538 1 0 -4
225 1 1 0.5897 9.085134112328712 8.197729658304272 6.730666923743869 2 -5 -8
455 1 1 0.5897 7.077410351088321 9.837463667290374 13.852008944359945 0 -2 2
640 1 2 -1.1794 6.882236273352971 7.131917442046395 12.01795556934454 4 1 -7
29 1 1 0.5897 5.923328706122451 7.361451440818077 13.514053338136565 -10 0 5
454 1 2 -1.1794 6.582729986972965 10.473579412617443 13.335315618703353 0 -2 2
456 1 1 0.5897 5.873152150505649 10.752911255184785 13.913930022108211 0 -2 2
739 1 2 -1.1794 8.295971376241116 8.67843406605321 14.424830757850772 -1 2 3
740 1 1 0.5897 8.323784709938494 7.734358114039909 14.580686515137986 -1 2 3
28 1 2 -1.1794 5.224080547143977 7.5344227109553925 14.144516201533833 -10 0 5
491 1 1 0.5897 8.219962247020769 11.052636274977612 16.139115539660388 0 7 4
266 1 1 0.5897 5.22276322821293 10.51594101653665 11.845564660755905 -2 -2 0
741 1 1 0.5897 8.722975947614612 8.79420036605779 13.575945513998256 -1 2 3
329 1 1 0.5897 6.067398584102124 8.356127719989516 15.94158221404551 5 7 -2
641 1 1 0.5897 7.7920080248641925 7.00008870211847 12.284929280229083 4 1 -7
597 1 1 0.5897 6.336791734906366 9.759065867986868 19.507021724402925 2 -4 -1
589 1 2 -1.1794 8.684776140179888 8.141288711164854 18.070528872746678 1 3 0
697 1 2 -1.1794 8.622765973499934 11.518691999074877 18.68476212578949 -5 7 -5
590 1 1 0.5897 7.912621830216891 8.32143147802127 17.534182635664507 1 3 0
699 1 1 0.5897 7.929832936792601 11.519015323317667 18.024323526474213 -5 7 -5
595 1 2 -1.1794 6.868136044891988 9.14086802576222 20.00885365162383 2 -4 -1
596 1 1 0.5897 7.555386012946716 8.866866598233635 19.401455469790534 3 -4 -1
330 1 1 0.5897 6.4565886570041435 9.633131595034296 16.655705587204007 5 7 -2
328 1 2 -1.1794 6.345767740184439 8.692349823763912 16.793521366133454 5 7 -2
178 1 2 -1.1794 5.023519780996532 10.67963396606718 18.597164954523393 -9 3 0
180 1 1 0.5897 5.235098252295498 11.608889251718619 18.686895797171367 -9 3 0
617 1 1 0.5897 5.464074568365927 8.229069679279313 20.9735187571591 -3 1 -4
490 1 2 -1.1794 7.29594003037403 11.1890937616996 16.348608746746937 0 7 4
179 1 1 0.5897 4.929364696316663 10.544904574472088 17.654135077717683 -9 3 0
512 1 1 0.5897 7.731925332699893 15.108557958140413 1.898453310502913 0 -1 -3
674 1 1 0.5897 6.705923463152352 13.145036612907868 4.905920438529325 -4 -3 1
513 1 1 0.5897 8.91463633110148 14.897009784332313 2.8196526509427615 0 -1 -3
511 1 2 -1.1794 8.597038009240038 15.458184804913694 2.112151162205204 0 -1 -3
675 1 1 0.5897 6.26383432250951 12.161790139143196 3.8429524765358014 -4 -3 1
673 1 2 -1.1794 7.045065425424766 12.526135133026298 4.259187072416893 -4 -3 1
235 1 2 -1.1794 4.9680596143374744 15.073205831151247 3.9760728793504745 1 2 -4
408 1 1 0.5897 9.067071012528848 14.923557442417001 4.944482038688639 -3 -4 4
237 1 1 0.5897 5.349068761403029 15.835863617708915 3.540748464145632 1 2 -4
32 1 1 0.5897 9.07770683336107 12.24349167383607 3.46377022302909 4 5 4
443 1 1 0.5897 5.545645491666805 15.516555716478853 9.353883137074268 5 3 -2
444 1 1 0.5897 5.8524351852232135 14.617755834612735 8.17480356062002 5 3 -2
633 1 1 0.5897 9.002523869936535 15.56877329307812 6.888566080776804 3 1 3
558 1 1 0.5897 5.285635858551515 13.029836113659888 6.841618016951567 -1 4 1
442 1 2 -1.1794 6.272066344667656 15.115535247947886 8.876570423686367 5 3 -2
556 1 2 -1.1794 5.7636187523173525 13.769285685757536 6.465963673697417 -1 4 1
631 1 2 -1.1794 8.195237064652511 15.653302471502858 6.3811539141225 3 1 3
78 1 1 0.5897 6.471129119601745 12.014894475752895 10.105924472665805 -6 -3 -5
632 1 1 0.5897 7.535765428510401 15.193827456790633 6.901059279486007 3 1 3
576 1 1 0.5897 8.389084960499623 12.843350845446729 7.8957594634553425 0 0 -2
815 1 1 0.5897 6.085735149069966 14.016445121330793 10.311649406057722 -4 10 -8
574 1 2 -1.1794 9.1005136925424 13.402788814847906 8.207587010920388 0 0 -2
252 1 1 0.5897 8.4070990741391 16.027561305796727 10.980339319953279 5 -4 1
814 1 2 -1.1794 5.922667407154042 13.449531185857916 11.065554435376963 -4 10 -8
557 1 1 0.5897 5.081472223354638 14.346227492429305 6.1221789829424536 -1 4 1
652 1 2 -1.1794 7.008651588868234 16.228698324500975 16.045378116779276 -1 0 1
828 1 1 0.5897 6.702942764075396 15.907677381712507 14.05147872784046 4 -1 2
816 1 1 0.5897 5.798025291076002 14.053618300118677 11.797582046699526 -4 10 -8
826 1 2 -1.1794 6.2233173872856975 15.616848195311334 13.27575919697326 4 -1 2
573 1 1 0.5897 5.325874986798578 13.479588175891513 15.48338207447127 3 -5 -5
251 1 1 0.5897 7.235479491901424 16.4629523470331 11.834689553609982 5 -4 1
572 1 1 0.5897 5.861610912574641 13.997182858799581 14.165331255902986 3 -5 -5
571 1 2 -1.1794 5.812430254853287 13.208083462473368 14.704989980334483 3 -5 -5
827 1 1 0.5897 5.403245974280697 16.109931573590416 13.301783475127761 4 -1 2
2 1 1 0.5897 8.77291586247674 12.765383540205569 12.894720360498727 -1 -8 1
3 1 1 0.5897 7.693011245745116 11.820681908282282 12.411516212186159 -1 -8 1
492 1 1 0.5897 7.005560886639433 11.85814649564019 15.728623448662253 0 7 4
1 1 2 -1.1794 8.500601184687019 12.252894024872942 12.133451198474551 -1 -8 1
608 1 1 0.5897 8.640783762971175 13.883624131788054 11.249980123552366 3 2 1
182 1 1 0.5897 5.686048772975589 16.11273161889687 18.532663628952953 -6 2 -5
181 1 2 -1.1794 4.903000852881448 16.188134212220575 17.987245012258178 -7 2 -5
794 1 1 0.5897 5.8505440910859745 13.848744176872593 19.26582385422997 -11 5 3
453 1 1 0.5897 7.935341797037393 15.560362926685507 19.642716916557738 -1 -1 5
793 1 2 -1.1794 5.186685408901236 13.401163249172466 18.74113830834014 -11 5 3
447 1 1 0.5897 7.897064888866999 14.731078917397308 16.71055628741429 3 -1 -1
654 1 1 0.5897 6.243684564304872 16.012212142871004 16.57859688271668 -1 0 1
446 1 1 0.5897 9.01314250452717 13.710010041126308 16.774446153535166 2 -1 -1