LAMMPS data file via write_data, version 30 Jul 2021, timestep = 10750000

1296 atoms
2 atom types
864 bonds
1 bond types
432 angles
1 angle types

-10.544374190098912 12.524374190098913 xlo xhi
-9.002028134484972 11.992026134484972 ylo yhi
0.2471392647962567 21.612859735207877 zlo zhi
-9.1123397566402 1.7937700330106816 2.6900865581146802 xy xz yz

Masses

1 1.008
2 15.999

Pair Coeffs # lj/cut/tip4p/long/omp

1 0 0
2 0.21084 3.1668

Bond Coeffs # harmonic/omp

1 450 0.9572

Angle Coeffs # harmonic/omp

1 55 104.52

Atoms # full

282 94 1 0.5897 -10.41309893550841 -4.065136161955636 1.5567010242932413 1 1 0
280 94 2 -1.1794 -9.541210559104368 -4.459885463408158 1.5748915311782625 1 1 0
299 100 1 0.5897 -6.588991663914491 -7.735703391461244 4.13488850748964 1 1 0
163 55 2 -1.1794 -7.092040979671314 -7.703290028747268 1.0181147404344064 1 1 0
164 55 1 0.5897 -6.299821344783259 -8.105882402191337 1.3739213631134213 1 1 0
270 90 1 0.5897 -8.38944376418168 -7.201690671364574 2.17531135983568 1 1 0
269 90 1 0.5897 -9.222915607089526 -5.964350510374851 2.433001596910613 1 1 0
268 90 2 -1.1794 -9.05698903803326 -6.847491421343042 2.7628371445298026 1 1 0
324 108 1 0.5897 -7.072561779383978 -4.228678075997702 3.5815357179358656 1 1 0
73 25 2 -1.1794 -8.32654163825087 -3.7124389499649233 4.879256026708396 1 0 0
298 100 2 -1.1794 -5.929218104815451 -7.04272162236221 4.161362780437994 1 1 0
314 105 1 0.5897 -8.750227479438916 -6.6191148297564295 4.5786033307953184 1 1 0
323 108 1 0.5897 -6.248875673626767 -5.486479144596604 3.4038425289777083 1 1 0
259 87 2 -1.1794 -6.715989058283146 -5.091887168367579 0.36947954969661606 1 1 0
261 87 1 0.5897 -6.644479818762071 -4.831136638013519 1.2875958673153316 1 1 0
315 105 1 0.5897 -8.609290902842575 -5.387591474041 5.447591375276388 1 1 0
322 108 2 -1.1794 -6.378293458346245 -4.609178823752603 3.0434957853227553 1 1 0
199 67 2 -1.1794 0.5854111117275274 -7.831555776869815 1.043038059515026 1 1 0
300 100 1 0.5897 -5.093062826555585 -7.505015073694723 4.10238155039618 1 1 0
260 87 1 0.5897 -6.829824525979028 -6.041869201338488 0.39798261020268433 1 1 0
313 105 2 -1.1794 -8.720315971079573 -6.337259377196915 5.492774794280147 1 1 0
275 92 1 0.5897 -10.4571952383042 -7.76311900537479 3.4229177234641566 1 1 0
165 55 1 0.5897 -7.36048318919671 -8.28765621041263 0.30921982767428785 1 1 0
242 81 1 0.5897 -1.1434897679615954 -6.616748834674567 4.460928227162647 0 1 0
281 94 1 0.5897 -8.94032969978097 -3.7147934828895046 1.5727572692415686 1 1 0
311 104 1 0.5897 -2.8024850792245175 -7.8247529915977525 3.399571329503154 1 1 0
316 106 2 -1.1794 -1.8955999093003886 -4.4383528972328055 1.591290821883309 1 1 0
75 25 1 0.5897 -9.127790683481214 -3.3386070921438984 4.512463783140795 1 0 0
243 81 1 0.5897 -0.9670434291272638 -5.357854667796104 5.2829498318388675 0 1 0
241 81 2 -1.1794 -1.076432837341823 -6.305372415939933 5.363476161565098 0 1 0
306 102 1 0.5897 -0.6884077156295749 -7.260880762764465 2.2042811343283644 1 1 0
305 102 1 0.5897 -1.5837062039947138 -6.049772926335281 2.3584586008627944 1 1 0
293 98 1 0.5897 -5.000565563275214 -3.649526281044201 2.3609362328152494 1 1 0
304 102 2 -1.1794 -1.4053722886291506 -6.912018994952273 2.7339383928867935 1 1 0
318 106 1 0.5897 -2.7513693707159312 -4.021576257091044 1.6928118136494141 1 1 0
310 104 2 -1.1794 -3.5217400376915533 -8.276412163547757 3.841084918801691 1 1 0
317 106 1 0.5897 -1.2679958761814198 -3.7197775094859473 1.6686170802964746 1 1 0
74 25 1 0.5897 -8.077838423017164 -3.1077867711433598 5.578273119570431 1 0 0
633 211 1 0.5897 -5.802098380186989 -5.9266655784100095 5.587474281341291 1 1 0
201 67 1 0.5897 0.3475159695294536 -8.415145379123187 0.3226870030681148 1 1 0
3 1 1 0.5897 -1.46094490349752 -3.3057691993768925 4.368120142957558 0 0 0
420 140 1 0.5897 -9.162060940358694 -6.416618791181939 9.823571219643119 1 0 0
414 138 1 0.5897 -6.749078438397516 -4.820104247384478 7.576355158710058 1 0 0
413 138 1 0.5897 -7.573190006097025 -3.5652592450664606 7.772058975863631 1 0 0
412 138 2 -1.1794 -7.458965305028762 -4.455441345296789 8.104902504759114 1 0 0
350 117 1 0.5897 -7.26240383734198 -4.2075191461770185 9.907381616683965 0 0 0
429 143 1 0.5897 -6.42167679138389 -7.084401518711497 8.61838655191856 1 0 0
428 143 1 0.5897 -6.5924241210087695 -6.98315598693448 10.119077488799014 1 0 0
427 143 2 -1.1794 -5.956578135958614 -6.839342664971406 9.418194503127957 1 0 0
627 209 1 0.5897 -10.240139034252511 -6.697490163034052 6.380493678892728 1 1 0
618 206 1 0.5897 -7.785937768106445 -7.32319471417647 6.600723900281434 1 1 0
419 140 1 0.5897 -8.882558580685146 -5.406934205978807 8.730781104875179 1 0 0
418 140 2 -1.1794 -9.597533153898487 -5.8185196665417065 9.216233883311208 1 0 0
616 206 2 -1.1794 -7.3753910276445716 -7.866776227154165 7.2731500350989755 1 1 0
349 117 2 -1.1794 -7.195693540085361 -3.842110303508271 10.78946716009395 0 0 0
351 117 1 0.5897 -6.984772203519719 -2.9187025906834485 10.651391618528136 0 0 0
626 209 1 0.5897 -10.53554325676522 -6.488095497004521 7.850324463646668 1 1 0
631 211 2 -1.1794 -5.518651875415208 -5.394320107699633 6.330664490171988 1 1 0
404 135 1 0.5897 -5.252660233842614 -3.6860300843513327 5.771321775451215 1 0 0
335 112 1 0.5897 -4.961141405304267 -5.395744104280243 9.48111127483923 0 0 0
336 112 1 0.5897 -3.486559679448976 -5.058509854425905 9.418371624287522 0 0 0
334 112 2 -1.1794 -4.353757095875484 -4.6560754754251965 9.466993024943015 0 0 0
346 116 2 -1.1794 -1.8638737317673577 -5.845693488635073 9.181440148070054 0 0 0
632 211 1 0.5897 -4.71735234325258 -5.818426459518664 6.637836726133359 1 1 0
356 119 1 0.5897 1.0301024358955235 -7.045639982625486 10.08184760585857 0 0 0
359 120 1 0.5897 -4.692182268441385 -3.019786764181628 8.720046535901966 0 0 0
555 185 1 0.5897 -2.65526357575388 -6.792704073922336 6.27309991348567 0 1 0
554 185 1 0.5897 -2.855756849070773 -6.60181235060776 7.761332521197663 0 1 0
544 182 2 -1.1794 0.38780987928078225 -7.795494816099341 7.20548477984545 0 1 0
553 185 2 -1.1794 -3.312138144997456 -6.872429622481741 6.964749671284266 0 1 0
546 182 1 0.5897 0.0005412076577311353 -7.250575203623887 6.520450898385505 0 1 0
348 116 1 0.5897 -1.4634132823764787 -6.37388902821697 9.871964693362958 0 0 0
347 116 1 0.5897 -1.1259403539593986 -5.4131722494841075 8.751741352364618 0 0 0
357 119 1 0.5897 1.2642460223721574 -7.1494041693901025 8.589900626097895 0 0 0
669 223 1 0.5897 -4.1316304254754295 -3.602291827650175 10.868563347513913 0 0 0
652 218 2 -1.1794 -5.7808239764170635 -5.413401913299422 12.583384860665024 0 0 0
788 263 1 0.5897 -4.931332738691064 -4.637113159134286 15.477300534711487 0 0 0
780 260 1 0.5897 -7.338422055933686 -3.983107689237664 15.280259861679514 0 0 0
779 260 1 0.5897 -7.104041353847772 -2.9818326190526676 14.169278401646455 0 0 0
778 260 2 -1.1794 -7.797884431032803 -3.4597892587801233 14.623581011649943 0 0 0
768 256 1 0.5897 -9.438393955975608 -2.719558745511276 14.863727294763128 0 0 0
654 218 1 0.5897 -6.2042205823845045 -4.797283025472136 11.985595102016568 0 0 0
653 218 1 0.5897 -6.505166514401871 -5.837172208917307 13.043824753544103 0 0 0
766 256 2 -1.1794 -10.282111350824948 -2.2684217219249065 14.89478983262506 0 0 0
740 247 1 0.5897 -10.74689867992063 -3.291734402593952 12.090324473925596 1 0 0
729 243 1 0.5897 -8.058672658581031 -7.00831870316242 11.94676618582592 1 0 0
684 228 1 0.5897 -8.490655329810492 -6.437007631091938 14.319731212626147 0 0 0
682 228 2 -1.1794 -7.808597338241874 -6.795595361653929 13.751857521449036 0 0 0
663 221 1 0.5897 -8.576572485919012 -4.212584767433661 11.830047917242371 0 0 0
662 221 1 0.5897 -8.81184332364971 -4.199508687797355 13.325366197497193 0 0 0
661 221 2 -1.1794 -9.262560724288013 -4.317554866424967 12.489314726706526 0 0 0
727 243 2 -1.1794 -8.114804264993934 -7.331378575598089 11.047584231430173 1 0 0
789 263 1 0.5897 -4.749476295766717 -4.78140062279493 13.981443785359302 0 0 0
758 253 1 0.5897 -9.476812838368026 -5.2916465241699795 16.109851164991515 0 0 0
678 226 1 0.5897 -4.165867988557535 -6.1535398455199015 12.26865517346353 0 0 0
767 256 1 0.5897 -10.931152552943974 -2.9717176120392796 14.876188747421327 0 0 0
698 233 1 0.5897 -1.1983759956269413 -4.073731161762034 13.19070280371657 0 0 0
657 219 1 0.5897 -0.26202051503445567 -7.058130491222478 11.953736091315069 0 0 0
667 223 2 -1.1794 -3.92533557917454 -3.0149305246826934 11.595561286577409 0 0 0
774 258 1 0.5897 -5.148138282870383 -2.463505498891763 12.857724065481234 0 0 0
668 223 1 0.5897 -3.12129233666489 -3.372595416272638 11.972214997139469 0 0 0
676 226 2 -1.1794 -3.305844827788899 -6.555598308427055 12.145950051265435 0 0 0
787 263 2 -1.1794 -4.284038457860682 -4.532695612741689 14.77992656354843 0 0 0
699 233 1 0.5897 -1.0474150987597834 -4.188667756542354 11.688880320598765 0 0 0
697 233 2 -1.1794 -1.6847693742445546 -4.291265126349735 12.39561319320434 0 0 0
677 226 1 0.5897 -2.6877338708318224 -5.829063184572584 12.225294729001272 0 0 0
816 272 1 0.5897 0.3218049813714803 -3.988559691139063 15.185677039926366 0 0 0
814 272 2 -1.1794 -0.15886112132764652 -3.42459471837552 14.5797756187202 0 0 0
804 268 1 0.5897 -1.765596748361883 -2.63195600564908 14.848317250568332 0 0 0
803 268 1 0.5897 -3.228227515208834 -3.0154162321990015 14.923950217431765 0 0 0
802 268 2 -1.1794 -2.6439009822264934 -2.257313090654442 14.91595439093578 0 0 0
795 265 1 0.5897 -2.826629512134982 -5.530894909063682 15.080590226553232 0 0 0
793 265 2 -1.1794 -2.0164682856202365 -5.899384185856595 15.432925520543469 0 0 0
720 240 1 0.5897 -0.702355137710347 -6.322934093378985 14.250920102258956 0 0 0
718 240 2 -1.1794 0.011402059528586861 -6.697299675112314 13.734504890399306 0 0 0
739 247 2 -1.1794 -11.541425368219793 -2.910631288085325 11.716460761934185 1 0 0
655 219 2 -1.1794 -0.41419379377415133 -7.333712808449867 11.049890720505154 0 0 0
689 230 1 0.5897 1.3487251921656043 -5.828734336033845 13.012853193586201 0 0 0
794 265 1 0.5897 -1.7698460928738786 -5.303825553273681 16.140432264834125 0 0 0
1089 363 1 0.5897 -6.366333957329825 -4.572260722565616 17.370880144553787 0 0 0
1152 384 1 0.5897 -6.968673270347579 -4.020923897642943 19.626738117244326 0 0 0
1225 409 2 -1.1794 -8.214287215544463 -3.4219529229058363 20.827513882942913 0 0 0
1227 409 1 0.5897 -9.03217459040592 -3.0607304761718126 20.485650782648456 0 0 0
1109 370 1 0.5897 -8.641297111929042 -3.447391986084604 17.59360789928674 0 0 0
1219 407 2 -1.1794 -10.483345540420363 -2.03933904434892 20.11378065043575 0 0 0
1108 370 2 -1.1794 -9.274858239210962 -4.162824165194038 17.539072924739163 0 0 0
1129 377 2 -1.1794 -7.708404091162986 -1.8870747206400358 17.718398537741578 0 0 0
1151 384 1 0.5897 -6.100996945035514 -5.25036538324121 19.460247302870755 0 0 0
1150 384 2 -1.1794 -6.221117755889413 -4.358723858623524 19.133438974477553 0 0 0
1248 416 1 0.5897 -5.877793221448444 -1.46346066649199 20.520767531744625 0 0 0
1097 366 1 0.5897 -9.092456441137914 -5.749197685545784 18.410236503191314 0 0 0
1130 377 1 0.5897 -7.305927864341637 -1.661740872343115 18.557023030395733 0 0 0
1143 381 1 0.5897 -8.426816282674729 -5.150662301063257 21.334174404632833 0 0 0
1141 381 2 -1.1794 -8.565070122629761 -6.096123270188434 21.390986532012068 0 0 0
1226 409 1 0.5897 -7.9454320290067475 -2.8049054046513575 21.507993442246583 0 0 0
1131 377 1 0.5897 -7.008827949884836 -1.7661307293474593 17.076366827157322 0 0 0
1088 363 1 0.5897 -6.554188323595998 -5.854339063768684 16.588148220098937 0 0 0
1087 363 2 -1.1794 -6.391337550478317 -4.917480937438238 16.47855166148618 0 0 0
1110 370 1 0.5897 -10.124156946404426 -3.7420793806290185 17.67328755129418 0 0 0
1121 374 1 0.5897 -4.78036826570397 -3.460456590350053 18.45523286626773 0 0 0
1178 393 1 0.5897 -0.8813582177748156 -6.393679797029931 20.513069994012856 0 0 0
1125 375 1 0.5897 1.304701788376697 -4.591703944071071 17.35962347592592 0 0 0
1262 421 1 0.5897 -0.2358943306160377 -2.8132058504246054 21.525666733293395 0 0 0
1123 375 2 -1.1794 1.2647645774214986 -4.93058582195427 16.46541237637 0 0 0
1261 421 2 -1.1794 -0.45622086134320483 -3.453346730033134 20.849083868054517 0 0 0
1263 421 1 0.5897 -1.2178798188015652 -3.080566536874347 20.405040063346547 0 0 0
1096 366 2 -1.1794 -8.941399300590179 -6.643361445710889 18.71669076964507 0 0 0
1145 382 1 0.5897 -1.0290263431733244 -3.4785854527466817 17.58732192018546 0 0 0
1179 393 1 0.5897 -0.6347536011168611 -5.18501528089649 21.39053743254141 0 0 0
1187 396 1 0.5897 1.7835622786556051 -5.153787308835401 19.438232840822693 0 0 0
1124 375 1 0.5897 1.0811742807997273 -5.864117710490717 16.570528016607575 0 0 0
1146 382 1 0.5897 -2.5086016942336027 -3.783281900934977 17.68777880979171 0 0 0
1133 378 1 0.5897 -1.332550590179597 -5.75556117749459 18.39003014360163 0 0 0
1144 382 2 -1.1794 -1.6511819893855044 -4.204831187316234 17.62880323531747 0 0 0
1120 374 2 -1.1794 -4.104346528795007 -2.97697112666092 17.980379310419945 0 0 0
1122 374 1 0.5897 -4.589810244063276 -2.4276594283419204 17.364915587926763 0 0 0
1257 419 1 0.5897 -3.201154512027615 -2.19958263634559 19.314448435702534 0 0 0
1165 389 2 -1.1794 -0.029786528124605027 -1.9264348841321688 17.64525963152236 0 0 0
1188 396 1 0.5897 0.8957814830130353 -3.948263114573054 19.663320915460602 0 0 0
1255 419 2 -1.1794 -2.709887260154076 -1.9923654526696133 20.109298748743043 0 0 0
1256 419 1 0.5897 -3.3481825816335515 -2.0843709359060965 20.816639966712177 0 0 0
1142 381 1 0.5897 -8.59966531065157 -6.3887202648906065 20.48036235574307 0 0 0
1177 393 2 -1.1794 -0.8254825084303015 -6.122225123192196 21.42916694945259 0 0 0
1132 378 2 -1.1794 -1.2377909777179479 -6.630952988773576 18.765474465928815 0 0 0
67 23 2 -1.1794 -10.568719922179973 -2.3114554187861414 4.008153923840489 1 0 0
302 101 1 0.5897 -7.465700174975782 -1.9216335442691763 2.479864665688867 1 1 0
97 33 2 -1.1794 -11.721449034626463 0.670230344965411 5.385123040357992 1 0 0
83 28 1 0.5897 -9.601009120615805 -0.7824108537975256 4.191584902914181 1 0 0
68 23 1 0.5897 -11.238290428793277 -2.4603792561300786 4.675781786649609 1 0 0
99 33 1 0.5897 -11.621559831269892 1.6219892320678646 5.36476687172139 1 0 0
271 91 2 -1.1794 -10.162547881865066 -0.8279961176809376 0.9816028885012081 1 1 0
272 91 1 0.5897 -9.34738694601679 -1.2015220095342443 1.3166916921703862 1 1 0
69 23 1 0.5897 -11.00740605917325 -2.507827126941433 3.180475965323147 1 0 0
44 15 1 0.5897 -9.940054175673234 0.8888169814819094 0.3946287114364059 1 0 0
258 86 1 0.5897 -12.4334262446964 -2.643916188376494 1.2406537821156252 1 1 0
53 18 1 0.5897 -12.199237033238564 1.0103578024168112 2.382386478251947 1 0 0
59 20 1 0.5897 -13.445029079327462 -0.8233056845837812 3.4809539108845025 1 0 0
54 18 1 0.5897 -11.426305062572144 -0.2800943627253325 2.210942941040611 1 0 0
52 18 2 -1.1794 -12.114812552187379 0.12561590441377923 2.7378521936778144 1 0 0
256 86 2 -1.1794 -11.972949357567902 -3.2175242191265445 1.8531483488921088 1 1 0
82 28 2 -1.1794 -8.966354228083226 -0.06767508683550716 4.242401931303648 1 0 0
107 36 1 0.5897 -9.293644954780575 1.5246242345043939 3.4384274865749367 1 0 0
301 101 2 -1.1794 -7.85487942891033 -2.1964279260047004 1.6497567332656462 1 1 0
98 33 1 0.5897 -11.767405270758182 0.4140335026786133 4.464094994146097 1 0 0
84 28 1 0.5897 -8.1135432797596 -0.5006884154209494 4.202902767765176 1 0 0
95 32 1 0.5897 -5.888255888247981 -0.7805223391146701 3.471763608314629 1 0 0
26 9 1 0.5897 -4.1624959318874355 0.3370212153572165 4.405691594529758 0 0 0
96 32 1 0.5897 -6.060546217558828 -1.838184809596486 4.541085480152684 1 0 0
88 30 2 -1.1794 -4.515363332253051 0.09751206078357022 2.6941371546015107 1 0 0
104 35 1 0.5897 -3.546429602617599 -2.4105624268764343 4.794351288030108 1 0 0
90 30 1 0.5897 -3.832254093037938 -0.28438580481382303 2.142967044077797 1 0 0
94 32 2 -1.1794 -6.554812245323671 -1.294324882652563 3.927788314208269 1 0 0
27 9 1 0.5897 -3.9305128131389164 1.5631659368656106 5.262656339856767 0 0 0
25 9 2 -1.1794 -4.088415834893938 0.6206329845588989 5.316799374467337 0 0 0
303 101 1 0.5897 -7.157958161273113 -2.0725426039198966 1.0054029841003234 1 1 0
292 98 2 -1.1794 -4.2542184620591055 -3.2005854302892622 1.9638446173047943 1 1 0
294 98 1 0.5897 -4.638156896209629 -2.664250747141338 1.27021706351295 1 1 0
103 35 2 -1.1794 -2.8837106086801123 -2.2452746338369822 4.1237450278141505 1 0 0
105 35 1 0.5897 -3.3169186306243477 -2.4650672866605277 3.299075224289299 1 0 0
89 30 1 0.5897 -4.612022635161253 0.9931964128508053 2.370621889686496 1 0 0
307 103 2 -1.1794 -2.5087944967712925 -0.8146582236928204 0.9674415863049001 1 1 0
273 91 1 0.5897 -10.412728731523021 -1.4058467832799302 0.2607897090677467 1 1 0
402 134 1 0.5897 -10.724775691701693 -0.20395240194691944 6.6154833009416825 1 0 0
527 176 1 0.5897 -11.814608758836311 1.6252705191845251 8.804222462387331 1 0 0
522 174 1 0.5897 -9.732687771781965 2.167470353491268 7.658211338996222 1 0 0
426 142 1 0.5897 -8.713967588923447 -1.5709576194431971 6.940700459497276 1 0 0
526 176 2 -1.1794 -12.532570424685629 1.1843359218523588 9.258491546031552 1 0 0
401 134 1 0.5897 -11.001601969727519 -1.2546256515064211 7.669637453968955 1 0 0
537 179 1 0.5897 -9.317062436547621 -0.1618379293858645 8.643326033606641 1 0 0
536 179 1 0.5897 -9.608530056503472 0.06265045833478489 10.111713307192508 1 0 0
535 179 2 -1.1794 -8.904430756278247 0.10502400839227377 9.46464926498369 1 0 0
528 176 1 0.5897 -12.100603927532871 0.6269498280033492 9.905736148148769 1 0 0
424 142 2 -1.1794 -7.842275035011573 -1.9665214404326248 6.946099536663597 1 0 0
435 145 1 0.5897 -7.466690375254524 -0.8838980704333999 9.888044118761094 0 0 0
400 134 2 -1.1794 -10.288951016023749 -0.7719966010867569 7.25077028459009 1 0 0
411 137 1 0.5897 -13.221540773510668 0.28982542142031953 6.4332228820563175 1 0 0
425 142 1 0.5897 -7.240815827338197 -1.222166097856908 6.925874908069218 1 0 0
433 145 2 -1.1794 -6.639313042057669 -1.2473073109087327 10.203759713268887 0 0 0
415 139 2 -1.1794 -8.47433871942421 1.6423815335247518 6.3889404052476575 1 0 0
454 152 2 -1.1794 -4.856011869942541 1.1552279369692968 9.254403823571003 0 0 0
338 113 1 0.5897 -5.7996069201912075 0.5238898273943988 7.84768998321437 0 0 0
444 148 1 0.5897 -6.437044455970219 1.9322109008956794 9.507030155888755 0 0 0
329 110 1 0.5897 -3.4580126934820097 -1.1899326220343545 7.749975745994115 0 0 0
330 110 1 0.5897 -3.1781852512256012 -0.27542580651499016 6.57647158847065 0 0 0
405 135 1 0.5897 -5.020332599545128 -2.468287235021509 6.6400978417722465 1 0 0
358 120 2 -1.1794 -4.795763704392426 -2.122313811078664 8.40370831627532 0 0 0
443 148 1 0.5897 -7.920691381109154 1.6310650132131634 9.518674189714822 0 0 0
360 120 1 0.5897 -5.456129348935314 -1.7390212738077988 8.980999562561726 0 0 0
416 139 1 0.5897 -7.651772500923139 1.2669509522211282 6.703164471657074 1 0 0
339 113 1 0.5897 -5.573545019731287 0.4080971232378694 6.3553830146162005 0 0 0
337 113 2 -1.1794 -6.236500763649481 0.2758330274404095 7.033043737161796 0 0 0
456 152 1 0.5897 -4.396656947699182 0.5836772664224785 9.86965812046938 0 0 0
464 155 1 0.5897 -1.9421390089832649 -0.035994526953599504 10.105254809507878 0 0 0
455 152 1 0.5897 -4.164862269909849 1.6855028934383878 8.857701301489143 0 0 0
328 110 2 -1.1794 -2.743231415640148 -0.772664084466701 7.269111644553534 0 0 0
442 148 2 -1.1794 -7.295393796710744 2.35578066992918 9.520125356506314 0 0 0
403 135 2 -1.1794 -5.080931207930091 -2.7454499484905988 5.7260123056700705 1 0 0
410 137 1 0.5897 -13.461971747776127 0.4922273048179928 7.914006926307137 1 0 0
465 155 1 0.5897 -1.7086011458884531 -0.1451956841467439 8.613601889344979 0 0 0
417 139 1 0.5897 -8.773335142402301 1.0336748207627515 5.7135468658162365 1 0 0
434 145 1 0.5897 -6.365512572222537 -0.6507051645260127 10.900309066042261 0 0 0
430 144 2 -1.1794 -12.322737780515832 -2.2177721496818883 8.425161888149455 1 0 0
866 289 1 0.5897 -12.584957489091067 1.7313456372590164 16.23689631409588 0 0 0
791 264 1 0.5897 -10.652491180460398 -0.7560846950612632 14.064995427344286 0 0 0
770 257 1 0.5897 -11.840478596871556 2.9745332215423037 13.271439460817044 0 0 0
836 279 1 0.5897 -11.22170754367142 -1.2460451315945038 11.061957517491042 1 0 0
790 264 2 -1.1794 -10.745904797406293 0.1473514094247399 13.762780473181584 0 0 0
785 262 1 0.5897 -5.618712759301724 1.1060410461758146 12.429042407651327 0 0 0
769 257 2 -1.1794 -12.224213793872641 2.699806686453064 12.43878065101221 0 0 0
761 254 1 0.5897 -9.373252146251259 1.0493824799481217 13.135338692535452 0 0 0
888 296 1 0.5897 -10.449837108828152 3.0569204285915124 15.279718693229098 0 0 0
762 254 1 0.5897 -9.113600444311666 2.092717757086046 12.069592310815365 0 0 0
760 254 2 -1.1794 -8.666927080517873 1.5218693320642256 12.694754239327878 0 0 0
792 264 1 0.5897 -11.434621232162673 0.5156169007330984 14.316243228185272 0 0 0
837 279 1 0.5897 -11.100705048782796 -0.028377363632822394 11.953189588564808 1 0 0
896 299 1 0.5897 -7.930481217196523 2.364606501205847 15.5790369978902 0 0 0
763 255 2 -1.1794 -3.408991990049694 -0.36048493593269626 11.036345034378153 0 0 0
835 279 2 -1.1794 -11.068081671837522 -0.30159595830813224 11.036488295059044 1 0 0
797 266 1 0.5897 -1.7858650572642976 1.0303962077986117 13.102051343472521 0 0 0
897 299 1 0.5897 -7.722572299017914 2.3196809624072348 14.080290137364262 0 0 0
771 257 1 0.5897 -11.530875468323922 2.846034835087737 11.795243671942407 0 0 0
817 273 2 -1.1794 -5.441882878528489 -1.4749480874333862 16.101941225568034 0 0 0
764 255 1 0.5897 -3.5763315608031814 -1.3000502196761126 11.110171320413196 0 0 0
805 269 2 -1.1794 -4.725866973053164 2.6987338155674863 12.478286931963556 0 0 0
819 273 1 0.5897 -5.247177275388521 -0.5402772210131506 16.03327930000594 0 0 0
901 301 2 -1.1794 -4.951558821831154 1.150191639135258 15.541833993445609 0 0 0
895 299 2 -1.1794 -7.254407263448382 2.442811868221453 14.905959093030631 0 0 0
786 262 1 0.5897 -7.093370219955636 0.7685591268910787 12.488622621300845 0 0 0
807 269 1 0.5897 -4.04067099511063 2.818582130023284 11.8207326442747 0 0 0
765 255 1 0.5897 -3.3985381123239913 -0.04683825319716206 11.940536643669084 0 0 0
924 308 1 0.5897 -2.7621996762280094 3.0262841824726703 15.265713730574786 0 0 0
806 269 1 0.5897 -4.299397097867115 2.90610158315104 13.309659101871972 0 0 0
773 258 1 0.5897 -5.90340564439053 -1.1778692032688722 13.119980592165971 0 0 0
826 276 2 -1.1794 -3.1816124393658187 0.10389521470204421 13.724143420632942 0 0 0
903 301 1 0.5897 -5.754036061259163 1.5441653061865885 15.199624605606498 0 0 0
827 276 1 0.5897 -2.997679822860081 -0.7477430080879142 14.120546201614053 0 0 0
828 276 1 0.5897 -3.7889793626953256 0.5255136011617463 14.33208120256598 0 0 0
784 262 2 -1.1794 -6.2301556219575485 0.37189556447232164 12.370861510278862 0 0 0
818 273 1 0.5897 -5.523636397913442 -1.7702652520335862 15.195218206912978 0 0 0
865 289 2 -1.1794 -12.712658734180856 1.1569203006852042 15.482042707477522 0 0 0
902 301 1 0.5897 -4.672664367994132 1.742126898473325 16.240339857444873 0 0 0
772 258 2 -1.1794 -5.754757113826334 -2.0543538038878255 13.474854148884987 0 0 0
1195 399 2 -1.1794 -9.513370650304747 2.09077953705553 16.47640440308957 0 0 0
1249 417 2 -1.1794 -11.616809993948891 1.0177466415404908 21.439637520089924 0 0 0
1217 406 1 0.5897 -11.889322060342247 3.591372440630087 17.651813802668467 0 0 0
1229 410 1 0.5897 -7.879118490224672 3.5700403170766304 18.412790304906935 0 0 0
1046 349 1 0.5897 -3.2907561366469054 4.115265581763339 21.59209570173337 0 -1 0
1196 399 1 0.5897 -9.717755408820427 1.1573519809861619 16.532720724774336 0 0 0
1246 416 2 -1.1794 -6.344094292832906 -0.952360738335658 19.859302870211735 0 0 0
1250 417 1 0.5897 -11.650308783026757 0.7225250712856734 20.529819524392472 0 0 0
1009 337 2 -1.1794 -11.211320826052923 3.6500336050235305 20.85333022284049 0 -1 0
1260 420 1 0.5897 -10.011273196042323 2.977176702311736 19.680414691383117 0 0 0
1259 420 1 0.5897 -9.092426253473146 1.7949705729072303 19.456328114988825 0 0 0
1258 420 2 -1.1794 -9.292643271996496 2.6711859439706043 19.12705184265409 0 0 0
1100 367 1 0.5897 -9.217866866438122 -0.9051462549689013 17.371639543380866 0 0 0
1236 412 1 0.5897 -7.946683885479604 -0.2556731386118969 20.090978710790505 0 0 0
1235 412 1 0.5897 -9.429845418092809 -0.5328705281126123 20.21535919506907 0 0 0
1234 412 2 -1.1794 -8.794731467646258 0.1816844160412856 20.1676724712276 0 0 0
1205 402 1 0.5897 -12.109293841201048 1.2625749376028743 18.412029543674436 0 0 0
1197 399 1 0.5897 -9.566170362615257 2.4029021197165203 17.379649167374968 0 0 0
1216 406 2 -1.1794 -12.493424570694488 2.849766638128589 17.61573073155013 0 0 0
1206 402 1 0.5897 -11.298833251837507 -0.007213339662394347 18.260746332771006 0 0 0
1099 367 2 -1.1794 -10.02615729108461 -0.5380839990641384 17.013564417062362 0 0 0
1251 417 1 0.5897 -11.466214813888307 1.9611704827223093 21.380418753244065 0 0 0
1218 406 1 0.5897 -13.360435357658906 3.2409921019091676 17.723363760235745 0 0 0
1011 337 1 0.5897 -12.014979434526246 4.0383860345807765 20.507484443559004 0 -1 0
1285 429 2 -1.1794 -3.919123892661899 0.9505281638748482 21.424606958440325 0 0 0
1047 349 1 0.5897 -4.311702611617987 3.934118751493351 20.489158401213807 0 -1 0
1045 349 2 -1.1794 -3.490195921825534 3.5767691667171206 20.826385410973142 0 -1 0
1231 411 2 -1.1794 -1.8599202216367967 2.0787962483695583 16.49267406662577 0 0 0
1242 414 1 0.5897 -3.6182256513613034 0.08628723733813182 18.204153618527098 0 0 0
1296 432 1 0.5897 -2.1688944805647967 2.9902288144007088 19.715676480400784 0 0 0
1287 429 1 0.5897 -3.7860620547508193 1.8973545930473783 21.379322737502832 0 0 0
1232 411 1 0.5897 -1.9742658161102096 1.1356871859688926 16.60977707956206 0 0 0
1240 414 2 -1.1794 -4.289319652438973 0.48794906807565397 18.75603192517822 0 0 0
1135 379 2 -1.1794 -2.279011991113398 -0.5597872436272855 17.062584301035976 0 0 0
1136 379 1 0.5897 -1.4656731386044903 -0.9329302666149477 17.402493024206073 0 0 0
1252 418 2 -1.1794 -4.637504261690641 2.9516059348808064 17.60414123798629 0 0 0
1241 414 1 0.5897 -4.364762017170257 1.3841632655657374 18.42837071574228 0 0 0
1247 416 1 0.5897 -5.662903915676679 -0.43058684637964184 19.435058016455027 0 0 0
1271 424 1 0.5897 -1.664229581600548 -0.48435104628265613 20.10541863644064 0 0 0
1295 432 1 0.5897 -1.2987660322415877 1.7840027650417571 19.43285290644595 0 0 0
1286 429 1 0.5897 -3.99670966276817 0.675168185822475 20.511261854870636 0 0 0
1254 418 1 0.5897 -5.512263137536726 3.3366512957120786 17.55048551610613 0 0 0
1233 411 1 0.5897 -1.788967536036644 2.4242293962425148 17.382443295467844 0 0 0
1270 424 2 -1.1794 -1.0240869572400495 0.2271246549354906 20.121004223593783 0 0 0
1272 424 1 0.5897 -0.17873214855945463 -0.2081291745901499 20.010209548607904 0 0 0
1204 402 2 -1.1794 -11.999338755763203 0.3862452885243446 18.7810934531541 0 0 0
1137 379 1 0.5897 -2.549946384733209 -1.1642623319691552 16.37172556160016 0 0 0
309 103 1 0.5897 -0.9124038041852636 1.2961161811132342 21.597288804281842 1 1 -1
1101 367 1 0.5897 -10.247676643140167 -1.114031120329222 16.281931895919183 0 0 0
40 14 2 -1.1794 -15.095391860096997 3.7926927222368416 1.8971228970288647 1 0 0
177 59 1 0.5897 -14.120844651686745 4.5218774533284325 3.25447211302978 1 0 0
42 14 1 0.5897 -15.524385845307755 4.380750188217975 1.275542481242847 1 0 0
85 29 2 -1.1794 -10.873071153355118 4.831266419665356 1.652828039523805 1 0 0
55 19 2 -1.1794 -13.135751110022678 6.207120514350683 0.9667440488292843 1 0 0
56 19 1 0.5897 -12.32867682244486 5.811880585497416 1.2964576580050207 1 0 0
66 22 1 0.5897 -13.485923696239917 3.0180771857334534 1.7212306110201547 1 0 0
65 22 1 0.5897 -12.004349562678408 3.3159480048629213 1.6302184171162688 1 0 0
64 22 2 -1.1794 -12.63126712010581 2.592882703758738 1.649658701838705 1 0 0
191 64 1 0.5897 -12.588526359505096 6.156150095838452 4.108269154299014 1 0 0
190 64 2 -1.1794 -11.986152607938598 6.898437138722343 4.156989039534239 1 0 0
183 61 1 0.5897 -12.2012731234916 3.7575740385898175 4.570168314850304 1 0 0
181 61 2 -1.1794 -11.353863532722864 3.3719133444145495 4.792595254320498 1 0 0
176 59 1 0.5897 -14.375007208877431 4.626953572318875 4.743049520266464 1 0 0
175 59 2 -1.1794 -13.697201757729207 4.757169356727642 4.079832239579092 1 0 0
108 36 1 0.5897 -10.15020324271236 2.7665823074481732 3.5647489235483567 1 0 0
162 54 1 0.5897 -14.457396875093586 6.768160149780812 2.15238888958865 1 0 0
45 15 1 0.5897 -9.699577746666362 2.109789053962471 1.2566263200733103 1 0 0
167 56 1 0.5897 -16.54806985437589 6.147469685889179 3.4301694226127517 1 0 0
43 15 2 -1.1794 -9.774303306893824 1.8302151429003697 0.34432293554599197 1 0 0
192 64 1 0.5897 -11.115476902241339 6.505433973022692 4.095176824904584 1 0 0
106 36 2 -1.1794 -9.458417932935234 2.375155643346627 3.03136830894135 1 0 0
86 29 1 0.5897 -10.481084197535827 5.03451343108245 2.5019977798206563 1 0 0
203 68 1 0.5897 -8.811242198535801 6.306085198875525 3.4555117253970344 1 0 0
77 26 1 0.5897 -8.088139478177478 3.2274609870161353 2.30965276414595 1 0 0
78 26 1 0.5897 -7.816407957328024 4.265583786127955 1.2418289932173328 1 0 0
102 34 1 0.5897 -5.7159054838412215 2.955223982717486 1.6275272802075615 1 0 0
202 68 2 -1.1794 -9.513864716406696 5.8105397573937 3.8762404881590173 1 0 0
213 71 1 0.5897 -6.508156782295643 4.412080824068369 3.273771703166799 1 0 0
87 29 1 0.5897 -10.18306269596258 5.023561815529735 1.0178907016398155 1 0 0
198 66 1 0.5897 -6.6775408930495 6.745923434652289 2.190913544673553 1 0 0
212 71 1 0.5897 -6.7226508921813535 4.501800591677037 4.769576105382512 1 0 0
211 71 2 -1.1794 -6.05759012632106 4.621897796481344 4.091713165178035 1 0 0
204 68 1 0.5897 -9.075057970713631 5.307058859769258 4.56190898051476 1 0 0
111 37 1 0.5897 -4.548311390465823 3.642512706984343 4.475622478040384 0 0 0
100 34 2 -1.1794 -4.8456563673877024 2.55659680568961 1.6169704965006417 1 0 0