LAMMPS (30 Jul 2021)
Processor partition = 0
  using 2 OpenMP thread(s) per MPI task
using multi-threaded neighbor list subroutines
variable        pid world 0 1
variable        phase world IceII IceV

shell cd ${phase}
shell cd IceII
include Restart.lmp
echo both
log log.lammps
#include		in.partitions
include		in.temp
variable        temperature equal 28.49
variable	tempDamp equal 100.0
include		in.pressure
variable        pressure equal 9233.3
variable        pressureDamp equal 1000.0 # This is 1 ps
include		in.seed
variable        seed equal 745823

units		real
atom_style	full
box tilt large
read_restart	restart.lmp.${pid}
read_restart	restart.lmp.0
Reading restart file ...
  restart file = 30 Jul 2021, LAMMPS = 30 Jul 2021
  restoring atom style full from restart
  triclinic box = (-10.521211 -9.0655853 0.28410987) to (12.501211 12.055583 21.575889) with tilt (-9.1182187 1.7687469 2.7506213)
  4 by 2 by 4 MPI processor grid
  restoring pair style lj/cut/tip4p/long/omp from restart
  restoring bond style harmonic/omp from restart
  restoring angle style harmonic/omp from restart
  1296 atoms
  864 bonds
  432 angles
Finding 1-2 1-3 1-4 neighbors ...
  special bond factors lj:    0        0        0       
  special bond factors coul:  0        0        0       
     2 = max # of 1-2 neighbors
     1 = max # of 1-3 neighbors
     1 = max # of 1-4 neighbors
     2 = max # of special neighbors
  special bonds CPU = 0.002 seconds
  read_restart CPU = 0.009 seconds
include 	in.setup
variable	out_freq equal 1000
variable	out_freq2 equal 10000
variable	out_freq3 equal 1000

timestep	2.0

neigh_modify    delay 7 every 1

include		in.tip4p
# This is TIP4P/Ice

# create groups ###
group ox type 2
432 atoms in group ox
group hy type 1
864 atoms in group hy

# set charges - beside manually ###
set group ox charge -1.1794
Setting atom values ...
  432 settings made for charge
set group hy charge 0.5897
Setting atom values ...
  864 settings made for charge

# ### TIP3P Potential Parameters ###
pair_style lj/cut/tip4p/long/omp 2 1 1 1 0.1577 8.5
pair_coeff 1 1*2 0.000 0.000
pair_coeff 2 2 0.21084 3.1668
bond_style  harmonic
bond_coeff  1 450 0.9572
angle_style harmonic
angle_coeff 1 55 104.52
kspace_style pppm/tip4p/omp 1.0e-5
pair_modify tail yes

thermo          ${out_freq}
thermo          1000
thermo_style    custom step temp pe etotal epair emol press lx ly lz vol pxx pyy pzz pxy pxz pyz enthalpy

restart 	${out_freq3} restart.lmp.${pid} restart2.lmp.${pid}
restart 	1000 restart.lmp.${pid} restart2.lmp.${pid}
restart 	1000 restart.lmp.0 restart2.lmp.${pid}
restart 	1000 restart.lmp.0 restart2.lmp.0


include         in.dump
dump            myDump all atom ${out_freq2} dump.water.${pid}
dump            myDump all atom 10000 dump.water.${pid}
dump            myDump all atom 10000 dump.water.0
dump            myDump2 all dcd ${out_freq2} dump.dcd
dump            myDump2 all dcd 10000 dump.dcd
dump_modify     myDump append yes
dump_modify     myDump2 append yes


variable natoms 	equal  "count(all)"                        # NUMBER ATOMS
variable H      	equal  "enthalpy/v_natoms"                 # ENTHALPY-per-atom
variable Vol      	equal  "vol/v_natoms"                 # volume-per-atom
fix AVG all 		ave/time ${out_freq} 1 ${out_freq} v_Vol v_H file vol_enthalpy.dat
fix AVG all 		ave/time 1000 1 ${out_freq} v_Vol v_H file vol_enthalpy.dat
fix AVG all 		ave/time 1000 1 1000 v_Vol v_H file vol_enthalpy.dat


timer           timeout 10:00:00 every 1000
New timer settings: style=normal  mode=nosync  timeout=10:00:00

fix 		1 all shake 1e-6 200 0 b 1 a 1
Finding SHAKE clusters ...
       0 = # of size 2 clusters
       0 = # of size 3 clusters
       0 = # of size 4 clusters
     432 = # of frozen angles
  find clusters CPU = 0.000 seconds
fix             2 all nph tri ${pressure} ${pressure} ${pressureDamp}
fix             2 all nph tri 9233.3 ${pressure} ${pressureDamp}
fix             2 all nph tri 9233.3 9233.3 ${pressureDamp}
fix             2 all nph tri 9233.3 9233.3 1000
fix             3 all temp/csvr ${temperature} ${temperature} ${tempDamp} ${seed}
fix             3 all temp/csvr 28.49 ${temperature} ${tempDamp} ${seed}
fix             3 all temp/csvr 28.49 28.49 ${tempDamp} ${seed}
fix             3 all temp/csvr 28.49 28.49 100 ${seed}
fix             3 all temp/csvr 28.49 28.49 100 745823


run             250000
PPPM initialization ...
  extracting TIP4P info from pair style
  using 12-bit tables for long-range coulomb (../kspace.cpp:340)
  G vector (1/distance) = 0.371719
  grid = 30 36 32
  stencil order = 5
  estimated absolute RMS force accuracy = 0.0036600548
  estimated relative force accuracy = 1.1022146e-05
  using double precision FFTW3
  3d grid and FFT values/proc = 7344 1152
Last active /omp style is kspace_style pppm/tip4p/omp
Neighbor list info ...
  update every 1 steps, delay 7 steps, check yes
  max neighbors/atom: 2000, page size: 100000
  master list distance cutoff = 10.8154
  ghost atom cutoff = 10.8154
  binsize = 5.4077, bins = 7 5 4
  1 neighbor lists, perpetual/occasional/extra = 1 0 0
  (1) pair lj/cut/tip4p/long/omp, perpetual
      attributes: half, newton on, omp
      pair build: half/bin/newton/tri/omp
      stencil: half/bin/3d/tri
      bin: standard
Setting up Verlet run ...
  Unit style    : real
  Current step  : 8500000
  Time step     : 2
  Walltime left : 9:59:59.94
Per MPI rank memory allocation (min/avg/max) = 10.63 | 10.63 | 10.64 Mbytes
Step Temp PotEng TotEng E_pair E_mol Press Lx Ly Lz Volume Pxx Pyy Pzz Pxy Pxz Pyz Enthalpy 
 8500000    38.078039   -6910.4077   -6812.4543   -6910.4077            0    9081.1299    23.022422    21.121169    21.291779    10353.351    9080.5504     9074.208    9088.6314      184.888    288.58222   -104.30592   -5441.2673 
 8501000    28.850982    -6933.561   -6859.3436    -6933.561            0    9517.9899    22.967458     21.15626    21.248848    10324.932    10017.704    9128.5538    9407.7122    215.12388   -368.49855   -373.80897   -5426.1385 
 8502000    29.782336   -6935.5726   -6858.9593   -6935.5726            0    9650.8671    22.986849    21.111867    21.260161    10317.456    9191.6932    9577.3772    10183.531     103.4695    221.12673    209.52871    -5406.798 
 8503000    27.261489   -6930.2837   -6860.1551   -6930.2837            0    9468.0321    23.016976     21.11455    21.235033     10320.08    9066.1341    9549.2956    9788.6666   -19.602427    512.78085      45.3082   -5435.1427 
 8504000    27.168967   -6934.0035    -6864.113   -6934.0035            0    9292.4305    22.983617    21.130055    21.263731    10326.626    9295.6522    8952.5034    9629.1358   -241.82398  0.057862284    153.16603   -5464.6428 
 8505000    27.765832   -6934.0306   -6862.6047   -6934.0306            0    8928.5959    23.040951    21.065038    21.301703    10338.963    8387.9584    9513.4729    8884.3565    25.477657    121.69892    121.57932   -5516.3227 
 8506000    28.613254    -6930.717   -6857.1111    -6930.717            0     9201.482    22.959144    21.154243    21.267966    10329.496    9441.2837    8682.2628    9480.8995    -426.8173   -371.65636   -332.24823   -5470.9529 
 8507000    28.356492   -6932.7131   -6859.7677   -6932.7131            0    9594.2204    22.972775    21.103721    21.272001    10312.901    9787.6097    9319.6322    9675.4192    359.85258   -331.68485   -52.038047   -5416.7674 
 8508000    27.848766   -6927.8732    -6856.234   -6927.8732            0    9666.7397    23.014583    21.067978    21.257692    10307.232    9352.0341    10024.641    9623.5435    155.08007    136.16917    36.794596   -5403.1257 
 8509000    29.804335   -6931.1165   -6854.4466   -6931.1165            0    9311.0507    22.975744      21.1278     21.25544    10317.962    9422.1919    9233.0096    9277.9506    319.87229    -162.3532    184.99622   -5453.3486 
 8510000    28.627358   -6933.4259   -6859.7838   -6933.4259            0    8956.9704    23.028386    21.064346    21.297493    10330.943    8690.1937    9138.6557    9042.0619    -244.1813     352.2414    555.46632    -5510.271 
 8511000    29.395434   -6934.9338   -6859.3159   -6934.9338            0    9119.3284    22.992269    21.083488    21.299014    10324.851    8816.6525    9514.4322    9026.9005   -337.71055    541.12756    225.88423   -5486.1515 
 8512000    29.547555   -6930.3229   -6854.3136   -6930.3229            0    9294.9463    22.950714    21.133396    21.274285    10318.592    9306.4189    9138.1975    9440.2224    246.05262   -24.363842    276.94657   -5455.5535 
 8513000     29.21633   -6929.9289   -6854.7716   -6929.9289            0    9533.4829    23.058389    21.015254    21.282328    10312.946    8956.0834    9812.9015    9831.4639    103.47944    138.72206    450.76929   -5420.9002 
 8514000    28.108428     -6934.98   -6862.6728     -6934.98            0    9194.7673    22.919431     21.12605    21.318239    10322.228    9737.1175    8979.6231    8867.5614    442.67381    169.50569    387.09529   -5478.5007 
 8515000    28.271891   -6931.8223   -6859.0946   -6931.8223            0    9239.9502    22.979313    21.074872    21.323352    10326.602    9332.8953    9461.4245    8925.5306    179.54785   -23.137325    608.93013   -5467.5313 
 8516000     28.49721   -6933.3006   -6859.9933   -6933.3006            0     9400.768    23.030165    21.063815    21.278212    10322.128    9295.0089    9520.5514    9386.7436   -261.41627     89.44809   -3.7469501   -5444.8238 
 8517000      28.4438   -6931.9775   -6858.8075   -6931.9775            0    9492.1005    22.888237    21.202574    21.259865     10317.19    9556.6614    8999.6944    9919.9459    27.785315    201.69846     510.1507   -5430.5726 
 8518000    28.972506   -6939.7845   -6865.2545   -6939.7845            0    9238.6249    23.025374    21.009449     21.36337    10334.539    9398.2457    9475.7282    8841.9008   -790.07608   -116.10856    203.87302   -5472.8214 
 8519000    28.293131    -6935.421   -6862.6386    -6935.421            0    9006.8717    22.980855    21.120726    21.301778    10339.294    8822.6733     8904.481     9293.461    55.714388    231.14838    191.25844   -5504.5104 
 8520000    28.163374    -6934.542   -6862.0935    -6934.542            0    9214.7044    22.941748    21.176898    21.267219    10332.361    9185.0912    9143.0616    9315.9603    239.09386    -270.0991    43.378153   -5473.5584 
 8521000    27.249388   -6933.8316   -6863.7342   -6933.8316            0     9323.143     23.02653    21.069177    21.296528    10332.012    9261.2323    9190.6744    9517.5223    6.2373314    217.90294   -162.86189   -5458.9063 
 8522000     28.66592   -6930.9868   -6857.2455   -6930.9868            0    9696.4794     22.88739    21.192907    21.274656    10319.279     9852.313    9893.0935    9344.0316    102.64192    303.47153   -209.03386   -5397.9631 
 8523000     28.59948    -6936.147   -6862.5766    -6936.147            0    9122.8824    23.050894    21.093434     21.25772    10335.982    9095.1953    9053.8294    9219.6224   -208.63766   -192.61599   -109.04761   -5487.3961 
 8524000    30.875547   -6931.8638   -6852.4383   -6931.8638            0    9162.0723    23.018869    21.124426    21.247344    10331.742    8729.8363    9660.1662    9096.2143   -491.95536   -7.1425122   -754.50405   -5471.9169 
 8525000    29.528683   -6930.5559   -6854.5951   -6930.5559            0    9519.2289    22.953285    21.136476    21.267856    10318.133    9977.7305    9729.2028    8850.7534     552.8076    6.7052406   -532.87258   -5422.1474 
 8526000    28.762125   -6929.9923   -6856.0035   -6929.9923            0    9364.8898    23.061571     21.05876    21.261115     10325.42    9096.9957    9683.3459    9314.3277   -102.98523   -592.26591    9.5311856   -5445.7855 
 8527000    28.663617   -6930.2921   -6856.5567   -6930.2921            0    9264.3072    22.947396    21.245761    21.161764    10317.098    9225.7943    8749.7164    9817.4109   -14.401082    75.595981   -280.47817   -5462.6092 
 8528000    28.295352   -6935.5325   -6862.7445   -6935.5325            0     9342.761    22.994057    21.124838    21.246678    10320.483    9332.3916    8947.5947    9748.2968    355.50851   -106.67241    361.62159   -5456.5313 
 8529000    28.278803   -6936.2236   -6863.4781   -6936.2236            0    9028.1855    23.041492    21.061224     21.30227    10337.609    8854.9156    9322.4567    8907.1842    194.40776   -446.78231    16.694963   -5502.3579 
 8530000    29.338584   -6930.7288   -6855.2571   -6930.7288            0    9175.1397    22.906084    21.226553    21.235603    10325.116    9395.6707    8463.7427    9666.0057    150.15086    431.05173     168.2746   -5473.6534 
 8531000    28.997324   -6931.9356   -6857.3417   -6931.9356            0    9138.9741    23.076246    21.070949    21.241335    10328.353    8577.6551    9659.5186    9179.7485   -574.53959   -107.51608   -49.151582   -5480.7524 
 8532000    29.374536   -6933.5082    -6857.944   -6933.5082            0    9248.9612    22.977544    21.102126    21.304555    10330.047    9435.6557    9208.8371    9102.3908    130.30415   -27.682604    -90.62851    -5464.559 
 8533000    27.948402   -6930.6306    -6858.735   -6930.6306            0    9562.3646    22.910238    21.150508    21.296994    10319.739    9762.6585    9570.1401    9354.2953    131.41408   -66.656736    69.379157   -5419.5723 
 8534000    28.077155   -6933.7442   -6861.5174   -6933.7442            0    9293.8035    23.028776    21.067764    21.286709    10327.562    8946.3323    9708.0395    9227.0386   -47.433303   -154.23646    -283.0705   -5461.7136 
 8535000    28.037723   -6935.3604   -6863.2351   -6935.3604            0    9255.0604    22.907881    21.214783    21.250434    10327.407    9395.1052    8935.6468    9434.4292    221.45048   -135.22393   -349.26926   -5469.2874 
 8536000    28.227639   -6935.7161   -6863.1023   -6935.7161            0    9512.5426    23.013787    21.032502    21.341785    10330.224    9245.9615    10236.378     9055.288   -125.13128   -9.5423528   -188.01922   -5429.9832 
 8537000    27.942725   -6933.4535   -6861.5725   -6933.4535            0    8935.2501    22.970671    21.134972    21.300311     10340.97    9206.9382     8412.871    9185.9412   -149.77966    108.51142    121.14917   -5514.0256 
 8538000    27.955347   -6931.6419   -6859.7284   -6931.6419            0    9268.0461    22.930501     21.15742    21.281641    10324.793    9340.7726    9238.7026     9224.663    64.235666    43.033587   -169.85056   -5464.1783 
 8539000     28.31862   -6933.4932   -6860.6453   -6933.4932            0     9279.974    23.032931    21.015971    21.346001    10332.733    9057.7543    9407.4454    9374.7223   -296.54787    72.883123    133.32974   -5462.2246 
 8540000    28.505691   -6935.5367   -6862.2075   -6935.5367            0    9307.7301    22.879022    21.174025    21.321736    10329.123     9475.346    8781.4328    9666.4116   -408.77297    532.03474    563.59767   -5460.0942 
 8541000    28.258692   -6937.1705   -6864.4767   -6937.1705            0    8936.8836    23.019391    21.077378    21.309163    10338.959    9399.7505    8648.2358    8762.6646   -409.75895   -52.994608    59.630115   -5516.9456 
 8542000    28.920861   -6935.2373   -6860.8402   -6935.2373            0     9249.562    22.973754    21.113615    21.291918    10327.836     9260.927    8843.3678    9644.3914    21.656225    141.41044   -47.302946   -5467.6629 
 8543000    29.453174   -6935.3823   -6859.6158   -6935.3823            0    9127.6902    22.882382    21.171773    21.331004    10334.031    9681.6587    9096.5973    8604.8146    361.92698    26.429406   -350.31238   -5483.9702 
 8544000    29.448127   -6934.8445    -6859.091   -6934.8445            0     9156.196    23.050845    21.054915    21.290257    10332.877    8986.6749    9008.9156    9472.9974    13.852239    96.010498   -89.290355   -5479.3034 
 8545000     27.41018   -6936.7145   -6866.2035   -6936.7145            0    9366.1508    22.909606    21.201013    21.241758    10317.267    9575.5526    8974.8637     9548.036    290.40098     160.9503   -34.495431   -5456.9091 
 8546000     28.73943   -6932.9649   -6859.0345   -6932.9649            0    9288.9694    23.011226    21.064986    21.300006    10324.776    9441.4491    9131.2192    9294.2398   -334.18731   -202.37602    172.07572   -5460.3361 
 8547000    28.170137   -6935.6887   -6863.2228   -6935.6887            0     9255.164    22.965637    21.102976    21.311164    10328.312    9856.9028    9549.3621    8359.2272   -378.24566    10.730609   -49.401395   -5469.1374 
 8548000     29.64463   -6932.6726   -6856.4136   -6932.6726            0    9525.7879    22.962265    21.168102    21.214319    10311.593    9607.6463    9044.3905    9925.3269    92.205047    368.44058    24.073614   -5423.8874 
 8549000    28.809621   -6932.0937   -6857.9827   -6932.0937            0     9172.092    23.119842    21.054109    21.220201    10329.308    8531.5262    9325.4314    9659.3184   -50.882937    -196.4082   -187.29404   -5476.2771 
 8550000    29.596201   -6934.2449   -6858.1105   -6934.2449            0    9364.6913     22.92161    21.188012    21.252964    10321.786    9412.5795     9084.698    9596.7966    992.10269   -120.05061   -192.63746   -5448.4186 
 8551000    30.009415   -6935.5371   -6858.3397   -6935.5371            0    9209.9707    23.017765    21.090079    21.277815     10329.24    8625.1226    9397.2605     9607.529    306.57228   -66.424331    336.01978    -5470.937 
 8552000    28.163233   -6933.8276   -6861.3794   -6933.8276            0    9430.9687    23.016358    21.103154    21.239649    10316.474    9876.8877     9048.614    9367.4042   -602.81516    -130.7618   -170.62562   -5442.4412 
 8553000    27.524301   -6932.7748   -6861.9702   -6932.7748            0    9310.0496    22.948114    21.148102    21.273118    10324.037    9022.8973    9882.9606    9024.2908    85.136575    224.55148    -62.74941    -5460.198 
 8554000    29.527542   -6935.0752   -6859.1174   -6935.0752            0    9208.6641    23.043028    21.009527    21.342646    10332.468     9414.681    9393.0309    8818.2802   -233.81065   -593.18189     172.9161   -5471.4781 
 8555000    28.827732   -6933.3425   -6859.1849   -6933.3425            0    9127.4615    22.913443    21.202504    21.257329    10327.286    8919.8114    9026.0795    9436.4937    389.13916    289.46897   -334.41662   -5484.4717 
 8556000    29.738881   -6932.6706   -6856.1691   -6932.6706            0    9190.9112    23.018581    21.099712    21.267117    10329.129    9091.4555    9267.2466    9214.0315    348.61285   -531.99061    27.920764   -5471.6526 
 8557000    29.244505   -6936.5191   -6861.2893   -6936.5191            0    9190.9701    22.978087    21.101508    21.319188    10337.084    9193.4221    9192.6163    9186.8718    -63.23967   -32.757693    339.22624   -5475.6976 
 8558000    27.939066   -6933.1948   -6861.3233   -6933.1948            0     9365.156    22.910019    21.170847    21.300241    10331.139    9868.3235    8981.3733    9245.7711    -177.0094    484.93623    171.67803    -5450.284 
 8559000    28.705502   -6933.6806   -6859.8374   -6933.6806            0    9254.3589    23.089699    21.035748    21.270066    10331.064    8523.1182    9227.4693    10012.489   -14.399392    126.92675    512.56111   -5465.5019 
 8560000    27.341449   -6934.1723   -6863.8381   -6934.1723            0    9246.5916    22.868566    21.229317    21.271889    10327.163    9758.2642    8545.0224    9436.4883   -24.528219    386.22309    101.66852    -5471.199 
 8561000    28.260172   -6932.9574   -6860.2599   -6932.9574            0    9411.7883    23.019486    21.057263    21.307605    10328.379    9358.0439    9600.5575    9276.7635    115.26927   -164.24735    414.44402   -5442.5733 
 8562000    28.488985    -6931.011   -6857.7248    -6931.011            0     9416.362    22.989682    21.083419    21.303808    10325.979    9381.0659    9888.2716    8979.7487   -499.05097    73.029331   -233.70116   -5439.6789 
 8563000    29.000885   -6928.4722   -6853.8692   -6928.4722            0    9523.4445    22.927149    21.174781    21.255299    10318.966    9663.4222    9055.6784    9851.2329   -12.556181    567.86602   -195.22403   -5420.6714 
 8564000     28.76932    -6935.969   -6861.9617    -6935.969            0    9144.6093    23.080083    21.003816    21.318157    10334.399    8656.0594    9834.0099    8943.7585   -161.96475   -509.23564    190.76501   -5483.7172 
 8565000    27.387013   -6934.2524    -6863.801   -6934.2524            0    9512.1037    22.884421     21.18159    21.287741    10318.773    10133.775    9104.2135    9298.3228    85.314044    125.26038    14.936534   -5432.3367 
 8566000    28.593183   -6930.7676   -6857.2134   -6930.7676            0    9230.8084    23.011036    21.102752     21.26696    10327.154    9363.1474    9292.2764    9037.0015    258.56175   -268.33326   -391.56904   -5466.9525 
 8567000    27.715021   -6937.1265   -6865.8313   -6937.1265            0    9014.3101    23.010362    21.114678     21.27023    10334.277    9527.0842    8629.7447    8886.1015   -96.400975   -344.67608   -232.63826    -5507.241 
 8568000    27.709666   -6934.9661   -6863.6847   -6934.9661            0    8983.3344    22.892241    21.189691    21.306455    10335.325    9390.8407    9085.6698    8473.4927    413.99404    78.217358   -410.97027   -5509.6257 
 8569000    27.879089   -6937.4531   -6865.7358   -6937.4531            0    9275.3418    23.057662    21.050017     21.27361    10325.448    9173.8194    9243.0618    9409.1442   -126.54799   -54.543604    -206.8088   -5468.9985 
 8570000    27.837128    -6932.991   -6861.3817    -6932.991            0    9057.9392    22.889434    21.252144    21.233735    10329.141    9713.2445    8204.3959    9256.1771    104.68292      194.764   -22.276809   -5496.8944 
 8571000    28.575017   -6933.3887   -6859.8812   -6933.3887            0    9167.0395    22.964606    21.105353     21.32196    10334.244    9431.7178    9371.4618     8697.939   -357.70441    121.80924    33.240149   -5478.2768 
 8572000    30.003457   -6931.6645   -6854.4825   -6931.6645            0    9179.5122    23.042396    21.074513    21.282214    10334.798    8706.0639    9175.6433    9656.8295    121.95846   -32.540074    42.644932   -5470.9241 
 8573000     27.05797   -6933.6441   -6864.0391   -6933.6441            0     9016.555    22.935067    21.198383    21.251382    10332.131    9522.4869    8634.1766    8893.0016    90.112804   -256.90393   -589.12989   -5505.3927 
 8574000    28.748552   -6935.4247   -6861.4708   -6935.4247            0    9003.9791    23.016336    21.066464    21.318592    10336.806    9010.1627    9294.6526    8707.1221   -137.79801   -121.16197    -65.49985   -5504.1056 
 8575000    29.202593   -6936.8429    -6861.721   -6936.8429            0    8939.0078    22.940035    21.125671     21.33378    10338.854    9254.2591    9014.3198    8548.4445    45.989222    167.85723   -139.20686   -5513.8833 
 8576000    28.745411   -6932.9958     -6859.05   -6932.9958            0    9395.4591    23.002435    21.117053    21.234573    10314.559    9174.7214    9509.1945    9502.4613    117.95572   -47.299208   -77.516287   -5445.7168 
 8577000    27.760337    -6932.852   -6861.4402    -6932.852            0    9422.1561    23.019193     21.08532     21.26014    10318.972    9507.8621    9248.1528    9510.4535   -175.75247   -233.06156   -101.30688   -5443.4847 
 8578000    29.932876    -6933.237   -6856.2365    -6933.237            0    9529.8875    22.905613    21.147212     21.31145     10323.05    9840.9915    9679.4145    9069.2565    300.04239    272.59429     186.1664   -5421.5014 
 8579000    27.643027   -6934.9482   -6863.8382   -6934.9482            0    9150.5189    23.062134    21.024611    21.301168    10328.349    9038.9342    9586.3773    8826.2453   -349.12261    277.67988    82.839359   -5485.5105 
 8580000    30.056873   -6932.7975   -6855.4781   -6932.7975            0    9125.8574    22.996875    21.174998    21.197253    10322.188     9061.922    8825.6285    9490.0217   -481.02012    194.00264   -105.13399   -5481.6849 
 8581000    28.608232   -6936.2957   -6862.7028   -6936.2957            0    9244.8917     22.94912    21.160333    21.264589    10326.319     9035.424    9224.6775    9474.5737     258.3364    366.30411    324.08639   -5470.4335 
 8582000    28.102141   -6934.6709   -6862.3798   -6934.6709            0    9157.7465    23.042047    21.007312    21.354475    10336.665    9536.2809    9373.5086      8563.45  -0.56321956    16.228143    83.772746   -5481.8527 
 8583000    28.730822   -6932.5353    -6858.627   -6932.5353            0     9507.614    22.934853    21.167606    21.252779    10317.713    9248.4946    9300.4875      9973.86    899.50457   -47.825129    250.94586   -5427.9853 
 8584000    29.640804   -6930.8696   -6854.6204   -6930.8696            0    9324.3439    23.065115    21.095322    21.222256    10326.029    8997.0138    9228.3632    9747.6548   -155.69732   -447.21556    122.37361   -5450.4252 
 8585000    29.099115   -6937.3436   -6862.4879   -6937.3436            0    9125.6243    22.998226     21.08896    21.313628    10337.294    8689.5791    9711.6918     8975.602    192.71649    167.16703   -42.680236   -5486.7194 
 8586000    28.341828   -6934.5152   -6861.6076   -6934.5152            0    9462.9037    22.929498    21.141087    21.301951    10326.217    9536.5495    9405.6942    9446.4675   -92.309724    536.71107    66.117957     -5436.52 
 8587000     27.26242   -6932.8294   -6862.6985   -6932.8294            0    9557.1757    23.114462    21.008936    21.249947    10319.192    8846.8086    9723.1683     10101.55   -544.02254    74.897659   -92.631868   -5424.3929 
 8588000    28.225938   -6932.2025    -6859.593   -6932.2025            0    9240.3347    22.929625    21.179859    21.262211    10325.913    9199.6777    8900.7033    9620.6232     191.7949    162.76621     327.7389   -5468.0646 
 8589000    26.535753   -6934.4952   -6866.2336   -6934.4952            0    9169.5906    23.034794     21.03906    21.315366    10330.075    9072.8657    9699.6147    8736.2912    99.629708   -545.71943   -49.371689   -5484.8023 
 8590000    27.699902   -6932.9006   -6861.6443   -6932.9006            0    9147.5091    22.981549    21.099055    21.296254    10326.319    8786.0098    9255.2975    9401.2199     209.3927    -34.50834    1.7317766   -5484.0407 
 8591000    26.929022    -6931.349   -6862.0757    -6931.349            0    9612.3209    22.925892    21.152009    21.268821    10313.861     10135.47    9072.3725    9629.1206    41.004356   -30.751068    211.35885   -5416.2184 
 8592000    27.539118   -6930.7121   -6859.8694   -6930.7121            0     9428.205    23.020185    21.020195    21.335549    10324.033    9036.9226    10031.545    9216.1471   -484.11259    193.40024     476.9059   -5440.3077 
 8593000    28.613673   -6934.2258   -6860.6189   -6934.2258            0    9200.1295    22.912928    21.131323    21.327574    10326.395    9454.3864    9373.2204    8772.7817    266.27821    396.40308   -315.55613   -5475.0805 
 8594000     28.76837   -6932.5617   -6858.5568   -6932.5617            0    9269.2304    22.955064    21.087564    21.321556    10321.048    9419.1483    9438.4511    8950.0917    106.09406    -423.6962   -105.63192   -5463.3347 
 8595000     27.56154   -6934.1228   -6863.2224   -6934.1228            0    9277.9158    23.017578    21.013251    21.335413    10319.388    9127.5056    9958.3581    8747.8836    -260.6539    -32.09399    40.513372   -5466.9175 
 8596000      28.7665   -6929.9492   -6855.9491   -6929.9492            0    9307.8849    22.925873    21.113494     21.32195     10320.79    9500.0896    9720.5765    8702.9885   -303.58224     580.9605    167.56257   -5454.9436 
 8597000    28.906602   -6934.8654   -6860.5049   -6934.8654            0    9414.4559    23.008226    21.028309    21.327116    10318.572    9438.1696    9263.3524    9541.8457   -506.02936    142.50768    670.83385    -5443.763 
 8598000    27.543279   -6935.5384    -6864.685   -6935.5384            0    9312.0792    23.003979    21.071673    21.293639    10321.715    8786.4339     9845.999    9303.8046    283.22125    81.364982    19.876222   -5462.9226 
 8599000    28.777443   -6934.7667   -6860.7385   -6934.7667            0     9075.566    22.913273    21.185777    21.280592    10330.355    9379.1877    8131.0617    9716.4488    260.49272   -127.93154    515.53026   -5493.4352 
 8600000    27.821356   -6934.8464   -6863.2776   -6934.8464            0    9215.9181    23.046797    21.007781    21.347561    10335.679    9032.6237    9671.1837     8943.947   -69.818588     -597.082     315.9025   -5474.1136 
 8601000    27.703355   -6935.5731   -6864.3079   -6935.5731            0    9331.9193    22.953204    21.127173    21.285767    10322.242    9436.7081     8675.971    9883.0788   -118.74511    674.15116     468.0753   -5459.4873 
 8602000    28.526735   -6934.7694   -6861.3862   -6934.7694            0    9214.3102    22.968052    21.137123    21.268409    10325.356    9406.8677    8899.2429    9336.8198   -230.25573    162.03067    208.51922   -5473.8518 
 8603000    30.112726   -6936.3334   -6858.8702   -6936.3334            0    8985.1316    23.038407    21.066096    21.290692    10332.996    8982.7277    8992.6665    8980.0006   -48.930926    -321.7879     39.10029   -5504.8455 
 8604000    29.057972   -6935.3672   -6860.6173   -6935.3672            0     9041.474    22.933418    21.182807     21.26821    10331.973    9561.1568    8709.2243     8854.041    -34.24101   -71.871862   -376.28171   -5498.2369 
 8605000    29.261199   -6934.1559   -6858.8833   -6934.1559            0    9213.4168    23.075728    21.068342    21.251609    10331.838    8966.0474    9512.4284    9161.7747   -314.04813   -390.07182   -497.47832   -5470.6125 
 8606000    28.999062    -6938.449   -6863.8507    -6938.449            0    9059.5076     22.95494    21.141594    21.289634    10331.945     9427.765    8697.2598    9053.4979   -59.551557      203.395   -37.965123   -5498.7567 
 8607000    27.744075   -6934.2743   -6862.9044   -6934.2743            0    9116.8311    23.005354    21.109737    21.275118    10331.984     8684.615    9456.9347    9208.9435    361.92229    194.56335   -331.48946   -5489.1676 
 8608000    28.050068   -6933.0721    -6860.915   -6933.0721            0    9166.3356    23.080026    21.078953    21.224764    10325.907    8914.1903    9038.1029    9546.7136   -650.85769   -545.36269   -131.51407   -5480.5312 
 8609000    28.707191   -6934.4249   -6860.5774   -6934.4249            0    9510.8667    22.915553    21.170891    21.262554    10315.372    9900.3728    9037.5322    9594.6951    220.74546    327.56286   -323.00474   -5429.7709 
 8610000    28.659937   -6936.7549   -6863.0289   -6936.7549            0    9202.1919    23.058059    21.035645    21.296476    10329.667    9210.6726    9582.7611    8813.1421   -48.575832   -291.52835   -154.42709   -5476.7407 
 8611000    28.414953   -6931.5659   -6858.4701   -6931.5659            0    9448.8402    22.965278    21.176844    21.211018    10315.599    9720.1083    9109.1662    9517.2462   -397.00579   -35.017282   -288.35982   -5436.9636 
 8612000    29.028537   -6934.3525   -6859.6784   -6934.3525            0    9295.2248    22.958464    21.176694    21.238509    10325.831    9461.0828     8896.004    9528.5877    -312.4765    474.25846   -276.37338   -5459.8951 
 8613000    28.484476   -6932.4599   -6859.1854   -6932.4599            0    9458.2194    23.060421    21.015166    21.308022    10326.263    9326.7535    9863.1853    9184.7194     96.11468   -343.57324   -106.81269   -5434.7968 
 8614000    28.307715   -6931.6797   -6858.8599   -6931.6797            0    9307.8375    22.916402    21.177585    21.274938    10325.026     9589.277    8736.3469    9597.8885    132.39427    57.980985     67.33567   -5457.2865 
 8615000    29.194204   -6935.9877   -6860.8874   -6935.9877            0    9026.9503    23.017396    21.109492     21.27347    10336.472     8932.533     8996.924    9151.3939    195.87552    106.85957   -195.10008   -5500.1032 
 8616000    27.401104    -6936.447   -6865.9594    -6936.447            0    9184.5477    23.007762    21.087143    21.297363    10332.798    9459.3647    9263.6228    8830.6555   -99.462479    -185.9283    109.98367   -5481.9099 
 8617000    26.368179    -6934.084   -6866.2535    -6934.084            0    9587.8275    22.901505    21.172394    21.271505    10314.121    9370.9495    10023.914    9368.6194    440.01469    160.39645    287.74497   -5424.0442 
 8618000    27.874804   -6934.7946   -6863.0884   -6934.7946            0     9314.324    23.097528    21.030309    21.251521    10322.887    9170.4742    9513.0735    9259.4243   -361.60911   -176.21054   -231.47255   -5460.8288 
 8619000    28.174546   -6933.6018   -6861.1245   -6933.6018            0    9327.0977    22.960169    21.163337    21.244273    10322.885     9160.943    9219.7516    9600.5983   -26.531304    209.38169    272.01181   -5456.9421 
 8620000    28.602258   -6935.6191   -6862.0415   -6935.6191            0     9328.472    22.998408    21.094927     21.29254     10330.07    9217.6356    9442.3824    9325.3979    294.43157    226.55583     253.0336   -5456.6748 
 8621000    26.811386   -6931.1822   -6862.2116   -6931.1822            0    9276.5075    23.034544    21.053203    21.299757    10329.337    8942.2601    9348.1146    9539.1478    349.62936   -134.40776    197.77005   -5464.7726 
 8622000    28.664793   -6930.8034    -6857.065   -6930.8034            0    9170.6954    22.931492    21.230478    21.218815    10330.306     9253.076    8611.6341    9647.3762    237.82862    209.46074    270.11193   -5475.4362 
 8623000    27.902937   -6934.5749   -6862.7963   -6934.5749            0    9125.5443    23.083679    21.053412    21.266614    10335.366    8920.5801    9336.2554    9119.7975   -155.91064   -178.24484   -262.82741   -5487.2965 
 8624000    29.057012   -6934.2829   -6859.5355   -6934.2829            0    9365.5731    22.950586    21.130556    21.299071    10329.168    9214.5577    9440.6928    9441.4688    298.27546    58.760418    29.303588   -5448.7025 
 8625000    28.449163   -6930.7171   -6857.5334   -6930.7171            0    9410.0464     22.98362     21.14519    21.246197    10325.503    9081.4081    9359.9595    9788.7715    175.09794   -26.477787   -259.49209   -5440.5039 
 8626000    28.735265   -6934.0881   -6860.1683   -6934.0881            0    9261.0916    23.065811    21.084342    21.232429    10325.913    8676.3529      9775.17     9331.752   0.96088154    181.58736   -581.24613   -5465.5141 
 8627000    29.344669   -6936.1224    -6860.635   -6936.1224            0    9305.8733     22.91518    21.192544    21.254196    10321.696     9473.258     9079.667     9364.695   -206.06851    271.14446   -211.38997   -5459.8094 
 8628000     27.91584   -6933.0063   -6861.1945   -6933.0063            0    9191.6494    23.029224     21.06672    21.295346    10331.442    8978.5294    9543.3936    9053.0253    160.94768   -417.07043    -331.9304   -5476.2567 
 8629000    29.306776    -6930.844   -6855.4541    -6930.844            0    9128.8979      22.9517    21.169179    21.260987    10330.047    9498.6362    8801.1344    9086.9232    361.91999   -94.276485   -279.89909   -5480.1569 
 8630000    27.247191   -6934.8678   -6864.7761   -6934.8678            0    9636.9467    22.956771    21.153467    21.229802    10309.516     9710.817     9363.683      9836.34   -180.51213   -10.598871    95.061608   -5415.8253 
 8631000    27.705104   -6936.2632   -6864.9936   -6936.2632            0    9380.8709    23.067034    21.032263    21.274714    10321.468    8846.3216    9881.1162    9415.1748    132.24462   -5.8289846   -129.16425   -5452.9096 
 8632000    29.034199    -6932.428   -6857.7393    -6932.428            0    9296.0306    22.869383    21.218493     21.28257    10327.449    9621.8383    8836.3637    9429.8897    172.58142    280.32443    138.94991   -5457.6153 
 8633000    28.852626   -6934.7721   -6860.5504   -6934.7721            0    9057.0699    23.046652    21.075421     21.28035    10336.247    8968.7803    9165.4907    9036.9387    -244.1512   -50.575258    15.894415   -5495.2555 
 8634000    27.119906   -6934.5635   -6864.7992   -6934.5635            0     9132.042    22.987168    21.145851    21.260724    10334.481    8729.0702     8964.843    9702.2127    133.02779     477.1251    491.43443   -5488.4379 
 8635000    28.278476   -6938.7571   -6866.0125   -6938.7571            0    9028.5276    22.955446    21.155953    21.292025    10340.351    8816.7833    8887.4629    9381.3365    197.94771    4.2974742    323.27706   -5504.4796 
 8636000    28.929515   -6931.9695   -6857.5501   -6931.9695            0    9332.7663    23.071906    21.018973    21.310475    10334.467    8701.2568    9807.9618    9489.0803    322.60606    132.28904    60.488928   -5450.9379 
 8637000    28.183296   -6933.3593   -6860.8595   -6933.3593            0    9301.5367    22.882128    21.229885    21.252539    10324.163    9654.9132    8769.9461    9479.7509    492.37825    277.62624    414.63129   -5460.3519 
 8638000    28.047951   -6936.6519   -6864.5002   -6936.6519            0     9343.386    23.052188    21.047975    21.287972    10328.964    9000.4755    9873.3611    9156.3215    -705.5197   -197.73403    323.63618   -5457.0374 
 8639000    27.362115   -6933.5605   -6863.1732   -6933.5605            0    9234.0449    22.970166     21.10468    21.316189    10333.619    8978.2468    9549.1334    9174.7546    299.65449    415.55106    336.12495   -5471.5542 
 8640000    29.212389   -6936.0733   -6860.9262   -6936.0733            0    9207.4366    22.937083    21.200198    21.226507    10321.828    9146.2606    8916.4449    9559.6045    154.21737   -47.532951    39.104002   -5474.9006 
 8641000     27.79753   -6932.4936   -6860.9862   -6932.4936            0    9478.3235    23.054125    21.025387    21.283048    10316.359    9078.0777    9840.4593    9516.4334      -91.302    290.29313   -14.233346   -5434.9391 
 8642000    29.381147   -6936.5375   -6860.9563   -6936.5375            0    9083.1588    22.887432    21.154102    21.341064    10332.555    9704.3164    8772.1841     8772.976    512.84944   -102.87001    306.01054   -5492.2176 
 8643000    28.015361   -6930.5923   -6858.5245   -6930.5923            0    9509.5809    23.010928    21.063303    21.296063    10321.907    9062.5991    9845.6577    9620.4859    65.112031    75.850544    343.06193   -5427.0052 
 8644000    28.746213   -6934.4455   -6860.4976   -6934.4455            0    9512.7127    22.976011    21.122401     21.25931    10317.324    9795.2456    9074.0485    9668.8439   -97.923248    123.86265   -39.595976   -5429.1427 
 8645000    29.225271   -6931.2198   -6856.0395   -6931.2198            0    9300.9128    22.925879    21.146968    21.302337    10327.646    9496.2494    9457.0113    8949.4776   -347.78917    275.62291    269.75621   -5455.1535 
 8646000    27.965508   -6934.8138   -6862.8742   -6934.8138            0    9274.1958    23.014228    21.046132    21.333844    10333.271    9387.0263    9271.4471     9164.114   -378.78702    125.24093    114.37495   -5465.2514 
 8647000    29.160241   -6939.0199    -6864.007   -6939.0199            0    9221.8026    22.890455    21.173455    21.312067     10329.32    9444.0402    9444.6322    8776.7354    55.289532    542.50991   -240.90126   -5474.8112 
 8648000    27.629493   -6934.2365   -6863.1613   -6934.2365            0     9442.037    22.984382    21.096158    21.283147    10319.818    9891.8617    9077.5597    9356.6897   -234.27353   -467.84028    364.53497   -5442.0973 
 8649000    29.534735   -6934.6578   -6858.6815   -6934.6578            0     9093.864     22.93501    21.080425    21.385136     10339.28    9487.1492    9553.5272    8240.9156    364.46233    -480.4788   -93.852485   -5487.4378 
 8650000     28.26383   -6936.0071   -6863.3001   -6936.0071            0    9150.5899    22.907459    21.147904    21.323121    10329.874    9287.8287     8854.758    9309.1829    60.763681    417.85326    430.67093    -5484.758 
 8651000    29.546082   -6934.8787   -6858.8732   -6934.8787            0     9083.831    23.039178    21.069957    21.288615    10334.228    9076.7525    9185.7185     8989.022    -516.5712    -21.52814    123.59994   -5489.8117 
 8652000    27.906946   -6935.3542   -6863.5652   -6935.3542            0    9231.0337    22.937027    21.174514    21.257125    10324.169    9173.6754    8748.7992    9770.6266    278.47118    432.30453   -11.433262   -5473.6723 
 8653000    29.633381   -6932.8551    -6856.625   -6932.8551            0    9485.1164    23.021379    21.010174    21.353685    10328.418    9705.0074    9895.0473    8855.2945   -72.609968   -139.78494      353.632   -5427.8878 
 8654000    28.321657   -6934.0036   -6861.1479   -6934.0036            0     9305.919    22.918123    21.139082    21.315444    10326.652    9803.6628    9194.3809    8919.7134    -234.1264    97.295834    283.44466   -5459.6427 
 8655000    26.357287   -6932.0018   -6864.1993   -6932.0018            0    9001.3951    22.988083    21.150221    21.255237     10334.36    9187.2654     8422.288     9394.632    57.838965    530.08057   -139.03297   -5507.5446 
 8656000    27.417009   -6938.1244   -6867.5958   -6938.1244            0    9093.1953    23.035483    21.048432    21.312797     10333.74    9004.7007    9449.8282     8825.057   -264.48966   -118.04248    157.40823   -5497.1876 
 8657000    27.945962   -6935.5457   -6863.6564   -6935.5457            0    9094.7848      22.9185    21.131212    21.334757    10332.331    9605.8367    9290.8834    8387.6341    148.14547    220.11726    41.442996   -5493.1956 
 8658000     27.55162   -6932.3618   -6861.4869   -6932.3618            0    9563.2881    23.061716    21.027362    21.268815    10313.824    8911.6251    9898.2307    9880.0085   -127.58095    680.72882    161.78952   -5423.0101 
 8659000    28.685027   -6932.2006   -6858.4101   -6932.2006            0    9556.6375    23.017886    21.113828    21.221725    10313.667    9309.7986    9207.3092    10152.805   -71.344707    49.791458    494.61532   -5420.9556 
 8660000    28.312412   -6934.4407   -6861.6087   -6934.4407            0    9033.6432    22.918814    21.145501    21.310065    10327.493    9426.2248    8970.1766    8704.5282    600.62203   -109.21688    155.72064   -5500.9986 
 8661000    27.839463   -6935.9369   -6864.3216   -6935.9369            0    9379.2059    23.026058     21.02601    21.317248    10320.663    9699.2915    9678.2815    8760.0448   -92.700764   -260.89185   -296.94033   -5452.5984 
 8662000    28.176762   -6929.1112   -6856.6282   -6929.1112            0    9776.7148    22.948922    21.159827    21.202638    10295.899    9536.5366     9290.003    10503.605    404.62757    254.88265    431.65825   -5388.6043 
 8663000    28.266511    -6933.118   -6860.4041    -6933.118            0    9257.2835    23.007838    21.122894    21.229016    10317.134    9485.7301    9365.5944     8920.526   -285.24288   -484.43827   -369.33819   -5467.5086 
 8664000    27.752935   -6932.9274   -6861.5347   -6932.9274            0    9499.0834    23.010175     21.03436    21.311497    10314.856    9206.4721    9978.5348    9312.2433    -116.0338    221.38871   -201.53493   -5432.5724 
 8665000    28.382627   -6933.8068   -6860.7942   -6933.8068            0    9257.6952     22.93072    21.139696     21.29477    10322.607    9423.4817    9201.9201    9147.6836    122.56739    232.77939    68.911961   -5467.0979 
 8666000    28.829343   -6931.8873   -6857.7255   -6931.8873            0    9341.7004    23.060422    21.066569    21.255018    10325.772    9180.6467     9109.892    9734.5626   -263.37493   -415.17291    78.698349   -5450.9514 
 8667000    28.254338   -6934.8203   -6862.1377   -6934.8203            0    9313.5406    22.903779     21.13914    21.331444    10327.964    9617.6682    9125.8472    9197.1065    301.04379    141.35294    231.13421   -5459.3066 
 8668000    29.757454   -6936.6962    -6860.147   -6936.6962            0    8818.5038    23.002081    21.078897    21.340216    10346.985    9043.5555     8880.662    8531.2941   -43.118756    -33.90622    12.493906   -5529.4333 
 8669000     28.78501    -6930.192   -6856.1443    -6930.192            0    8846.7181    23.051709     21.08621    21.279025    10343.163     8059.309    9102.6851    9378.1603   -127.51399    542.43861   -130.78889   -5521.6662 
 8670000    29.182791   -6935.2919   -6860.2209   -6935.2919            0    9534.7088    22.928434    21.185933    21.234264    10314.762    9633.7999    9129.0495    9841.2771   -169.48631    239.55397   -169.32228   -5425.9126 
 8671000     27.46464    -6932.634   -6861.9828    -6932.634            0    9268.9728    23.048817    21.040058    21.304003    10331.344    9158.2434    9413.5456    9235.1295   -356.13742    18.218588   -112.57393   -5465.4077 
 8672000    28.739888   -6935.4486   -6861.5169   -6935.4486            0    9060.7284    22.913671    21.166293    21.316435    10338.417    9322.8492    9099.5146    8759.8214    331.97414    122.63224     -313.817   -5495.3837 
 8673000    26.668768   -6931.3984   -6862.7947   -6931.3984            0    9283.8468    23.025795    21.120698    21.238306    10328.631    9354.4016    8849.7513    9647.3875   -7.4215884   -477.67107    56.721248   -5464.3456 
 8674000    28.425542   -6938.1912   -6865.0682   -6938.1912            0      8996.18    23.062246    21.120825    21.216099    10334.227    8604.0687    9079.9254    9304.5459   -79.134474   -1.2608986   -5.3749296    -5509.217 
 8675000    30.119696   -6940.7583   -6863.2772   -6940.7583            0    8511.9343    22.945885    21.191207    21.287362    10351.001    8592.2549    8476.6794    8466.8686    174.40397    203.29155   -251.66013   -5578.3264 
 8676000    28.599233   -6938.6166   -6865.0468   -6938.6166            0    8895.9738     23.08081    21.055758    21.284929    10344.134    8771.1634    9184.5395    8732.2185    43.125067   -436.26568   -266.12138   -5523.0128 
 8677000     29.92261   -6933.4554   -6856.4813   -6933.4554            0    8808.0609    23.005945    21.196806    21.205559    10340.945    8348.0188    8484.4849     9591.679    274.77188   -52.854313   -220.38765   -5528.1194 
 8678000    28.738562   -6933.3026   -6859.3744   -6933.3026            0    9257.5596    23.009476    21.112271    21.266671    10330.973    9280.6128    9255.0121    9237.0538    277.79208   -312.40161   -504.06684    -5464.569 
 8679000    29.132405   -6937.7787   -6862.8373   -6937.7787            0    8888.4842    23.023484    21.062227    21.328509    10342.746    8686.6802    9665.5679    8313.2047   -10.577176   -353.98261   -165.12776   -5522.1132 
 8680000    27.953156   -6931.8578     -6859.95   -6931.8578            0    9079.0634    22.971788    21.149629    21.261532    10329.805    9193.2746    8962.5244    9081.3913   -404.52986     350.7002   -60.290824   -5492.1927 
 8681000    28.134921   -6934.0633   -6861.6879   -6934.0633            0    9122.4783    23.049579    21.084923    21.252952    10328.905    8714.9119    9133.7786    9518.7445     -95.0072    32.416073    190.65144   -5487.5099 
 8682000    29.114921   -6933.2284    -6858.332   -6933.2284            0    9076.3894    22.934576    21.105031    21.342041    10330.293    9319.8481    9250.0764    8659.2436    300.93555   -619.53326    106.32452   -5490.9129 
 8683000    27.841082   -6933.3133   -6861.6938   -6933.3133            0    9334.2223     22.90997    21.108336     21.33705    10318.413    9614.4771    9321.3052    9066.8846    235.13315   -200.59773    454.74889   -5457.0476 
 8684000    27.952918   -6933.4096   -6861.5024   -6933.4096            0    9364.8287    23.043148     21.05496    21.259355    10314.456    8990.1898     9676.589    9427.7074   -399.50922    340.80143   -232.95837   -5452.7909 
 8685000    29.510059   -6932.2875   -6856.3747   -6932.2875            0    9252.0997    22.861476    21.204724    21.286989    10319.321    9686.1499    8739.3774    9330.7718   -154.76856    611.87746   -221.05587   -5463.9641 
 8686000    27.921233   -6930.4259   -6858.6003   -6930.4259            0    9303.2966    22.972639    21.057576    21.355372    10330.621    9564.0516    9711.2598    8634.5783   -42.759421   -283.71269    3.4819497   -5456.9516 
 8687000    27.570351   -6935.7469   -6864.8239   -6935.7469            0     9337.167    23.033424    21.067599    21.278681     10325.67    9311.8538    9558.5887    9141.0584    409.92408   -506.80517   -43.874738   -5458.7463 
 8688000    28.806505   -6929.7594   -6855.6564   -6929.7594            0    9290.4972    22.918743    21.259927    21.177641    10318.822    9550.2234    8299.0574    10022.211     321.6313   -72.226876   -1.4417358   -5457.5347 
 8689000    27.373755   -6935.5241   -6865.1068   -6935.5241            0    9323.1219     23.05564    21.052749    21.272381    10325.286    9034.8781      9747.88    9186.6074   -92.730942   -417.10993    57.929143   -5461.1965 
 8690000    30.616428   -6933.0823   -6854.3234   -6933.0823            0    9388.1072    22.933816    21.140601    21.299196    10326.589    9632.6625     9155.998    9375.6612   -4.7481881    209.99009    619.04605   -5440.4491 
 8691000    29.527316   -6933.8795   -6857.9223   -6933.8795            0    9366.1751    22.995175    21.134828    21.247632    10326.329    9022.9696    9417.1748     9658.381   -393.71326     295.6006    442.52538   -5447.3865 
 8692000    28.675862   -6933.7127   -6859.9458   -6933.7127            0    9098.7708    23.135015    21.011495    21.250159    10329.729    8087.7974    9688.3394    9520.1755   -194.54504     81.42124     46.69725   -5489.2296 
 8693000    27.489021   -6932.5051   -6861.7913   -6932.5051            0    9346.4031    22.912801    21.166463    21.290477    10325.518    9218.1858    9829.0096    8992.0137    725.69406    206.30402   -273.20469   -5454.3437 
 8694000    28.132372   -6933.1425   -6860.7737   -6933.1425            0    9232.0366    23.048685    21.018256    21.326877     10331.66    8968.9476    9468.3716    9258.7905   -493.25533   -203.33562    119.51207   -5469.7213 
 8695000    28.301958   -6931.9493   -6859.1443   -6931.9493            0    9005.4575    22.988941    21.122961    21.276209     10331.61    9143.3827    9041.4731    8831.5166   -108.53631  -0.43255097   -133.11834   -5502.2385 
 8696000    28.290378   -6934.4665   -6861.6913   -6934.4665            0    9278.0581     22.90963    21.173162    21.288866    10326.576    9849.9688    8889.4193    9094.7861   -345.91522   -4.8741281     122.9258   -5464.3924 
 8697000    27.647085   -6931.0146   -6859.8942   -6931.0146            0    9296.6099    23.055379    21.000635    21.329876    10327.448    9140.5879    9656.3835    9092.8583   -463.11381   -100.95886    417.37946   -5459.6831 
 8698000    28.310169   -6930.2725   -6857.4463   -6930.2725            0    9349.4704    22.944636    21.146497     21.26647    10318.463    9290.1937    9580.1735    9178.0439    638.25083   -3.8371284   -328.45871   -5450.4987 
 8699000    28.493801   -6931.0757   -6857.7771   -6931.0757            0    9109.9869    23.067887    21.066979    21.243723    10323.826    8803.5745    9133.2267    9393.1596    -93.63143   -366.12772   -37.665066   -5486.1554 
 8700000    27.804887   -6934.4437   -6862.9173   -6934.4437            0    9257.9299    23.005104    21.061675    21.317837    10329.047    8881.7938    10072.241    8819.7552    73.400498    122.26643   -450.18564   -5468.3162 
 8701000    28.774081   -6934.2647   -6860.2451   -6934.2647            0    9103.0389    22.912799    21.178305    21.289253    10330.701    9573.9644    8431.6288    9303.5234   -43.583823    180.15897    143.94235    -5488.757 
 8702000    28.485612   -6934.6302   -6861.3527   -6934.6302            0    9327.5905    23.095878    21.021379     21.26865    10326.083     8773.288    9747.3087    9462.1748    44.773532   -277.58216    217.32472   -5456.6611 
 8703000    27.185105   -6934.4931   -6864.5611   -6934.4931            0    9550.0819    22.887238    21.194934     21.26269    10314.393    9856.5967    8994.2625    9799.3865    312.04491    -49.51032    782.24643   -5427.9915 
 8704000    27.823979   -6932.3585    -6860.783   -6932.3585            0    9516.5606    22.983023    21.066254    21.313106    10319.086    9461.7215    9829.9168    9258.0435   -90.670712   -47.574245   -85.622399   -5428.6045 
 8705000    27.921849   -6934.0441   -6862.2168   -6934.0441            0    9586.6735    23.024047    21.071679    21.261069    10314.921    9558.8877    9471.8134    9729.3193   -176.78896   -80.591898   -35.455224   -5420.0692 
 8706000     28.52508   -6938.2722   -6864.8932   -6938.2722            0    9248.0193    22.939507    21.203455       21.218    10320.367    9452.7714    8725.2929    9565.9935     201.9531    137.67252    -44.80499   -5472.9556 
 8707000    27.283092   -6935.6778   -6865.4937   -6935.6778            0    9116.9987    23.063652    21.045566    21.290872    10334.325    9049.6022     9251.478     9049.916   -212.41416   -136.42212    63.026717   -5491.4204 
 8708000    28.200427   -6933.9711   -6861.4272   -6933.9711            0    9233.4174    22.934643     21.15671    21.301258     10335.83     9604.364    9174.2231    8921.6652   -69.407407   -188.58703   -110.60886   -5469.6051 
 8709000    28.545224   -6932.8272   -6859.3964   -6932.8272            0    9243.3442    23.047992    21.104881    21.243283    10333.267    8751.3636     9295.667    9683.0019    299.47429    -392.2922    140.07884   -5466.4235 
 8710000    27.689725   -6934.3788   -6863.1486   -6934.3788            0    9117.3486    23.075896    21.103704    21.219547     10333.64    8743.5763    8968.3533    9640.1162    -170.2178   -290.98938   -105.70471   -5489.1136 
 8711000    28.333325   -6933.2383   -6860.3525   -6933.2383            0    9064.9956    22.942253    21.164029    21.289971    10337.356    9543.8231    8947.8611    8703.3025      210.422   -210.14436   -85.254532   -5493.7162 
 8712000    28.616198   -6937.1225   -6863.5091   -6937.1225            0    9217.3273    23.063762    21.011102    21.325686    10334.322    8861.8057    9702.7597    9087.4165    278.80501   -418.25408    -32.08487   -5474.3151 
 8713000    28.595225   -6934.2818   -6860.7223   -6934.2818            0    9326.9808    22.971234    21.183019    21.207549    10319.595    9511.1493    9062.4394    9407.3537     138.5427    -155.0864   -42.978448   -5457.0051 
 8714000    28.188572   -6934.0314    -6861.518   -6934.0314            0    9109.8665    22.997375    21.142017    21.244559    10329.336    9132.0974    9300.2354    8897.2666   -11.298676   -322.75749    -196.3621   -5489.1825 
 8715000    27.524124    -6936.876   -6866.0719    -6936.876            0    9174.0673    23.021342    21.041247    21.336193    10335.204    9204.7689    9452.0031    8865.4298   -92.246848   -175.18877    25.412224   -5483.2799 
 8716000    28.049342    -6933.925   -6861.7698    -6933.925            0    9069.1239    22.938273    21.164452    21.280989    10331.409    9266.8551     9213.804    8726.7126   -335.16414    338.36221   -373.70035   -5495.2976 
 8717000    28.174739   -6933.1679   -6860.6901   -6933.1679            0    9519.2965    23.034762    21.098856    21.231431    10318.627    9331.2649    9603.3288    9623.2958    -183.9928    450.94308    -153.6211   -5428.1636 
 8718000    27.683504    -6929.304   -6858.0899    -6929.304            0    9347.3245    22.944768    21.152106    21.266611    10321.328    9595.6279    9077.9301    9368.4156   -204.28938   -232.01191   -100.33786   -5451.0747 
 8719000    28.429429   -6936.7352   -6863.6023   -6936.7352            0    9178.2993    22.939948    21.096053    21.351965     10333.12    9701.5874    9461.9003    8371.4103      483.031    -186.5566   -373.75493   -5480.4513 
 8720000    27.155283   -6934.3369   -6864.4816   -6934.3369            0    9552.8354    23.026899    21.035586    21.302314    10318.507    9639.2894      9708.62    9310.5967   -544.85787   -208.95022   -161.43745   -5426.9247 
 8721000    28.305647   -6935.7317   -6862.9172   -6935.7317            0    9280.8798    22.929371    21.196014    21.242068    10323.885    9399.6172      8846.33    9596.6924   -308.65283    483.99934    78.632039   -5465.5576 
 8722000    28.693877    -6938.237   -6864.4238    -6938.237            0    9183.4161    23.034807    21.033407    21.324587    10331.773    8930.0724    9590.8815    9029.2945    74.400142    49.515507    350.27219   -5480.6822 
 8723000    27.417074   -6934.4889   -6863.9601   -6934.4889            0    9249.9273    22.936325    21.100527    21.342841    10329.263    9300.8432    9436.2797    9012.6589    133.72831    142.28402    117.86594   -5470.5352 
 8724000    28.947371   -6931.7765   -6857.3111   -6931.7765            0     9303.523    22.959324    21.123117    21.290703    10325.405    9401.3321    9291.8063    9217.4305    -94.72318    248.05576   -68.793419    -5456.336 
 8725000    27.217882   -6934.5554    -6864.539   -6934.5554            0    8841.0084    23.056794    21.031093    21.319324    10337.945    8773.5876    8688.6648    9060.7729   -493.36417   -277.65071    64.676845    -5531.595 
 8726000    28.145099   -6935.5321   -6863.1305   -6935.5321            0    9031.9199     22.90826    21.150779    21.335057    10337.423    9510.0803    8858.2099    8727.4695    135.78575    236.53602    67.866454   -5501.4718 
 8727000     30.05158   -6934.2764   -6856.9705   -6934.2764            0    8939.3202    23.027981    21.048111    21.341391    10344.076    8692.1932    9197.3148    8928.4526    24.650689   -31.516988    258.27779   -5508.4049 
 8728000    29.915705    -6934.512   -6857.5556    -6934.512            0    8999.1582    22.979393    21.135645    21.282998    10336.818     8857.791    8817.3707    9322.3127   -112.04446    86.227714    244.88123   -5500.9156 
 8729000    28.522038   -6933.5168   -6860.1456   -6933.5168            0    9108.4666    22.970993    21.120388    21.307632    10337.531    8977.9155    9209.4276    9138.0567     104.1808    209.73583    49.562515   -5486.9323 
 8730000    28.989772   -6934.0338   -6859.4594   -6934.0338            0    8908.9063    23.041733    21.016229    21.365037    10346.026    8747.3849    9358.2177    8621.1163   -354.85791    75.937281    136.39868   -5515.2285 
 8731000    30.356505   -6934.3429   -6856.2527   -6934.3429            0    9313.3522    22.945158     21.16384     21.26178    10324.883    9404.0786    9357.9649    9178.0132    368.98725    -236.4609   -20.593227   -5453.8682 
 8732000    29.344792   -6934.6231   -6859.1354   -6934.6231            0    9410.6609    23.003449    21.118794    21.252262    10324.457    9427.5468    8777.5765    10026.859   -55.714034    77.186292    274.20381    -5442.157 
 8733000    28.559035   -6936.3063   -6862.8399   -6936.3063            0    9336.1935    23.004094    21.077782    21.297605    10326.682    9084.3792    9824.8791    9099.3223    189.60676   -144.89474    97.524483   -5456.7712 
 8734000    27.878192   -6932.4007   -6860.6857   -6932.4007            0    9221.1538    22.995072    21.118332    21.265502    10326.901    9299.3702    9252.3248    9111.7664   -246.01731    -124.5504   -154.71086    -5471.913 
 8735000    28.344524    -6933.734   -6860.8195    -6933.734            0     9456.838    23.024119    21.112184    21.227751    10318.586    9064.2173    9727.3733    9578.9234    126.23877     122.9708   -287.17972   -5437.6979 
 8736000    28.485948   -6934.6304    -6861.352   -6934.6304            0    9231.2439    23.015678    21.106057    21.247024    10321.172    9084.6616    9713.0933    8895.9768   -31.654565    40.015329   -314.35152    -5471.831 
 8737000    28.879358   -6938.3698   -6864.0794   -6938.3698            0     9086.362    23.000021    21.113435    21.271014    10329.405    9161.1314    9376.5492    8721.4053    162.50112    4.7617275   -470.02227   -5495.2755 
 8738000    29.262359   -6932.5038   -6857.2282   -6932.5038            0    9332.2737    23.033194    21.121078    21.226858    10326.567    9235.5535    9467.6402    9293.6274   -157.93399    -237.6641   -271.62009   -5451.7655 
 8739000    28.911024   -6935.8507   -6861.4789   -6935.8507            0    9253.8692     22.98429    21.142976    21.243038    10323.188     9162.768    8992.6708    9606.1688   -233.13942   -72.034037   -51.354315   -5468.2801 
 8740000    29.752076   -6936.7528   -6860.2174   -6936.7528            0    9158.6593    23.112435     21.06911     21.22023    10333.371    8578.1382    9285.9424    9611.8972    188.13786   -487.33196    109.61836   -5479.9927 
 8741000    29.173283   -6937.9954   -6862.9489   -6937.9954            0    9241.8097    22.989272    21.176091    21.219624    10330.199    9097.9883    9071.2526    9556.1883   -9.8306772   -111.11847   -46.571587   -5470.6208 
 8742000    27.976633   -6935.1693   -6863.2011   -6935.1693            0    9137.7254    23.014917    21.134894    21.239189     10331.12    8966.9626    9246.5852    9199.6285    349.55085    -178.6584   -259.33124   -5486.4311 
 8743000    28.607139   -6932.1851    -6858.595   -6932.1851            0    9461.6505    23.073565     21.06191    21.249609    10326.744     9428.997    9818.9955    9136.9589    24.400241   -315.70226   -133.87054   -5433.6234 
 8744000    27.944128   -6932.0111   -6860.1265   -6932.0111            0    9279.7842    22.941383    21.231443    21.196215    10324.225    9510.8719    9085.9335    9242.5471   -186.08179   -154.45406   -538.71635   -5462.8859 
 8745000    28.761563   -6930.8846   -6856.8972   -6930.8846            0    9211.7931     23.06728    21.095212    21.233298    10332.318    8767.8724      9337.51    9529.9969    202.94438   -429.67567    48.179048   -5468.8066 
 8746000    27.287446   -6934.9443    -6864.749   -6934.9443            0    9014.8545    23.012085      21.1104    21.287779    10341.482    9111.6343    9184.4018    8748.5275    667.07626   -22.169963   -383.73297   -5505.1295 
 8747000    27.902844   -6934.0147   -6862.2363   -6934.0147            0    9016.4384    22.978888    21.162553    21.261276    10339.187    8769.9541    9474.3034    8805.0577    87.395534     -313.721   -466.04322   -5502.6797 
 8748000     28.29846   -6931.5324   -6858.7364   -6931.5324            0    9458.8703    23.053976     21.11719    21.208745    10325.163    8909.9222    9596.4358    9870.2529   -463.91763   -535.95036   -87.841081   -5434.4015 
 8749000    28.197299    -6934.493   -6861.9572    -6934.493            0    9350.6878    22.928009     21.15312    21.293289    10327.222    9773.8533    9255.7211     9022.489    759.35106    173.92153   -50.127194    -5453.632 
 8750000    30.124449   -6934.2776   -6856.7843   -6934.2776            0    9258.7426    23.007014    21.076654    21.314445    10335.606    8908.8555    9764.6166    9102.7555    95.465058   -407.41928    137.36482    -5461.175 
Loop time of 686.484 on 64 procs for 250000 steps with 1296 atoms

Performance: 62.929 ns/day, 0.381 hours/ns, 364.175 timesteps/s
197.9% CPU use with 32 MPI tasks x 2 OpenMP threads

MPI task timing breakdown:
Section |  min time  |  avg time  |  max time  |%varavg| %total
---------------------------------------------------------------
Pair    | 36.495     | 49.496     | 60.991     | 117.2 |  7.21
Bond    | 0.71429    | 1.0776     | 1.7728     |  18.9 |  0.16
Kspace  | 365.13     | 383.06     | 401.8      |  55.9 | 55.80
Neigh   | 0.12744    | 0.14875    | 0.17043    |   4.3 |  0.02
Comm    | 99.104     | 113.12     | 125.01     |  71.2 | 16.48
Output  | 0.58727    | 0.58761    | 0.58897    |   0.0 |  0.09
Modify  | 120.79     | 127.41     | 134.35     |  35.4 | 18.56
Other   |            | 11.58      |            |       |  1.69

Nlocal:        40.5000 ave          50 max          30 min
Histogram: 4 3 2 6 1 0 1 3 5 7
Nghost:        3229.84 ave        3248 max        3217 min
Histogram: 5 2 7 6 1 3 1 2 2 3
Neighs:        13516.5 ave       16642 max       10022 min
Histogram: 4 4 1 6 1 0 1 4 6 5

Total # of neighbors = 432529
Ave neighs/atom = 333.74151
Ave special neighs/atom = 2.0000000
Neighbor list builds = 260
Dangerous builds = 0

unfix		3
unfix		2
unfix		1

write_data	data.final.${pid}
write_data	data.final.0
System init for write_data ...
PPPM initialization ...
  extracting TIP4P info from pair style
  using 12-bit tables for long-range coulomb (../kspace.cpp:340)
  G vector (1/distance) = 0.37130966
  grid = 27 36 32
  stencil order = 5
  estimated absolute RMS force accuracy = 0.0037446757
  estimated relative force accuracy = 1.127698e-05
  using double precision FFTW3
  3d grid and FFT values/proc = 6885 1008
Last active /omp style is kspace_style pppm/tip4p/omp
WARNING: Not all mixed pair coeffs generated from mixing. Use write_data with 'pair ij' option to store all pair coeffs. (../write_data.cpp:312)

write_restart   restart.lmp.${pid}
write_restart   restart.lmp.0
System init for write_restart ...
PPPM initialization ...
  extracting TIP4P info from pair style
  using 12-bit tables for long-range coulomb (../kspace.cpp:340)
  G vector (1/distance) = 0.37130966
  grid = 27 36 32
  stencil order = 5
  estimated absolute RMS force accuracy = 0.0037446757
  estimated relative force accuracy = 1.127698e-05
  using double precision FFTW3
  3d grid and FFT values/proc = 6885 1008
Last active /omp style is kspace_style pppm/tip4p/omp
Total wall time: 0:11:26
