LAMMPS data file via write_data, version 30 Jul 2021, timestep = 13000000

864 atoms
2 atom types
576 bonds
1 bond types
288 angles
1 angle types

0.5334597198613888 17.67411268013507 xlo xhi
1.7198763557687275 21.90930144423578 ylo yhi
0.6508196122141072 21.562376187772713 zlo zhi

Masses

1 1.00794
2 15.9994

Pair Coeffs # lj/cut/tip4p/long/omp

1 0 0
2 0.21084 3.1668

Bond Coeffs # harmonic/omp

1 450 0.9572

Angle Coeffs # harmonic/omp

1 55 104.52

Atoms # full

476 1 1 0.5897 4.446885010712255 6.223800885919976 3.010432776414025 3 -7 -2
30 1 1 0.5897 1.0317604039906367 4.417633444739051 1.8065968754471833 -10 -1 5
635 1 1 0.5897 2.041500691089829 3.805893096463776 4.72444603028442 -6 1 6
426 1 1 0.5897 0.6172462101111865 5.528471699865003 5.0908215723115084 11 -8 5
70 1 2 -1.1794 3.864521293390345 3.771570318000302 4.388739401224973 4 4 -3
71 1 1 0.5897 3.8574019955929395 2.9678844754351807 3.8688875901220756 4 4 -3
319 1 2 -1.1794 2.6476335813105574 5.049602283472005 1.1094193890389148 4 -2 1
634 1 2 -1.1794 1.0873586507467108 3.775449917360111 4.795097460524395 -6 1 6
72 1 1 0.5897 4.443995431149165 4.362940188998522 3.9084263180964096 4 4 -3
321 1 1 0.5897 3.010798435763601 4.164294872522271 1.1332758347791914 4 -2 1
636 1 1 0.5897 0.7795503051162147 3.7744806355520995 3.8887447098715078 -6 1 6
424 1 2 -1.1794 0.6348311640739347 6.484334781133297 5.1380291264105304 11 -7 5
629 1 1 0.5897 4.712760162066745 5.152179801332583 5.860011543768571 -2 -3 1
630 1 1 0.5897 4.530804560442113 6.65289637166419 5.778893351997137 -2 -3 1
791 1 1 0.5897 2.392765175316149 4.577090314988553 9.80235209593379 2 7 -1
167 1 1 0.5897 2.9334270597891132 2.736622131026353 7.581313367790765 -2 -3 5
288 1 1 0.5897 3.86188565478319 6.656647860011155 9.558859530358571 2 1 2
790 1 2 -1.1794 2.820567418266986 5.198785110649558 9.213530172029857 2 7 -1
166 1 2 -1.1794 3.818106064114581 3.1012388920056897 7.556533342702241 -2 -3 5
191 1 1 0.5897 1.594669116286109 2.5610005411123833 10.37677797748854 2 4 -9
792 1 1 0.5897 3.234531797960689 4.651427322434247 8.546249602698287 2 7 -1
485 1 1 0.5897 1.4149725864576426 6.407895271066324 9.531048248646844 -1 0 -2
168 1 1 0.5897 4.351502163169032 2.4698144851842483 8.039256775858846 -2 -3 5
530 1 1 0.5897 0.7728663483614165 2.9221736521808164 6.371491989317384 0 1 -2
529 1 2 -1.1794 0.8404047066327396 2.6016501886196197 7.270892188363765 0 1 -2
190 1 2 -1.1794 1.2748887139546488 3.4475860048941005 10.54387323177218 2 4 -9
256 1 2 -1.1794 4.6347772771911036 3.4275669991450974 10.82564161890745 2 1 1
258 1 1 0.5897 4.749959537153845 4.113163552126187 10.1676903739628 2 1 1
143 1 1 0.5897 2.2578073510687675 3.1806927917920595 15.633929869829513 -3 4 2
641 1 1 0.5897 2.1823160728413606 4.838641902007599 12.772135399433166 4 4 -5
827 1 1 0.5897 4.34634733834718 3.3845298528724768 14.201583152978941 3 2 2
642 1 1 0.5897 3.6722684183261505 4.949633861114506 13.016346024302267 4 4 -5
640 1 2 -1.1794 2.9634590353534564 5.310992698507645 12.484139901505644 4 4 -5
836 1 1 0.5897 0.5520565143166678 3.0077546834532463 13.563228281714975 -1 3 -1
837 1 1 0.5897 0.8671275343883633 3.7340558004506335 12.272841784707126 -1 3 -1
37 1 2 -1.1794 3.204714324457331 2.1059551926895095 14.689780177227082 -2 6 -1
144 1 1 0.5897 1.4796626842113034 4.322891477561771 16.251775455495885 -3 4 2
835 1 2 -1.1794 0.7032988505605084 3.8821090995628995 13.204251276088522 -1 3 -1
257 1 1 0.5897 4.044660913952592 3.8131109379795296 11.473201174856733 2 1 1
457 1 2 -1.1794 3.6949716238877834 3.2575325433555036 18.435783584654523 2 -4 -2
67 1 2 -1.1794 3.1024605231468527 2.5145141811642526 21.514024655523194 3 0 -2
117 1 1 0.5897 1.9180029000951326 2.5075718112728422 20.081313492623448 -3 1 5
769 1 2 -1.1794 1.6987029749276805 6.114171053561542 19.646068849959015 7 -5 0
771 1 1 0.5897 1.1696924451602633 5.3918363573287955 19.984623976638808 7 -5 0
458 1 1 0.5897 3.8467891272335657 4.123964280571876 18.813231672193126 2 -4 -2
459 1 1 0.5897 3.062405635684048 3.409148051772225 17.73357180309098 2 -4 -2
115 1 2 -1.1794 1.1309039546903845 2.4400308633870917 19.540824801356138 -3 1 5
549 1 1 0.5897 2.0132253006304017 6.3598932866471145 16.819820333449183 6 3 0
142 1 2 -1.1794 1.6898521562759614 3.397021716695389 16.373425037109314 -3 4 2
68 1 1 0.5897 4.046221873987939 2.673848168572566 21.502013141449456 3 0 -2
320 1 1 0.5897 2.85852834183448 5.371973487160917 21.144718285113974 4 -2 0
547 1 2 -1.1794 1.2159657614384047 6.119097004597861 16.347996384442155 6 3 0
150 1 1 0.5897 4.134195737807588 7.884310260290192 2.2059920417740853 -3 1 0
601 1 2 -1.1794 3.7801326534073203 11.349740016189921 3.2205629786931333 3 3 -2
148 1 2 -1.1794 3.3513298221113743 7.459325792945908 2.5563221885919187 -3 1 0
800 1 1 0.5897 3.151732177611774 7.59122213165789 4.240557366262751 4 -1 3
322 1 2 -1.1794 3.432925065800284 10.312335733069887 0.7767058080084436 5 3 -2
602 1 1 0.5897 4.6556636621906575 10.962882866853551 3.223810504162666 3 3 -3
324 1 1 0.5897 3.450353739969203 10.385141687298848 1.7309804593663445 5 3 -2
603 1 1 0.5897 3.4312656312963687 11.161237536179865 4.091760812204785 3 3 -2
149 1 1 0.5897 3.0385338734427356 6.905412899409264 1.8410860411061798 -3 1 0
801 1 1 0.5897 2.215055593995493 7.552473565741188 5.429262512942664 4 -1 3
359 1 1 0.5897 0.9006124357187604 8.47369353889444 1.1389840789095182 7 -2 -4
799 1 2 -1.1794 3.061372591623762 7.896321738766326 5.143339371400204 4 -1 3
752 1 1 0.5897 2.043748969679518 9.68119917183116 10.126048808632119 4 -1 0
612 1 1 0.5897 2.5773386501053395 11.473651449257861 8.985486943045927 4 -1 -3
286 1 2 -1.1794 4.146953899691198 7.534186629025556 9.81356499810216 2 1 2
627 1 1 0.5897 3.761921700082324 10.504380340783113 6.522361890613313 -9 -3 1
486 1 1 0.5897 1.208814627164562 7.78669619502299 10.121173027523145 -1 0 -2
589 1 2 -1.1794 1.0403450977900426 8.2412827135803 7.442194487493056 8 7 4
611 1 1 0.5897 2.073650258769203 10.44192976777401 7.998716483036927 4 -1 -3
610 1 2 -1.1794 1.8064803104713565 10.951284334442457 8.763831377563397 4 -1 -3
287 1 1 0.5897 3.3514564127492523 7.962640728569142 10.129554531223212 2 1 2
751 1 2 -1.1794 2.215409148631357 8.971471213179491 10.74493987833348 4 -1 0
590 1 1 0.5897 0.855297048887114 7.807580582208991 8.275191512901689 8 7 4
625 1 2 -1.1794 2.832187680722829 10.511458675228827 6.294821842602995 -9 -3 1
484 1 2 -1.1794 0.7322155175998568 7.035676970786819 9.767572465115435 -1 0 -2
626 1 1 0.5897 2.6538358645129834 9.6230405983799 5.986364621155983 -9 -3 1
162 1 1 0.5897 3.0906254106708073 10.661446032170389 13.524735821717695 3 6 2
160 1 2 -1.1794 3.6628947298156795 10.550161994672644 12.765564976250694 3 6 2
495 1 1 0.5897 2.6115088657990144 7.972820917595964 14.297152390072755 -4 0 -2
161 1 1 0.5897 4.4895588267078645 10.955974362573887 13.026643535880552 3 6 2
493 1 2 -1.1794 1.9045729516765009 7.6184712784914135 13.757814592574166 -4 0 -2
631 1 2 -1.1794 4.143879642962801 8.291575140441292 15.167646571067731 3 5 4
841 1 2 -1.1794 1.9522142432362797 10.859980264524959 14.842545079419594 -5 4 2
842 1 1 0.5897 2.1301252482928117 10.406774036712607 15.666665624875069 -5 4 2
753 1 1 0.5897 2.786066796067881 9.362644178978748 11.406408242854088 4 -1 0
843 1 1 0.5897 2.165873533138385 11.775741274963861 15.02128225639231 -5 4 2
632 1 1 0.5897 4.410406910633485 7.463735284362523 15.567464646414757 3 5 4
633 1 1 0.5897 4.483619630800813 8.246789285263834 14.273901101731386 3 5 4
494 1 1 0.5897 2.2930160688330887 6.860739449456005 13.320591372833288 -4 0 -2
195 1 1 0.5897 4.610743668181532 7.015798074493701 11.936389954174356 0 -4 3
548 1 1 0.5897 1.114586675162144 6.801309499874596 15.684267613190515 6 3 0
564 1 1 0.5897 4.229508757110834 7.417082143540034 17.996047097775346 0 4 1
358 1 2 -1.1794 1.1864772976800975 8.395373764804102 21.14038655034543 7 -2 -5
49 1 2 -1.1794 1.966734560908909 9.605670228817889 17.346801212574608 5 3 1
770 1 1 0.5897 1.405945818395446 6.878896524055689 20.141750941048542 7 -5 0
50 1 1 0.5897 2.4402703818530718 10.296675007077218 17.809932955152064 5 3 1
562 1 2 -1.1794 3.307125767161061 7.2697731102853655 17.786933171675997 0 4 1
360 1 1 0.5897 1.9981443079371957 8.901093040951078 21.099438482391072 7 -2 -5
51 1 1 0.5897 2.529418232749271 8.835279106588274 17.424918079984558 5 3 1
563 1 1 0.5897 2.9487819252020238 6.846605499491966 18.567142916876257 0 4 1
663 1 1 0.5897 3.756825360452008 11.60874566175935 17.81080373833127 -4 -7 2
323 1 1 0.5897 2.9216461763816994 11.068168012104795 21.399202455062103 5 3 -3
669 1 1 0.5897 4.729277584070586 9.824420840950008 20.755066701310266 -9 0 0
604 1 2 -1.1794 3.8642731338526093 16.100758030451818 3.1468496771204633 -7 -1 -1
717 1 1 0.5897 1.6243115457012143 12.803164537647927 2.831219339088781 5 -10 -1
108 1 1 0.5897 2.4653540257764397 13.695544547317029 4.652310061082941 2 2 3
140 1 1 0.5897 4.500318106783671 12.930491945016499 2.7397634689106583 1 -1 2
716 1 1 0.5897 1.889050351300053 14.166912416712107 2.2296031281334034 5 -10 -1
106 1 2 -1.1794 3.0456776104579313 13.408851466803688 5.357473535051938 2 2 3
605 1 1 0.5897 4.280187749658221 15.32622011782278 2.768238921413846 -7 -1 -1
715 1 2 -1.1794 1.5961023679258872 13.738260570694129 3.0337575135698605 5 -10 -1
126 1 1 0.5897 2.6585496660952166 16.710357824032695 4.473673707169173 3 4 3
412 1 2 -1.1794 1.991213437270511 15.166895607082417 0.7338642333748315 1 -7 5
606 1 1 0.5897 4.525230051871501 16.78901890838832 3.071689530564094 -7 -1 -1
124 1 2 -1.1794 2.067644344765134 16.79961397887147 5.221402885489378 3 4 3
107 1 1 0.5897 2.78001979033159 12.506561984212555 5.535024062719679 2 2 3
146 1 1 0.5897 0.8412970181880621 15.19982589745042 5.454410326172756 2 -4 -5
264 1 1 0.5897 1.3873515240040761 14.80369663098929 9.105598671570982 2 -1 9
250 1 2 -1.1794 4.1484284031572525 12.347562151080554 9.281502069840577 3 0 7
454 1 2 -1.1794 2.782023738625432 14.455347999409074 7.97299945774808 6 -5 0
455 1 1 0.5897 3.597612137728575 14.943535061216455 8.085704662128702 6 -5 0
251 1 1 0.5897 4.128847968305598 12.514637557054831 10.22380161654167 3 0 7
263 1 1 0.5897 0.8199511712886989 14.76590146778864 10.508659962383295 2 -1 9
456 1 1 0.5897 2.761572811623602 14.233891210158697 7.0419961442805326 6 -5 0
417 1 1 0.5897 3.660865369675149 16.21598730795936 9.970965457998513 4 0 -2
252 1 1 0.5897 3.6557040501331053 13.073479703550593 8.898774728094018 3 0 7
207 1 1 0.5897 0.8000261596586847 16.774813475731644 9.390043092330417 -4 1 -2
415 1 2 -1.1794 3.1847302835098907 16.122750172809457 10.79608407158849 4 0 -2
262 1 2 -1.1794 0.5748999821906722 14.924599305094299 9.597065921863607 2 -1 9
125 1 1 0.5897 2.6153498008508604 16.612564221659007 5.9838097095850005 3 4 3
275 1 1 0.5897 4.50989143625168 14.951086962679229 14.116194116556667 1 4 -2
713 1 1 0.5897 1.702220869593089 15.337210658759533 14.570762003390545 -5 -1 0
8 1 1 0.5897 2.5594441304294118 13.100719141604053 11.901633365927225 -4 -5 1
442 1 2 -1.1794 3.5322574768118433 16.341373635664034 14.523148360974844 10 6 -4
430 1 2 -1.1794 2.6546395483020953 13.46016174886824 15.760403478752393 -7 -4 -3
276 1 1 0.5897 4.58659822376409 13.93700820200215 12.994765758027713 1 4 -2
7 1 2 -1.1794 3.5128514541826483 13.018080840811566 11.88167356494925 -4 -5 1
9 1 1 0.5897 3.6896521585582005 12.17644419993162 12.301974793406039 -4 -5 1
409 1 2 -1.1794 0.8758280456968767 13.873794309748494 12.123230605393108 5 3 -5
416 1 1 0.5897 3.8499834194457914 16.248968791272908 11.472642096926958 4 0 -2
432 1 1 0.5897 3.5778479898215596 13.598983632250368 15.971657728277718 -7 -4 -3
712 1 2 -1.1794 0.783865328217868 15.494291786488208 14.351203563075993 -5 -1 0
444 1 1 0.5897 3.5626312861856397 16.642327810044037 15.431292145804917 10 6 -4
714 1 1 0.5897 0.7435423330838304 16.427318723657834 14.141265792391671 -5 -1 0
410 1 1 0.5897 0.7620974632504371 14.317866207537538 12.963523121280172 5 3 -5
661 1 2 -1.1794 3.0047506861741953 11.864325846912768 18.344914358363496 -4 -7 2
508 1 2 -1.1794 1.5570243925826475 14.480207849408929 18.05706322606556 4 -1 6
90 1 1 0.5897 3.1548817233231214 14.663213906778754 18.786371817771364 8 -3 5
614 1 1 0.5897 3.999418964508201 16.554828596867146 20.25839805117398 -3 5 1
662 1 1 0.5897 2.4513742795265334 12.373087393197496 17.752335606117846 -4 -7 2
230 1 1 0.5897 2.4885885097106106 12.415916358460377 20.12950372708159 3 5 1
231 1 1 0.5897 1.0987608490221077 12.561817099557194 20.71171116489257 3 5 1
509 1 1 0.5897 0.9439620057098934 13.975189083736113 18.591282376987547 4 -1 6
413 1 1 0.5897 2.221396382044709 14.301255427124829 21.307935055206137 1 -7 4
229 1 2 -1.1794 2.0251116124739745 12.570900771513363 20.95254753529212 3 5 1
88 1 2 -1.1794 3.9858914376314925 15.006505614859009 19.11467429870336 8 -3 5
89 1 1 0.5897 4.344220352039858 14.297537326008928 19.64869042659739 8 -3 5
510 1 1 0.5897 1.1253677693643993 15.325141942061409 17.93054606407719 4 -1 6
813 1 1 0.5897 0.6534094670077771 16.619488675939337 21.013831931086155 -3 5 -5
414 1 1 0.5897 2.709898765546452 15.733067390650847 21.364043156319504 1 -7 4
431 1 1 0.5897 2.181170941085594 13.795883469893738 16.52154221672066 -7 -4 -3
394 1 2 -1.1794 4.042061658642561 21.26094154211694 3.4282611411912245 5 -1 4
521 1 1 0.5897 2.473320604860107 18.812135739850937 1.7734718903701356 -4 2 -3
522 1 1 0.5897 2.894900395012584 17.591833873453627 2.5640224450623954 -4 2 -3
520 1 2 -1.1794 2.2008241417245267 18.24754742972496 2.4968089042872603 -4 2 -3
396 1 1 0.5897 3.2404045791325364 21.010533193053398 3.887469814811354 5 -1 3
725 1 1 0.5897 2.023942169376771 19.411641646496783 4.55904276906344 4 0 3
724 1 2 -1.1794 1.987911643304013 20.29621638608731 4.92303831837038 4 0 3
726 1 1 0.5897 1.1076910576333332 20.60715198870782 4.711377461161613 4 0 3
395 1 1 0.5897 4.573975960051204 20.465174560443145 3.422693032856769 5 -1 4
501 1 1 0.5897 0.5735010002648819 17.948531366944977 2.957964465138965 3 -1 1
69 1 1 0.5897 3.012927361500328 21.81942227633899 0.9572341150268588 3 -1 -1
21 1 1 0.5897 2.646751046638593 20.578896983170665 6.600316098426022 -5 -2 1
517 1 2 -1.1794 3.0304172219381065 17.90442922653144 7.946406950101719 1 -1 -4
377 1 1 0.5897 2.4247825893079216 20.972561932673763 9.075810440682424 -1 3 2
378 1 1 0.5897 1.1994120237515808 20.645295131914324 9.902371546411485 -1 3 2
19 1 2 -1.1794 3.161093190048683 20.56761833296467 7.4074917256201545 -5 -2 1
518 1 1 0.5897 3.2007883950053726 18.75144198719007 7.5343899413248065 1 -1 -4
20 1 1 0.5897 4.062425037383797 20.430692783285764 7.115822447919153 -5 -2 0
519 1 1 0.5897 2.2801969628247574 18.062841475411652 8.519374775883579 1 -1 -4
376 1 2 -1.1794 2.0781517858876066 21.019296455797452 9.966804545975066 -1 3 2
206 1 1 0.5897 1.0956505688379523 17.856425510550366 10.407201014301533 -4 1 -2
279 1 1 0.5897 4.054609040626718 18.364313479452186 9.21909069184062 0 -6 -1
277 1 2 -1.1794 4.722414162904138 18.658942276432818 9.838316982427573 0 -6 -1
205 1 2 -1.1794 0.8225645615279678 17.725504009393887 9.49917385007349 -4 1 -2
502 1 2 -1.1794 1.2331864382683801 20.151411242695197 15.364750213894713 -4 1 1
819 1 1 0.5897 2.8313375700235066 20.761167674977017 11.58660947541365 5 -1 3
443 1 1 0.5897 4.092905908910078 16.954789481032257 14.048153268702118 10 6 -4
268 1 2 -1.1794 1.717402466055901 18.244236493167577 12.061066085630362 2 6 6
269 1 1 0.5897 2.2900276386557774 19.002508090036294 12.176548983337565 2 6 6
503 1 1 0.5897 0.825632797211918 20.806361808849275 14.798040795486262 -4 1 1
270 1 1 0.5897 2.2963805225648057 17.552987427085114 11.739864617299336 2 6 6
817 1 2 -1.1794 3.2431433559621925 20.548688280718594 12.424161097978256 5 0 3
38 1 1 0.5897 3.4358698856895953 21.65639406769173 15.363929753893045 -2 5 -1
794 1 1 0.5897 0.6694494788694081 18.143653508147572 13.362565203073721 -10 1 8
818 1 1 0.5897 4.180220053825081 20.521474886752912 12.230806365705805 5 0 3
504 1 1 0.5897 0.820123927846266 19.325548050985518 15.11268395720998 -4 1 1
39 1 1 0.5897 3.2210751921721186 21.7980901221489 13.872058263432123 -2 5 -1
180 1 1 0.5897 3.6627727122673686 19.596149462252107 16.243994569038733 -6 0 -4
178 1 2 -1.1794 4.415662271896567 20.16594036008199 16.401167331388226 -6 0 -4
673 1 2 -1.1794 2.016100686460077 18.084577297330682 18.872598514162043 -4 0 -1
674 1 1 0.5897 1.3846279474947 17.50861117742992 19.30356861936324 -4 0 -1
734 1 1 0.5897 1.0319279227716671 20.530344808997768 17.0431077533459 -2 -4 -4
291 1 1 0.5897 2.386310855781716 19.274137492689775 20.42835718243584 -9 -6 -9
675 1 1 0.5897 1.483420149378758 18.783470179466512 18.493115853708833 -4 0 -1
735 1 1 0.5897 1.00200046728928 21.28197238329195 18.35693130334476 -2 -4 -4
289 1 2 -1.1794 2.2317561894721782 19.98946148271171 21.045318438179436 -9 -6 -9
218 1 1 0.5897 3.152796096014544 17.407351711453025 17.568420727377468 6 0 1
733 1 2 -1.1794 0.8912857240422378 20.40821533460381 17.98202552937856 -2 -4 -4
290 1 1 0.5897 1.2805301479223314 20.015944223791507 21.148647712663763 -9 -6 -9
217 1 2 -1.1794 3.853013208118034 17.182668317911116 16.955680531976114 6 0 1
491 1 1 0.5897 3.256006110095032 20.57298763776143 19.684862112379488 0 3 2
219 1 1 0.5897 4.5812198253338785 17.7520807499861 17.204144307959663 6 0 1
179 1 1 0.5897 4.26349935522476 20.52953874015484 17.273434703585693 -6 0 -4
613 1 2 -1.1794 4.0013461269842825 17.092494877703032 21.05031858557331 -3 5 2
490 1 2 -1.1794 3.938794827414402 20.937326168141738 19.12158802566461 0 3 2
492 1 1 0.5897 3.628569950112426 21.81698601600307 18.90669350187053 0 3 2
216 1 1 0.5897 6.198086985183514 3.337629580866292 1.9297309170782517 -4 2 4
670 1 2 -1.1794 7.815943212464935 4.021951876674273 3.0998538741127315 5 2 3
671 1 1 0.5897 7.521127282523673 4.703086316498842 3.70432174251164 5 2 3
475 1 2 -1.1794 5.277584650044576 5.77148023713905 3.1572513190801974 3 -7 -2
381 1 1 0.5897 5.36742146491393 2.479659303644739 5.25781274394109 11 1 3
265 1 2 -1.1794 7.636744435157923 6.136799730764972 4.87467592077342 -3 -2 -2
672 1 1 0.5897 8.283101790409145 3.3959290017975765 3.6530879755645724 5 2 3
624 1 1 0.5897 8.941983715397852 4.943262952129646 1.8187882138693072 6 0 6
477 1 1 0.5897 5.933070851749865 6.333168126974894 2.7436292914210636 3 -7 -2
379 1 2 -1.1794 6.266403709347888 2.2354483621275523 5.477919736848056 11 1 3
267 1 1 0.5897 6.782658988092751 5.8546402767383645 5.201999537956471 -3 -2 -2
380 1 1 0.5897 6.661369253731027 1.9935993737049875 4.640206766622121 11 1 3
666 1 1 0.5897 7.55169989828069 6.421699312325872 0.8455156577690621 -2 4 -1
266 1 1 0.5897 8.263962908996279 5.5634824336005 5.315266702734602 -3 -2 -2
214 1 2 -1.1794 5.828159023585542 3.079730782749313 1.0854217306069922 -4 2 4
628 1 2 -1.1794 5.10897638095831 5.978710461586613 6.135821540672457 -2 -3 1
750 1 1 0.5897 7.707357814593031 2.2329979364090256 8.204187088419957 2 4 -2
656 1 1 0.5897 6.504556074847114 4.446978769202609 8.452246805693889 -2 4 0
558 1 1 0.5897 8.827502829896149 3.5482539834242877 10.188628696726038 6 2 -2
749 1 1 0.5897 6.895598772721853 2.705398253080543 7.016835462274457 2 4 -2
655 1 2 -1.1794 5.9325932538787685 5.155688332023365 8.746872377079066 -2 4 0
748 1 2 -1.1794 7.3558490946809565 3.0230686820216475 7.7936749130930245 2 4 -2
594 1 1 0.5897 6.8226712559270375 6.208377431546333 10.301703144111295 5 1 -3
657 1 1 0.5897 5.6596065603771 5.594450675415338 7.941151323255465 -1 4 0
345 1 1 0.5897 8.838493428796669 3.791158138199926 6.640712024472748 -2 3 -1
158 1 1 0.5897 8.810427252636538 6.429802380871741 9.869135701458564 2 0 1
592 1 2 -1.1794 7.321971645318802 6.364908763098281 11.103209871864427 5 1 -3
678 1 1 0.5897 6.365571105714501 2.925817130770477 10.994521999289105 -1 1 -1
121 1 2 -1.1794 5.616065151937374 5.8224005775622665 15.98326181057235 3 0 -1
788 1 1 0.5897 6.934023945604815 6.583276360185512 14.93121055935539 2 2 3
334 1 2 -1.1794 8.668493648476353 4.220691932588019 13.13517939118016 4 1 3
336 1 1 0.5897 8.207034343281485 5.038053979639479 13.322789097731706 4 1 3
828 1 1 0.5897 5.791495406611111 3.50868212265529 13.768009626257763 3 2 2
123 1 1 0.5897 5.354804604028184 5.178667065925536 15.324800259582307 3 0 -1
803 1 1 0.5897 7.882630812771127 1.9248488544210005 14.52813640679943 3 -1 -3
804 1 1 0.5897 6.54965520932224 1.829649085628092 15.239462792542655 3 -1 -3
677 1 1 0.5897 7.247153235861126 1.7818800824750352 11.448463310368993 -1 1 -1
335 1 1 0.5897 8.166683123413247 3.8191533950349634 12.425832528665874 4 1 3
802 1 2 -1.1794 6.956008170343563 1.7378088090179746 14.377687919121922 3 -1 -3
787 1 2 -1.1794 7.635594321893083 6.359041882330647 14.319869648876546 2 2 3
826 1 2 -1.1794 4.988479616697134 4.017432715583089 13.880160371330915 3 2 2
676 1 2 -1.1794 7.246201388286045 2.7296155718090978 11.314226026724437 -1 1 -1
789 1 1 0.5897 8.43478003952756 6.664021537859484 14.749402651275464 2 2 3
327 1 1 0.5897 8.065345998124805 4.744118539445231 18.42096017825603 3 -1 -2
112 1 2 -1.1794 5.1195930807528995 5.333837015578753 20.00496029206316 -4 -3 -1
113 1 1 0.5897 5.464121509442855 4.621811187864063 20.544027808643822 -4 -3 -1
325 1 2 -1.1794 7.153864331596715 4.60551874195988 18.163646077155803 3 -1 -2
326 1 1 0.5897 7.150771607886819 3.744363067736414 17.7457612155701 3 -1 -2
245 1 1 0.5897 8.554194401469145 2.84684718441342 19.736186977801225 -7 7 -2
280 1 2 -1.1794 6.304476368797793 2.26919431976364 16.967644942579682 0 1 0
215 1 1 0.5897 6.580778664111908 2.7813988176726254 21.48629667012734 -4 2 3
282 1 1 0.5897 5.593026304524436 2.5574259911010935 17.539469117264897 0 1 0
244 1 2 -1.1794 8.045882884637692 2.1545215079819715 20.15873072785411 -7 7 -2
114 1 1 0.5897 5.7783615120187015 5.457938213064295 19.321705386926446 -4 -3 -1
122 1 1 0.5897 6.0538745102547855 5.30791905092464 16.661376394995408 3 0 -1
665 1 1 0.5897 6.12590070263482 6.337669939856091 21.255184378280333 -2 4 -2
367 1 2 -1.1794 6.348518923314291 10.843457430377356 4.783929492585056 2 2 -4
697 1 2 -1.1794 8.66006814239606 8.371720606304882 3.2982356577952103 -1 3 -1
154 1 2 -1.1794 5.771110402926473 9.089276141221255 2.524798169213672 1 2 -2
698 1 1 0.5897 8.24801828475519 7.559287929083829 3.592163778026605 -1 3 -1
664 1 2 -1.1794 6.694981419718885 6.840996121946295 0.9258936039882933 -2 4 -1
155 1 1 0.5897 6.3010105692890646 8.50258449240976 1.9851532156802274 1 2 -2
156 1 1 0.5897 6.353663126823511 9.351228869297675 3.237702187581916 1 2 -2
368 1 1 0.5897 7.2701597109971035 11.099606854366634 4.81863544667637 2 2 -4
369 1 1 0.5897 6.109687622267726 10.682297820387681 5.696726974882619 2 2 -5
65 1 1 0.5897 7.9899570383974625 7.19889661607591 6.384589110675852 3 -1 -1
135 1 1 0.5897 5.495770041646112 9.909646398368231 7.94110979603252 -1 -6 -2
78 1 1 0.5897 6.575851450855023 10.972393578299064 11.088189903165876 -10 0 -8
645 1 1 0.5897 6.57873895574058 8.961638501180406 9.622904250162884 -1 -2 -2
66 1 1 0.5897 7.589790586779103 7.794570489842183 7.717598354529685 3 -1 -1
643 1 2 -1.1794 6.446944502895245 8.523306180227706 8.782246341047946 -1 -2 -2
64 1 2 -1.1794 8.351957128426639 7.614270457533029 7.167315679833164 3 -1 -1
133 1 2 -1.1794 5.258018800014622 10.64083572662049 7.37098316900484 -1 -6 -2
644 1 1 0.5897 5.643733351463082 8.016023304269227 8.899422054522795 -1 -2 -2
272 1 1 0.5897 8.320019376778788 10.147719000344722 10.522692194665506 0 3 1
134 1 1 0.5897 4.9423537783781955 11.318481601330708 7.968788983039067 -1 -6 -2
273 1 1 0.5897 8.87209340983648 11.318938452367693 9.738253590629094 0 3 1
77 1 1 0.5897 6.984017132852077 9.901335139961304 12.077171237887567 -10 0 -8
312 1 1 0.5897 7.555054362442929 9.398824734090429 14.684124910327927 -2 3 0
310 1 2 -1.1794 7.38932426196656 9.223066134069244 13.75792280471025 -2 3 0
193 1 2 -1.1794 5.0438515023556345 7.506448508248529 12.634892934973847 0 -4 3
76 1 2 -1.1794 6.730272208753742 10.030729128383332 11.163342558883446 -10 0 -8
311 1 1 0.5897 7.306345086149295 8.270926607023837 13.705437673909401 -2 3 0
194 1 1 0.5897 5.298299919994817 8.333258116858264 12.225198168826012 0 -4 3
515 1 1 0.5897 5.80789055820013 11.427150974074863 15.263558010049772 -2 -4 -1
514 1 2 -1.1794 5.904028915947341 11.793473254928845 14.384477495199969 -2 -4 -1
593 1 1 0.5897 6.715303071341635 6.833849088121833 11.676152420176402 5 1 -3
651 1 1 0.5897 6.853569580086686 7.891397812738634 18.986218749275256 -2 2 2
584 1 1 0.5897 7.784640608399298 11.295717561627828 19.009526518959085 2 -5 4
17 1 1 0.5897 7.888611191692357 9.921407861376936 17.007648172048142 -4 2 5
497 1 1 0.5897 8.506972813219035 10.383336288635489 20.759939799886016 -4 -1 1
650 1 1 0.5897 6.2640977449218855 8.4549558852684 17.710771605029603 -2 2 2
668 1 1 0.5897 5.512385528688341 9.206304865843066 19.6163820038258 -9 0 -1
496 1 2 -1.1794 7.838505879491711 11.068096890087757 20.78207150038596 -4 -1 1
16 1 2 -1.1794 7.694558102958693 9.145812892191913 16.481299317441625 -4 2 5
649 1 2 -1.1794 6.033085431662382 7.962545249227778 18.498413724975425 -2 2 2
583 1 2 -1.1794 7.537693377817545 11.316615707798048 18.0849504881716 2 -5 4
667 1 2 -1.1794 5.556109983545729 9.896463827402561 20.278185620386495 -9 0 0
498 1 1 0.5897 7.01149935974236 10.59989589981708 20.667666031209226 -4 -1 0
763 1 2 -1.1794 8.768247290235783 7.790450619753407 19.463070659416445 -1 3 0
306 1 1 0.5897 5.870571980095798 11.151571163849963 17.455319016045927 4 0 -7
18 1 1 0.5897 8.449797280269543 8.572328208806818 16.61150185232416 -4 2 5
304 1 2 -1.1794 5.085587734511613 10.952528814148723 16.94501396168399 4 0 -7
305 1 1 0.5897 5.271153970572536 10.105389901418306 16.539860822849775 4 0 -7
764 1 1 0.5897 8.878858666885918 6.839794911050581 19.480011236003982 -1 3 0
693 1 1 0.5897 6.2638478056740645 12.738870483146364 5.032103054169641 1 -4 0
575 1 1 0.5897 6.812649620846707 16.31530786542185 2.0938545285472827 3 -1 -3
574 1 2 -1.1794 6.460028410565977 16.457725405107116 1.2154516033069664 3 -1 -3
691 1 2 -1.1794 5.993532343799557 13.600395478840241 5.349782434411476 1 -4 0
599 1 1 0.5897 7.978329830111704 12.374694016426705 1.552730528264764 1 -5 -5
472 1 2 -1.1794 6.992576289093438 15.90479640564069 3.7965858292538437 1 -1 0
141 1 1 0.5897 5.8461865297213835 13.465351280324759 2.2988579788195045 1 -1 2
474 1 1 0.5897 6.61177218772913 15.113562080602762 4.177570439501462 1 -1 0
473 1 1 0.5897 7.914462749349492 15.87466655705131 4.052539527486463 1 -1 0
600 1 1 0.5897 8.326670126845134 12.134455286938591 3.0062707767321877 1 -5 -5
598 1 2 -1.1794 7.734068936639589 12.631104713167028 2.442014213185539 1 -5 -5
692 1 1 0.5897 5.06623699342198 13.66072761941326 5.120208281980575 1 -4 0
576 1 1 0.5897 6.861920399626602 15.77245534274372 0.681502369143891 3 -1 -3
139 1 2 -1.1794 4.9066712429577075 13.555748545170777 2.1396451475938845 1 -1 2
552 1 1 0.5897 6.031541377230894 16.85843178472141 5.248466944122394 -6 5 -6
329 1 1 0.5897 6.809200533189049 13.600591381831208 10.93167544230941 6 8 -3
60 1 1 0.5897 8.243449651420292 13.385952134911784 7.640316331962291 4 -7 0
58 1 2 -1.1794 7.394522840929167 13.80968657158153 7.766811889549762 4 -7 0
59 1 1 0.5897 6.972612206897209 13.76262885429505 6.9089056362162875 4 -7 0
711 1 1 0.5897 6.124266016672184 15.438383374017347 8.513455975641097 -6 -5 0
297 1 1 0.5897 8.131519677483553 15.464208409007504 7.768027197923378 -8 5 3
295 1 2 -1.1794 8.45696070621205 16.36438960927158 7.760668040065358 -8 5 3
330 1 1 0.5897 7.035282327184528 13.026226781590681 9.549348546504458 6 8 -3
709 1 2 -1.1794 5.237504023807462 15.771445583818062 8.375823158711984 -6 -5 0
328 1 2 -1.1794 6.962376262588422 12.7759937680691 10.470370974680824 6 8 -3
296 1 1 0.5897 8.071138267536615 16.76538601413363 8.539489789864188 -8 5 3
710 1 1 0.5897 5.29511995330803 16.280442701907955 7.567216621703027 -6 -5 0
387 1 1 0.5897 7.313654129910215 16.747447872097567 10.449579694335545 -7 2 2
596 1 1 0.5897 9.0340487793807 12.157407492188899 14.520362611742353 1 -4 2
212 1 1 0.5897 6.020641361026171 15.841778098761946 16.065784382673634 5 0 3
516 1 1 0.5897 5.554305353691937 12.681685562388742 14.455048910682823 -2 -4 -1
597 1 1 0.5897 7.591280774548639 12.473663172020878 14.18831342484651 0 -4 2
554 1 1 0.5897 8.10537311073715 13.475107342217678 15.855910950447058 -5 -9 1
33 1 1 0.5897 7.670412155873553 15.601672191072078 12.324227069093666 3 6 -2
22 1 2 -1.1794 8.657408341111127 15.883741481882684 13.763785505447796 -8 4 4
595 1 2 -1.1794 8.468869805988572 12.855827237934411 14.190206679582799 0 -4 2
213 1 1 0.5897 7.214847446154688 16.169269175534655 15.194888428164525 5 0 3
31 1 2 -1.1794 7.010050761515271 15.440566666811627 11.650268237061024 3 6 -2
32 1 1 0.5897 6.177261987851918 15.455177730030517 12.12196855723961 3 6 -2
211 1 2 -1.1794 6.70699543071929 16.49648287847949 15.937335571322103 5 0 3
274 1 2 -1.1794 5.111087039325536 14.344428133748728 13.684063563484722 1 4 -2
461 1 1 0.5897 8.912091379726995 13.474902599264501 11.674668721955564 2 9 -3
348 1 1 0.5897 5.29495355877862 11.924393908543028 20.165909903235903 -6 3 -2
25 1 2 -1.1794 7.529234810497588 14.410856394505826 20.58779812906661 -4 6 4
809 1 1 0.5897 5.941444785984506 13.724415676384453 16.9291041745914 -1 -1 -1
808 1 2 -1.1794 5.089218777738208 14.13343992811695 16.778689265316252 -1 -1 -1
26 1 1 0.5897 7.561991068665105 14.962881818469464 19.80651097921019 -4 6 4
346 1 2 -1.1794 5.178171894080936 12.862739690291694 20.314531547551642 -6 3 -2
27 1 1 0.5897 6.748853782941413 13.869934124903375 20.46690273045245 -4 6 4
553 1 2 -1.1794 7.843325400915033 13.733866647882573 16.739420166709998 -5 -9 1
555 1 1 0.5897 8.667537635209863 13.91814575437897 17.18989770189761 -5 -9 1
821 1 1 0.5897 7.625638728054052 16.324356284726747 17.6531487451423 4 7 6
820 1 2 -1.1794 7.640983033386336 16.29477590525085 18.609763791895773 4 7 6
585 1 1 0.5897 7.71944603798242 12.214749584812743 17.80828646496755 2 -5 4
347 1 1 0.5897 4.945336373950329 12.931907491304422 21.240404511627688 -6 3 -2