LAMMPS (30 Jul 2021)
  using 1 OpenMP thread(s) per MPI task
package omp 0
using multi-threaded neighbor list subroutines
echo both

include		in.partitions
variable        pid world 0
include		in.temp
variable        temperature equal 248.67
variable	tempDamp equal 100.0
include		in.pressure
variable        pressure equal 4500.0
variable        pressureDamp equal 1000.0 # This is 1 ps
include		in.seed
variable        seed world 745823

units		real
atom_style	full
read_restart	restart.lmp.${pid}
read_restart	restart.lmp.0
Reading restart file ...
  restart file = 30 Jul 2021, LAMMPS = 30 Jul 2021
  restoring atom style full from restart
  orthogonal box = (0.46330829 1.6372472 0.56523503) to (17.744264 21.991931 21.647961)
  4 by 4 by 4 MPI processor grid
  restoring pair style lj/cut/tip4p/long/omp from restart
  restoring bond style harmonic/omp from restart
  restoring angle style harmonic/omp from restart
  864 atoms
  576 bonds
  288 angles
Finding 1-2 1-3 1-4 neighbors ...
  special bond factors lj:    0        0        0       
  special bond factors coul:  0        0        0       
     2 = max # of 1-2 neighbors
     1 = max # of 1-3 neighbors
     1 = max # of 1-4 neighbors
     2 = max # of special neighbors
  special bonds CPU = 0.136 seconds
  read_restart CPU = 0.318 seconds
include 	in.setup
variable	out_freq equal 1000
variable	out_freq2 equal 10000
variable	out_freq3 equal 1000

timestep	2.0

neigh_modify    delay 7 every 1

include		in.tip4p
# This is TIP4P/Ice

# create groups ###
group ox type 2
288 atoms in group ox
group hy type 1
576 atoms in group hy

# set charges - beside manually ###
set group ox charge -1.1794
Setting atom values ...
  288 settings made for charge
set group hy charge 0.5897
Setting atom values ...
  576 settings made for charge

# ### TIP3P Potential Parameters ###
pair_style lj/cut/tip4p/long/omp 2 1 1 1 0.1577 8.5
pair_coeff 1 1*2 0.000 0.000
pair_coeff 2 2 0.21084 3.1668
bond_style  harmonic
bond_coeff  1 450 0.9572
angle_style harmonic
angle_coeff 1 55 104.52
kspace_style pppm/tip4p/omp 1.0e-5
pair_modify tail yes

thermo          ${out_freq}
thermo          1000
thermo_style    custom step temp pe etotal epair emol press lx ly lz vol pxx pyy pzz pxy pxz pyz enthalpy

restart 	${out_freq3} restart.lmp.${pid} restart2.lmp.${pid}
restart 	1000 restart.lmp.${pid} restart2.lmp.${pid}
restart 	1000 restart.lmp.0 restart2.lmp.${pid}
restart 	1000 restart.lmp.0 restart2.lmp.0


include         in.dump
dump            myDump all atom ${out_freq2} dump.water.${pid}
dump            myDump all atom 10000 dump.water.${pid}
dump            myDump all atom 10000 dump.water.0
dump            myDump2 all dcd ${out_freq2} dump.dcd
dump            myDump2 all dcd 10000 dump.dcd
dump_modify     myDump append yes
dump_modify     myDump2 append yes


variable natoms 	equal  "count(all)"                        # NUMBER ATOMS
variable H      	equal  "enthalpy/v_natoms"                 # ENTHALPY-per-atom
variable Vol      	equal  "vol/v_natoms"                 # volume-per-atom
fix AVG all 		ave/time ${out_freq} 1 ${out_freq} v_Vol v_H file vol_enthalpy.dat
fix AVG all 		ave/time 1000 1 ${out_freq} v_Vol v_H file vol_enthalpy.dat
fix AVG all 		ave/time 1000 1 1000 v_Vol v_H file vol_enthalpy.dat


timer           timeout 23:50:00 every 1000
New timer settings: style=normal  mode=nosync  timeout=23:50:00

fix 		1 all shake 1e-6 200 0 b 1 a 1
       0 = # of size 2 clusters
       0 = # of size 3 clusters
       0 = # of size 4 clusters
     288 = # of frozen angles
  find clusters CPU = 0.019 seconds
fix             2 all nph iso ${pressure} ${pressure} ${pressureDamp}
fix             2 all nph iso 4500 ${pressure} ${pressureDamp}
fix             2 all nph iso 4500 4500 ${pressureDamp}
fix             2 all nph iso 4500 4500 1000
fix             3 all temp/csvr ${temperature} ${temperature} ${tempDamp} ${seed}
fix             3 all temp/csvr 248.67 ${temperature} ${tempDamp} ${seed}
fix             3 all temp/csvr 248.67 248.67 ${tempDamp} ${seed}
fix             3 all temp/csvr 248.67 248.67 100 ${seed}
fix             3 all temp/csvr 248.67 248.67 100 745823

run             250000
PPPM initialization ...
  extracting TIP4P info from pair style
  using 12-bit tables for long-range coulomb (../kspace.cpp:340)
  G vector (1/distance) = 0.37435019
  grid = 24 24 25
  stencil order = 5
  estimated absolute RMS force accuracy = 0.0030620742
  estimated relative force accuracy = 9.2213455e-06
  using double precision FFTW3
  3d grid and FFT values/proc = 2730 288
Last active /omp style is kspace_style pppm/tip4p/omp
Neighbor list info ...
  update every 1 steps, delay 7 steps, check yes
  max neighbors/atom: 2000, page size: 100000
  master list distance cutoff = 10.8154
  ghost atom cutoff = 10.8154
  binsize = 5.4077, bins = 4 4 4
  1 neighbor lists, perpetual/occasional/extra = 1 0 0
  (1) pair lj/cut/tip4p/long/omp, perpetual
      attributes: half, newton on, omp
      pair build: half/bin/newton/omp
      stencil: half/bin/3d
      bin: standard
Per MPI rank memory allocation (min/avg/max) = 9.239 | 9.243 | 9.249 Mbytes
Step Temp PotEng TotEng E_pair E_mol Press Lx Ly Lz Volume Pxx Pyy Pzz Pxy Pxz Pyz Enthalpy 
14250000    261.37043   -3884.8715   -3436.8915   -3884.8715            0     4946.419    17.280956    20.354683    21.082726    7415.8147    6255.0261    3564.5208    5019.7101   -925.61361    1701.9461    -959.1756   -2901.9261 
14251000    259.12925   -3908.4349   -3464.2963   -3908.4349            0    4635.5522    17.360224     20.44805    21.179432    7518.3326    5654.8581    5922.2396    2329.5589    -338.6415    884.64746    22.619249   -2956.0211 
14252000    256.93102   -3933.2736   -3492.9026   -3933.2736            0    3333.4903    17.344834    20.429923    21.160657    7498.3556     2080.007    2992.1171    4928.3468    1001.9981    1143.6706     112.9524    -3128.366 
14253000    251.83166   -3907.0278    -3475.397   -3907.0278            0    4171.6188    17.326354    20.408157    21.138112     7474.414    5103.4182      5874.14    1537.2983   -981.41517    291.74483    354.74993   -3020.6627 
14254000    236.56852   -3940.4154    -3534.945   -3940.4154            0    3629.2985    17.292038    20.367737    21.096246    7430.0911    2658.2957    4103.6016    4125.9983   -439.46945    647.29652    465.76101   -3141.6733 
14255000    250.85312   -3915.3086    -3485.355   -3915.3086            0    2065.4276    17.396984     20.49135     21.22428    7566.1946    1590.1696    3217.8804     1388.233    1396.2034    -502.4293    370.83581    -3257.445 
14256000    249.29022   -3901.0523   -3473.7773   -3901.0523            0    4100.3437    17.306071    20.384266    21.113367    7448.1952    4966.8698    4105.0013    3229.1598    1214.4467   -881.33776     422.8465   -3028.3804 
14257000    248.26996   -3913.9427   -3488.4165   -3913.9427            0    4892.7899    17.306486    20.384754    21.113872    7448.7307    4919.0424    4860.7209    4898.6064    21.630066    629.43589   -485.95888   -2956.9025 
14258000    252.07824   -3917.1219   -3485.0684   -3917.1219            0    2689.7572    17.357841    20.445244    21.176525    7515.2371    1239.1716    4183.8791    2646.2209    1266.1852   -1514.2468    676.91468   -3190.2656 
14259000    252.05252   -3907.1082   -3475.0989   -3907.1082            0    4805.4911    17.318267    20.398631    21.128245    7463.9523    4907.0222    4714.6675    4794.7836    1448.5138    334.91956    1094.8625   -2952.0015 
14260000    244.04443   -3884.3138     -3466.03   -3884.3138            0    4490.7457    17.289588    20.364851    21.093257    7426.9337     5053.342    2687.3408    5731.5543    701.02054    487.31906   -756.89628   -2979.6185 
14261000    247.14534   -3902.8033   -3479.2046   -3902.8033            0     7477.351     17.21522    20.277256    21.002528    7331.5085    9964.9778    5561.9068    6905.1684   -544.82744    699.90445    449.56448   -2679.7074 
14262000    274.05237   -3892.1258   -3422.4094   -3892.1258            0    4436.0198    17.330999    20.413627    21.143778    7480.4265    4405.5384     4966.217    3936.3041    1278.8961   -520.64012   -28.827607   -2938.4647 
14263000    260.65077   -3858.0471   -3411.3006   -3858.0471            0    6351.5041    17.238196    20.304318    21.030559    7360.9019    5429.9037    6409.8974    7214.7111    -55.08903     325.0123   -1078.2689   -2729.4589 
14264000    234.72475   -3898.1849   -3495.8747   -3898.1849            0    3849.8452     17.34496    20.430071     21.16081    7498.5184    3123.7613    3011.8561    5413.9182   -1373.9292    924.74077    800.60145   -3074.8626 
14265000    251.01987   -3912.4012   -3482.1617   -3912.4012            0    2045.2817    17.419384    20.517733    21.251608    7595.4578    1903.2354    368.67168    3863.9382   -206.38374    1113.5442   -983.73754   -3255.6018 
14266000    252.07876   -3913.7564    -3481.702   -3913.7564            0    4198.9489    17.290206    20.365579    21.094011    7427.7301    3659.4418    3796.4554    5140.9496   -776.41732    230.99715    99.951031   -3026.8474 
14267000    248.37702   -3894.1944   -3468.4847   -3894.1944            0    4910.3541    17.328441    20.410615    21.140657     7477.115    2953.6318    7184.0599    4593.3706    202.97004   -760.26172   -961.41805   -2933.0299 
14268000    237.06025   -3919.3663   -3513.0531   -3919.3663            0    2369.3418    17.426439    20.526044    21.260215    7604.6907    1257.3567    2667.5089    3183.1597   -419.49054    89.394786    403.56121   -3250.2774 
14269000    246.00355   -3914.1126   -3492.4709   -3914.1126            0    4421.3342    17.328772    20.411005    21.141062    7477.5442    1673.5049     6055.293    5535.2048   -597.64063   -508.05171   -82.179214   -3010.3142 
14270000    253.28898   -3945.9622   -3511.8335   -3945.9622            0    4246.9849    17.365379    20.454123    21.185722     7525.033    4078.2303    3632.6474    5030.0771    7.8719261    -726.2744   -486.69272   -3045.7486 
14271000    239.63794   -3915.5219   -3504.7907   -3915.5219            0    4151.2799    17.346682      20.4321    21.162911    7500.7523     3542.972    4184.8677         4726   -537.64178   -166.75478   -1269.6617    -3050.679 
14272000    253.90181   -3919.1201   -3483.9411   -3919.1201            0    3586.5137    17.366801    20.455797    21.187457    7526.8813    3607.0733    4329.0694    2823.3983    971.32731    771.53687    953.51082   -3090.2429 
14273000    234.95641    -3928.809   -3526.1017    -3928.809            0    2823.8542    17.335244    20.418628    21.148957    7485.9248    3481.3311     2557.708    2432.5234    1547.4569    317.96288      565.908   -3217.8087 
14274000    269.89103   -3898.2142   -3435.6302   -3898.2142            0    7141.9231    17.281842    20.355727    21.083806    7416.9551    7391.7279    7055.9879    6978.0536    1094.5263    -259.9031    -526.3844   -2663.0978 
14275000    250.09292   -3896.6324   -3467.9817   -3896.6324            0    3157.6295    17.363652    20.452088    21.183615    7522.7874    5083.1133    2736.8481    1652.9272    133.09382    14.074841    -787.6452   -3121.5514 
14276000    253.03903   -3879.9581   -3446.2578   -3879.9581            0    2519.8552    17.426339    20.525926    21.260093    7604.5598    3272.1168    2942.2684    1345.1804    71.744798    40.668533   -340.81873    -3166.794 
14277000    267.44207   -3918.0061   -3459.6196   -3918.0061            0    5045.7736    17.349946    20.435945    21.166894    7504.9878    4791.3019    5507.1429    4838.8761    1048.2581   -765.77168    378.44893   -2907.3468 
14278000     247.5594   -3928.0151   -3503.7068   -3928.0151            0    3282.3029    17.322151    20.403206    21.132983    7468.9755    3711.6392    3673.8058    2461.4637   -720.92911   -719.22411    956.81616   -3146.1743 
14279000    238.53318   -3937.4655   -3528.6278   -3937.4655            0    5032.8699    17.224482    20.288165    21.013828    7343.3485    6026.2522    3946.2956    5126.0617    291.74984    290.25945   -292.91659   -2989.6316 
14280000    260.28847   -3915.5375    -3469.412   -3915.5375            0    4600.2584     17.35719    20.444477    21.175731    7514.3915    5008.2092     5645.279    3147.2871    264.11061    851.11234   -143.32208   -2965.2711 
14281000    259.64456   -3909.5328    -3464.511   -3909.5328            0    2547.7199    17.372682    20.462725    21.194632    7534.5307    2410.9967    3496.9307    1735.2322    235.93654    271.13852    -400.4381   -3184.5588 
14282000    245.24577   -3896.2383   -3475.8954   -3896.2383            0    3696.3265     17.28186    20.355748    21.083829    7416.9785     3035.242    4649.3632    3404.3743   -561.75325    1040.2265   -141.22075   -3076.0674 
14283000    248.21072   -3917.3802   -3491.9555   -3917.3802            0    4118.9498    17.248017    20.315886    21.042541    7373.4904    4461.8935    4608.9732    3285.9826   -17.140962    1706.6327    438.40377   -3049.0251 
14284000    242.45168   -3959.8919   -3544.3381   -3959.8919            0    3158.3937    17.232807     20.29797    21.023984    7354.0006    3552.5114    3446.0722    2476.5977    -1095.687   -388.64464   -649.24635   -3205.5986 
14285000    250.77218   -3952.7624   -3522.9475   -3952.7624            0    6297.4525    17.157335    20.209074    20.931909    7257.8016     6043.699    7219.0745    5629.5839   -811.55684   -531.37409    531.54507   -2856.3773 
14286000    244.24861   -3942.8157    -3524.182   -3942.8157            0    5126.6066    17.242017    20.308818     21.03522    7365.7978    4964.2973    4224.5582    6190.9644   -478.41889   -561.69245    769.42171   -2973.4685 
14287000    243.33539    -3910.532   -3493.4635    -3910.532            0    3579.8552    17.248328    20.316253     21.04292    7373.8895    4529.3938    3316.6753    2893.4966   -45.727217    5.9774223   -1008.0749   -3108.4837 
14288000    252.88282   -3933.3986   -3499.9661   -3933.3986            0    5500.3295    17.277999      20.3512    21.079118    7412.0086    3930.0981    7541.3012    5029.5893    574.12299   -1815.3707    427.39153   -2905.3995 
14289000    249.80431   -3946.5193   -3518.3633   -3946.5193            0    6480.8074    17.262822    20.333324    21.060603    7392.4941    7087.0229    5659.5945    6695.8047   -275.32142   -543.62935   -1361.8542   -2819.6549 
14290000    250.60695   -3938.6567   -3509.1249   -3938.6567            0    3407.4797    17.315736    20.395649    21.125157    7460.6802    3189.0436    4227.9041    2805.4914   -231.85434    -860.0694   -154.86063   -3138.3694 
14291000    246.79258   -3918.8184   -3495.8244   -3918.8184            0    4012.5547    17.320159    20.400859    21.130553    7466.3992    1906.9192    5105.1356    5025.6092   -974.66695   -114.42778    226.40984   -3058.8982 
14292000    247.93304   -3915.2862   -3490.3375   -3915.2862            0    4325.0468    17.349422    20.435327    21.166254    7504.3071    6183.0879    2660.7659    4131.2866   -279.93673    576.12929   -355.87619    -3016.993 
14293000    254.75863   -3910.9771   -3474.3295   -3910.9771            0    4179.0391    17.323566    20.404873     21.13471    7470.8067    4084.9559    3862.0116    4590.1499    89.044047   -689.60426   -269.72744   -3019.0063 
14294000    254.26606   -3927.1769   -3491.3736   -3927.1769            0    4969.6473    17.349934    20.435931    21.166879    7504.9721    5210.4262    6396.6248     3301.891    623.66777   -722.28816    958.86049   -2947.4342 
14295000    233.71881   -3945.4631    -3544.877   -3945.4631            0    2327.5055    17.363423    20.451819    21.183336    7522.4902    1460.0321    1386.0704    4136.4142    846.33924    472.59205     151.2709   -3289.5315 
14296000    261.76655   -3933.9868   -3485.3279   -3933.9868            0    5184.1751    17.319454    20.400029    21.129693    7465.4875    5212.4296    5231.5277     5108.568    322.09103    1362.2534     409.8323   -2920.8931 
14297000    241.53795   -3928.2302   -3514.2424   -3928.2302            0    4816.2097    17.298544      20.3754    21.104184    7438.4811    4754.5257    3542.1029    6152.0005    903.32412   -1321.0716    952.26574   -2991.7674 
14298000    247.99363   -3931.4281   -3506.3755   -3931.4281            0     5657.216    17.293914    20.369946    21.098534    7432.5092    5862.8012    6056.7398     5052.107   -842.87487    54.749222    276.15726   -2893.1586 
14299000    257.54006   -3928.3077   -3486.8929   -3928.3077            0    4374.2106    17.353225    20.439807    21.170894    7509.2437    3831.2446    4938.3982    4352.9892    331.78357     -934.625    1357.7031   -3007.8529 
14300000    247.97103   -3940.8717   -3515.8578   -3940.8717            0    5641.5451    17.335662     20.41912    21.149467    7486.4666    6082.8029    6474.3384    4367.4939    757.40693    256.95956    1754.9892   -2899.9002 
14301000    250.77598   -3908.0093   -3478.1879   -3908.0093            0    2892.4228    17.424519    20.523782    21.257873    7602.1773      1323.02    3691.6686    3662.5797    126.61802   -1202.2451    350.75219   -3157.5051 
14302000    239.41625   -3919.7002    -3509.349   -3919.7002            0    5243.1498    17.363966    20.452459    21.183998    7523.1962    5336.5878    3710.9729    6681.8888   -391.31261   -1514.4934   -1486.7731   -2934.0805 
14303000    246.64547   -3946.4075   -3523.6656   -3946.4075            0    5111.7527    17.314721    20.394455     21.12392    7459.3692    5575.8221    3293.3018    6466.1342   -114.43246    67.393191   -1195.1593   -2967.5721 
14304000    248.40569   -3894.0664   -3468.3075   -3894.0664            0    3794.3532    17.373812    20.464056     21.19601    7536.0013    4000.5967      3747.33    3635.1328   -1318.2504   -638.00764   -1098.7943   -3051.2897 
14305000    237.55947   -3903.6732   -3496.5044   -3903.6732            0    5385.2229    17.299606    20.376651    21.105479    7439.8505    5903.0306    4353.5548    5899.0833   -1751.2439    392.71277    250.87934   -2912.1938 
14306000    262.64579    -3907.379   -3457.2131    -3907.379            0    2979.4398    17.339489    20.423627    21.154136     7491.425    4177.9769    1887.1119    2873.2306   -1511.0539    1380.6438    762.59136   -3131.6952 
14307000    252.86029    -3941.193   -3507.7991    -3941.193            0    3149.7313    17.433778    20.534688    21.269169    7614.3029    4753.2492    3623.1741    1072.7706   -929.25437     101.3713   -371.93224   -3158.0316 
14308000    248.53114   -3930.0103   -3504.0364   -3930.0103            0    3305.6881    17.359681    20.447411     21.17877    7517.6278    3720.1439    4286.6864    1910.2341    115.79085   -168.15988    1251.2403    -3141.611 
14309000    247.62854   -3897.0602   -3472.6334   -3897.0602            0     5978.757    17.252838    20.321564    21.048422    7379.6742    6966.8943    6410.6422    4558.7346   -1774.1895    2016.6998    1359.8561   -2829.1698 
14310000    242.79613   -3926.4594   -3510.3152   -3926.4594            0    4216.5442    17.365154    20.453858    21.185448    7524.7408    4235.5789    3494.3132    4919.7406   -39.139924    671.64578     149.6766    -3047.589 
14311000    238.79588   -3898.4492   -3489.1613   -3898.4492            0    4571.4979    17.375547    20.466099    21.198126    7538.2583    4928.4484    4495.4639    4290.5814    414.68666    893.29139   -99.460173    -2986.581 
14312000    251.86775   -3890.7308   -3459.0381   -3890.7308            0    4911.2608    17.297129    20.373733    21.102457    7436.6554    5059.0863     4191.164    5483.5322     174.9436    -643.4038   -1451.9273   -2926.3825 
14313000    260.62693   -3884.1919   -3437.4863   -3884.1919            0    2895.5501    17.266318    20.337441    21.064867    7396.9855    1655.3212    2944.6893    4086.6397    269.53895    1292.9952   -1183.7434   -3125.1217 
14314000    240.57173   -3872.9973   -3460.6656   -3872.9973            0    4197.8571    17.212163    20.273655    20.998799    7327.6036    2601.2545     4103.982    5888.3349   -1383.8666   -556.69196    304.48142   -3012.0592 
14315000    231.31017   -3872.1177     -3475.66   -3872.1177            0     6753.354    17.170005    20.223998    20.947366    7273.8924    7179.4725    6118.5205    6962.0691    511.39127    243.40444   -331.59277   -2759.2489 
14316000    246.82127   -3877.3701   -3454.3269   -3877.3701            0    4644.7566      17.2986    20.375466    21.104251    7438.5526    4940.9246    3174.9242    5818.4209   -550.78177   -1660.0589   -174.17995   -2950.4467 
14317000    237.70913   -3908.9166   -3501.4913   -3908.9166            0    5049.9347    17.267459    20.338785    21.066259    7398.4521    5166.3112    5089.7117    4893.7812   -1536.0821    -799.4683    684.62672   -2956.6093 
14318000    262.56372   -3947.6262   -3497.6009   -3947.6262            0    5126.3547    17.312989    20.392414    21.121806    7457.1307    5181.7463    6289.3268    3907.9909    542.88793   -578.95207   -1173.2047   -2940.0863 
14319000    240.38911   -3938.4623   -3526.4436   -3938.4623            0    6006.3769    17.247052    20.314749    21.041363    7372.2522    6028.2545    6038.5368    5952.3394    -680.3745   -1683.2827    14.134282   -2880.6576 
14320000    231.22757    -3899.688   -3503.3718    -3899.688            0    5048.6882    17.311133    20.390228    21.119542    7454.7325    4853.8369     4747.379    5544.8487    301.57293    359.93674   -597.75609   -2954.4803 
14321000     245.7506   -3926.1347   -3504.9266   -3926.1347            0    3279.3063    17.347813    20.433432    21.164291    7502.2194      2517.25    4039.4373    3281.2315   -1057.9661   -1829.9317    91.220958   -3146.1306 
14322000     270.9749   -3903.1371   -3438.6954   -3903.1371            0    4935.3417    17.327424    20.409416    21.139416    7475.7981    4785.3999     5573.711    4446.9141   -1560.7295   -1135.9543   -587.01471   -2900.6107 
14323000     242.7169    -3957.385   -3541.3765    -3957.385            0    3822.9387    17.337312    20.421064    21.151481    7488.6048    3585.1907    4087.1487    3796.4768   -219.18857    1408.8268   -409.80889   -3123.8596 
14324000    255.17207   -3949.8098   -3512.4536   -3949.8098            0    4848.1356    17.319431    20.400002    21.129665    7465.4575    4595.6482    6808.0156    3140.7431   -1045.1886    126.11693    156.87516   -2984.6078 
14325000    244.73849   -3934.0518   -3514.5784   -3934.0518            0    4812.7016    17.279745    20.353257    21.081249    7414.2561    4781.3666    5100.4396    4556.2987   -723.65721    485.92738   -162.76844   -2994.1842 
14326000    248.45813   -3940.2903   -3514.4416   -3940.2903            0    4823.4522    17.299333    20.376329    21.105146    7439.4987    4306.7441    4359.2057    5804.4068    252.83545    233.80175   -1040.3431   -2991.1093 
14327000    236.42325   -3922.3678   -3517.1464   -3922.3678            0    4834.0186    17.278893    20.352253    21.080209     7413.159    5871.2344    2565.3845    6065.4368   -383.85366   -275.46654   -30.509365   -2994.5246 
14328000    250.94698   -3906.0812   -3475.9667   -3906.0812            0    2533.1491    17.410339     20.50708    21.240573    7583.6323     2165.168    3139.4078    2294.8713   -114.90259   -540.85428    842.46318   -3195.8016 
14329000    252.93048   -3947.8164   -3514.3022   -3947.8164            0    7224.5937    17.291107     20.36664     21.09511    7428.8904    7565.5966    7531.5564    6576.6281   -426.50188   -1244.2531    163.64979   -2731.5699 
14330000    256.36003   -3892.4875   -3453.0952   -3892.4875            0    3840.7779    17.382388    20.474157    21.206472    7547.1657    4398.6661    3878.1325    3245.5352    724.73292   -1360.3239   -1928.5594   -3030.3497 
14331000     250.9227   -3906.1196   -3476.0467   -3906.1196            0    5299.5672    17.342526    20.427204    21.157841    7495.3622    6351.4986    5072.2304    4474.9724    -391.5528     425.4049    1373.2512   -2896.7395 
14332000     244.7218   -3921.8487   -3502.4039   -3921.8487            0    8019.7421    17.237499    20.303497    21.029709    7360.0091    8523.9352    7449.7128    8085.5784   -535.64277   -388.29531    492.63966   -2641.5793 
14333000    248.77183   -3922.9501   -3496.5637   -3922.9501            0    3928.9156    17.367549    20.456678    21.188369    7527.8535     4018.308    4894.4513    2873.9873    1096.0752   -1314.5884    1109.6963   -3065.2237 
14334000     264.8889   -3884.4674   -3430.4569   -3884.4674            0    5397.6188    17.313144    20.392596    21.121995    7457.3303    5943.4822    4241.9472    6007.4271     1255.855   -317.65136    438.72075   -2843.4253 
14335000    246.65901   -3895.2775   -3472.5124   -3895.2775            0     4619.163    17.325043    20.406612    21.136512    7472.7169    3863.1401    4919.7811    5074.5679    492.15948    209.79235    -1760.391   -2969.1072 
14336000    259.66279   -3932.7128   -3487.6597   -3932.7128            0    3349.9284    17.348215    20.433906    21.164782    7502.7418    3384.5655    3471.1377    3194.0821    1076.4061   -656.05167    -54.56232   -3121.1112 
14337000    250.11033   -3911.2587   -3482.5782   -3911.2587            0    5143.0231    17.275027    20.347699    21.075492     7408.184     7177.855    3642.1319    4609.0822    39.726458   -96.003004    681.76618    -2926.922 
14338000    254.89442   -3864.6629   -3427.7826   -3864.6629            0    4281.3232    17.272809    20.345088    21.072787     7405.332    3482.5967    4363.4614    4997.9116    1093.8832   -21.715283   -583.30068   -2965.4032 
14339000    244.46927   -3914.9859    -3495.974   -3914.9859            0    4292.0359    17.315708    20.395617    21.125123    7460.6445     4129.046    4896.6418    3850.4198    92.064201     -524.258    588.38243   -3028.9754 
14340000    254.62049   -3926.1581   -3489.7473   -3926.1581            0    4799.9446    17.349321    20.435209    21.166131    7504.1766    4061.7693    5737.8915    4600.1729   -1257.1046   -262.26793   -889.76581   -2964.4379 
14341000    246.46353    -3955.355    -3532.925    -3955.355            0    4995.7209     17.32785    20.409918    21.139936    7476.3496    5316.5588    5601.7969    4068.8069   -1114.2899    1368.7036    261.13489   -2988.2171 
14342000    248.73917   -3904.6935    -3478.363   -3904.6935            0    3620.2258    17.315564    20.395447    21.124948    7460.4583    3103.4466    6394.4537    1362.7772    1710.1379    581.30356   -375.48041   -3084.4711 
14343000    243.00734    -3931.596   -3515.0897    -3931.596            0    4845.2761    17.166749    20.220163    20.943394    7269.7553    5866.2187     5175.075    3494.5346    3.8808868   -1806.2903   -1956.4244   -3001.3842 
14344000    240.13698   -3920.4292   -3508.8427   -3920.4292            0    5570.7895    17.180621    20.236502    20.960317     7287.392    4410.9962    7108.3667    5193.0055    345.04693    954.84441   -116.19533    -2916.784 
14345000    242.89517   -3942.6256   -3526.3116   -3942.6256            0    4721.6083    17.250532    20.318848    21.045609    7376.7163    3286.3867    5549.4009    5329.0375     693.7379   -1167.5247   -850.07814   -3018.3522 
14346000    257.13412   -3922.1123   -3481.3932   -3922.1123            0    4971.3049    17.283771    20.357999     21.08616    7419.4391    3033.6447    6018.9353    5861.3347    250.64169   -465.33275    589.96957   -2943.4736 
14347000     253.3719   -3931.1832   -3496.9125   -3931.1832            0    5066.9691    17.239645    20.306025    21.032327    7362.7585    7021.3367    4295.3495     3884.221    146.15016   -718.50322   -928.37426     -2952.83 
14348000    249.91903   -3937.2434   -3508.8907   -3937.2434            0    4563.6646    17.205278    20.265545    20.990399    7318.8133    2747.9321    6683.0045    4260.0572    1188.9651   -586.33303   -810.34907   -3021.7771 
14349000    243.91254   -3890.9772   -3472.9195   -3890.9772            0    3602.3639    17.243088     20.31008    21.036527    7367.1706    3494.6302    3539.9638    3772.4978    140.70657   -834.22961   -1373.7205    -3085.872 
14350000     249.7201   -3907.2236   -3479.2119   -3907.2236            0    5145.5113    17.219492    20.282287     21.00774    7336.9676    5483.6577    5586.3178    4366.5583    673.97559    552.99867    -141.7535   -2928.6311 
14351000    234.05734    -3909.234   -3508.0677    -3909.234            0    4454.4526    17.321695    20.402668    21.132427    7468.3853    5290.8947    3381.3528    4691.1103   -540.90723   -644.94782    1591.5162   -3022.8944 
14352000    253.31498   -3881.0237   -3446.8505   -3881.0237            0    5139.9984    17.240702    20.307269    21.033616    7364.1122    3552.5527    6165.9581    5701.4844    31.438199    359.47994    818.27629   -2894.8248 
14353000    243.14548   -3890.1693   -3473.4263   -3890.1693            0    3337.5159    17.392767    20.486382    21.219135    7560.6937    3420.8003    3221.1299    3370.6175    943.54584   -1621.6346   -406.57468   -3105.4152 
14354000    243.98178   -3903.7075   -3485.5311   -3903.7075            0    4328.4466    17.313823    20.393397    21.122824    7458.2088     1768.434    3875.8002    7341.1056    663.97865    272.28864   -1632.8121   -3014.7246 
14355000     260.1377   -3924.1146   -3478.2474   -3924.1146            0    3733.3834    17.310043    20.388944    21.118212    7453.3243    4692.2087    2490.0346     4017.907    1101.7153    819.78921    627.06619   -3072.4321 
14356000    245.88443   -3929.5891   -3508.1516   -3929.5891            0    5078.3163    17.326425     20.40824    21.138198    7474.5062    5426.7005    4669.5329    5138.7154    431.82695   -1540.0959    738.12278   -2954.5745 
14357000    244.17269   -3920.2965   -3501.7929   -3920.2965            0    4365.0668    17.308133    20.386695    21.115882    7450.8578    3237.7564    5214.8772    4642.5669    352.61817    113.76858   -410.63915   -3027.4711 
14358000    236.41936   -3855.0511   -3449.8364   -3855.0511            0    2769.5779    17.370112    20.459697    21.191496     7531.187     351.5936     5777.645    2179.4953   -800.98104    85.533531   -1423.9121   -3145.6408 
14359000    255.73891   -3920.0271   -3481.6994   -3920.0271            0    3491.0249    17.283336    20.357487    21.085629     7418.879    3165.7821    3521.8556    3785.4371   -555.83329   -999.53907   -238.47273   -3103.9819 
14360000    247.45487   -3892.2111   -3468.0819   -3892.2111            0    6406.5207    17.192636    20.250654    20.974976    7302.6922    7024.4566     7456.141    4738.9644    124.05378   -323.12418   -13.227083   -2785.7729 
14361000    248.74918   -3901.8299   -3475.4823   -3901.8299            0    3483.0768    17.346909    20.432367    21.163188    7501.0464    2303.3224    4603.2122    3542.6958   -382.85446   -1124.3603    1108.4455   -3094.4509 
14362000    249.20238   -3927.9748   -3500.8505   -3927.9748            0     3292.474     17.34827     20.43397    21.164848    7502.8121    4879.5692    3501.5779    1496.2748    954.32834    468.54033    958.29941   -3140.5853 
14363000    252.06996    -3953.136   -3521.0967    -3953.136            0    4081.9108    17.273763    20.346212    21.073951     7406.559    4050.9705    4397.2254    3797.5364   -908.25819    1419.8216    971.16739   -3080.1807 
14364000    251.85732   -3894.3208    -3462.646   -3894.3208            0    5453.1811    17.330057    20.412518    21.142629    7479.2069    4555.3631    7007.3514    4796.8287    -1860.701    15.230801   -876.61802   -2867.8318 
14365000    258.17862   -3939.6251   -3497.1157   -3939.6251            0     2172.824    17.383093    20.474987    21.207333    7548.0842    3195.6711    1912.6317    1410.1693   -192.21504    222.53004   -697.35861   -3257.9289 
14366000     253.0841   -3969.4789   -3535.7015   -3969.4789            0    5790.7898     17.28841    20.363463    21.091819    7425.4148    6264.9111    5992.5122    5114.9459    281.72724   -825.35288    293.74097   -2908.6049 
14367000     239.8271   -3976.6506   -3565.5952   -3976.6506            0    5782.7729    17.281452    20.355268    21.083331    7416.4535    7787.2944    3959.1954    5601.8288   -474.71292    98.896324   -86.361431   -2940.1226 
14368000    241.49751   -3950.1409   -3536.2225   -3950.1409            0      3709.63    17.318606     20.39903    21.128658    7464.3906    4180.7496    4305.7628    2642.3775   -1180.7604   -235.78892   -978.36962   -3132.3904 
14369000    245.84121   -3915.4335   -3494.0701   -3915.4335            0    5223.6886     17.31455    20.394253    21.123711     7459.148    4190.6614    6094.0668    5386.3375     1344.109    713.23831    1076.7607   -2925.8163 
14370000    238.27241   -3914.1329   -3505.7422   -3914.1329            0    5941.8808    17.261821    20.332145    21.059382    7391.2083    7094.3938    4569.7511    6161.4974   -1177.0106   -1328.9236    2370.5042   -2865.2479 
14371000    246.73305   -3951.3252   -3528.4332   -3951.3252            0    4983.3821    17.292849    20.368692    21.097235    7431.1363    2573.7708    5532.5435     6843.832    140.16196    1234.0747    759.88032   -2988.3567 
14372000    256.53755   -3925.2169   -3485.5203   -3925.2169            0    5919.2543    17.306134     20.38434    21.113443    7448.2765    7068.2224    4548.7714    6140.7691    207.17753   -1111.6003   -2151.6262   -2842.5385 
14373000    226.99454   -3944.0514   -3554.9906   -3944.0514            0     3230.227    17.322395    20.403493    21.133281    7469.2911    3116.1692    3131.2419      3443.27   -142.80073   -1530.4412    281.95089   -3203.1156 
14374000    251.80602   -3948.2325   -3516.6456   -3948.2325            0    3691.4864    17.375073    20.465541    21.197549    7537.6425    4395.6134    2858.1588    3820.6871   -510.40351   -670.01662   -1051.3562    -3110.845 
14375000    265.70512     -3942.99   -3487.5805     -3942.99            0    5802.2133    17.292868    20.368714    21.097259     7431.161    5740.1298    5821.7499    5844.7602   -543.69699   -76.154966   -432.56232   -2858.7606 
14376000    254.50502    -3945.829   -3509.6161    -3945.829            0    6419.4956    17.272667     20.34492    21.072613    7405.1482    6025.8016    6519.5318    6713.1533   -395.35936   -1689.4711    1452.8471   -2816.3331 
14377000     261.8111   -3952.6405   -3503.9052   -3952.6405            0    5005.2179    17.295822    20.372194    21.100863    7434.9703    5370.9815    5423.7105    4220.9618    437.45396    1738.9592   -71.509577   -2961.1824 
14378000    248.47109   -3940.5446   -3514.6737   -3940.5446            0      3524.67    17.363402    20.451794     21.18331    7522.4629    2600.3609    3232.7402     4740.909   -629.07348    256.43924    -389.6724   -3127.9913 
14379000    272.26064   -3979.9669   -3513.3214   -3979.9669            0    1557.2787    17.469979    20.577328    21.313334    7661.8347    2278.3651    613.04155    1780.4294   -45.124273    8.3201326   -693.27221   -3339.3111 
14380000      243.791   -3976.9957   -3559.1463   -3976.9957            0    4616.0535    17.353614    20.440265    21.171368    7509.7481    5251.6752    4894.5759    3701.9093    573.50771    1773.5101   -1018.4968    -3053.587 
14381000    243.61813   -3960.7646   -3543.2115   -3960.7646            0    5666.9554    17.272894    20.345188     21.07289    7405.4407    6640.1283    5695.9598     4664.778   -316.87481   -3251.4107    639.98017    -2931.176 
14382000    249.92356   -3890.5918   -3462.2313   -3890.5918            0     5764.441    17.279311    20.352746    21.080719    7413.6977    6214.0426    5705.6828    5373.5975    1827.0481   -770.60523    -336.6917   -2838.9732 
14383000    245.38645   -3925.7134   -3505.1294   -3925.7134            0    4655.4633    17.321951     20.40297    21.132739    7468.7168    3755.6489    5354.3286    4856.4125    2917.0059    654.79091    -471.4963   -2998.0397 
14384000    239.95296   -3950.6469   -3539.3757   -3950.6469            0    3997.2611    17.280087    20.353659    21.081665    7414.6957    4884.0344    4493.9112    2613.8376   -28.603717   -121.10489    711.67118    -3107.129 
14385000    242.70746   -3958.9982   -3543.0059   -3958.9982            0     3732.019    17.303639    20.381401    21.110399    7445.0555    3330.2622    2828.8303    5036.9645   -1377.7836   -412.83343    91.445935   -3137.7889 
14386000    244.87184   -3942.0519   -3522.3499   -3942.0519            0     4366.397    17.373806    20.464049    21.196003    7535.9936    4389.5568    3797.9659    4911.6683    531.77481    360.90057    669.04634   -3042.4622 
14387000    244.65245   -3960.6015   -3541.2756   -3960.6015            0    5377.9338    17.278388    20.351658    21.079593     7412.509    3848.7901    6223.8315    6061.1798   -260.53108    707.34894    1533.4027   -2959.9003 
14388000    252.70952    -3947.793   -3514.6575    -3947.793            0    5484.3241    17.324672    20.406176     21.13606    7472.2377    4197.1315     4921.748    7334.0928    298.04674    528.65079    535.01096   -2917.0037 
14389000     237.3808   -3960.8556    -3553.993   -3960.8556            0    5210.1867    17.294809    20.371001    21.099627    7433.6637    4141.9787    5347.7189    6140.8624   -903.25658    447.63307   -793.18395   -2989.1444 
14390000    244.03355   -3922.7277   -3504.4626   -3922.7277            0    3121.6456    17.271511    20.343559    21.071203    7403.6623    2473.1928    2400.0537    4491.6902    -1154.918    669.81452    -196.6954   -3167.4034 
14391000     250.3073   -3970.0365   -3541.0183   -3970.0365            0    4337.2276    17.270017    20.341799    21.069381    7401.7415    3691.3824     4723.813    4596.4874   -1052.2463    199.73931    1876.4097   -3072.8285 
14392000    245.82559   -3943.8472   -3522.5106   -3943.8472            0    6294.9447    17.225284     20.28911    21.014807    7344.3742    6104.4041    8285.5779    4494.8521   -886.11238    1114.9347   -1716.4898    -2848.258 
14393000    230.71531   -3910.6458   -3515.2076   -3910.6458            0     5044.438    17.222323    20.285622    21.011194    7340.5868    4278.7625    4883.4588    5971.0928    1293.5723    886.13435    -398.9307   -2975.1757 
14394000    238.50094   -3906.5923   -3497.8098   -3906.5923            0    5277.9525    17.203311    20.263228    20.987999    7316.3031    4494.9423    5509.1816    5829.7335    304.95981    662.93717   -1143.3047   -2934.6482 
14395000    262.28776   -3913.9037   -3464.3515   -3913.9037            0    6315.8142    17.201491    20.261084    20.985779    7313.9815    6632.0946    7241.4239    5073.9242    21.830079    1189.8703   -859.80454   -2790.6631 
14396000    244.17615   -3913.6104   -3495.1009   -3913.6104            0     5068.328    17.243758    20.310869    21.037344    7368.0292    4127.7046    5803.8692    5273.4103    2560.2348    680.00129    392.19644   -2950.4829 
14397000    238.63747   -3934.3687   -3525.3522   -3934.3687            0    5584.6042    17.176465    20.231607    20.955247    7282.1052    5614.3175    5170.9443    5968.5507   -388.65403    745.97259    -207.9987   -2932.2559 
14398000    240.67928   -3947.7544   -3535.2384   -3947.7544            0    4947.4224    17.229093    20.293596    21.019454    7349.2472    4220.1305    5235.7659    5386.3708   -411.78903   -479.69215   -1674.3743   -3004.9675 
14399000    256.34506    -3895.073   -3455.7063    -3895.073            0    5668.8925    17.187252    20.244312    20.968407     7295.833    4562.2401    4250.8029    8193.6346   -1433.2362   -480.36055    433.18018   -2852.5235 
14400000    249.50146   -3926.5162   -3498.8792   -3926.5162            0      4713.76    17.285919    20.360529    21.088781    7422.2061    5258.1174    5043.4363    3839.7262    245.41092   -264.04608    405.46843    -2988.637 
14401000    248.50346   -3884.9046   -3458.9782   -3884.9046            0    3621.0895    17.347423    20.432973    21.163815    7501.7135    3463.7259     4037.805    3361.7376    767.52417    77.730371   -187.22563   -3062.8136 
14402000    238.87236   -3913.6876   -3504.2685   -3913.6876            0    4247.8514    17.247433    20.315198    21.041829    7372.7418     5053.921    1859.1241    5830.5092    1152.3457   -596.47218   -444.73043   -3047.5231 
14403000    232.03384   -3874.6019   -3476.9038   -3874.6019            0    2975.1617    17.346314    20.431667    21.162463    7500.2758    3357.9153    2331.5258     3236.044   -271.71191   -2059.3321   -810.11621   -3151.4692 
14404000    247.85068   -3936.9023   -3512.0947   -3936.9023            0    3021.6612    17.284055    20.358334    21.086507    7419.8057    4213.5756    1929.4247    2921.9834    -534.7673   -673.79557    112.24844     -3185.12 
14405000     241.3495   -3903.5739   -3489.9091   -3903.5739            0    6077.1377    17.275957    20.348796    21.076627    7409.3813    6703.8987    5500.9781    6026.5364    -258.2049   -960.62693     771.8882   -2833.2244 
14406000    222.83809   -3903.1115   -3521.1746   -3903.1115            0    3766.3794    17.261757     20.33207    21.059303    7391.1255    3049.8137    3785.4519    4463.8727   -314.68824   -1305.1493   -982.05359   -3115.1891 
14407000    247.76118   -3940.9372    -3516.283   -3940.9372            0    5068.8432    17.268802    20.340367    21.067898    7400.1786    4767.1847    4701.5682    5737.7767    1336.0919    836.80998   -158.08067   -2969.2331 
14408000    251.44542   -3941.6592   -3510.6904   -3941.6592            0     5324.218    17.184776    20.241396    20.965387    7292.6811    6081.6953    4138.9779    5751.9809   -405.54691   -201.42293   -377.28116   -2944.4264 
14409000    251.07086   -3941.9269   -3511.6001   -3941.9269            0    3622.1858    17.257272    20.326787    21.053831    7385.3656    4440.7582    3478.0908    2947.7085   -506.73062   -1792.9701   -963.20619   -3121.4618 
14410000    261.07761   -3914.7603   -3467.2822   -3914.7603            0    3572.0805    17.352874    20.439394    21.170466    7508.7879    3012.3629    3455.4062    4248.4726    502.06562    390.59307   -119.35265   -3076.1109 
14411000    238.32537    -3938.275   -3529.7934    -3938.275            0    2645.7258    17.363454    20.451855    21.183373    7522.5299    2139.5644    3721.4628    2076.1502    937.66035   -112.31669    1001.0396   -3239.5351 
14412000    234.08959   -3894.3691   -3493.1475   -3894.3691            0    4736.4568    17.269335    20.340995    21.068548    7400.8638    5263.7017    4477.9409    4467.7278   -1692.7765    1517.2991   -1094.0358   -2981.9228 
14413000    251.47997   -3909.2758   -3478.2477   -3909.2758            0    5465.4966    17.300602    20.377824    21.106694     7441.136    5249.0521    4317.9501    6829.4874    666.19181    1457.1866    135.64161   -2885.1247 
14414000    242.02909   -3893.0352   -3478.2057   -3893.0352            0     4396.399    17.358869    20.446455     21.17778    7516.5734    3956.5265     4524.225    4708.4454     1630.631     648.8323    92.803661   -2996.2658 
14415000    243.33624   -3911.7963   -3494.7263   -3911.7963            0    2968.1512     17.35755    20.444902    21.176171    7514.8601    4050.5506    2606.8671    2247.0358    800.34583   -1284.1781    667.17125   -3169.4272 
14416000    251.52482   -3902.3793   -3471.2744   -3902.3793            0    6721.5056    17.240642    20.307199    21.033543    7364.0358    5830.2664    6281.4753     8052.775    1153.9685    955.80951    1171.4906   -2749.4055 
14417000    236.98117   -3934.9444   -3528.7668   -3934.9444            0    3891.8134    17.336186    20.419737    21.150106    7487.1451    6265.4677    2474.7789    2935.1937   -134.77741   -1057.3583   -18.797543   -3103.8106 
14418000    258.63138   -3883.3812   -3440.0959   -3883.3812            0    5439.9875    17.322438    20.403544    21.133334    7469.3475    4697.9998     4692.659    6929.3036    -1073.843     1256.658   -708.34175    -2847.503 
14419000    262.92863   -3903.6875   -3453.0369   -3903.6875            0    3653.8251    17.357012    20.444267    21.175514    7514.1607    3268.8913    2068.9282    5623.6559    284.84837   -28.836538   -50.041147   -3052.6276 
14420000    247.84309   -3905.3014   -3480.5068   -3905.3014            0     4060.917    17.279832    20.353359    21.081354    7414.3678    3031.4357    4418.5924    4732.7227    219.06712   -303.98349   -113.67376    -3041.396 
14421000    252.41119    -3944.178   -3511.5539    -3944.178            0    3977.5705    17.317808     20.39809    21.127685    7463.3588     5127.555    3370.0077    3435.1487    1168.4442    589.69544   -332.33012   -3078.6135 
14422000    253.52538   -3950.6674   -3516.1336   -3950.6674            0    5439.6658    17.275027      20.3477    21.075492    7408.1843    5034.9153    5705.6703    5578.4119      665.074   -201.43863   -51.400395   -2928.4279 
14423000     243.6038   -3918.0625    -3500.534   -3918.0625            0    4938.7128    17.317634    20.397886    21.127473    7463.1345     4727.863    4129.3944     5958.881   -342.44205    911.51875    718.93778   -2962.9938 
14424000    234.18219   -3917.5854   -3516.2052   -3917.5854            0    5383.6812    17.352002    20.438367    21.169402    7507.6563    4843.7972    5247.7184    6059.5282   -1432.3282   -1515.7486    37.164393    -2926.738 
14425000    258.48121   -3934.0048   -3490.9769   -3934.0048            0    3870.5195    17.386545    20.479054    21.211544    7552.5823    2478.2333    3286.6852      5846.64   -710.09901   -350.14978      671.752    -3064.652 
14426000    244.36162   -3924.9917   -3506.1642   -3924.9917            0    3678.7195    17.325538    20.407195    21.137115    7473.3573    4218.3698    2929.1806     3888.608   -775.99512     43.12159     307.3002    -3105.216 
14427000    252.69472   -3900.4806   -3467.3705   -3900.4806            0    2584.8977     17.31134    20.390471    21.119794    7454.9995    2138.4933     3048.049     2568.151    1210.2363    442.02966   -252.05438   -3186.3313 
14428000    262.30466   -3921.7478   -3472.1665   -3921.7478            0    5001.9518    17.253846    20.322751    21.049651    7380.9678    5113.7297    5101.2044    4790.9214    861.36902    -423.8485    1748.7629   -2933.7372 
14429000    234.74283   -3885.4058   -3483.0646   -3885.4058            0     2441.631    17.346454    20.431832    21.162633    7500.4568    2097.6387    2328.7464     2898.508    1007.9709    153.24117     1522.424   -3215.9832 
14430000    242.11393   -3920.8687   -3505.8937   -3920.8687            0    4983.0887    17.301982    20.379449    21.108378    7442.9166    6361.0245    5438.7377    3149.5039     -1536.31     511.2345     92.77322   -2964.9929 
14431000    272.38921   -3952.6258     -3485.76   -3952.6258            0    5243.3161    17.230313    20.295033    21.020942    7350.8081    5684.2486    5493.2034    4552.4962   -1556.9602    242.45565   -554.16784   -2923.6556 
14432000    264.12228   -3921.7401   -3469.0435   -3921.7401            0    5518.5084    17.249156    20.317227     21.04393    7374.9509     4355.602    5707.4248    6492.4982    350.35991   -234.63091   -122.09905   -2875.4943 
14433000     251.4468   -3934.4044   -3503.4332   -3934.4044            0    4877.1615    17.155265    20.206636    20.929383    7255.1749    4332.5368     4060.991    6237.9566   -771.84665    1574.4639    1149.3794   -2987.3842 
14434000    248.18046   -3936.6438    -3511.271   -3936.6438            0    3865.8251    17.248428     20.31637    21.043042    7374.0176     2395.676    5091.2107    4110.5887   -495.96678   -278.96997     1842.193   -3095.5306 
14435000    244.31217   -3897.0168   -3478.2741   -3897.0168            0    2250.4527    17.296559    20.373062    21.101762    7435.9209    4274.6738   -546.87023    3023.5546    717.79274    1062.0018    935.77568   -3234.2231 
14436000    261.10653   -3904.2899   -3456.7622   -3904.2899            0    4402.8988    17.237475    20.303469     21.02968    7359.9789    5956.5236    5789.1709    1463.0018     907.5614    58.010622   -233.05311    -2984.165 
14437000    252.17787   -3922.9743     -3490.75   -3922.9743            0    4347.1479    17.304127    20.381976    21.110995    7445.6854    5293.8188    3637.1569     4110.468   -576.14415   -290.57506    50.404711   -3018.7033 
14438000    258.35429   -3893.4413   -3450.6309   -3893.4413            0    3066.7283    17.354869    20.441743    21.172899    7511.3772    4004.1463    2907.4767     2288.562    1606.2638    269.87153    1383.5117   -3114.6839 
14439000    246.07526   -3930.4497   -3508.6851   -3930.4497            0    3278.4362    17.333387    20.416441    21.146692    7483.5198    4512.7507    2834.3923    2488.1656   -96.857414   -491.22009    540.98318   -3150.8784 
14440000    262.08905   -3908.5003   -3459.2886   -3908.5003            0    5274.7802    17.290128    20.365487    21.093916    7427.6289    7397.9734    3615.3785    4810.9888    1622.0545   -526.02021   -560.81163   -2887.9015 
14441000    249.84223   -3917.7338   -3489.5128   -3917.7338            0    5307.1904    17.287526    20.362422    21.090741    7424.2761    5491.8588    4874.8955    5554.8169    1582.6355   -110.30216    708.85696   -2914.8743 
14442000    245.69271   -3906.0929    -3484.984   -3906.0929            0    6219.0891    17.294931    20.371144    21.099775    7433.8209    4810.0875    7700.0903    6147.0896    505.23911    686.49901   -2281.1532   -2810.7436 
14443000    237.31357   -3896.8998   -3490.1525   -3896.8998            0    3935.7386    17.382641    20.474455    21.206781    7547.4957    4366.6553    2742.7823    4697.7783    446.80354    1409.0059   -73.859638    -3056.936 
14444000    249.63159   -3892.9372   -3465.0772   -3892.9372            0    5602.8998    17.297245     20.37387    21.102598    7436.8051    6084.2279    4866.7564    5857.7152   -579.98598   -973.72797     264.0896   -2857.3969 
14445000    240.66935   -3902.4615   -3489.9624   -3902.4615            0    4979.0801    17.289779    20.365076     21.09349    7427.1794    3034.3279    7058.8391    4844.0734    174.36747      973.167    -279.5548   -2950.6395 
14446000    246.94529   -3924.3664   -3501.1106   -3924.3664            0     3325.607      17.3576    20.444961    21.176232     7514.925    2141.4024    3510.9962    4324.4224    460.23294    14.522141   -261.51008   -3136.6325 
14447000    251.78968   -3941.9321   -3510.3732   -3941.9321            0    2091.7391     17.39428    20.488165    21.220981    7562.6672     2675.625     1194.052    2405.5402    1147.7186    1732.2285   -234.30024   -3279.6675 
14448000     255.0808   -3942.6746   -3505.4749   -3942.6746            0    3319.9251    17.313392    20.392889    21.122297     7457.651    2447.8546    4434.2601    3077.6605    732.66931   -1318.5342   -822.81505   -3144.3925 
14449000    264.75106   -3957.7207   -3503.9465   -3957.7207            0    4669.8587    17.338508    20.422473     21.15294    7490.1548    3896.1457    4986.0133    5127.4171   -169.20202    192.82401    527.93148   -2993.8287 
14450000    253.73614   -3981.8113   -3546.9162   -3981.8113            0    4499.2328    17.393751    20.487542    21.220336    7561.9772    4147.8014    3952.0026    5397.8942    72.151213    543.64491   -58.904733   -3050.7243 
14451000    252.41279   -3978.4674   -3545.8405   -3978.4674            0    3923.6689    17.391188    20.484523    21.217209    7558.6349    4059.7069    3493.3422    4217.9577   -132.79158   -328.89161   -650.76815   -3113.3151 
14452000    255.99835   -3956.2539   -3517.4815   -3956.2539            0    3535.7952    17.310358    20.389315    21.118596     7453.731    3460.8999    1584.9903    5561.4954    1637.7356    210.21773   -635.28898   -3133.1228 
14453000    238.89765   -3977.2742   -3567.8118   -3977.2742            0    3664.8317    17.368333    20.457602    21.189326    7528.8734    2719.3069    4633.1949    3641.9933    834.40715    281.02315   -517.01267     -3165.41 
14454000    239.72066   -3965.2916   -3554.4186   -3965.2916            0    3825.2945    17.264219    20.334969    21.062307    7394.2883    4795.1782    1869.1867    4811.5185    476.30621   -156.27386    406.77403   -3141.9061 
14455000    244.44205   -3978.7321   -3559.7668   -3978.7321            0    4553.0581    17.268324    20.339804    21.067314    7399.5639    6475.0782    2074.8078    5109.2882    380.39351    234.62184   -284.50549   -3068.4233 
14456000    235.39458   -3947.0271   -3543.5689   -3947.0271            0    4810.1646    17.296803    20.373349     21.10206    7436.2353    6882.0234    3608.5293    3939.9409    843.95953    1055.2241   -434.71495   -3021.9072 
14457000    243.10973   -3928.6748    -3511.993   -3928.6748            0    2772.4875    17.382279    20.474029     21.20634    7547.0246    3222.5272    3356.9902    1737.9452    550.10365     551.2115   -850.38145   -3206.8375 
14458000    250.67045   -3912.0886    -3482.448   -3912.0886            0    5817.0123    17.259899    20.329881    21.057036    7388.7392    7489.4525    5367.4744    4594.1101    1255.8436    164.94793     259.8824   -2855.6231 
14459000    245.20982   -3911.3683    -3491.087   -3911.3683            0    3381.5102    17.315299    20.395135    21.124625    7460.1162    3582.7579    2253.4204    4308.3524    490.38625    157.54256   -315.07401    -3123.185 
14460000    253.73194   -3869.5558    -3434.668   -3869.5558            0    5858.3171    17.307756    20.386251    21.115422    7450.3709    4995.1963    7203.9851    5375.7699   -239.56536    353.71185   -410.36211   -2798.1266 
14461000    259.48446    -3921.037   -3476.2895    -3921.037            0    4318.8053    17.319339    20.399894    21.129553    7465.3391    4942.1472    3643.4815    4370.7871    -226.2673   -1866.5075    1180.6642   -3006.0825 
14462000    258.20848   -3936.8315    -3494.271   -3936.8315            0    3355.1248    17.402185    20.497475    21.230625    7572.9818    3636.3332    4663.3565    1765.6847   -924.97085    249.04832   -446.21497   -3123.7171 
14463000    257.52968   -3902.1342   -3460.7371   -3902.1342            0    6281.5172    17.198984    20.258132    20.982721    7310.7847    4922.2266    6852.6002    7069.7248    251.39296    1199.2511    1333.1889   -2790.9999 
14464000    232.70249   -3892.9075   -3494.0634   -3892.9075            0    5594.2742     17.26743    20.338752    21.066225    7398.4158    4998.3664    6923.2247    4861.2315   -956.09768   -620.63567   -904.90143   -2890.4507 
14465000    246.24835   -3944.9331   -3522.8718   -3944.9331            0    3634.4004    17.275417    20.348159    21.075968    7408.6864    3032.2551     4773.379     3097.567   -492.36908    1116.4968   -732.33855   -3130.1818 
14466000    235.27187   -3923.1488   -3519.9009   -3923.1488            0    3637.6694    17.399296    20.494073    21.227101    7569.2116    4663.7594     4473.162    1776.0867    1510.6437    805.57424   -479.64364   -3118.3415 
14467000     237.5275   -3921.3958   -3514.2818   -3921.3958            0    3130.7233    17.339191    20.423277    21.153772    7491.0392    2866.6031    4699.6217     1825.945   -1038.9826   -836.87913   -514.07743   -3172.2531 
14468000    236.20813   -3900.1621   -3495.3095   -3900.1621            0    5289.0281     17.35522    20.442157    21.173328    7511.8341    5776.0177    6850.0853    3240.9812   -234.99521    541.06307    1256.6506   -2915.8838 
14469000    256.21383   -3923.0544   -3483.9127   -3923.0544            0    4199.9804    17.371998     20.46192    21.193798    7533.6413    5143.0629    3651.1058    3805.7726    1363.2779    981.43714      615.473    -3022.459 
14470000    248.91207     -3947.76   -3521.1332     -3947.76            0    7784.6465    17.254696    20.323752    21.050688    7382.0587    8530.4879    8196.7045    6626.7472    1306.5479    598.08916   -164.36592   -2683.0401 
14471000    252.58274   -3938.5851    -3505.667   -3938.5851            0    4457.8119    17.325968    20.407702     21.13764    7473.9141    4215.3082    6107.6992    3050.4282    17.435449    781.18657   -1282.1026   -3019.7683 
14472000    237.37467   -3938.0427   -3531.1906   -3938.0427            0    4813.1775      17.3177    20.397963    21.127554    7463.2201    4230.5637    6033.7001    4175.2687   -802.77841   -1067.0395    648.41417    -3007.308 
14473000    244.26648   -3935.1306   -3516.4662   -3935.1306            0    4906.1903    17.343156    20.427947     21.15861    7496.1798    5429.4989    2741.0362     6548.036    420.44651   -546.31409    -438.9558   -2980.1014 
14474000    243.67282   -3925.1533   -3507.5065   -3925.1533            0    4523.7447    17.329014    20.411289    21.141356    7477.8566     4470.811    4374.2566    4726.1665    604.35008    170.80845   -289.33556    -3014.161 
14475000    248.22232    -3947.424   -3521.9794    -3947.424            0    3884.2541    17.296561    20.373064    21.101764    7435.9227    4042.1377    3961.3688    3649.2559    305.57212   -202.96469     602.7317   -3100.7503 
14476000    243.87776   -3899.4801    -3481.482   -3899.4801            0    3738.5138    17.316069    20.396042    21.125564    7461.1115    4077.3571      3244.64    3893.5444    445.09431    503.09382   -1568.4804   -3074.6843 
14477000     263.9369   -3902.6244   -3450.2456   -3902.6244            0    2213.6139    17.392646     20.48624    21.218988    7560.5361    3700.0398    1440.7543    1500.0476    414.37248    783.43623    444.95686   -3206.1666 
14478000      259.055   -3918.6524    -3474.641   -3918.6524            0    3610.7204    17.336194    20.419747    21.150116    7487.1559    4878.8457    2442.0042    3511.3111    396.78995    63.754581   -626.97468   -3080.3775 
14479000    255.35628   -3920.2795   -3482.6076   -3920.2795            0    4528.4771    17.325069    20.406643    21.136544    7472.7513    5544.4551    3856.4867    4184.4895   -457.13734    1621.6546   -1053.8911   -2989.0833 
14480000    257.10895    -3906.378   -3465.7021    -3906.378            0    3283.4047    17.385196    20.477465    21.209899    7550.8247    1650.7993    3466.3898    4733.0252    614.87222    377.01053   -298.91332   -3104.1302 
14481000    253.30564   -3912.5166   -3478.3594   -3912.5166            0    5662.2352    17.342526    20.427205    21.157841    7495.3628      6282.28      5976.63    4727.7957    1543.3207    220.01214    369.07466   -2859.4081 
14482000    246.52108   -3908.1374   -3485.6087   -3908.1374            0    4334.4338    17.283599    20.357796     21.08595    7419.2177    3502.9688    5589.7157     3910.617    114.36644     1279.539   -839.63893   -3016.6157 
14483000    240.86164   -3908.5072   -3495.6786   -3908.5072            0    2376.8841    17.370637    20.460316    21.192137    7531.8707    2014.7965    2665.9121    2449.9438    978.44928    49.965929    1153.4626   -3234.5907 
14484000    254.55819     -3912.58    -3476.276     -3912.58            0    4501.0315    17.298217    20.375015    21.103785    7438.0593    3503.4902    5299.3984    4700.2059     400.6499    1959.6769   -65.739615     -2988.02 
14485000    242.32523   -3946.1072     -3530.77   -3946.1072            0    5162.8939    17.224078    20.287688    21.013334    7342.8306    5389.2569    3505.5415    6593.8833    432.32029    785.55216   -865.26152   -2977.8878 
14486000    247.71253   -3950.5377   -3525.9669   -3950.5377            0    4569.2435    17.267117    20.338383    21.065842    7398.0129    3785.3367    4806.7683    5115.6255    334.77018    775.99236   -223.94742   -3032.9801 
14487000    260.09434   -3940.2774   -3494.4846   -3940.2774            0    4144.9797    17.283753    20.357978    21.086138     7419.416    3152.3773    3113.8117      6168.75    602.57388    471.38068   -11.700581   -3045.9789 
14488000    247.53817   -3901.2069    -3476.935   -3901.2069            0    3877.1782    17.284264     20.35858    21.086762    7420.0749    4055.4099    5082.4867    2493.6379    628.70171    302.65046    512.24786   -3057.3693 
14489000    238.91461    -3911.957   -3502.4656    -3911.957            0    4688.0926    17.311857    20.391081    21.120425    7455.6679    4203.2774    4166.1311    5694.8692     1135.554    281.66197   -1434.3947   -2992.7139 
14490000    239.25425   -3896.2235   -3486.1499   -3896.2235            0    4384.3762    17.348595    20.434353    21.165245    7503.2338    5461.3404    5357.4412    2334.3469   -461.16749   -957.63491    691.49205   -3006.3809 
14491000    229.34879   -3944.7687   -3551.6727   -3944.7687            0    3004.6712    17.375534    20.466084    21.198111    7538.2416    2659.2368    3248.5611    3106.2155   -1073.3115   -163.01865    501.13872   -3221.3466 
14492000    240.80522      -3926.9   -3514.1681      -3926.9            0    4557.5931    17.348048     20.43371    21.164579    7502.5253    5706.3215    3500.7411    4465.7168   -911.88606      124.292   -93.781588   -3015.4916 
14493000    251.41326    -3915.027   -3484.1132    -3915.027            0    5094.4797    17.360671    20.448577    21.179978    7518.9137    5492.3161    5124.6514    4666.4716    845.52087    -1729.849   -80.634408   -2925.4748 
14494000    249.38399   -3923.4963   -3496.0607   -3923.4963            0    5789.1879    17.313506    20.393023    21.122436    7457.7981    7021.4817    4969.4566    5376.6253    402.72785    505.63454    -1781.852   -2866.4035 
14495000    262.08934   -3925.9573   -3476.7451   -3925.9573            0    4869.4883    17.257604    20.327178    21.054237    7385.7924    5365.1901    3610.9219    5632.3529    -44.15597   -1536.2428    1196.5568    -2952.232 
14496000    248.99217    -3932.366   -3505.6019    -3932.366            0    3027.0384    17.345964    20.431254    21.162035    7499.8211    1383.3853    4637.0174    3060.7125   -1566.7529   -641.33322   -227.41629   -3174.5129 
14497000    242.18151   -3930.9699   -3515.8791   -3930.9699            0    3770.8383    17.385822    20.478202    21.210662    7551.6398      3641.69    2515.1841    5155.6406    347.52097    1096.4483     1074.298   -3100.5857 
14498000    251.23953   -3910.2747   -3479.6587   -3910.2747            0    4559.7628    17.338922    20.422959    21.153444    7490.6903    3754.0886    3634.5675    6290.6323    -624.0427   -201.99464     101.7874   -2981.5319 
14499000    245.29156    -3937.394   -3516.9726    -3937.394            0    3968.3872     17.28825    20.363275    21.091625    7425.2097    3097.2702    4548.2111    4259.6802    521.36128    26.826197    1005.2893   -3087.2397 
14500000    251.74441   -3911.5541   -3480.0728   -3911.5541            0    4357.8481    17.365436     20.45419    21.185792    7525.1072    5246.1846    4098.9335    3728.4263    68.207438    273.92352   -506.01099   -3001.8165 
Loop time of 440.394 on 64 procs for 250000 steps with 864 atoms

Performance: 98.094 ns/day, 0.245 hours/ns, 567.674 timesteps/s
99.1% CPU use with 64 MPI tasks x 1 OpenMP threads

MPI task timing breakdown:
Section |  min time  |  avg time  |  max time  |%varavg| %total
---------------------------------------------------------------
Pair    | 20.443     | 25.199     | 29.658     |  47.7 |  5.72
Bond    | 0.26251    | 0.27963    | 0.28945    |   1.0 |  0.06
Kspace  | 193.6      | 200.37     | 208.36     |  25.4 | 45.50
Neigh   | 4.7073     | 5.2489     | 5.79       |  14.1 |  1.19
Comm    | 95.98      | 100.75     | 106.9      |  27.7 | 22.88
Output  | 1.0457     | 1.0471     | 1.0489     |   0.1 |  0.24
Modify  | 99.149     | 100.83     | 104.2      |  11.1 | 22.89
Other   |            | 6.665      |            |       |  1.51

Nlocal:        13.5000 ave          19 max           8 min
Histogram: 2 6 8 8 5 10 11 7 6 1
Nghost:        2134.25 ave        2171 max        2102 min
Histogram: 2 8 8 11 9 6 6 8 3 3
Neighs:        4107.81 ave        5993 max        2481 min
Histogram: 2 8 5 11 9 10 8 7 3 1

Total # of neighbors = 262900
Ave neighs/atom = 304.28241
Ave special neighs/atom = 2.0000000
Neighbor list builds = 12541
Dangerous builds = 0

unfix		3
unfix		2
unfix		1

write_data	data.final.${pid}
write_data	data.final.0
System init for write_data ...
PPPM initialization ...
  extracting TIP4P info from pair style
  using 12-bit tables for long-range coulomb (../kspace.cpp:340)
  G vector (1/distance) = 0.37394874
  grid = 24 24 25
  stencil order = 5
  estimated absolute RMS force accuracy = 0.0031067563
  estimated relative force accuracy = 9.3559043e-06
  using double precision FFTW3
  3d grid and FFT values/proc = 2730 288
Last active /omp style is kspace_style pppm/tip4p/omp
WARNING: Not all mixed pair coeffs generated from mixing. Use write_data with 'pair ij' option to store all pair coeffs. (../write_data.cpp:312)

write_restart   restart.lmp.${pid}
write_restart   restart.lmp.0
System init for write_restart ...
PPPM initialization ...
  extracting TIP4P info from pair style
  using 12-bit tables for long-range coulomb (../kspace.cpp:340)
  G vector (1/distance) = 0.37394874
  grid = 24 24 25
  stencil order = 5
  estimated absolute RMS force accuracy = 0.0031067563
  estimated relative force accuracy = 9.3559043e-06
  using double precision FFTW3
  3d grid and FFT values/proc = 2730 288
Last active /omp style is kspace_style pppm/tip4p/omp
Total wall time: 0:07:23
