LAMMPS data file via write_data, version 30 Jul 2021, timestep = 2250000

972 atoms
2 atom types
648 bonds
1 bond types
324 angles
1 angle types

0.10028824596948382 19.89971275402997 xlo xhi
0.04782314771486362 19.952177852287505 ylo yhi
0.06007277031851821 20.63992522968637 zlo zhi

Masses

1 1.008
2 15.999

Pair Coeffs # lj/cut/tip4p/long/omp

1 0 0
2 0.21084 3.1668

Bond Coeffs # harmonic/omp

1 450 0.9572

Angle Coeffs # harmonic/omp

1 55 104.52

Atoms # full

5 2 1 0.5897 3.9863701070083875 1.12569252428756 2.3837199607816157 0 0 0
10 4 2 -1.1794 1.2935313098858736 3.5871195561505185 3.949180825375222 0 0 0
48 16 1 0.5897 7.063105224077986 4.320287167577856 4.583376654358699 0 0 0
236 79 1 0.5897 0.9797109476800686 0.18117208441850013 1.987992306618144 0 1 0
31 11 2 -1.1794 1.0310881174225195 1.8948902100451475 1.8471062303248158 0 0 0
33 11 1 0.5897 1.6448433825128685 1.9935113990705537 1.119147719756092 0 0 0
18 6 1 0.5897 4.020675096661016 3.4017394608845763 3.2924306856209484 0 0 0
53 18 1 0.5897 9.65597013513992 3.954001693345409 3.86639591315997 0 0 0
4 2 2 -1.1794 3.9123216998512915 1.6411381335204744 3.186939866901031 0 0 0
69 23 1 0.5897 6.555680643396989 2.2603248502117914 1.8607291705718276 0 0 0
46 16 2 -1.1794 7.817823770297097 4.029316058329654 4.071403070616085 0 0 0
16 6 2 -1.1794 4.002333115767753 4.3114267464869265 3.5899793240590037 0 0 0
17 6 1 0.5897 4.292984927585417 4.817972396348572 2.8314904817019113 0 0 0
20 7 1 0.5897 0.6868496681235989 4.853202776528064 2.5921233280419473 0 0 0
47 16 1 0.5897 7.490997933493066 3.2872021117188948 3.562627983175656 0 0 0
6 2 1 0.5897 4.608076879870037 1.3056547621719814 3.7524076945670353 0 0 0
11 4 1 0.5897 1.179337451382223 2.8696276663545714 3.325842117857309 0 0 0
41 14 1 0.5897 9.588483202896976 1.1456342569652676 3.629722347449653 0 0 0
39 13 1 0.5897 9.88350067010685 2.4921601603969092 0.4694162980868592 0 0 0
68 23 1 0.5897 8.03973664786415 2.287288236635117 1.5621565263320445 0 0 0
67 23 2 -1.1794 7.400085981948387 1.9536198084626113 2.1913265146267973 0 0 0
34 12 2 -1.1794 5.1161486893255335 2.4578096616239185 0.3184388488575602 0 0 0
23 8 1 0.5897 2.5881372018397686 0.7400889632144818 4.308841261769599 0 0 0
12 4 1 0.5897 2.223385411542714 3.8077410610642275 3.8934929506792217 0 0 0
22 8 2 -1.1794 1.8823985149310711 0.4383163514342608 4.880898106955631 0 0 0
58 20 2 -1.1794 8.172619572802107 0.5082050454241311 4.769645753434125 0 0 0
37 13 2 -1.1794 9.03480728034077 2.7454955373696275 0.10618653389961777 0 0 0
32 11 1 0.5897 0.23134776543504867 2.326986655329336 1.5469839297366383 0 0 0
29 10 1 0.5897 6.53328663803106 0.818314485148843 4.925339499251889 0 0 0
8 3 1 0.5897 4.945673701327424 4.634910411178073 5.0414676714156474 0 0 0
325 109 2 -1.1794 2.2991604316491485 2.1766074598435763 7.026580248897379 0 0 0
326 109 1 0.5897 2.2316837223673027 1.709688732043757 6.193625753512067 0 0 0
327 109 1 0.5897 3.224555416569481 2.1129517509888562 7.263147244864304 0 0 0
355 119 2 -1.1794 1.0153241230970331 2.1197487420854126 9.47816872887225 0 0 0
356 119 1 0.5897 1.714909638192578 2.077289808239167 8.8261173745874 0 0 0
9 3 1 0.5897 5.480196173412771 4.027115866603177 6.320971298937282 0 0 0
393 131 1 0.5897 7.496251707394272 1.470936549405135 8.756273480542696 0 0 0
359 120 1 0.5897 5.8792578919741505 2.6432024464152275 7.903684119902307 0 0 0
392 131 1 0.5897 7.860679239073746 2.6114752386657 7.829640789391622 0 0 0
342 114 1 0.5897 4.364814936255494 4.735029125343845 9.968247026834065 0 0 0
361 121 2 -1.1794 8.941726368533601 2.560970118248056 6.300077010244862 0 0 0
330 110 1 0.5897 4.416815889011288 0.4827207216744205 9.697897077674325 0 0 0
360 120 1 0.5897 5.244740341714541 1.8857540820257677 6.756533120175117 0 0 0
27 9 1 0.5897 2.208048616996083 4.345331036659764 6.370927413301979 0 0 0
391 131 2 -1.1794 7.416263939638933 2.419522457678219 8.65549494776441 0 0 0
358 120 2 -1.1794 5.0802552113613375 2.594448965623053 7.3786986766710845 0 0 0
362 121 1 0.5897 8.915137038662753 3.42964110041702 5.898708542657957 0 0 0
363 121 1 0.5897 9.799166239162309 2.5184205235855788 6.723616889623988 0 0 0
371 124 1 0.5897 7.968253355431163 3.2190034530151865 10.082744544518052 0 0 0
328 110 2 -1.1794 4.247058878755359 1.3182109235589627 10.13325277504495 0 0 0
28 10 2 -1.1794 5.623079753608262 0.7917327500973529 5.220653992239009 0 0 0
561 187 1 0.5897 1.0138023731182007 0.36718063511098736 9.193615306651003 0 1 0
357 119 1 0.5897 0.20745943284975532 2.0698282196118307 8.967047101814464 0 0 0
7 3 2 -1.1794 5.68394253758369 4.678079343117837 5.64931677417788 0 0 0
341 114 1 0.5897 4.428285311132775 3.2607833608887695 10.307139415946473 0 0 0
59 20 1 0.5897 8.611744750657419 1.0174407627736977 5.450963527138908 0 0 0
649 217 2 -1.1794 2.4561025353505634 2.863398122286204 13.93977732408337 0 0 0
650 217 1 0.5897 2.313888408668883 2.1878469787283183 13.27667258446207 0 0 0
372 124 1 0.5897 7.737770451825809 3.8645863337973707 11.432671627260314 0 0 0
651 217 1 0.5897 1.811187429471569 2.671079235333319 14.620560888390518 0 0 0
683 228 1 0.5897 4.112257273409086 2.576770953249539 14.430706610398222 0 0 0
347 116 1 0.5897 0.7376022789132675 1.0972990955446256 12.184276521691631 0 0 0
382 128 2 -1.1794 8.350610673001873 0.891296103107906 12.103855748203411 0 0 0
346 116 2 -1.1794 1.684044738863778 1.0874118826411154 12.040988000182663 0 0 0
384 128 1 0.5897 8.867895564273514 1.0256845385984796 11.30966321123684 0 0 0
340 114 2 -1.1794 4.143313499867046 4.105900307836867 10.654914589332243 0 0 0
348 116 1 0.5897 1.786149485013509 1.2390141266691543 11.101338574175465 0 0 0
685 229 2 -1.1794 9.009934479488194 2.71627786017865 14.073776521269105 0 0 0
331 111 2 -1.1794 6.169139549767423 4.223440848520145 12.664537804324542 0 0 0
682 228 2 -1.1794 4.99871064549206 2.806845445782243 14.709397708934059 0 0 0
354 118 1 0.5897 5.578098674214825 1.4607812040824486 13.322291996440908 0 0 0
684 228 1 0.5897 5.284462911833517 3.4681511632403352 14.07899833181434 0 0 0
383 128 1 0.5897 8.613288924700274 1.6051848985207593 12.685023468502939 0 0 0
352 118 2 -1.1794 5.612845908601067 0.8853902007781403 12.558026427051141 0 0 0
370 124 2 -1.1794 8.373829531150315 3.807507066847101 10.719574171738941 0 0 0
686 229 1 0.5897 8.671642516142812 2.5244475757767857 14.948501270510912 0 0 0
353 118 1 0.5897 6.5177979569712035 0.9471733902599897 12.252051292023092 0 0 0
329 110 1 0.5897 4.566087828446544 1.1923133386257214 11.026980945147876 0 0 0
350 117 1 0.5897 2.9426218192384423 4.778749932663625 13.406446032777394 0 0 0
334 112 2 -1.1794 1.4002123531322765 4.369754054718869 11.051871562788897 0 0 0
386 129 1 0.5897 9.352966194632815 4.585889254635809 13.923730216452935 0 0 0
332 111 1 0.5897 5.427006482920139 4.16785071272972 12.062422163338484 0 0 0
336 112 1 0.5897 2.349871128169129 4.266571518257882 10.989347735729744 0 0 0
687 229 1 0.5897 9.956911597286133 2.789192996616265 14.193328361033215 0 0 0
335 112 1 0.5897 1.0456064644458571 3.6448378062411844 10.536940835146744 0 0 0
652 218 2 -1.1794 3.7243197787124362 1.2246216978431856 16.676682967792352 0 0 0
653 218 1 0.5897 2.827298086387899 0.8937033732048681 16.723863683177463 0 0 0
672 224 1 0.5897 0.7503230396499347 0.8329568925586405 18.373900299402273 0 0 0
664 222 2 -1.1794 4.143862689547957 4.185348776823395 17.04918874369472 0 0 0
666 222 1 0.5897 4.246370289562951 3.3663538761300655 16.564311818598753 0 0 0
715 239 2 -1.1794 7.499762634378028 2.1354476504939797 16.11644993045536 0 0 0
671 224 1 0.5897 2.1779684886182156 1.1991071981256294 18.720431563878634 0 0 0
665 222 1 0.5897 3.216375589919773 4.210264168833839 17.284883212267914 0 0 0
706 236 2 -1.1794 8.614428344291944 0.7049901475121414 18.65747112309235 0 0 0
658 220 2 -1.1794 1.462485342339703 4.388708160971749 17.730499532628663 0 0 0
36 12 1 0.5897 5.382655716383008 3.2898158034348377 20.506955378398317 0 0 -1
38 13 1 0.5897 8.786670309231997 2.012728890327142 20.122248025212578 0 0 -1
654 218 1 0.5897 4.146586557007181 0.6795544111314319 16.012626978771298 0 0 0
676 226 2 -1.1794 5.887517571202651 0.8867346443360455 18.64774730547562 0 0 0
708 236 1 0.5897 7.665896428052035 0.6248552438360122 18.55612663374614 0 0 0
677 226 1 0.5897 5.195547542191949 0.977101184434647 17.992466426271164 0 0 0
655 219 2 -1.1794 5.681957397908842 4.610068054954184 19.365423130769216 0 0 0
656 219 1 0.5897 5.0311331349112445 4.444163952556406 18.68329893325673 0 0 0
681 227 1 0.5897 0.7085600565389252 2.9319252349584417 16.640071094763762 0 0 0
695 232 1 0.5897 8.027297251077746 3.2717034345985514 17.421444150200458 0 0 0
716 239 1 0.5897 7.445156939563636 1.1922741720191543 16.270884667550973 0 0 0
670 224 2 -1.1794 1.653506637066816 0.5295627966335257 18.281064391600715 0 0 0
679 227 2 -1.1794 0.6167540022475516 2.2633515377082043 15.961145263658391 0 0 0
694 232 2 -1.1794 8.105896627841092 4.039044039149564 17.988374855310582 0 0 0
35 12 1 0.5897 5.380325675907454 1.7962412832062187 20.258826983525182 0 0 -1
659 220 1 0.5897 0.732803363717562 4.516341577459881 18.336796811603833 0 0 0
657 219 1 0.5897 6.522853799266702 4.436369337975179 18.94219668889813 0 0 0
2 1 1 0.5897 2.651764273401991 3.469495598947636 20.04634229152272 0 0 -1
702 234 1 0.5897 9.88088115088029 3.8707534475773873 17.721222208993844 0 0 0
1 1 2 -1.1794 2.5216634741288013 2.5268293370837505 20.15049298798828 0 0 -1
884 295 1 0.5897 0.8115330184571188 0.32199228565009397 15.870894937682461 0 1 0
696 232 1 0.5897 8.013690563194897 4.785472047144962 17.39615809284581 0 0 0
3 1 1 0.5897 3.366499688644245 2.2008038876083162 20.46089265556575 0 0 -1
710 237 1 0.5897 9.093981827823642 4.4783253720928595 20.435328001442905 0 0 0
660 220 1 0.5897 1.1990690782466014 4.854109242286018 16.936527399936438 0 0 0
717 239 1 0.5897 6.711920088259511 2.3423165244566952 15.61362883116082 0 0 0
13 5 2 -1.1794 4.870289098322739 6.092249254963767 1.6260626970981067 0 0 0
674 225 1 0.5897 2.0863351984120495 5.478576632685108 0.7393849629344007 0 0 1
143 48 1 0.5897 5.818635897462009 9.119308564698606 1.5169075650472084 0 0 0
177 59 1 0.5897 8.059476514260101 9.10565498316761 1.6806182190279988 0 0 0
14 5 1 0.5897 4.211906008995814 5.8856446916549965 0.9626235643666642 0 0 0
56 19 1 0.5897 6.56546438497791 5.880819771856389 2.00792064166375 0 0 0
55 19 2 -1.1794 7.498489330768134 5.987344449362787 2.1935721411549243 0 0 0
15 5 1 0.5897 4.602202501382975 6.943042128660761 1.97346633241934 0 0 0
139 47 2 -1.1794 0.946699680460696 8.304913018186975 2.2508987435690826 0 0 0
112 38 2 -1.1794 3.9186771842094488 7.960211767058565 3.488983348992869 0 0 0
114 38 1 0.5897 3.162530129253748 7.622247847716137 3.9689667713787995 0 0 0
110 37 1 0.5897 1.977139916263165 8.769385216962707 0.9972232547183459 0 0 0
141 47 1 0.5897 0.8520314422411023 7.3749808146585405 2.4574642715387998 0 0 0
19 7 2 -1.1794 0.6933121101131451 5.586909902392145 1.977292491199566 0 0 0
144 48 1 0.5897 5.304617071080585 8.3800405536594 0.2997238685182464 0 0 0
113 38 1 0.5897 4.654014924504108 7.851139183688191 4.092035138227772 0 0 0
140 47 1 0.5897 1.040369023270657 8.731659028617562 3.102659797056914 0 0 0
175 59 2 -1.1794 7.439838216526135 8.752820889932005 2.3192999901650135 0 0 0
176 59 1 0.5897 7.560058732350059 7.804300563201582 2.271690458190705 0 0 0
111 37 1 0.5897 3.3978466542692134 9.099035471296524 0.5907219623019535 0 0 0
57 19 1 0.5897 7.669338087208411 5.385043821392781 2.9176675374077017 0 0 0
711 237 1 0.5897 8.501305470845406 5.570241884917047 0.7207699931311176 0 0 1
138 46 1 0.5897 6.975774841369346 7.37426250238761 5.145523091354319 0 0 0
126 42 1 0.5897 3.807245259765183 9.66034406439967 3.5765597921983274 0 0 0
166 56 2 -1.1794 8.714755925170145 7.6398843024309455 5.1141537427009025 0 0 0
149 50 1 0.5897 9.864767394424762 7.861513466198883 3.9030914396943492 0 0 0
142 48 2 -1.1794 5.138658837905604 9.14999371390532 0.8437976967098375 0 0 0
109 37 2 -1.1794 2.496318960561738 9.110765906958557 0.2690037674702316 0 0 0
136 46 2 -1.1794 6.019336059329355 7.334124738225578 5.147671360461534 0 0 0
673 225 2 -1.1794 2.7882460476362345 5.41607616815911 0.09147219519761429 0 0 1
132 44 1 0.5897 2.1899779362426317 6.801200542765176 5.689403451672946 0 0 0
25 9 2 -1.1794 2.3462029867175533 5.287001614916195 6.4735796274655675 0 0 0
379 127 2 -1.1794 7.478685539120943 5.653017936725978 8.932726796429138 0 0 0
61 21 2 -1.1794 9.355603983042148 5.493890004122792 6.8601325870243475 0 0 0
470 157 1 0.5897 8.882429651239184 9.009257975147992 7.662610593356098 0 0 0
338 113 1 0.5897 5.590012628991153 5.779849103136157 8.323569577663852 0 0 0
343 115 2 -1.1794 0.924446972482078 5.9129847251770915 8.773666296619416 0 0 0
339 113 1 0.5897 4.1964664491960715 5.391837388937192 7.876597916994465 0 0 0
464 155 1 0.5897 1.0867039138239352 7.670140811490552 8.962941752780054 0 0 0
466 156 2 -1.1794 5.529255706219175 9.43321811182473 7.279055263100731 0 0 0
437 146 1 0.5897 4.800538974106621 7.32048303748111 9.663522585135883 0 0 0
381 127 1 0.5897 7.743539065606417 5.204418159275292 9.735842244995222 0 0 0
469 157 2 -1.1794 9.416668717520936 9.55255763349868 7.083139661015497 0 0 0
434 145 1 0.5897 1.9994717286011037 9.151771493684196 7.457067036301869 0 0 0
463 155 2 -1.1794 0.9846914983536359 8.602815516012203 8.772883667162137 0 0 0
500 167 1 0.5897 7.970993211942119 9.052317264128618 9.301940304181045 0 0 0
468 156 1 0.5897 4.599902491715527 9.618198841858364 7.41480054385424 0 0 0
467 156 1 0.5897 5.541849592888216 8.735444133019536 6.623820624081996 0 0 0
62 21 1 0.5897 8.835345661610237 5.478484803003046 7.663547603820802 0 0 0
337 113 2 -1.1794 4.677123507006963 5.772843619754874 8.611575169477588 0 0 0
26 9 1 0.5897 1.820376933264164 5.524860367592548 7.237327908874949 0 0 0
131 44 1 0.5897 2.0986379252975773 8.308051866921764 5.8048554571319935 0 0 0
210 70 1 0.5897 0.19231223222357496 7.183452851850829 5.543520896058758 1 0 0
499 167 2 -1.1794 7.681642980468454 8.334174715834383 8.738977567456933 0 0 0
380 127 1 0.5897 7.69181582378019 6.572899184470457 9.090176604326475 0 0 0
501 167 1 0.5897 6.916336691693473 8.68174632642436 8.280857313241825 0 0 0
433 145 2 -1.1794 2.761028420833968 9.306051942846945 6.897936563938055 0 0 0
438 146 1 0.5897 4.4683933522662995 8.74811917033751 10.042817696095415 0 0 0
344 115 1 0.5897 1.2582477415774334 5.577381652249851 9.605731248418286 0 0 0
137 46 1 0.5897 5.817940887894684 6.42003554791171 5.348255120710339 0 0 0
168 56 1 0.5897 8.891338868436996 8.501974206342817 5.490958630972619 0 0 0
167 56 1 0.5897 8.949235851261081 7.022460574123978 5.807097843391454 0 0 0
130 44 2 -1.1794 1.8324947715696887 7.57371038203315 5.251423748689235 0 0 0
443 148 1 0.5897 1.5147197914560655 9.622705147101772 10.269508211740295 0 0 0
351 117 1 0.5897 3.791188421529887 5.892369704883287 13.982669875707396 0 0 0
491 164 1 0.5897 9.690110062279276 7.493114353667064 11.087388831817131 0 0 0
792 264 1 0.5897 4.823785079828984 8.725486347007813 14.175409467726215 0 0 0
387 129 1 0.5897 9.422289405019264 5.93303876452466 13.236216955836406 0 0 0
789 263 1 0.5897 1.8310828123765719 8.604348753160396 15.43842077387064 0 0 0
757 253 2 -1.1794 2.9898929401143315 8.872892175536496 14.119695320562363 0 0 0
333 111 1 0.5897 6.28544984630219 5.161467061927343 12.816158633753805 0 0 0
759 253 1 0.5897 2.760773866232406 8.470331892077876 13.281938941733836 0 0 0
454 152 2 -1.1794 2.4265017033640617 7.443659298588242 11.644417158682705 0 0 0
460 154 2 -1.1794 6.476332984406605 6.927379122463624 12.13637395623637 0 0 0
456 152 1 0.5897 2.505297400819224 6.685830310208317 12.223973557051698 0 0 0
492 164 1 0.5897 8.258797776378692 7.437238069446742 11.577828219659027 0 0 0
462 154 1 0.5897 5.858284184487825 7.228288840546242 11.470158892804916 0 0 0
490 164 2 -1.1794 9.16472035579899 7.454492540454711 11.886676494326528 0 0 0
385 129 2 -1.1794 9.628443852148006 5.49240184222688 14.060664274638471 0 0 0
794 265 1 0.5897 9.62694963178792 8.609353038688543 13.344360551093311 0 0 0
705 235 1 0.5897 8.328664154648754 5.953128738993273 15.180205789265642 0 0 0
791 264 1 0.5897 6.066953302141711 8.64031868819823 15.035395427427746 0 0 0
349 117 2 -1.1794 2.918783890865093 5.708219940579003 13.63428111373176 0 0 0
461 154 1 0.5897 6.400150143433853 7.569744271016688 12.842025857544382 0 0 0
455 152 1 0.5897 3.25790864499034 7.47098962542928 11.17069252457061 0 0 0
793 265 2 -1.1794 9.508846408868935 9.103103387721768 14.155928928936623 0 0 0
790 264 2 -1.1794 5.779670426475444 8.712832045909538 14.125127961792328 0 0 0
668 223 1 0.5897 1.7342842681324724 5.7199600563042186 14.783835898523161 0 0 0
667 223 2 -1.1794 1.0127007332196214 5.857406119307161 15.397683375935975 0 0 0
533 178 1 0.5897 0.5918198066170341 7.689247607833432 12.02020404217496 1 0 0
661 221 2 -1.1794 5.156734642541419 5.969900589829942 15.242990785535559 0 0 0
436 146 2 -1.1794 4.875130096061907 7.950127889329977 10.380710403850825 0 0 0
758 253 1 0.5897 2.9763337453380854 9.81408715145438 13.945404384709652 0 0 0
824 275 1 0.5897 8.324982807131446 8.828526487941225 15.465044459680243 0 0 0
669 223 1 0.5897 1.1263875031981232 6.757124834809815 15.704153839283878 0 0 0
814 272 2 -1.1794 8.683806544424666 7.424992177104407 18.62149840454751 0 0 0
760 254 2 -1.1794 4.761725916606135 8.160521540491489 16.772534950582703 0 0 0
784 262 2 -1.1794 5.9626559773332275 7.453019471622142 19.30756111509767 0 0 0
703 235 2 -1.1794 7.772600479406355 5.945133640438699 15.959362543899655 0 0 0
825 275 1 0.5897 7.887804591452341 7.687143272260655 16.35858063848702 0 0 0
662 221 1 0.5897 4.975354643476896 5.334704505809988 15.93582002418327 0 0 0
788 263 1 0.5897 1.4331947638827816 9.004082831063558 16.843470166753598 0 0 0
778 260 2 -1.1794 2.26990450832664 7.36951129217351 18.866601865626322 0 0 0
779 260 1 0.5897 2.4774793334464253 8.025098657861156 19.53256104694419 0 0 0
780 260 1 0.5897 2.931405901317558 7.49991992845989 18.187053211098252 0 0 0
761 254 1 0.5897 4.540788451778392 9.082595334162878 16.90395764208924 0 0 0
145 49 2 -1.1794 9.43422563174232 9.21570111590209 20.539333203746367 0 0 -1
762 254 1 0.5897 5.274081054710296 7.923898267927061 17.545769022831983 0 0 0
816 272 1 0.5897 8.85984354145204 8.1895351208502 19.170000808878605 0 0 0
815 272 1 0.5897 8.843373155522217 6.6758200135720935 19.19565729634091 0 0 0
786 262 1 0.5897 6.903811666521889 7.5578810405036325 19.1676095221683 0 0 0
785 262 1 0.5897 5.839491860754942 6.5097197744992545 19.414364983093293 0 0 0
787 263 2 -1.1794 1.2785290244529537 8.338155473752554 16.173395130045392 0 0 0
675 225 1 0.5897 2.518822191433802 6.006791751341057 19.967862634755036 0 0 0
804 268 1 0.5897 7.732308599088863 9.90734968632287 17.47579655318882 0 0 0
823 275 2 -1.1794 7.7573774766138905 8.623485723221568 16.208091547285747 0 0 0
858 286 1 0.5897 0.4272759694129362 7.303718919097265 19.01086370040087 1 0 0
663 221 1 0.5897 4.867622211606373 6.808020975991201 15.604061200000421 0 0 0
709 237 2 -1.1794 9.008022626175688 5.429479224673819 20.50074176699087 0 0 0
704 235 1 0.5897 6.893438638717413 6.1298623438326105 15.62872841556093 0 0 0
246 82 1 0.5897 5.83858907423448 14.275872838279634 4.455691178183838 0 0 0
119 40 1 0.5897 1.9698664551316385 10.812901278254438 4.064350586373774 0 0 0
123 41 1 0.5897 3.6787970617544072 12.431152496893203 1.2241270019958452 0 0 0
118 40 2 -1.1794 1.0206117733693945 10.714782479247663 3.9892065715587544 0 0 0
244 82 2 -1.1794 6.483944096981663 14.129020629341968 5.14728295931765 0 0 0
120 40 1 0.5897 0.7627260971944885 11.367028054392224 3.337737768404688 0 0 0
125 42 1 0.5897 4.436831490119969 10.659942128635596 4.523518916776941 0 0 0
156 52 1 0.5897 8.851350404367412 10.971278520147289 3.6056740388957946 0 0 0
819 273 1 0.5897 8.330495884696086 12.126134043055622 0.6018733427903561 0 0 1
122 41 1 0.5897 4.300229700320386 12.113128488934324 2.5675859182177923 0 0 0
220 74 2 -1.1794 4.315056513607961 14.714946009718584 3.4908923140765045 0 0 0
154 52 2 -1.1794 7.918413581943314 10.842417484669612 3.7770748980021938 0 0 0
284 95 1 0.5897 7.199480223635934 14.283975404197408 1.9004521536535826 0 0 0
121 41 2 -1.1794 4.422066762172415 12.65168691685122 1.785601818954122 0 0 0
124 42 2 -1.1794 3.8757261054670678 10.5992444697159 3.7503047966210934 0 0 0
127 43 2 -1.1794 0.5264824285954917 12.35606807257842 1.8683030062170038 0 0 0
222 74 1 0.5897 4.41973243842823 14.17667753131345 2.7062313704820125 0 0 0
163 55 2 -1.1794 6.982372262796596 12.659807503813104 1.7549484970784488 0 0 0
164 55 1 0.5897 6.060303558587137 12.427530174598251 1.6443084514655855 0 0 0
165 55 1 0.5897 7.264471596471038 12.163203631328821 2.5231637582012643 0 0 0
276 92 1 0.5897 9.77533053776579 14.179729660466334 4.376335086967998 0 0 0
240 80 1 0.5897 2.756667114733209 14.209530202819403 4.422285242953976 0 0 0
129 43 1 0.5897 0.7283677478715515 13.265812569337543 2.087384147814441 0 0 0
275 92 1 0.5897 8.39296381092044 13.898476096542987 4.926087876119085 0 0 0
783 261 1 0.5897 1.6164937998207711 12.09183812328059 0.48314239028138983 0 0 1
155 52 1 0.5897 7.685119784235819 10.067764410756034 3.265463104754185 0 0 0
238 80 2 -1.1794 1.9303918337452246 14.111678612327548 4.895662496708849 0 0 0
274 92 2 -1.1794 9.295647342386527 14.066120673868262 5.1969102521366075 0 0 0
116 39 1 0.5897 6.614816099018503 11.231401182753796 5.101760208201628 0 0 0
133 45 2 -1.1794 2.6001150836049747 12.112791787040019 6.735210998408319 0 0 0
134 45 1 0.5897 1.9787955747936763 12.345452995424012 7.4252887272627275 0 0 0
135 45 1 0.5897 3.327966218086305 12.723561679915456 6.851665364230014 0 0 0
480 160 1 0.5897 7.7448280617504395 11.398935706587153 9.902370183284955 0 0 0
450 150 1 0.5897 4.530830744389246 11.499237230410039 9.667042238777448 0 0 0
451 151 2 -1.1794 1.0857981919280917 12.297319170835728 8.963241491059485 0 0 0
453 151 1 0.5897 1.1323952035531375 11.71416625184478 9.720957574774706 0 0 0
171 57 1 0.5897 9.445282283179058 11.253450259544474 6.960710607299851 0 0 0
573 191 1 0.5897 1.0820950689836017 14.366915879921454 9.207382444370337 0 0 0
446 149 1 0.5897 4.529757535837459 13.34794951974161 9.171226763572001 0 0 0
169 57 2 -1.1794 9.266198846775499 12.144933319178701 7.259959131018671 0 0 0
488 163 1 0.5897 8.1726920791127 12.724162383518578 8.446880491570646 0 0 0
445 149 2 -1.1794 4.839440410965016 12.723080996081373 8.515475727047216 0 0 0
435 145 1 0.5897 2.770825944920693 10.253567074644065 6.761808256076659 0 0 0
447 149 1 0.5897 5.7327470746136475 12.512502960272682 8.787604248022191 0 0 0
170 57 1 0.5897 9.500322698811578 12.69953958499609 6.515692413235781 0 0 0
115 39 2 -1.1794 5.835372440755147 11.473697140670557 5.601916164235883 0 0 0
489 163 1 0.5897 7.399371079799916 13.78101569783711 9.20664014692629 0 0 0
487 163 2 -1.1794 7.462492617489951 12.834368993225414 9.079084514683835 0 0 0
448 150 2 -1.1794 4.29742663202661 10.798386835368945 10.27591409763414 0 0 0
239 80 1 0.5897 2.0343901195571874 13.301642504849248 5.395083446464528 0 0 0
245 82 1 0.5897 6.242394222924187 13.283376154742305 5.525311706368495 0 0 0
117 39 1 0.5897 5.848492386607361 10.8931488133893 6.3629554679058735 0 0 0
452 151 1 0.5897 0.16687438148795733 12.27098345409731 8.696272378586263 0 0 0
478 160 2 -1.1794 7.98027060327299 10.51815669280063 10.194222043941418 0 0 0
317 106 1 0.5897 0.2723052341366822 13.886721991152402 5.215258773704743 1 0 0
457 153 2 -1.1794 2.7220413443377893 11.61299946335062 13.816603806167976 0 0 0
458 153 1 0.5897 2.003813225322279 11.697354800802666 14.443839289358486 0 0 0
459 153 1 0.5897 3.4974734490139223 11.898711489084313 14.299789538624609 0 0 0
811 271 2 -1.1794 7.567956499810842 12.48104307726907 15.426024620335893 0 0 0
562 188 2 -1.1794 1.5386914742628184 13.956427627417646 12.361737937285833 0 0 0
563 188 1 0.5897 1.8662726301607133 13.148852936246543 12.757865852035573 0 0 0
581 194 1 0.5897 9.936354166405144 14.075619657633833 10.654896128072393 0 0 0
598 200 2 -1.1794 8.55097478043995 13.643794741859958 11.715886467992792 0 0 0
442 148 2 -1.1794 1.6269708886714782 10.344070212111438 10.888721929925795 0 0 0
546 182 1 0.5897 4.421557964862719 14.21590674222142 11.24070123927795 0 0 0
449 150 1 0.5897 4.989523366962461 10.81446943673863 10.937074525978025 0 0 0
795 265 1 0.5897 9.39767504001412 10.010207528310726 13.871010048028387 0 0 0
493 165 2 -1.1794 9.40704887660998 11.659915691827246 13.487972901396722 0 0 0
439 147 2 -1.1794 6.128322677142146 10.907684522675932 12.380430698414951 0 0 0
600 200 1 0.5897 8.781063663751125 14.42509243608777 12.218907046331163 0 0 0
440 147 1 0.5897 6.755796525846756 10.529068738591869 11.764545059211382 0 0 0
441 147 1 0.5897 6.064181937405457 10.262518641465936 13.084729608318115 0 0 0
479 160 1 0.5897 8.906826261341743 10.58183123772938 10.426229699909234 0 0 0
494 165 1 0.5897 8.595986569962445 11.890864577896181 13.940971948750507 0 0 0
568 190 2 -1.1794 5.827144786897754 13.789685853225178 12.202253396119326 0 0 0
569 190 1 0.5897 5.770044374422058 13.004604333646705 12.747031300038625 0 0 0
599 200 1 0.5897 8.77303017043769 12.91287093637051 12.292805142738077 0 0 0
570 190 1 0.5897 6.692985596382876 13.738296634060214 11.797198006813442 0 0 0
769 257 2 -1.1794 4.835486505654838 12.638741596583182 15.198013553749117 0 0 0
512 171 1 0.5897 0.24980841522051767 10.6365295766924 12.115450550848259 1 0 0
545 182 1 0.5897 2.920120897156129 14.174754831085547 11.050212280791708 0 0 0
770 257 1 0.5897 5.776748405813941 12.47623507210487 15.134592276613036 0 0 0
444 148 1 0.5897 2.52839485023743 10.637188721261648 10.754890130762405 0 0 0
544 182 2 -1.1794 3.7307241574831154 14.446129638397974 10.619315879172534 0 0 0
564 188 1 0.5897 1.8402236089190585 14.650707107843958 12.947770397579493 0 0 0
771 257 1 0.5897 4.7683661011099625 13.52573445468963 15.55176193270019 0 0 0
965 322 1 0.5897 0.46791561608087945 13.942539282006921 18.778988204544156 1 0 0
768 256 1 0.5897 1.3685994053708581 11.39916484493817 17.044171320815195 0 0 0
888 296 1 0.5897 2.3400275128195123 13.049585357140543 18.89291199205408 0 0 0
772 258 2 -1.1794 4.255705218378376 10.765031962794161 17.33750175421418 0 0 0
869 290 1 0.5897 3.2236320872540705 14.378673639461274 17.4014542774172 0 0 0
803 268 1 0.5897 7.329201387476792 10.696210843478468 18.703583550661683 0 0 0
766 256 2 -1.1794 1.5184976139935242 10.630555079141267 17.59478117551923 0 0 0
773 258 1 0.5897 3.3063160167837697 10.807175168126092 17.452600282462214 0 0 0
763 255 2 -1.1794 5.862062943220547 11.13325126107383 19.678268856527133 0 0 0
774 258 1 0.5897 4.4290931558438205 11.311751479042305 16.571088024185507 0 0 0
887 296 1 0.5897 2.519298285406738 14.523215386851682 19.190602258944367 0 0 0
886 296 2 -1.1794 2.1217667796057254 13.92083496352655 18.561736923262394 0 0 0
813 271 1 0.5897 7.798039916165014 11.996158763530724 16.218688800848405 0 0 0
893 298 1 0.5897 6.796029599626817 13.74511257353005 18.64883352167402 0 0 0
922 308 2 -1.1794 8.468325506126437 14.210642892083198 18.308459315789555 0 0 0
810 270 1 0.5897 9.728161933009952 10.510511692812747 17.31480592740496 0 0 0
892 298 2 -1.1794 5.90369365957648 13.826885315828578 18.985662973749584 0 0 0
765 255 1 0.5897 5.652264843307711 10.407897189028953 20.266675888160208 0 0 0
764 255 1 0.5897 5.12586670627667 11.167357637350122 19.067336269822526 0 0 0
894 298 1 0.5897 5.773782499917561 13.039726867204642 19.514702338863003 0 0 0
775 259 2 -1.1794 0.5428033423677749 12.555794747193545 15.643224604989769 0 0 0
818 273 1 0.5897 8.737670034732766 12.326453644587847 19.737321669862098 0 0 0
802 268 2 -1.1794 7.942712976532477 10.70049541354621 17.968788575609224 0 0 0
767 256 1 0.5897 0.9146442260993614 10.7401711854109 18.329448220318802 0 0 0
777 259 1 0.5897 0.6429219840267122 13.505730372257661 15.706490459201541 0 0 0
870 290 1 0.5897 4.736713189844251 14.376728906183741 17.45532561368507 0 0 0
868 290 2 -1.1794 3.9987003125288187 14.665603179040625 16.91840634749208 0 0 0
924 308 1 0.5897 9.108022362587537 14.570964384427427 17.694207851135047 0 0 0
817 273 2 -1.1794 9.054646952764218 11.98221061895594 20.572401091610708 0 0 0
923 308 1 0.5897 8.396799477350566 14.872572016048947 18.996295485715862 0 0 0
782 261 1 0.5897 2.4043903269749176 10.911530707014599 20.535386466078748 0 0 0
781 261 2 -1.1794 2.371307561713115 11.868098235177188 20.518414147930294 0 0 0
146 49 1 0.5897 9.2284701335699 10.14996346465324 20.504501226657652 0 0 -1
252 84 1 0.5897 5.842744414783552 14.967765233144446 20.338126964499374 0 0 -1
812 271 1 0.5897 7.7518488506933565 13.395325790556175 15.642062927059241 0 0 0
221 74 1 0.5897 4.29255976261724 15.614316981173815 3.163752593453001 0 0 0
235 79 2 -1.1794 0.8793537199930087 19.181087308257318 1.690823870065153 0 0 0
230 77 1 0.5897 3.945556090140981 19.170425792373997 0.655981141621615 0 0 0
232 78 2 -1.1794 4.746759910379016 17.39637439460757 3.007160548440693 0 0 0
890 297 1 0.5897 1.9030898594264718 18.725316932089115 0.3898090856630937 0 0 1
229 77 2 -1.1794 4.604601518043548 19.540076705321376 1.2436833442000517 0 0 0
250 84 2 -1.1794 5.557913992502663 15.687747229352137 0.32120897573364704 0 0 0
264 88 1 0.5897 9.137482784897909 16.96549472066024 3.9128047036857554 0 0 0
296 99 1 0.5897 0.5746601412925572 17.64760755277409 4.855234031156311 1 0 0
249 83 1 0.5897 1.7402551235076371 15.295602516363532 1.4428965779230059 0 0 0
234 78 1 0.5897 5.197378741460993 17.690146068704458 3.799004400177455 0 0 0
226 76 2 -1.1794 1.9413220822648045 17.541578967960767 3.5238727674365307 0 0 0
251 84 1 0.5897 6.234785571350085 15.747433161224055 0.9954833354408917 0 0 0
233 78 1 0.5897 4.637797383681321 18.190799284401955 2.4843130661073114 0 0 0
262 88 2 -1.1794 8.185114428639631 16.975520964153006 4.009094271075865 0 0 0
273 91 1 0.5897 7.666859203162967 18.51225850701249 2.782789141538045 0 0 0