LAMMPS data file via write_data, version 30 Jul 2021, timestep = 39000000

972 atoms
2 atom types
648 bonds
1 bond types
324 angles
1 angle types

0.024032585316287935 19.97596841464913 xlo xhi
0.03343928660509654 19.966561713373395 ylo yhi
0.014670551193452397 20.685327448794794 zlo zhi

Masses

1 1.008
2 15.999

Pair Coeffs # lj/cut/tip4p/long/omp

1 0 0
2 0.21084 3.1668

Bond Coeffs # harmonic/omp

1 450 0.9572

Angle Coeffs # harmonic/omp

1 55 104.52

Atoms # full

10 4 2 -1.1794 1.1580527212942682 4.085349800676187 3.9594287090376583 0 0 0
11 4 1 0.5897 1.0658505270436955 3.34952376460603 3.3543017963551436 0 0 0
12 4 1 0.5897 2.1027539890883844 4.223919568670703 4.02656045016068 0 0 0
33 11 1 0.5897 1.5105749902007233 2.1946377100074845 1.489287241699964 0 0 0
31 11 2 -1.1794 0.7987115788608428 2.0134859440711734 2.10298739434956 0 0 0
18 6 1 0.5897 4.031658648424402 3.2811872242744937 3.6163740917532547 0 0 0
4 2 2 -1.1794 4.181245017006484 1.4632299788025902 3.4696092764535753 0 0 0
16 6 2 -1.1794 3.8720733812994337 4.208172470739692 3.793231122400744 0 0 0
23 8 1 0.5897 2.702224981174294 1.0875544784299616 4.367466203590681 0 0 0
5 2 1 0.5897 4.276885733897555 0.8335097585869308 2.7551466522092736 0 0 0
17 6 1 0.5897 4.171429546732647 4.658140890061223 3.0032249258175163 0 0 0
3 1 1 0.5897 3.6617884341922884 2.5005565613790908 0.31848068083866027 0 0 0
22 8 2 -1.1794 1.9948676716081735 0.909879002464614 4.987368674851905 0 0 0
111 37 1 0.5897 3.677752411683442 9.252040549165821 0.20801077834646992 0 0 0
102 34 1 0.5897 0.19465839288910125 0.9213407020632634 5.109069508819851 1 0 0
126 42 1 0.5897 4.212721067320188 9.860822048535322 3.3964799106819172 0 0 0
13 5 2 -1.1794 4.683498109309322 5.885484467873905 1.656853206526681 0 0 0
15 5 1 0.5897 4.427334320069043 6.70505232663521 2.0796703729860653 0 0 0
19 7 2 -1.1794 0.7073998794550282 5.962660469765527 2.0512112250041272 0 0 0
1 1 2 -1.1794 2.7236667443382756 2.6062444199879007 0.16064051187055833 0 0 0
20 7 1 0.5897 0.886140221033551 5.372856586721259 2.7835569184465165 0 0 0
110 37 1 0.5897 2.2452497948991956 9.15743344935638 0.6883722090715781 0 0 0
674 225 1 0.5897 1.8204669771476865 5.510146584773595 0.6552051552649123 0 0 1
114 38 1 0.5897 3.4584178552361253 7.795440205659059 3.8335444156872467 0 0 0
14 5 1 0.5897 4.006591916572692 5.733904958279401 0.9972863654021864 0 0 0
139 47 2 -1.1794 1.0134450560221202 8.764458334344434 2.0244815870772173 0 0 0
141 47 1 0.5897 1.1076424698834657 7.871111504977074 2.354821767287936 0 0 0
112 38 2 -1.1794 4.2835610033061275 8.010574458654855 3.3987594561305063 0 0 0
140 47 1 0.5897 1.1714628032764796 9.32029943173861 2.787536661228278 0 0 0
236 79 1 0.5897 0.8472740121201822 0.21788888910731163 2.0286956929113025 0 1 0
130 44 2 -1.1794 1.8860362444723457 7.455627993336247 4.795876246189438 0 0 0
132 44 1 0.5897 0.9357183933488242 7.473065785047621 4.90880503378077 0 0 0
6 2 1 0.5897 4.8559351814617475 1.2140182431173367 4.101176714444157 0 0 0
113 38 1 0.5897 4.95966477568136 7.743407867353435 4.021417783569373 0 0 0
131 44 1 0.5897 2.154384589896206 6.608296436649681 5.150939169490473 0 0 0
2 1 1 0.5897 2.604293392312681 3.5489497478327436 0.04618744108355344 0 0 0
673 225 2 -1.1794 2.5323751676613258 5.303635006336942 0.04961516056732762 0 0 1
325 109 2 -1.1794 2.5484287774124446 2.6427384413260895 7.012937023038506 0 0 0
326 109 1 0.5897 2.383200479988234 2.043392992865319 6.285162196907657 0 0 0
327 109 1 0.5897 3.4901926771711285 2.575522094685873 7.170127326209624 0 0 0
355 119 2 -1.1794 0.7721173290475725 2.0806157914195142 9.085242827257341 0 0 0
356 119 1 0.5897 1.4562849609473947 2.2940505161594493 8.450763885174307 0 0 0
27 9 1 0.5897 2.503660900164884 4.440242319897713 6.449942919152273 0 0 0
329 110 1 0.5897 4.028589536512133 0.8329409601326669 9.325837685643668 0 0 0
26 9 1 0.5897 1.9800977125500572 5.686133143301196 7.1320015239276024 0 0 0
342 114 1 0.5897 4.275246168718247 4.760073452360462 9.713088834181935 0 0 0
561 187 1 0.5897 0.7852778130449988 0.29163917498994185 8.781571340339642 0 1 0
438 146 1 0.5897 4.045847842544985 8.883813705091784 10.041302336392764 0 0 0
341 114 1 0.5897 3.9638618921542985 3.3230408550172954 10.072804224650657 0 0 0
328 110 2 -1.1794 3.916614712101995 1.4931415050095826 10.009757778102264 0 0 0
343 115 2 -1.1794 0.794257326186834 5.995652545015506 8.45513761171036 0 0 0
25 9 2 -1.1794 2.57134684727814 5.394869150074572 6.43788806664966 0 0 0
464 155 1 0.5897 1.3962983404886242 8.77778148570952 8.309814801324155 0 0 0
337 113 2 -1.1794 4.563916496408842 5.979185902324247 8.34621549806748 0 0 0
344 115 1 0.5897 0.9817739227258035 5.377937740995082 9.161842128041673 0 0 0
433 145 2 -1.1794 2.8000101377952755 9.069132737321492 7.160614075830813 0 0 0
345 115 1 0.5897 0.7911140604069415 6.853045600727693 8.88051659760347 0 0 0
435 145 1 0.5897 2.4595607735837484 8.591702889194158 6.404078856541417 0 0 0
468 156 1 0.5897 4.606908409658673 9.059445370940276 7.1547149046805405 0 0 0
339 113 1 0.5897 4.092003514996267 5.751227915657757 7.545247398321519 0 0 0
437 146 1 0.5897 4.195156900435982 7.496375089388545 9.454610424622825 0 0 0
463 155 2 -1.1794 0.7428374762680979 8.709738318510352 9.005928111795017 0 0 0
434 145 1 0.5897 2.6270411374466867 9.98915301563242 6.961371340619047 0 0 0
335 112 1 0.5897 1.0421377865161494 3.4404485438506334 10.141540893941551 0 0 0
443 148 1 0.5897 1.2039778952294151 9.947131079093625 10.269474232986516 0 0 0
436 146 2 -1.1794 4.0736135118774115 7.958414748587126 10.284033032798586 0 0 0
24 8 1 0.5897 2.2190310460193983 0.06200665677882917 5.370693156451389 0 0 0
649 217 2 -1.1794 2.590085278479617 2.492212197780516 13.65613438473888 0 0 0
650 217 1 0.5897 2.3657766706990984 1.915501981750905 12.925887662689222 0 0 0
651 217 1 0.5897 2.0466578752692173 2.183833444820467 14.38125289487049 0 0 0
348 116 1 0.5897 2.448706482641797 0.9503512662386557 10.97111626245291 0 0 0
346 116 2 -1.1794 1.9509624353771684 0.656907511369278 11.734239294012118 0 0 0
350 117 1 0.5897 2.5057622945800486 4.391001712115125 13.402359656036225 0 0 0
347 116 1 0.5897 1.0367083931600596 0.8172301426432248 11.500556100830483 0 0 0
683 228 1 0.5897 4.386881471007486 2.519193946538635 14.117432625529982 0 0 0
336 112 1 0.5897 2.134273814182654 4.375365287477414 10.615644248418173 0 0 0
330 110 1 0.5897 4.696144084190103 1.4052068153800699 10.558202583133772 0 0 0
334 112 2 -1.1794 1.1825306502232236 4.281820702541838 10.575653409390876 0 0 0
340 114 2 -1.1794 3.9156590024836393 4.216067309578998 10.41374023780177 0 0 0
789 263 1 0.5897 1.3689907922663027 8.677473743244237 15.35540632000819 0 0 0
351 117 1 0.5897 3.333392944196511 5.460571951657676 14.08255963183663 0 0 0
759 253 1 0.5897 2.4461960546306707 8.774066967952535 13.393296621045243 0 0 0
668 223 1 0.5897 1.1300647966001185 5.53493946246131 14.6676293382588 0 0 0
455 152 1 0.5897 2.7194599184697466 7.707600514501935 11.376508407359058 0 0 0
456 152 1 0.5897 2.334561492573474 6.705886451548544 12.444277467597871 0 0 0
454 152 2 -1.1794 2.0858352162988996 7.5541697027964005 12.077361066878373 0 0 0
792 264 1 0.5897 4.488007859440938 9.41903564768692 14.221262761315133 0 0 0
349 117 2 -1.1794 2.517254035629431 5.327293618639927 13.600537637293613 0 0 0
757 253 2 -1.1794 2.6768606964064015 9.299980988971203 14.159056479077936 0 0 0
533 178 1 0.5897 0.24523577618893955 7.491669445575302 11.929331767672984 1 0 0
661 221 2 -1.1794 4.628184907897167 5.842646827009239 15.322398096212924 0 0 0
667 223 2 -1.1794 0.48417549604959886 5.675190321076648 15.359995882464103 0 0 0
653 218 1 0.5897 3.3095751738338883 1.13061167109559 17.39574095996769 0 0 0
652 218 2 -1.1794 4.170564888827536 1.3305620947633028 17.028462176414642 0 0 0
664 222 2 -1.1794 3.9409444997362613 4.098483688034709 17.510283694362045 0 0 0
671 224 1 0.5897 2.1670926041055227 1.5977146886509954 19.42781128366356 0 0 0
666 222 1 0.5897 4.139409119960105 3.1875295744311476 17.293880763325 0 0 0
670 224 2 -1.1794 2.022107770182466 0.9906121829847757 18.702156317360703 0 0 0
665 222 1 0.5897 2.990332473780542 4.11734369774684 17.620523346516535 0 0 0
681 227 1 0.5897 0.8125533691209468 2.5865212170354623 16.389004179568644 0 0 0
672 224 1 0.5897 1.0708410573828686 0.9613539040905642 18.600147575341182 0 0 0
658 220 2 -1.1794 1.2392852307407836 4.078977336134912 17.537400436033018 0 0 0
659 220 1 0.5897 0.6232209100561604 4.191632530650679 18.26127357528764 0 0 0
654 218 1 0.5897 4.288075922857394 0.6881741085042562 16.328687867872567 0 0 0
662 221 1 0.5897 4.348574482970946 5.227087726469132 15.999940708912499 0 0 0
679 227 2 -1.1794 0.7934223679458866 1.9243598330854579 15.698113776475747 0 0 0
660 220 1 0.5897 0.9382666119719921 4.693532411360769 16.8681710567716 0 0 0
663 221 1 0.5897 4.476834613480425 6.706442002617328 15.70584219497751 0 0 0
884 295 1 0.5897 0.8078155777642323 0.20757646053041975 15.693569810357326 0 1 0
787 263 2 -1.1794 0.6312991914086634 8.459073644452323 15.924886258984158 0 0 0
858 286 1 0.5897 0.4717701699150847 7.288656454461432 18.697249842215093 1 0 0
780 260 1 0.5897 2.7083276448264693 7.556750240234466 18.094438027420473 0 0 0
761 254 1 0.5897 4.105160985862291 8.94225067924051 17.006740293019313 0 0 0
778 260 2 -1.1794 2.2166459278066983 7.338345576839968 18.886127816587 0 0 0
760 254 2 -1.1794 4.192931168165897 7.989210096840098 17.01363670987088 0 0 0
788 263 1 0.5897 0.7201151318671403 9.05219494898774 16.670866019264608 0 0 0
779 260 1 0.5897 2.375720752063652 8.073547009550582 19.477976502493128 0 0 0
675 225 1 0.5897 2.4163199733744793 5.917499823738389 19.995104263745098 0 0 0
669 223 1 0.5897 0.5244358328034281 6.614532511078757 15.539024495473315 0 0 0
109 37 2 -1.1794 2.77574290770097 9.422897174318233 20.6078160421536 0 0 -1
762 254 1 0.5897 4.9181032532 7.8193535752941035 17.614864301060763 0 0 0
120 40 1 0.5897 1.0754779493812416 11.490323301662682 3.2761591171406876 0 0 0
129 43 1 0.5897 0.8724343942368028 13.590917225620343 2.212555632193529 0 0 0
118 40 2 -1.1794 1.385597079565264 10.819340019258295 3.884229596171347 0 0 0
119 40 1 0.5897 2.3396792554438735 10.889287953076158 3.852592301848754 0 0 0
240 80 1 0.5897 2.484467258564652 13.992197143818633 4.280228280612547 0 0 0
127 43 2 -1.1794 0.740513089739167 12.667254977412732 1.9992606560153485 0 0 0
123 41 1 0.5897 4.061397155408109 12.38825497631678 0.878979097471792 0 0 0
222 74 1 0.5897 4.230872035162757 14.002266630895267 2.4316253966511616 0 0 0
124 42 2 -1.1794 4.101656502850907 10.801528209174379 3.533530318510937 0 0 0
783 261 1 0.5897 1.8889798251350394 12.335637831996452 0.5987635031383013 0 0 1
220 74 2 -1.1794 3.9172055353167843 14.46147467313656 3.2106899221762015 0 0 0
122 41 1 0.5897 4.609241833013707 11.913133115647454 2.2078903927237263 0 0 0
121 41 2 -1.1794 4.784406569823591 12.52330721353285 1.4915339092031723 0 0 0
247 83 2 -1.1794 0.9053224668435474 15.368911290590495 2.1779743610538005 0 0 0
248 83 1 0.5897 0.9987216597324252 15.999446876316567 2.8920183406926707 0 0 0
890 297 1 0.5897 1.9678831597858242 18.954235233119867 0.4436896525421562 0 0 1
226 76 2 -1.1794 1.4002315890450845 17.534021649675537 3.851020459157013 0 0 0
228 76 1 0.5897 0.7678069431311967 17.787486596062735 4.52332584158862 0 0 0
221 74 1 0.5897 4.0865094963666175 15.385759010861458 3.0287946338641114 0 0 0
232 78 2 -1.1794 4.14765957343812 17.26870365452934 3.5291229431160343 0 0 0
233 78 1 0.5897 4.300266936671915 17.97759407407043 2.9043650146638305 0 0 0
125 42 1 0.5897 4.709067840070099 11.014172124173571 4.242082498332848 0 0 0
227 76 1 0.5897 1.2200926289316913 18.12250773444132 3.1179451978594788 0 0 0
235 79 2 -1.1794 0.7692024235124836 19.218368338853487 1.8283718345455122 0 0 0
234 78 1 0.5897 3.2417258513855542 17.39006394113003 3.813249800477917 0 0 0
249 83 1 0.5897 1.5952350549478043 15.604653836612753 1.557779801694915 0 0 0
229 77 2 -1.1794 4.636288982784309 19.322104020204996 1.7799393310376408 0 0 0
230 77 1 0.5897 4.177073198823694 19.24491606598518 0.943639627188778 0 0 0
219 73 1 0.5897 3.5130111034008475 15.945873157205286 0.2740400959753096 0 0 0
238 80 2 -1.1794 1.911366761253114 13.924503398120335 5.043889558722407 0 0 0
317 106 1 0.5897 0.09525325292639998 13.842053148228139 5.104209337797898 1 0 0
217 73 2 -1.1794 2.5860081255633136 16.056904074040958 0.06306738023877756 0 0 0
133 45 2 -1.1794 2.432485220805628 11.890138734847524 6.880040190989361 0 0 0
134 45 1 0.5897 1.7997039985861476 12.122086572926998 7.559739523010588 0 0 0
135 45 1 0.5897 3.283521462609632 12.108152951327527 7.260017993976211 0 0 0
453 151 1 0.5897 0.9626649366809393 12.072854536844904 9.659357346893549 0 0 0
451 151 2 -1.1794 0.7630291693433777 12.735744957538309 8.998395276166805 0 0 0
450 150 1 0.5897 4.1849912145636985 11.29202248976585 9.588535969849826 0 0 0
446 149 1 0.5897 4.460332446921797 13.25696025860378 8.900362424334283 0 0 0
573 191 1 0.5897 0.8931710895552731 14.600513981161455 9.185700303304586 0 0 0
445 149 2 -1.1794 4.63339100421046 12.471017265270243 8.382244988369115 0 0 0
239 80 1 0.5897 2.213227080860116 13.140043439799205 5.501713883039311 0 0 0
541 181 2 -1.1794 2.6729468838212975 15.86310965906247 6.884243543634252 0 0 0
551 184 1 0.5897 1.0449201578163818 18.199451123871526 10.116049005018608 0 0 0
576 192 1 0.5897 4.4381640144569365 15.72312938550621 7.170981102997553 0 0 0
543 181 1 0.5897 2.342988091385284 15.251507871023357 6.226044227995463 0 0 0
242 81 1 0.5897 2.5623160561417766 17.676465772710344 6.5931877507315635 0 0 0
559 187 2 -1.1794 0.739161250424313 19.278884156731777 8.642899210127817 0 0 0
571 191 2 -1.1794 0.8373941945960174 15.518428689816545 8.92041562377986 0 0 0
572 191 1 0.5897 0.9502498497921871 16.010469998969757 9.7336547926519 0 0 0
553 185 2 -1.1794 4.398432667659289 19.07125316361573 8.48408095956219 0 0 0
555 185 1 0.5897 3.930558705745996 18.97721924364724 7.654329652020314 0 0 0
243 81 1 0.5897 1.8269031571196401 18.81272780176016 7.271184875853183 0 0 0
241 81 2 -1.1794 2.4756554318761514 18.629631804804106 6.59162550684794 0 0 0
558 186 1 0.5897 4.205465938081268 17.810053180134467 9.811538554155655 0 0 0
542 181 1 0.5897 2.0728515029066505 15.766710728764519 7.623709959812092 0 0 0
544 182 2 -1.1794 4.167032435179066 14.579933763297092 10.163114797952987 0 0 0
448 150 2 -1.1794 4.041005796412746 10.675494601931982 10.306394941155004 0 0 0
557 186 1 0.5897 4.069941502450506 16.38689334610335 10.309255632587076 0 0 0
457 153 2 -1.1794 2.4342351489333947 11.987515033053086 13.520051160918783 0 0 0
458 153 1 0.5897 1.7086054809140885 12.19324457402924 14.109400856529051 0 0 0
459 153 1 0.5897 3.2185037262920964 12.236530651943774 14.009023828595716 0 0 0
562 188 2 -1.1794 2.035952587553141 14.152364862207982 11.842309385074248 0 0 0
563 188 1 0.5897 2.2250011871228925 13.288384785077529 12.208196345854583 0 0 0
449 150 1 0.5897 4.615386042663633 10.984422350361747 11.007004643088315 0 0 0
442 148 2 -1.1794 1.336562654575972 10.697258972599466 10.849001257672771 0 0 0
444 148 1 0.5897 2.2872678909949515 10.795599417460538 10.90055518181528 0 0 0
896 299 1 0.5897 0.18296085159686715 15.602506362348876 15.224906333902391 0 0 0
769 257 2 -1.1794 4.486438545100618 12.560440925656998 15.277359588054924 0 0 0
564 188 1 0.5897 2.345419082040047 14.767411840083431 12.507221146337647 0 0 0
758 253 1 0.5897 2.5522957024041264 10.20532398739025 13.874640060903237 0 0 0
545 182 1 0.5897 3.3895133629240073 14.473576809778443 10.711153820050354 0 0 0
866 289 1 0.5897 3.727160542783527 15.882871854450071 14.130215675958002 0 0 0
867 289 1 0.5897 2.286492241326943 15.69528231294654 14.555665893022976 0 0 0
566 189 1 0.5897 2.6854616253411168 17.756957809850334 13.479174097587473 0 0 0
885 295 1 0.5897 1.338765846375344 18.969227363498035 14.895229412404651 0 0 0
565 189 2 -1.1794 2.6720942230756592 18.69222740490234 13.682009201276967 0 0 0
879 293 1 0.5897 4.128894220073503 19.11864694093414 14.620901367450076 0 0 0
865 289 2 -1.1794 2.833522802738656 15.86149555493058 13.787975819623329 0 0 0
552 184 1 0.5897 2.2048634822712145 17.49393606830938 10.785745352656107 0 0 0
556 186 2 -1.1794 4.023034922175783 17.297803497332076 10.599259276207656 0 0 0
567 189 1 0.5897 2.4710035993263 19.115844907786645 12.847552911640685 0 0 0
550 184 2 -1.1794 1.2510804170553924 17.571157328380927 10.808073815270639 0 0 0
546 182 1 0.5897 4.9004898627746805 14.539678826320916 10.77681320247636 0 0 0
642 214 1 0.5897 0.25535448773653374 14.15256140219472 12.067074923949766 1 0 0
621 207 1 0.5897 0.06921441105002302 17.8861825003518 12.165329895656617 1 0 0
877 293 2 -1.1794 4.762132260500029 19.1907633734551 15.335063093692902 0 0 0
768 256 1 0.5897 1.1037590317757813 11.362532580283792 16.86825580765757 0 0 0
888 296 1 0.5897 2.141275175581903 13.399392972379196 19.294508905293313 0 0 0
766 256 2 -1.1794 1.179355307927427 10.685385657518287 17.54049449824045 0 0 0
773 258 1 0.5897 2.939094211644744 10.760947182810229 17.349127657474583 0 0 0
886 296 2 -1.1794 2.060761979604259 14.207729214165175 18.788344782135432 0 0 0
774 258 1 0.5897 4.096732121434514 11.384699812339994 16.59910440832138 0 0 0
772 258 2 -1.1794 3.886418750318546 10.695354005968232 17.228951632974244 0 0 0
869 290 1 0.5897 3.2701648107148875 14.518277368609581 17.526619987927404 0 0 0
767 256 1 0.5897 0.620010131883951 10.992063612105651 18.254125030372073 0 0 0
868 290 2 -1.1794 4.066371945597762 14.71084678153953 17.031483225373435 0 0 0
781 261 2 -1.1794 2.543456637162895 12.197555868485818 20.58472579182434 0 0 0
218 73 1 0.5897 2.4942244804631954 16.98950873450191 20.539113179611036 0 0 -1
887 296 1 0.5897 2.1011394140648196 14.905348351021996 19.442437863130742 0 0 0
782 261 1 0.5897 2.5615259275899063 11.249079334901388 20.457809575604756 0 0 0
965 322 1 0.5897 0.30988780655915943 14.145812420476886 18.772600885429043 1 0 0
870 290 1 0.5897 4.7728439533177145 14.630040572279194 17.67224704211614 0 0 0
897 299 1 0.5897 0.954180735052203 16.004073862074925 16.46419346400441 0 0 0
874 292 2 -1.1794 1.1871073624959234 17.379753547612324 17.567549650783413 0 0 0
889 297 2 -1.1794 2.687640887228307 18.854979584983127 20.491206018220666 0 0 0
891 297 1 0.5897 2.480330788318771 19.467478823174133 19.785494494989578 0 0 0
880 294 2 -1.1794 4.007373188724019 17.384961626755583 17.26378430288709 0 0 0
875 292 1 0.5897 0.7550360269469574 17.648733369918283 18.3782168399325 0 0 0
878 293 1 0.5897 4.540618326991438 18.471026428812294 15.92586073028892 0 0 0
876 292 1 0.5897 0.9558109335418744 18.059971423295714 16.93513342098123 0 0 0
881 294 1 0.5897 3.0788601558295685 17.513875218622736 17.457201942124414 0 0 0
882 294 1 0.5897 4.0877688322420225 16.447811198558988 17.086811534934114 0 0 0
895 299 2 -1.1794 0.928534909054917 15.347433923635322 15.768269596954621 0 0 0
764 255 1 0.5897 4.9641363958362446 10.981888097592204 18.552910856798285 0 0 0
775 259 2 -1.1794 0.6717666732126228 12.604894560944176 15.575336492534424 0 0 0
883 295 2 -1.1794 0.7631031278678102 19.186871785251064 15.628344928264125 0 0 0
777 259 1 0.5897 0.8136306087754079 13.537448512327611 15.73737941531527 0 0 0
771 257 1 0.5897 4.434556302793049 13.371403733158324 15.783076592132582 0 0 0
9 3 1 0.5897 5.148350029119536 4.398247842025537 5.004013229862627 0 0 0
55 19 2 -1.1794 7.398189525664701 5.969547261805986 1.8893854653594366 0 0 0
273 91 1 0.5897 7.329107765445342 0.2883326910016051 1.8450806176446206 0 1 0
34 12 2 -1.1794 5.511137425753034 2.4940381779048115 0.38768321822277513 0 0 0
143 48 1 0.5897 6.063656539314505 9.063648079140917 1.04971142634698 0 0 0
57 19 1 0.5897 7.579877981129877 5.326680855264698 2.5748525057096536 0 0 0
58 20 2 -1.1794 8.724852380740439 0.7402343916315678 4.965003099310082 0 0 0
48 16 1 0.5897 7.3367258579275925 4.1192498300465035 4.500067216903349 0 0 0
67 23 2 -1.1794 7.504652598685562 2.027121356730982 2.1340074908026003 0 0 0
46 16 2 -1.1794 7.947893719303459 4.09448846482881 3.7638031474001203 0 0 0
68 23 1 0.5897 8.256138960814924 2.1639815787916215 1.557173052084423 0 0 0
69 23 1 0.5897 6.746348628210737 2.265724464968628 1.6008784358583954 0 0 0
47 16 1 0.5897 7.722295628374069 3.2931783557667966 3.291461627513823 0 0 0
56 19 1 0.5897 6.44775974921095 5.9412447127208665 1.7796351427987473 0 0 0
175 59 2 -1.1794 7.392769695575181 8.740075045455493 2.1178850976829 0 0 0
711 237 1 0.5897 8.483776145639974 5.669550031524721 0.47847273046146943 0 0 1
142 48 2 -1.1794 5.440641111987308 9.180811034305075 0.33254108384216674 0 0 0
176 59 1 0.5897 7.443468782330948 7.799753785626793 2.2889530131080993 0 0 0
177 59 1 0.5897 8.156042484148585 8.926008327732006 1.5710496173851742 0 0 0
166 56 2 -1.1794 8.876252247545134 7.516313325278868 4.854681385846582 0 0 0
145 49 2 -1.1794 9.342472796036125 9.399810263869938 0.33175670575536065 0 0 0
37 13 2 -1.1794 9.282909129503967 2.5731720406684615 0.02515290121963628 0 0 0
53 18 1 0.5897 9.754494279870745 4.150651936098484 3.7296142840120075 0 0 0
29 10 1 0.5897 6.910217319285559 0.6707248337392354 5.160044297766871 0 0 0
155 52 1 0.5897 7.897339036791066 9.994464565395921 3.244252023116334 0 0 0
138 46 1 0.5897 7.165400059857882 7.344823687713585 4.936978156519337 0 0 0
41 14 1 0.5897 9.941411027763067 1.0784016866932435 3.718783284271336 0 0 0
379 127 2 -1.1794 7.299139145554795 6.019774953593729 8.300153802217462 0 0 0
361 121 2 -1.1794 9.355611118826191 2.660370359077147 6.9503145952152225 0 0 0
391 131 2 -1.1794 7.487425320598163 2.0985389990939103 9.072528166813179 0 0 0
167 56 1 0.5897 9.103998551562679 6.713482920290634 5.323396688743665 0 0 0
59 20 1 0.5897 8.912895927550196 1.4886727734167258 5.531218208579262 0 0 0
359 120 1 0.5897 6.06273729546269 2.3707251161351235 7.94042018318137 0 0 0
360 120 1 0.5897 5.543035054964583 1.5956685838208597 6.748365688264419 0 0 0
8 3 1 0.5897 5.78837256187065 3.7957024561875436 6.236546589139023 0 0 0
358 120 2 -1.1794 5.337282232498299 2.337699370706042 7.316855232128099 0 0 0
393 131 1 0.5897 7.4250602521023366 1.1436389376510656 9.055030124841712 0 0 0
392 131 1 0.5897 8.093435782806091 2.3124798208552386 8.36317242109533 0 0 0
7 3 2 -1.1794 5.921896937173956 4.463515156488514 5.563980913785028 0 0 0
362 121 1 0.5897 9.357805799058173 3.5944160921956345 6.741501225133676 0 0 0
338 113 1 0.5897 5.48774743623678 5.946687975284237 8.097923597522378 0 0 0
380 127 1 0.5897 7.407661345515469 6.932366112938675 8.567470040904364 0 0 0
467 156 1 0.5897 5.801503103405966 8.471164191668148 6.43456877463579 0 0 0
500 167 1 0.5897 7.724011265336298 9.324730738506247 9.503771940921181 0 0 0
466 156 2 -1.1794 5.551166149111092 9.167699807076644 7.041450902552163 0 0 0
470 157 1 0.5897 8.734847523973665 9.054400982238537 7.544929936306954 0 0 0
168 56 1 0.5897 8.97469676071677 8.210576827610373 5.506174423888477 0 0 0
62 21 1 0.5897 8.650672619921735 5.7613087550011315 7.068296152379488 0 0 0
469 157 2 -1.1794 9.266434741155491 9.309791192297334 6.791001234589064 0 0 0
61 21 2 -1.1794 9.342447493957607 5.424817351011397 6.498734207263655 0 0 0
499 167 2 -1.1794 7.529112807746892 8.66353860499151 8.8397092681653 0 0 0
381 127 1 0.5897 7.483286702148828 5.5143625252927935 9.091880555415838 0 0 0
501 167 1 0.5897 6.793034991215147 9.027195701842999 8.347663674180984 0 0 0
136 46 2 -1.1794 6.256510770146164 7.1994143465413405 5.199498227553026 0 0 0
137 46 1 0.5897 6.2096765846384745 6.263419885193602 5.393816214504054 0 0 0
28 10 2 -1.1794 5.96724925163804 0.6161602918351974 5.314975524801211 0 0 0
371 124 1 0.5897 7.7900108974566 3.5860798642982856 10.073506207204234 0 0 0
717 239 1 0.5897 6.6271320956217155 2.2328049416055546 15.3504343135591 0 0 0
685 229 2 -1.1794 9.15878522957183 2.8260676312789927 13.871746452539574 0 0 0
386 129 1 0.5897 9.050520669145316 4.662096717756311 13.882141022862758 0 0 0
331 111 2 -1.1794 5.960158908174832 4.661948415886314 12.218676794529877 0 0 0
372 124 1 0.5897 7.314284314322492 4.551273909448602 11.138297568248856 0 0 0
332 111 1 0.5897 5.195309784415743 4.501248502067874 11.666072576433871 0 0 0
382 128 2 -1.1794 8.545575647481678 0.8183762341345734 11.927034075713596 0 0 0
684 228 1 0.5897 5.530045886389256 3.3671961901402585 13.60194815832426 0 0 0
354 118 1 0.5897 5.666149357845333 1.5600801712823862 12.72720266477706 0 0 0
384 128 1 0.5897 9.2624362464643 0.7446444772042433 11.297048142284167 0 0 0
353 118 1 0.5897 6.769236608585961 0.9885201341032784 11.862166622551293 0 0 0
686 229 1 0.5897 8.615196794051393 2.4938662115145043 14.586137829485244 0 0 0
383 128 1 0.5897 8.824123326384072 1.5095149842664033 12.527763991318352 0 0 0
352 118 2 -1.1794 5.816541048804747 1.049288050353459 11.931797152103274 0 0 0
370 124 2 -1.1794 7.989270910627821 4.4342096588085855 10.469796940845045 0 0 0
492 164 1 0.5897 7.795352191142459 7.6395634156252585 11.9385286433271 0 0 0
490 164 2 -1.1794 8.704848177817768 7.665025008274913 12.23575563332138 0 0 0
491 164 1 0.5897 9.217492382491136 7.753412456558607 11.43225348992329 0 0 0
794 265 1 0.5897 9.05859517383563 8.745746885015183 13.60979243747933 0 0 0
461 154 1 0.5897 5.709055719760491 8.083544452240815 12.980633564588459 0 0 0
791 264 1 0.5897 5.832401437373103 9.398329677307695 14.916938475207479 0 0 0
790 264 2 -1.1794 5.428724465275431 9.469602863783797 14.051947995956883 0 0 0
387 129 1 0.5897 8.850102628595225 6.0653788991811295 13.350990002638566 0 0 0
333 111 1 0.5897 5.934471688040414 5.602032678888748 12.396476334516445 0 0 0
385 129 2 -1.1794 9.057362612807376 5.580911739197311 14.150074131542684 0 0 0
460 154 2 -1.1794 5.869707702708501 7.428740044174687 12.301240664407525 0 0 0
793 265 2 -1.1794 9.277992204263514 9.277046854703817 14.375145429921133 0 0 0
462 154 1 0.5897 5.3162837024683425 7.701377504794111 11.569397000469872 0 0 0
682 228 2 -1.1794 5.340337782569273 2.5998423709277967 14.141657128397739 0 0 0
705 235 1 0.5897 7.869120859370051 5.961592492342579 15.419312128767292 0 0 0
377 126 1 0.5897 9.717864230423006 4.008830611324164 10.435405936695119 0 0 0
824 275 1 0.5897 7.962777806284018 8.972148026718607 15.482505695426966 0 0 0
704 235 1 0.5897 6.402007018462826 6.0319779520618 15.78588662080541 0 0 0
784 262 2 -1.1794 6.072037260961103 7.448258124356808 19.053399815614306 0 0 0
656 219 1 0.5897 5.123155931077876 4.5347314077648075 18.81969264676591 0 0 0
696 232 1 0.5897 7.7705330125456396 4.789304062479081 17.177587804355184 0 0 0
677 226 1 0.5897 5.32738939966888 0.9891200985059514 18.276538656350212 0 0 0
695 232 1 0.5897 7.759438264015466 3.2757727164315336 17.155062665400003 0 0 0
708 236 1 0.5897 7.727885844990421 0.9760306171940969 18.589731458985206 0 0 0
715 239 2 -1.1794 7.419315694404726 2.066022666359082 15.86114034183776 0 0 0
655 219 2 -1.1794 5.876877081052047 4.678746483968314 19.39181200592305 0 0 0
657 219 1 0.5897 6.626909356174548 4.3719803426612875 18.882373945374447 0 0 0
706 236 2 -1.1794 8.674428373824394 0.8454791380794142 18.533335570744477 0 0 0
716 239 1 0.5897 7.43642025378531 1.1157542549596684 15.974014597583256 0 0 0
676 226 2 -1.1794 5.947420463883915 0.7982049312391457 18.980318447080514 0 0 0
694 232 2 -1.1794 7.94433250101471 4.02292293677045 17.724002242015274 0 0 0
38 13 1 0.5897 9.109282149168557 1.9843611264858139 19.961419805488646 0 0 -1
35 12 1 0.5897 5.626729467705288 1.8357205574438356 20.373211176710633 0 0 -1
815 272 1 0.5897 8.99813444599014 6.791932941944283 19.240316229572628 0 0 0
702 234 1 0.5897 9.796797604596106 3.9882714711310645 17.77389023387999 0 0 0
823 275 2 -1.1794 7.234427983118636 8.836898636798058 16.088650564047683 0 0 0
786 262 1 0.5897 7.002397747485211 7.568819449648241 18.86348774118681 0 0 0
825 275 1 0.5897 7.225455988311478 7.892893694194513 16.246173680807956 0 0 0
816 272 1 0.5897 9.083160694367818 8.282874682991995 19.487885269183757 0 0 0
144 48 1 0.5897 5.67589958183571 8.504568838565799 20.36798505247836 0 0 -1
785 262 1 0.5897 5.995013911079671 6.52683035803376 19.3005708871288 0 0 0
814 272 2 -1.1794 8.88797325109857 7.638499335664615 18.80756295791045 0 0 0
703 235 2 -1.1794 7.279674871724741 6.142994104473889 16.151340179018852 0 0 0
709 237 2 -1.1794 9.141178978056015 5.4523539631321585 20.48818472467751 0 0 0
707 236 1 0.5897 8.843190706429874 0.0752861763607867 19.07592126162657 0 0 0
36 12 1 0.5897 5.71016948290672 3.3255143433841616 20.628083503966458 0 0 -1
710 237 1 0.5897 9.036481834576481 4.511738254995792 20.3456477320114 0 0 0
275 92 1 0.5897 7.892035966407498 14.043412936130116 4.770009170642569 0 0 0
156 52 1 0.5897 9.041020978210334 10.80446899196882 3.8165849790272417 0 0 0
163 55 2 -1.1794 7.5034944312711715 12.796518933097405 2.018254675491821 0 0 0
165 55 1 0.5897 7.738808550017749 12.16573565195277 2.6986215539473406 0 0 0
285 95 1 0.5897 7.584942868164492 14.574182098365958 1.9951602806677444 0 0 0
164 55 1 0.5897 6.612085475495693 12.555973231655646 1.7658779889985678 0 0 0
276 92 1 0.5897 9.37344605673565 14.085576911055332 4.461142969459401 0 0 0
154 52 2 -1.1794 8.086657807754507 10.731710681688778 3.82455616143719 0 0 0
819 273 1 0.5897 8.6355404755461 12.397372371962673 0.7349137224202739 0 0 1
283 95 2 -1.1794 7.651094772291502 15.469622766316753 1.6636883205178998 0 0 0
264 88 1 0.5897 8.781657965203566 17.552953233062475 3.7863000670321454 0 0 0
254 85 1 0.5897 8.767644950452961 15.877780304160428 0.445472571454085 0 0 0
251 84 1 0.5897 5.982762116268893 15.746010057786387 0.9371210481405331 0 0 0
246 82 1 0.5897 5.197567023735058 14.216985342995136 4.483903476049056 0 0 0
263 88 1 0.5897 7.385980764951998 17.60169359389277 4.37063982102142 0 0 0
271 91 2 -1.1794 7.297316246687228 19.3332144554129 1.4899914910502197 0 0 0
284 95 1 0.5897 7.724227072293353 16.011464377281456 2.4493370557176317 0 0 0
231 77 1 0.5897 5.563846638917075 19.26621495810644 1.5504095206318766 0 0 0
272 91 1 0.5897 7.457730130496845 18.767159342676464 2.2449885942305423 0 0 0