LAMMPS (30 Jul 2021)
  using 1 OpenMP thread(s) per MPI task
package omp 0
using multi-threaded neighbor list subroutines
echo both

include		in.partitions
variable        pid world 0
include		in.temp
variable        temperature equal 262.25
variable	tempDamp equal 100.0
include		in.pressure
variable        pressure equal 7375.0
variable        pressureDamp equal 1000.0 # This is 1 ps
include		in.seed
variable        seed world 745823

units		real
atom_style	full
read_restart	restart.lmp.${pid}
read_restart	restart.lmp.0
Reading restart file ...
  restart file = 30 Jul 2021, LAMMPS = 30 Jul 2021
  restoring atom style full from restart
  orthogonal box = (0.58130641 1.7762334 0.70919246) to (17.626266 21.852944 21.504003)
  4 by 4 by 4 MPI processor grid
  restoring pair style lj/cut/tip4p/long/omp from restart
  restoring bond style harmonic/omp from restart
  restoring angle style harmonic/omp from restart
  864 atoms
  576 bonds
  288 angles
Finding 1-2 1-3 1-4 neighbors ...
  special bond factors lj:    0        0        0       
  special bond factors coul:  0        0        0       
     2 = max # of 1-2 neighbors
     1 = max # of 1-3 neighbors
     1 = max # of 1-4 neighbors
     2 = max # of special neighbors
  special bonds CPU = 1.236 seconds
  read_restart CPU = 1.388 seconds
include 	in.setup
variable	out_freq equal 1000
variable	out_freq2 equal 10000
variable	out_freq3 equal 1000

timestep	2.0

neigh_modify    delay 7 every 1

include		in.tip4p
# This is TIP4P/Ice

# create groups ###
group ox type 2
288 atoms in group ox
group hy type 1
576 atoms in group hy

# set charges - beside manually ###
set group ox charge -1.1794
Setting atom values ...
  288 settings made for charge
set group hy charge 0.5897
Setting atom values ...
  576 settings made for charge

# ### TIP3P Potential Parameters ###
pair_style lj/cut/tip4p/long/omp 2 1 1 1 0.1577 8.5
pair_coeff 1 1*2 0.000 0.000
pair_coeff 2 2 0.21084 3.1668
bond_style  harmonic
bond_coeff  1 450 0.9572
angle_style harmonic
angle_coeff 1 55 104.52
kspace_style pppm/tip4p/omp 1.0e-5
pair_modify tail yes

thermo          ${out_freq}
thermo          1000
thermo_style    custom step temp pe etotal epair emol press lx ly lz vol pxx pyy pzz pxy pxz pyz enthalpy

restart 	${out_freq3} restart.lmp.${pid} restart2.lmp.${pid}
restart 	1000 restart.lmp.${pid} restart2.lmp.${pid}
restart 	1000 restart.lmp.0 restart2.lmp.${pid}
restart 	1000 restart.lmp.0 restart2.lmp.0


include         in.dump
dump            myDump all atom ${out_freq2} dump.water.${pid}
dump            myDump all atom 10000 dump.water.${pid}
dump            myDump all atom 10000 dump.water.0
dump            myDump2 all dcd ${out_freq2} dump.dcd
dump            myDump2 all dcd 10000 dump.dcd
dump_modify     myDump append yes
dump_modify     myDump2 append yes


variable natoms 	equal  "count(all)"                        # NUMBER ATOMS
variable H      	equal  "enthalpy/v_natoms"                 # ENTHALPY-per-atom
variable Vol      	equal  "vol/v_natoms"                 # volume-per-atom
fix AVG all 		ave/time ${out_freq} 1 ${out_freq} v_Vol v_H file vol_enthalpy.dat
fix AVG all 		ave/time 1000 1 ${out_freq} v_Vol v_H file vol_enthalpy.dat
fix AVG all 		ave/time 1000 1 1000 v_Vol v_H file vol_enthalpy.dat


timer           timeout 23:50:00 every 1000
New timer settings: style=normal  mode=nosync  timeout=23:50:00

fix 		1 all shake 1e-6 200 0 b 1 a 1
       0 = # of size 2 clusters
       0 = # of size 3 clusters
       0 = # of size 4 clusters
     288 = # of frozen angles
  find clusters CPU = 0.013 seconds
fix             2 all nph iso ${pressure} ${pressure} ${pressureDamp}
fix             2 all nph iso 7375 ${pressure} ${pressureDamp}
fix             2 all nph iso 7375 7375 ${pressureDamp}
fix             2 all nph iso 7375 7375 1000
fix             3 all temp/csvr ${temperature} ${temperature} ${tempDamp} ${seed}
fix             3 all temp/csvr 262.25 ${temperature} ${tempDamp} ${seed}
fix             3 all temp/csvr 262.25 262.25 ${tempDamp} ${seed}
fix             3 all temp/csvr 262.25 262.25 100 ${seed}
fix             3 all temp/csvr 262.25 262.25 100 745823

run             250000
PPPM initialization ...
  extracting TIP4P info from pair style
  using 12-bit tables for long-range coulomb (../kspace.cpp:340)
  G vector (1/distance) = 0.37392203
  grid = 24 24 24
  stencil order = 5
  estimated absolute RMS force accuracy = 0.0031999634
  estimated relative force accuracy = 9.6365946e-06
  using double precision FFTW3
  3d grid and FFT values/proc = 2535 216
Last active /omp style is kspace_style pppm/tip4p/omp
Neighbor list info ...
  update every 1 steps, delay 7 steps, check yes
  max neighbors/atom: 2000, page size: 100000
  master list distance cutoff = 10.8154
  ghost atom cutoff = 10.8154
  binsize = 5.4077, bins = 4 4 4
  1 neighbor lists, perpetual/occasional/extra = 1 0 0
  (1) pair lj/cut/tip4p/long/omp, perpetual
      attributes: half, newton on, omp
      pair build: half/bin/newton/omp
      stencil: half/bin/3d
      bin: standard
Per MPI rank memory allocation (min/avg/max) = 9.236 | 9.239 | 9.242 Mbytes
Step Temp PotEng TotEng E_pair E_mol Press Lx Ly Lz Volume Pxx Pyy Pzz Pxy Pxz Pyz Enthalpy 
13500000    273.91625    -3866.858   -3397.3749    -3866.858            0    7422.4407     17.04496    20.076711    20.794811    7116.1242    6284.2466    8316.7687    7666.3069   -189.42822   -397.57618    1261.5915   -2627.0638 
13501000    256.09189   -3836.4365   -3397.5038   -3836.4365            0    7530.1544     16.99234    20.014731    20.730615    7050.4222    5598.3048    9511.3978    7480.7606   -1458.4633   -1524.1166   -1709.6534   -2623.2294 
13502000    258.69098   -3868.3042   -3424.9167   -3868.3042            0    6243.6128    17.101958    20.143847    20.864348    7187.7517    5784.6316    6995.7892    5950.4175    634.50653   -324.19911   -1349.4066   -2770.4238 
13503000    265.08681   -3870.8728   -3416.5231   -3870.8728            0    6607.8235    17.129449    20.176229    20.897888    7222.4707    7073.2182     6769.112    5981.1403   -472.65913    1023.9763   -386.50158   -2720.5056 
13504000    244.17532   -3876.6382   -3458.1301   -3876.6382            0    8915.9707    17.080496    20.118569    20.838166    7160.7261    8877.7384    9287.3771    8582.7965    -541.8589   -861.03087    784.76291   -2527.0188 
13505000    264.10924   -3863.5631   -3410.8889   -3863.5631            0    6751.6979     17.07348    20.110304    20.829605    7151.9047    6022.7752    6515.9864    7716.3322   -1830.0258   -537.17245   -766.04805   -2706.6652 
13506000    261.05237   -3851.7568    -3404.322   -3851.7568            0     7275.044    17.068084    20.103948    20.823023    7145.1262    6667.8506    7810.8342    7346.4472    779.88265   -169.98915   -2067.6407   -2646.2308 
13507000    267.04752   -3874.1307   -3416.4204   -3874.1307            0    7112.4364    17.120955    20.166223    20.887525    7211.7314    5752.8728     6588.091    8996.3455   -932.07518    634.21267    757.00001   -2668.3648 
13508000    265.99872   -3855.5453   -3399.6326   -3855.5453            0    5562.8013    17.153718    20.204814    20.927495    7253.2118    4057.7309    6364.2924    6266.3804   -137.63658    750.49055    706.63065   -2811.1959 
13509000    267.09225   -3830.4106   -3372.6236   -3830.4106            0    9001.4799    17.024186    20.052242    20.769467    7090.1369    9027.9308    8301.6993    9674.8096     3.888327    516.36605   -718.63068   -2441.8492 
13510000    260.84677   -3858.9512   -3411.8687   -3858.9512            0    7670.3921    17.080875    20.119014    20.838628    7161.2021    7369.4842    7928.6144    7713.0778   -533.06992   -727.59327   -2144.1761   -2610.7823 
13511000    267.07984   -3872.0558   -3414.2901   -3872.0558            0    7889.9584    17.019103    20.046255    20.763266    7083.7884    8887.1244    7844.6252    6938.1256   -112.77655   -191.46797    711.48966   -2599.1802 
13512000    270.27599   -3842.3003   -3379.0565   -3842.3003            0    8700.1562    17.066652    20.102261    20.821275    7143.3276    10278.829    7012.6908    8808.9487    -1443.599    1102.1062    181.27714   -2472.6907 
13513000    269.50231   -3850.2145   -3388.2968   -3850.2145            0    9556.0126    17.002028    20.026143    20.742435    7062.4889    8197.9019    9847.1309    10623.005   -631.35482   -543.68118    6.3665465   -2404.0356 
13514000     264.8309   -3895.2753   -3441.3642   -3895.2753            0    7078.4195    17.050256    20.082949    20.801272    7122.7595    7890.7282    6056.1354    7288.3949    270.76253    1473.6973   -522.75209   -2706.0711 
13515000    262.71811    -3869.489   -3419.1991    -3869.489            0     8796.865    16.994643    20.017444    20.733424    7053.2894    9426.2869    6913.0205    10051.288   -2178.2577    -1230.009   -526.85751   -2514.3097 
13516000    272.47483    -3872.079   -3405.0665    -3872.079            0    7777.4547    17.052679    20.085804    20.804229    7125.7971    8600.3722    7114.1252    7617.8666   -866.31426    439.16962    738.91073   -2596.8144 
13517000    265.48379   -3892.6486   -3437.6184   -3892.6486            0    7501.3288    17.049329    20.081858    20.800142    7121.5982     6337.459    8596.2014     7570.326    70.293021   -389.49472   -963.16209   -2658.5214 
13518000    260.86956    -3915.036   -3467.9145    -3915.036            0    5496.6073    17.067679    20.103471    20.822528    7144.6175    4896.1098    6617.6212     4976.091    451.89619     933.8551    515.55349    -2895.185 
13519000    264.86038   -3872.6502   -3418.6886   -3872.6502            0    6121.1293    17.017741    20.044651    20.761604    7082.0881    5577.1014    6429.7814    6356.5051    853.27788   -1802.1734    1563.0971   -2786.4678 
13520000    254.60287   -3872.5962   -3436.2156   -3872.5962            0    6824.5852    16.990419     20.01247    20.728272    7048.0323    6250.7883    6918.3672    7304.6003   -144.22374     221.8671   -74.944823    -2734.728 
13521000     246.7005   -3860.0985   -3437.2623   -3860.0985            0    8348.1013    16.984481    20.005475    20.721027    7040.6443    7585.3532     8043.117    9415.8337   -208.58365    1314.8421    1141.3097   -2580.0745 
13522000    259.95853   -3837.8265   -3392.2665   -3837.8265            0    8064.2527    17.092012    20.132132    20.852214    7175.2186    8847.4848    8139.3043    7205.9689    346.85087   -1900.1913   -1390.1547   -2548.3973 
13523000    254.64773   -3887.2491   -3450.7916   -3887.2491            0    7138.7802    17.059223    20.093512    20.812213    7134.0042    7114.6156    6337.2799     7964.445    575.69643    -1013.926   -899.22394   -2708.0577 
13524000    277.47329    -3836.891   -3361.3113    -3836.891            0     6865.915    17.081403    20.119636    20.839271     7161.866    7331.0268    7994.8997    5271.8186   -1952.1045    1452.0865    -906.4413    -2644.177 
13525000    259.30977   -3874.0901    -3429.642   -3874.0901            0     8115.755     17.08078    20.118902    20.838511    7161.0822      7587.35    7517.8524    9242.0625   -113.57664    1681.3368   -852.17382   -2582.0566 
13526000    283.77121   -3861.8195   -3375.4453   -3861.8195            0    7225.9335    17.100499    20.142129    20.862569    7185.9132    5359.4525    8895.1671    7423.1807   -302.22403   -20.988427   -1148.2759   -2618.1735 
13527000    270.89462   -3851.2937   -3386.9896   -3851.2937            0    5294.6387    17.063127     20.09811    20.816975    7138.9024    4944.9382    5075.9233    5863.0547   -437.79977   -1928.7738   -62.131531   -2835.7459 
13528000    261.76881   -3883.4999   -3434.8372   -3883.4999            0    7048.7692    17.106021    20.148633    20.869305    7192.8761    7071.0579    6953.9133    7121.3362   -1751.7027   -93.104386    -6.449777   -2695.4162 
13529000    257.04554    -3874.215   -3433.6478    -3874.215            0    8743.4821    17.001179    20.025143    20.741398    7061.4303    10282.981    7783.1638    8164.3014    1441.9903    -368.4594    749.11712   -2533.2115 
13530000    264.77041   -3828.3074   -3374.4999   -3828.3074            0     7782.293    17.054205      20.0876     20.80609    7127.7096    6224.0488    10174.665    6948.1655    673.81916    2752.2225    -546.5099    -2565.528 
13531000    267.23799   -3812.0135   -3353.9768   -3812.0135            0    8579.5786    17.043874    20.075433    20.793487    7114.7651    7843.1971    7312.2236    10583.315   -262.40981   -856.08697    420.20362   -2463.7464 
13532000    259.88305   -3828.4701   -3383.0395   -3828.4701            0    6247.4108    17.119774    20.164833    20.886085    7210.2395    6650.0698    5016.6318    7075.5308    -327.3256    982.61064    158.76942   -2726.0996 
13533000    258.66182   -3843.1886   -3399.8511   -3843.1886            0    8210.1474    17.026837    20.055364    20.772701    7093.4497    6820.2723    8886.3801    8923.7897   -104.42344   -1696.5038     1786.623   -2550.5057 
13534000    251.67034   -3862.1054   -3430.7511   -3862.1054            0    7808.0944    16.996468    20.019595    20.735652    7055.5626    5411.2605    8724.2402    9288.7825   -2334.6581   -619.04929     458.4858   -2627.3127 
13535000    252.79189    -3871.947   -3438.6704    -3871.947            0    6271.0869    17.015459    20.041963     20.75882    7079.2391    7723.1429    5667.9917     5422.126   -809.27682    420.25152     739.4407   -2791.2218 
13536000    258.86074   -3843.8563   -3400.1779   -3843.8563            0    8429.7855    16.990557    20.012632     20.72844    7048.2035    7674.0072    11444.838    6170.5112   -1450.7589   -2088.7577   -127.76944   -2533.6733 
13537000    264.72332    -3852.181   -3398.4542    -3852.181            0    8273.0896    17.059189    20.093472    20.812171    7133.9615     7895.282    7547.4316    9376.5554   -744.57289    530.87164    1206.3657   -2537.7095 
13538000     268.6962   -3886.2771   -3425.7411   -3886.2771            0    7364.2519    17.077155    20.114633    20.834089    7156.5242    6887.3648    8044.6665    7160.7246    570.50144    -633.3846   -19.518249   -2657.1299 
13539000    271.69458   -3892.3912    -3426.716   -3892.3912            0    6780.0293    17.068111     20.10398    20.823056    7145.1603    6351.2564    7926.2311    6062.6005   -414.62877    1374.8706   -588.00602   -2720.2042 
13540000    264.03134   -3898.1033   -3445.5627   -3898.1033            0    7358.0731    17.040671     20.07166    20.789579    7110.7544    8461.5707     6642.165    6970.4836    421.88076    -107.8055   -270.01256    -2682.508 
13541000    247.08124   -3869.7956   -3446.3068   -3869.7956            0    7591.2889    17.059284    20.093583    20.812287    7134.0804     7560.441    7964.7729    7248.6529    68.273039    1008.3396    245.35114   -2656.4845 
13542000    258.10558   -3854.9321    -3412.548   -3854.9321            0    7935.9904    17.037609    20.068053    20.785843    7106.9215    8698.2705    7980.5807    7129.1199    1197.7334    2243.3913    188.93081   -2590.0051 
13543000    268.09167   -3873.6264   -3414.1265   -3873.6264            0    6408.7456    17.060068    20.094507    20.813243     7135.064    7324.2557    6254.0545    5647.9267    208.88381     1090.085     408.8774   -2747.2479 
13544000    260.07534   -3847.9805   -3402.2202   -3847.9805            0    9158.7895    17.008635    20.033926    20.750495    7070.7258    9256.9313    8656.4386    9562.9985   -167.12762   -544.65983    9.1121628   -2457.7724 
13545000    256.39207   -3903.5616   -3464.1144   -3903.5616            0    6656.5513    17.043111    20.074534    20.792556    7113.8097    6940.5205    5460.1697    7568.9635   -860.85044    187.62881    401.05107   -2773.5131 
13546000    280.26595   -3904.1564   -3423.7902   -3904.1564            0    6525.0022     17.02184    20.049479    20.766605    7087.2071    5957.0886    6635.5725    6982.3454   -446.22453    40.192838    325.21256   -2749.3683 
13547000    253.34903   -3881.0401   -3446.8085   -3881.0401            0    6551.1045    17.056192    20.089941    20.808515    7130.2019    7069.4894    5551.0281    7032.7959    1293.8247   -376.82804     494.0815   -2765.5809 
13548000    278.60747   -3893.5046   -3415.9809   -3893.5046            0    7642.7041    17.037381    20.067784    20.785565     7106.636     6556.207    9467.1385    6904.7668   -510.80937    517.87418   -529.53001   -2623.8682 
13549000    257.85454   -3855.4901   -3413.5363   -3855.4901            0     8787.083    17.006786    20.031747    20.748239    7068.4191    8340.9881    8880.8087    9139.4523   -832.50303   -1698.0632   -272.54191   -2507.7142 
13550000     263.7051   -3877.0871   -3425.1056   -3877.0871            0     7844.195    17.041023    20.072074    20.790008     7111.195    8181.2216    6864.4482    8486.9152   -1178.1328    -1019.932     -530.758   -2611.5882 
13551000    265.10166   -3859.2352     -3404.86   -3859.2352            0    5880.2252    17.121515    20.166884    20.888209    7212.4398    6063.8012    6157.2186    5419.6559    1631.2655   -851.33892   -1498.5031   -2786.3425 
13552000    258.98923   -3873.6303   -3429.7316   -3873.6303            0     8513.221    17.023953    20.051968    20.769183    7089.8468    7535.3078    9076.3077    8928.0477    832.50173   -196.12071    392.58312   -2549.4804 
13553000    265.18359   -3906.9983   -3452.4827   -3906.9983            0    7246.6086     17.06697    20.102636    20.821663     7143.727    7243.9921    7767.3157    6728.5181    604.02324    416.30827    -1079.839   -2697.5025 
13554000    260.67528   -3856.2401   -3409.4516   -3856.2401            0    6473.8927     17.04113      20.0722    20.790139    7111.3287    5480.3071    6379.7972    7561.5737    342.95454   -603.06883   -368.46163   -2738.0349 
13555000     268.8908   -3911.8391   -3450.9695   -3911.8391            0    6067.5494    17.065906    20.101383    20.820365    7142.3912    5442.9443    5532.3236    7227.3803   -1429.2796    -1303.347   -270.81307   -2818.9465 
13556000    270.92517   -3844.6719   -3380.3154   -3844.6719            0    8045.1639    17.020313    20.047681    20.764743    7085.3001    6528.7843    8187.6489    9419.0585    73.064841   -1433.1777     182.3193   -2548.9939 
13557000    263.28091   -3856.6273   -3405.3728   -3856.6273            0    7014.8155    17.037679    20.068135    20.785928    7107.0088    6837.8913    6563.7383    7642.8168    1752.2084    679.47857    126.09366   -2678.2982 
13558000    258.13416   -3857.9968   -3415.5637   -3857.9968            0    8974.0962    17.041552    20.072697    20.790653     7111.857    8396.8868     8642.805    9882.5969   -104.17051   -1199.2436    697.51196   -2484.7781 
13559000    259.92306   -3874.6896   -3429.1903   -3874.6896            0     6990.028    17.041266     20.07236    20.790305    7111.4989    7236.9727    6391.5688    7341.5425    1060.1026   -3263.7517   -123.76161   -2704.2271 
13560000    255.77884   -3903.2702    -3464.874   -3903.2702            0    7264.0437    17.021352    20.048904     20.76601    7086.5971    6361.4598    7460.3439    7970.3274   -199.28803     820.4073   -1639.0997   -2714.1296 
13561000    250.01404   -3853.1545    -3424.639   -3853.1545            0    7331.3751    17.052328     20.08539      20.8038    7125.3565    7590.4038    7526.1185    6877.6031    335.88605   -744.61732   -913.70389   -2662.7917 
13562000    257.46985   -3837.2076   -3395.9131   -3837.2076            0    6760.8216    17.052147    20.085176    20.803579    7125.1296    7561.9769    8381.6666    4338.8212    1217.6807    1991.2722   -285.76281   -2693.3778 
13563000    261.59115   -3801.7618   -3353.4035   -3801.7618            0    5711.9578    17.071734    20.108247    20.827475    7149.7106    8401.1678    4421.1811    4313.5244    1274.6365   -401.11457   -571.20192   -2757.8108 
13564000    258.26069   -3872.8551   -3430.2051   -3872.8551            0    6844.7154    17.037711    20.068173    20.785967     7107.049     7433.993    7464.8905    5635.2627    -495.7587   -155.31909   -1453.1823    -2720.757 
13565000    227.58721   -3828.3279   -3438.2512   -3828.3279            0    5973.1851    17.001824    20.025903    20.742185    7062.2345    6206.0066    6565.1352    5148.4134    416.15838    1051.6932    641.32161   -2823.0404 
13566000    269.17286   -3834.7482   -3373.3951   -3834.7482            0    7421.1625    16.969076     19.98733    20.702233    7021.5039    6847.6261     9268.931    6146.9304   -268.24896    253.83036    430.99742   -2613.4575 
13567000    261.74714   -3893.2271   -3444.6014   -3893.2271            0    7437.2965    16.996868    20.020065    20.736139    7056.0602     8594.264    6675.1059    7042.5195    679.86831   -661.43253    337.02498   -2679.2635 
13568000    251.37546   -3864.8936   -3434.0446   -3864.8936            0    8726.9774    17.017323    20.044158    20.761094    7081.5658    9192.6349    8123.5254    8864.7721   -1114.1656   -318.87959   -288.27386   -2532.7453 
13569000    244.91174   -3878.5152   -3458.7448   -3878.5152            0    7937.1544     17.01105    20.036769    20.753441    7073.7371    8920.4792     7540.613    7350.3708    1747.1977   -162.72943   -992.84724   -2639.9226 
13570000    253.94013   -3856.4322   -3421.1875   -3856.4322            0     6400.155    17.081389     20.11962    20.839255     7161.849    6336.5311    6422.0451     6441.889    856.11672     -345.202   -601.08646   -2752.7027 
13571000    257.02825   -3858.7411   -3418.2034   -3858.7411            0    6314.3453    17.118058    20.162812    20.883991    7208.0717    7197.5897    6811.0085    4934.4377   -1286.2726    1186.8982   -821.15081   -2754.4247 
13572000    253.04544   -3765.9766   -3332.2653   -3765.9766            0    9455.7235    17.050357    20.083069    20.801396     7122.887    10480.751    9060.4106    8826.0089   -1587.7599   -87.968159   -1989.7915   -2350.0048 
13573000    252.34665    -3884.475   -3451.9615    -3884.475            0    6510.3057    17.098006    20.139193    20.859527    7182.7705     6039.066    6614.7018    6877.1491   -1551.7933   -735.59679    694.76122   -2769.9852 
13574000    259.94287   -3896.9403   -3451.4071   -3896.9403            0    6958.6598    17.000578    20.024435    20.740666    7060.6822    6011.9626    8135.1567      6728.86   -153.62012   -877.76461   -219.11028   -2734.8544 
13575000    266.16831   -3888.0899   -3431.8865   -3888.0899            0    5937.1574    17.066659     20.10227    20.821284    7143.3369    5707.2357    7358.8462    4745.3903   -937.76304    2330.3861    961.38958   -2813.3639 
13576000    259.00587   -3858.4933   -3414.5661   -3858.4933            0    7851.3588    16.990189    20.012199    20.727991    7047.7458    7426.8969    7901.2773    8225.9021   -346.76758   -1000.1738    1334.0305   -2607.5709 
13577000    262.69842   -3876.0253   -3425.7691   -3876.0253            0    6705.3933    17.116866    20.161407    20.882536    7206.5654    6928.4615    6873.6829    6314.0356    125.83267    124.38901   -138.34234   -2721.0299 
13578000    285.19022   -3869.4191   -3380.6128   -3869.4191            0    6637.5803     17.06296    20.097913    20.816772    7138.6934    6327.2611    7844.1401    5741.3396   -583.73433   -1087.5268      1803.79   -2689.5709 
13579000    264.85914   -3879.9384   -3425.9789   -3879.9384            0    8923.1938    17.005654    20.030414    20.746858    7067.0078    11225.868      9598.96    5944.7537   -1732.0182   -297.08215   -1656.9945   -2506.3094 
13580000    278.35922   -3860.3548   -3383.2567   -3860.3548            0    8354.7384    17.042355    20.073643    20.791633    7112.8623    9511.4441    7210.7671    8342.0041   -860.57648    673.83723   -793.41631   -2516.5879 
13581000    263.48411    -3882.726   -3431.1232    -3882.726            0    6157.4602    17.076491    20.113851    20.833279    7155.6898     6882.363    5212.6721    6377.3454    1341.8183    248.64362     819.7485   -2788.5406 
13582000    251.41813   -3896.6142   -3465.6921   -3896.6142            0     8166.259    17.059191    20.093474    20.812173    7133.9634    7705.0573    8130.7004    8663.0195    1675.6076    622.66481    1228.3257    -2616.062 
13583000    244.68817    -3867.362   -3447.9748    -3867.362            0     9798.944    17.033769     20.06353    20.781158    7102.1172    11582.961    9366.7166    8447.1544   -1208.6519   -375.58797    255.37012   -2433.0287 
13584000    274.82038   -3841.9223   -3370.8896   -3841.9223            0    8150.7289    17.030857      20.0601    20.777606     7098.476    8791.6624    6558.7944    9101.7298    307.63808    1414.3784   -1779.5165   -2527.0936 
13585000    263.18094   -3862.3683   -3411.2852   -3862.3683            0    5277.3391     17.12078    20.166018    20.887312    7211.5108    4307.5668    4211.3933    7313.0571   -14.593716   -56.518887    1106.2424   -2856.2543 
13586000    259.84829   -3856.6559   -3411.2849   -3856.6559            0    6812.7425    17.102375    20.144339    20.864857    7188.2778     7390.154    6161.2683    6886.8053   -96.398347    368.18267   -374.20879   -2697.0801 
13587000    254.26692   -3853.6342   -3417.8294   -3853.6342            0    7261.4263    17.020593     20.04801    20.765084    7085.6494    5058.5621    7269.4293    9456.2874   -155.01113    -431.2614    690.83272   -2667.4559 
13588000    267.24746   -3863.5384   -3405.4854   -3863.5384            0    6943.6926    17.151842    20.202605    20.925208    7250.8332     6244.588    7059.3316     7527.158   -988.74626    558.44509   -822.36784   -2671.2179 
13589000    252.35452   -3923.8269   -3491.2999   -3923.8269            0    5998.4366    17.119398     20.16439    20.885626    7209.7647    6925.7546    5659.7763     5409.779     265.9276    1471.5711    720.23189   -2860.5821 
13590000    260.96432   -3892.2834   -3444.9995   -3892.2834            0    6448.2713    17.123458    20.169172    20.890579    7214.8951    5879.3848    6992.0716    6473.3575   -57.713013   -852.30045   -785.99014   -2766.5005 
13591000    247.94545   -3885.6449   -3460.6749   -3885.6449            0    8442.6872    17.065211    20.100565    20.819518    7141.5193    7827.1968    8634.4813    8866.3836     712.3404    24.717448    1207.0406   -2581.3544 
13592000    270.02711   -3853.7583   -3390.9411   -3853.7583            0    8905.2951    17.056234    20.089991    20.808566    7130.2543    9306.2301    8541.1339    8868.5214   -521.26309   -955.72485    508.27055   -2464.9022 
13593000    253.05087   -3879.3893   -3445.6687   -3879.3893            0    7892.8952    17.069527    20.105648    20.824783    7146.9382    7406.6076    8589.4491    7682.6288    349.31539     -70.5643    572.28067   -2622.9863 
13594000    257.08675   -3869.6072   -3428.9693   -3869.6072            0    7250.3854    17.058925    20.093161    20.811849    7133.6304     7346.123    6810.6636    7594.3695   -239.57619   -1979.4428    -284.9187   -2674.6633 
13595000    268.88721   -3881.8695    -3421.006   -3881.8695            0    8512.3334    17.016055    20.042665    20.759547    7079.9833    8903.2168    8411.0443    8222.7392    519.96232   -388.10805    430.89357   -2542.0711 
13596000    270.46695   -3846.2126   -3382.6415   -3846.2126            0     6982.679    17.109066     20.15222    20.873021    7196.7188    6086.2695    7632.9647    7228.8028   -774.14332   -190.34363   -828.60268   -2649.7621 
13597000    261.62168   -3873.6652   -3425.2545   -3873.6652            0    6508.2214    17.045183    20.076975    20.795084    7116.4046    5310.9955    7295.8545    6917.8142    -83.87773    144.28378    1639.5794   -2749.7958 
13598000    248.42403   -3905.8999   -3480.1096   -3905.8999            0    6161.4794    17.072959     20.10969     20.82897    7151.2498    6804.2823    7916.7621    3763.3938   -491.64414    88.425786   -516.28697   -2837.5065 
13599000    259.33456    -3904.911   -3460.4204    -3904.911            0    6713.3659    17.097062    20.138081    20.858376    7181.5808    4696.7522    8099.2036     7344.142    1069.9604   -630.91668    1056.9416   -2757.2894 
13600000    268.13255   -3937.9078   -3478.3377   -3937.9078            0    8260.4292    17.018378    20.045402    20.762382    7082.8836    7392.6558    9666.5016    7722.1302   -403.20387    -357.7287    1381.5397   -2625.0636 
13601000    255.96599   -3949.4366   -3510.7196   -3949.4366            0    6936.9105     17.04121    20.072295    20.790237    7111.4291     5408.849    6949.2462    8452.6364    561.17458   -431.73827    97.697595   -2791.2725 
13602000    267.29568   -3906.9706   -3448.8349   -3906.9706            0    8084.4789    17.008327    20.033563     20.75012    7070.3416     10108.82    6656.5299    7488.0866    822.29006     641.8781    1253.5066   -2615.2146 
13603000    274.49277   -3912.8031   -3442.3319   -3912.8031            0    8100.1994    16.976845    19.996481    20.711711    7031.1528     7294.768    11083.372    5922.4582    792.75578   -178.14865    502.24619     -2611.72 
13604000    257.66466   -3882.1321   -3440.5037   -3882.1321            0    9415.2237    16.984511    20.005511    20.721064    7040.6823    10190.164    8487.0968    9568.4101   -618.59454    -1037.496    1013.2295   -2473.7379 
13605000    272.36167   -3873.8733   -3407.0548   -3873.8733            0    7328.3189     17.02473    20.052884    20.770131    7090.8177    4486.1356    8601.3737    8897.4474    257.77656   -227.53766   -107.55912   -2649.2164 
13606000     252.1382   -3874.5305   -3442.3742   -3874.5305            0    6624.6003    17.080937    20.119087    20.838703    7161.2796    6086.4981    7490.9954    6296.3074    94.074362    215.60881    1315.0397   -2750.5015 
13607000    261.73577   -3890.3529   -3441.7467   -3890.3529            0    7547.0079    17.044221    20.075841     20.79391    7115.1995    7636.6977    7282.7173    7721.6088   -333.01332    463.65018   -217.65937   -2658.6097 
13608000    261.21407   -3883.2262   -3435.5143   -3883.2262            0    6301.2709     17.15433    20.205535    20.928242    7253.9883    6032.4975    5591.3878    7279.9274   -263.88052   -286.26771   -10.527396   -2768.8904 
13609000      263.883   -3875.4524   -3423.1659   -3875.4524            0    9281.4975    17.074956    20.112042    20.831406    7153.7597    8927.8787    9700.9297     9215.684   -187.11007   -90.385923   -76.806625    -2454.825 
13610000    257.50468   -3883.0732    -3441.719   -3883.0732            0    6904.6856    17.104705    20.147083      20.8677     7191.216    7823.6081    5731.6993    7158.7495   -99.739219   -181.91094    383.17531   -2717.5796 
13611000    261.79025    -3874.475   -3425.7754    -3874.475            0    7141.1109    17.066988    20.102658    20.821686    7143.7504     7573.035    5995.5729    7854.7249    312.92276     2205.011   -479.59369    -2681.784 
13612000    261.15408   -3870.5376   -3422.9284   -3870.5376            0    6586.4801    17.079727    20.117662    20.837227    7159.7579    7593.6595    6371.8945    5793.8863    267.74201   -475.14175   -19.332487   -2735.1832 
13613000    251.80422   -3857.4698   -3425.8859   -3857.4698            0    7628.2222    17.013247    20.039357    20.756121    7076.4784    10349.105    6771.5191    5764.0428   -47.397184   -701.19164    294.37846   -2638.6291 
13614000    266.95733   -3837.4468   -3379.8911   -3837.4468            0    6443.1208    17.001951    20.026053    20.742341    7062.3929    7313.5809    3891.0289    8124.7526   -61.769936    651.76063   -348.61923   -2716.2641 
13615000    265.29593   -3844.2962    -3389.588   -3844.2962            0    7189.9567    17.029598    20.058617     20.77607    7096.9014    7161.4101    6852.1794    7556.2807      113.524    563.34515   -317.50197   -2645.4201 
13616000    264.34062   -3874.9123   -3421.8416   -3874.9123            0    8106.8199    17.060518    20.095037    20.813792    7135.6283     10738.75     5658.012    7923.6982   -372.50315    547.11737    961.35705   -2578.1987 
13617000     245.7768   -3864.7376   -3443.4845   -3864.7376            0    6085.9222    17.105494    20.148012    20.868662     7192.211    6284.6437    4219.2314    7753.8915   -248.13066   -1265.9492     206.1305    -2805.126 
13618000    255.42969   -3851.9708   -3414.1731   -3851.9708            0    8586.9992    17.029261     20.05822    20.775659    7096.4806    7289.0072    8717.7038    9754.2867    1360.7855    622.77955    602.48558   -2525.4626 
13619000    264.61798   -3842.2019   -3388.6558   -3842.2019            0    9395.8569    17.009272    20.034676    20.751273    7071.5204    12633.549    6146.9643    9407.0577   -406.83413   -633.05326    -1058.408   -2419.6528 
13620000    255.67268   -3871.3525   -3433.1383   -3871.3525            0    5536.4991     17.05601    20.089727    20.808292    7129.9732    6247.1649    3617.7583    6744.5739   -295.47378    1113.2583   -1183.3015   -2857.4346 
13621000    266.33152   -3880.4298   -3423.9467   -3880.4298            0    8407.2155     16.96415    19.981528    20.696223    7015.3911    9528.8515    7609.4107    8083.3843    852.18953    61.844714   -567.39557   -2563.7853 
13622000    280.39107   -3844.5811   -3364.0004   -3844.5811            0    7624.9296    17.019412    20.046619    20.763643    7084.1746    7009.8686    8186.0933    7678.8268    2130.1709    936.84343   -1928.9173   -2576.2276 
13623000    260.54941   -3877.8981   -3431.3254   -3877.8981            0    7281.8687    17.013751    20.039952    20.756737     7077.108    5708.5196    7112.8333    9024.2531   -621.87844    1230.7299    845.10385   -2679.7465 
13624000     268.7333   -3854.0378   -3393.4381   -3854.0378            0    7283.4596    17.065641    20.101071    20.820042    7142.0583    7144.0751    6650.2222    8056.0814    242.52537   -86.638867    781.14917   -2634.7959 
13625000    276.13319   -3832.5964   -3359.3136   -3832.5964            0    7454.1337     17.04664    20.078691    20.796862    7118.2296    7921.2185    7784.8273    6656.3553   -104.62712   -303.71927    278.75551   -2585.4845 
13626000    274.48867   -3863.6483   -3393.1841   -3863.6483            0    8462.2145    17.118384    20.163196    20.884389    7208.4834    9973.7806    8096.0026    7316.8602    1350.0464    928.14272    1312.6611   -2503.5656 
13627000    269.53887   -3847.3138   -3385.3334   -3847.3138            0    6516.4964    17.112879    20.156711    20.877672    7201.5308    5128.9202    7821.2476    6599.3215     6.760097   -275.93826    769.88632   -2700.9257 
13628000    264.25801   -3845.2814   -3392.3522   -3845.2814            0    5913.4503    17.094082    20.134571    20.854741    7177.8267    6197.7345    4348.7943     7193.822    713.50724    32.972742    155.29477   -2773.3249 
13629000    265.87508   -3823.7706   -3368.0698   -3823.7706            0    6752.3182    17.057867    20.091914    20.810558    7132.3024    8428.2681    6506.0726    5322.6139    1329.5331   -64.701354   -163.24664   -2665.7118 
13630000    250.89597   -3863.7904   -3433.7633   -3863.7904            0    7032.1335    17.045788    20.077687    20.795822    7117.1618    6626.3938    7410.4494    7059.5573   -327.68054   -33.785505   -316.34575   -2703.8524 
13631000    257.45263   -3866.0035   -3424.7385   -3866.0035            0    6258.7519    17.000258    20.024058    20.740275    7060.2829    5616.3506    6055.2184    7104.6867   -194.82382   -464.83469   -1227.6907   -2780.2937 
13632000    267.09345   -3848.5066   -3390.7176   -3848.5066            0    5853.7296    17.106985    20.149769    20.870482    7194.0927    6002.0266    6493.7135    5065.4489    -174.7063   -189.82442   -95.734352   -2776.5533 
13633000    261.56121    -3873.691    -3425.384    -3873.691            0    7253.2394    17.059616    20.093974    20.812692    7134.4967    7237.1518    7875.2827    6647.2837    840.55965    -588.6818    371.24105   -2670.6895 
13634000    252.43996   -3887.3028   -3454.6294   -3887.3028            0    6462.9027    17.075021    20.112119    20.831486    7153.8419    7412.2215    6387.4526    5589.0341   -203.75749    59.955758   -288.26863   -2780.3454 
13635000    250.34066   -3891.7726   -3462.6973   -3891.7726            0    7252.9947    16.993585    20.016199    20.732135    7051.9732    5992.7809    7149.2138    8616.9893    1636.6804   -1042.6483    1556.2875   -2716.7572 
13636000    259.38543   -3882.9754   -3438.3977   -3882.9754            0    6258.7082    17.058682    20.092874    20.811552    7133.3252    8348.2508    6800.3377     3627.536    -597.1631   -195.16169   -498.76798   -2787.2903 
13637000    256.90047   -3896.6808   -3456.3622   -3896.6808            0    8183.2137    16.995211    20.018114    20.734118    7053.9971    7826.5353    10007.761    6715.3454    550.89363   -109.81838    -229.3949   -2614.5116 
13638000    253.99383   -3852.0863   -3416.7495   -3852.0863            0    8358.6125    17.053986    20.087343    20.805823    7127.4356    7729.4491    9880.7221    7465.6662   -2077.0811   -87.739165    259.75626   -2547.9024 
13639000    247.92182   -3896.5526   -3471.6231   -3896.5526            0    8132.5745    16.978669    19.998629    20.713936    7033.4188    7377.9531     9970.719    7049.0515     488.1624    640.26754   -155.75078   -2637.4227 
13640000    245.54181   -3846.4732    -3425.623   -3846.4732            0    5257.1302    17.088521    20.128021    20.847956    7170.8236     5411.933    5640.6337     4718.824   -105.90954    673.26064   -776.30638    -2875.837 
13641000    256.14848   -3885.2757    -3446.246   -3885.2757            0    8244.9747    17.000117    20.023892    20.740103    7060.1072    10568.342    7149.9036     7016.678     4.459105   -1352.0025   -420.41985    -2597.307 
13642000    253.89141   -3871.8824   -3436.7212   -3871.8824            0    8379.8523      17.0005    20.024343     20.74057    7060.5843    9238.0343    8537.0241    7364.4984    1660.6641    1517.9986    314.55638   -2573.8362 
13643000    248.22664   -3855.0634   -3429.6114   -3855.0634            0    7084.9393    17.088168    20.127604    20.847525    7170.3785    6083.5765    9020.1419    6151.0993   -679.24775   -973.76653    74.160633   -2688.7208 
13644000    263.91192   -3857.5472   -3405.2112   -3857.5472            0    9926.3531    16.934156    19.946199    20.659631    6978.2461    9521.1399    11652.113     8605.806    653.29894    1158.1107   -203.95578   -2395.0007 
13645000    282.90958   -3898.8863   -3413.9889   -3898.8863            0    8326.0902    17.014649    20.041009    20.757832    7078.2283    10090.727    6971.8243    7915.7196   -19.538933    776.77549   -948.22802   -2554.4975 
13646000    258.53573   -3903.5203   -3460.3989   -3903.5203            0    7888.6889    17.057615    20.091617     20.81025    7131.9865    8551.9613    7213.9051    7900.2002    1553.0218   -1078.6965   -813.05981    -2639.875 
13647000    245.63419   -3861.0596    -3440.051   -3861.0596            0     8022.252     17.03356    20.063283    20.780903    7101.8555    9262.9864    8462.2367    6341.5329    246.14868   -547.73826    1368.7472   -2609.1601 
13648000     240.2477   -3857.3418   -3445.5655   -3857.3418            0    7346.1186    17.103202    20.145313    20.865866    7189.3208    7956.6595    7771.0189    6310.6775    913.86552   -595.97997     398.8922   -2675.3333 
13649000    276.94825   -3857.1953   -3382.5154   -3857.1953            0    6257.5625    17.160029    20.212248    20.935195    7261.2208    7717.0221    5679.8615    5375.8038    150.04192   -470.63407   -765.90832   -2719.8555 
13650000    255.65184   -3849.9647   -3411.7862   -3849.9647            0    4222.5766    17.152641    20.203545    20.926182    7251.8459    5017.7274    3665.1606    3984.8418   -1654.5931   -523.44561     227.3863   -2965.2034 
13651000    262.56166   -3840.5661   -3390.5444   -3840.5661            0    7265.0855     17.13586    20.183779    20.905709    7230.5826    7451.5155    4464.2896    9879.4514    401.62202    770.06529    562.22362   -2624.4365 
13652000    247.82256   -3893.8172   -3469.0578   -3893.8172            0    7474.7018    17.109112    20.152274    20.873077    7196.7762    7407.7786    6858.6609    8157.6658   -366.01554   -191.80459    852.85188    -2684.531 
13653000    260.65565   -3859.7003   -3412.9455   -3859.7003            0    7067.6522    17.146428    20.196227    20.918602    7243.9684    5178.2877    9758.4994    6266.1695   -135.71415    956.61706    1062.6892   -2666.2773 
13654000    245.51962   -3881.5324   -3460.7201   -3881.5324            0    6629.9638    17.038424    20.069013    20.786838     7107.942    6905.4585    7031.1958    5953.2372   -213.43513   -72.824231    1181.5583   -2773.4445 
13655000    257.12975   -3876.7182   -3436.0066   -3876.7182            0     7835.955    17.069985    20.106188    20.825342    7147.5145    6753.1226    7126.0864    9628.6559   -83.033007    2166.5216   -1105.8373   -2619.1932 
13656000    249.30626   -3911.9428   -3484.6404   -3911.9428            0    9078.1466    17.011704     20.03754    20.754239    7074.5535    8826.6677    9438.4413    8969.3307    80.824048    873.16234    407.53331   -2548.0016 
13657000    262.73833   -3868.5806   -3418.2561   -3868.5806            0    6253.2422    17.106578    20.149289    20.869985    7193.5787    5328.3649    5625.2392    7806.1227   -415.22462    546.74181    124.22655   -2762.2224 
13658000    255.85339   -3864.1217   -3425.5978   -3864.1217            0    8482.8598     17.03517     20.06518    20.782868    7103.8704    8566.7374    7762.4869    9119.3552    799.02705   -928.99736    -420.5129   -2546.7509 
13659000    252.33829   -3872.4553   -3439.9561   -3872.4553            0    7569.5147    17.073411    20.110223    20.829521    7151.8179    8128.6449    7109.0315    7470.8676   -389.01328    1489.8156   -329.78976   -2650.4412 
13660000    276.28464   -3867.8152   -3394.2728   -3867.8152            0     6091.941    17.153512    20.204572    20.927245    7252.9514    5370.0725     6643.047    6262.7036    477.57048    1825.0982   -281.55952   -2749.8864 
13661000    243.99735   -3885.0166   -3466.8135   -3885.0166            0    7608.0293    17.085341    20.124275    20.844076    7166.8207    6378.7407    8449.2009    7996.1464   -103.99291    999.17887   -1167.7702   -2671.6167 
13662000    265.03603   -3872.5609   -3418.2982   -3872.5609            0    7090.9785    17.075731    20.112956    20.832352    7154.7343    5475.1221    7774.2553    8023.5582    653.29043    314.46858    195.86622   -2678.3939 
13663000    261.26355   -3830.5304   -3382.7336   -3830.5304            0     8795.084    16.977357    19.997085    20.712336    7031.7896    8969.7611    8938.2885    8477.2025   -626.73763   -516.93499   -366.05414   -2480.7851 
13664000    269.88888   -3872.6988   -3410.1184   -3872.6988            0    6204.9201    17.044137    20.075742    20.793808    7115.0942    6538.1831    6683.4794    5393.0977    490.21661   -1050.1072   -627.14276   -2766.2565 
13665000    262.87001   -3868.7705   -3418.2203   -3868.7705            0    6458.5793    17.071599    20.108089    20.827311    7149.5419    6541.0409     6271.057    6563.6401    249.07436    720.88035     440.6378   -2744.7924 
13666000    266.23839   -3853.2027   -3396.8793   -3853.2027            0    6200.3652     17.01292    20.038972    20.755723    7076.0707    4508.5669    5570.4309    8522.0979    415.44407    571.52866   -254.38462   -2757.0187 
13667000    248.39323   -3865.5907   -3439.8532   -3865.5907            0     7213.282    17.018508    20.045554    20.762539     7083.045    7381.0588    7302.3642     6956.423    220.85889   -149.05232   -1246.9289   -2694.7288 
13668000    280.38027   -3830.8272    -3350.265   -3830.8272            0    8946.7352    16.979152    19.999199    20.714526      7034.02     8896.185    7963.5862    9980.4342     1755.428    42.329862    1038.4191   -2432.4735 
13669000    271.70465   -3835.7517   -3370.0592   -3835.7517            0    7159.8247    17.069429    20.105533    20.824664    7146.8158     9502.277    5159.5822     6817.615    -710.8099   -497.69615    1455.4015    -2623.798 
13670000    260.59896   -3835.7643   -3389.1066   -3835.7643            0    7455.9828    17.061833    20.096585    20.815396    7137.2782    6730.7479    9031.9924    6605.2081    432.18508   -415.09815   -1053.5359   -2613.0143 
13671000    255.27101    -3827.691   -3390.1652    -3827.691            0    8483.2644    16.999072    20.022662    20.738828    7058.8058    8201.1763    8684.2744    8564.3425    969.51408    817.94276   -1352.7501   -2516.8518 
13672000     260.3322   -3874.3755    -3428.175   -3874.3755            0    5933.6571    17.057407    20.091372    20.809997    7131.7257    6790.6252    5049.3857    5960.9605    1296.7111    721.14551    1184.8037   -2811.0218 
13673000    264.31095   -3866.7942   -3413.7743   -3866.7942            0    6743.1292    16.965926     19.98362     20.69839    7017.5949    7311.9516    7862.0602    5055.3759   -794.17502   -932.70349    76.215584   -2723.6526 
13674000    254.83913   -3869.1999   -3432.4143   -3869.1999            0     8195.724    17.023544    20.051486    20.768684    7089.3353    9713.1671    7184.4237    7689.5812    286.61923    440.70458   -376.45859   -2585.0528 
13675000    270.00911   -3870.0125   -3407.2262   -3870.0125            0    7724.3686     17.06565    20.101082    20.820053    7142.0701    9516.1486    8561.3471      5095.61   -1035.0149   -758.03896   -651.10537   -2602.6577 
13676000    259.79119   -3894.0103   -3448.7371   -3894.0103            0    6460.0586    17.109511    20.152744    20.873564    7197.2801    4630.9768    7158.7289    7590.4701   -1437.0238    848.22856    403.63936   -2770.6574 
13677000    263.30369   -3869.5346   -3418.2411   -3869.5346            0    7376.9809    17.082577    20.121019    20.840704    7163.3427    5179.9379    9236.2356    7714.7693   -1169.0176    154.69334     -298.598   -2647.5679 
13678000    274.40596   -3873.9855   -3403.6631   -3873.9855            0    7115.7684    17.120708    20.165932    20.887223     7211.419    7388.5809     6454.961    7503.7632   -256.59718    283.45546   -1401.5067   -2655.2896 
13679000    260.40409   -3867.7119   -3421.3882   -3867.7119            0    5933.0954    17.101267    20.143034    20.863506    7186.8811    3861.4314    6756.4684    7181.3866    1194.9062    113.98377    90.040667   -2799.5209 
13680000    260.30979   -3869.9467   -3423.7846   -3869.9467            0    7164.4585    17.097869    20.139031     20.85936    7182.5978    5743.9644    6895.5646    8853.8467    1376.9004    932.07461   -485.07098   -2673.3017 
13681000    271.02077   -3866.6489   -3402.1285   -3866.6489            0    7964.8802    17.105537    20.148063    20.868715    7192.2655    7266.2794    8891.5693    7736.7919    1155.3507    164.92587   -386.43546   -2566.6778 
13682000    267.24942   -3832.3771   -3374.3208   -3832.3771            0    7737.3103    17.058629    20.092812    20.811488    7133.2587     9424.053    6045.7748    7742.1032   -91.571851    298.05396   -945.30985   -2569.3986 
13683000    265.29477   -3869.4642    -3414.758   -3869.4642            0     8389.386     17.06861    20.104568    20.823665     7145.787     8267.617    6991.8959    9908.6451    316.39058   -1219.5786    835.88172   -2540.4668 
13684000    257.69849   -3884.6013   -3442.9149   -3884.6013            0    6513.5195    17.131157     20.17824    20.899971    7224.6309    6756.7356    6940.2189    5843.6041   -153.39072   -437.39563    215.38638   -2756.6255 
13685000    263.44805   -3861.3033   -3409.7623   -3861.3033            0      9982.14    17.099347    20.140772    20.861163    7184.4604      10488.9    10302.693    9154.8267    -129.1332    1461.0691   -446.18944   -2363.8538 
13686000    278.51734   -3884.4812    -3407.112   -3884.4812            0    7043.6626    17.133209    20.180658    20.902475     7227.228    4006.6485    6481.2532    10643.086   -475.07733    422.22577   -583.82362   -2664.6979 
13687000    262.11663   -3886.1548   -3436.8958   -3886.1548            0    7283.3461    17.112753    20.156562    20.877518    7201.3713    9022.9856    5649.1313    7177.9212    1012.5109    757.50724   -768.54341   -2671.9652 
13688000     275.8372   -3855.3796   -3382.6041   -3855.3796            0    7083.7914    17.042782    20.074146    20.792154     7113.397    9225.1221    4886.4548    7139.7972    553.47885   -358.15148   -377.23184   -2647.7203 
13689000    247.75557   -3873.1046   -3448.4601   -3873.1046            0    7543.3498    17.035288    20.065319    20.783011    7104.0173    6557.7062    8390.3784    7681.9646   -1580.8056   -547.48324   -461.31022   -2666.9328 
13690000    265.84801   -3822.7602   -3367.1058   -3822.7602            0    6646.6437    17.101277    20.143046    20.863519    7186.8941     4906.486    7348.0431    7685.4021   -887.53655   -1164.9816    714.37856   -2670.4479 
13691000    266.90374   -3861.9222   -3404.4583   -3861.9222            0    6506.2725    17.102233    20.144172    20.864685    7188.0995     5225.805     7924.785    6368.2277   -857.56232   -404.09717    443.42642   -2722.3989 
13692000    256.16653   -3846.7262   -3407.6656   -3846.7262            0     7405.731    17.064141    20.099304    20.818212    7140.1751    8086.6195    9571.8466     4558.727   -807.40198   -596.33577    161.20627    -2636.491 
13693000    269.65543   -3864.9764   -3402.7962   -3864.9764            0    6709.0719    17.017905    20.044845    20.761805    7082.2931    5599.2843    6946.9395    7580.9919    612.63363     131.3017    1024.4491   -2709.8297 
13694000     265.3426   -3830.7129   -3375.9248   -3830.7129            0    4358.4291    17.023872    20.051873    20.769084    7089.7454    4494.9455    5230.2906    3350.0513    326.85044   -861.67745   -229.07739   -2925.2777 
13695000    255.31672   -3865.5271    -3427.923   -3865.5271            0    6604.8769    17.063817    20.098923    20.817817    7139.7693    5652.5864    6052.6995    8109.3447    510.54389     418.9259   -135.07964   -2740.1822 
13696000    254.79828   -3840.9461   -3404.2306   -3840.9461            0    6230.6888    17.109841    20.153133    20.873967    7197.6967    6259.1122    7437.5576    4995.3965    241.32151    185.68196   -87.121038   -2750.1888 
13697000    258.63928   -3841.1382   -3397.8394   -3841.1382            0    7001.5912    17.045988    20.077922    20.796065    7117.4122    6340.6439    7637.4564    7026.6733    1967.4066    64.522645    743.58601   -2671.0731 
13698000     259.9963   -3853.1115   -3407.4867   -3853.1115            0    7173.4013    17.106225    20.148873    20.869554    7193.1331    6649.5594    7469.4191    7401.2253   -529.34751    551.66778    881.73674   -2654.9649 
13699000    271.69252   -3838.7864   -3373.1148   -3838.7864            0    5644.0206    17.128505    20.175116    20.896736    7221.2759    5408.0002    6346.3705    5177.6911    891.50359   -22.480907     1054.032   -2778.7153 
13700000    270.37759   -3863.0654   -3399.6474   -3863.0654            0    9066.9507    17.050924    20.083736    20.802087    7123.5971    9215.1111    9094.3754    8891.3657    420.84532   -1080.0774    1281.4406   -2457.6787 
13701000    262.00245   -3869.5131   -3420.4498   -3869.5131            0    6247.6681    17.120542    20.165737    20.887022    7211.2099    6181.2904    5390.2071    7171.5066     928.8706    2504.6012    1540.3902   -2763.3945 
13702000     256.0978   -3846.5677   -3407.6248   -3846.5677            0    9500.5413    17.041883    20.073087    20.791058    7112.2717    10007.747    8728.6559    9765.2212   -492.85145    495.06215    435.49991   -2422.1794 
13703000    252.82281   -3866.5152   -3433.1855   -3866.5152            0    7248.9842    17.038819    20.069478     20.78732    7108.4364    8219.8793    7046.1959    6480.8774   -483.35624   -139.29529    841.57011   -2681.6888 
13704000    246.61281   -3850.9522   -3428.2663   -3850.9522            0    5989.6299    17.077263     20.11476    20.834221    7156.6603    5792.2206    6606.8641     5569.805   -1397.7845    24.705144   -398.84625   -2803.1133 
13705000    252.43917   -3879.0154   -3446.3433   -3879.0154            0    7469.8028    17.004265    20.028778    20.745163    7065.2765    5452.4389    6107.0013    10849.968   -935.73149    1039.9643   -872.85737   -2676.6562 
13706000    262.16061   -3896.5219   -3447.1876   -3896.5219            0    6173.6771    17.063966    20.099097    20.817998    7139.9552    4932.7916    6409.5077    7178.7319    495.27442    827.69679    548.46529   -2804.3292 
13707000    266.27428   -3871.2908   -3414.9058   -3871.2908            0    6685.9529    17.044319    20.075957    20.794029     7115.322    7222.1682    5734.7104      7100.98   -762.96871   -137.36331   -1463.6872   -2721.1067 
13708000    266.58089   -3866.0749   -3409.1643   -3866.0749            0    8522.5416    17.070271    20.106525    20.825691    7147.8736    6507.6155    9227.5049    9832.5044   -253.93287   -2377.8364   -571.59538    -2520.737 
13709000    255.51098   -3866.9889   -3429.0518   -3866.9889            0    6272.7628    17.100727    20.142397    20.862847    7186.1999    5544.7916    7177.7553    6095.7416   -177.44829   -600.21876    972.64358   -2771.6452 
13710000    277.90232   -3862.9686   -3386.6535   -3862.9686            0    8110.0411    17.120562     20.16576    20.887045    7211.2345    8465.7561    7153.4753    8710.8918   -541.22893   -322.18928    380.78842    -2533.733 
13711000    271.89112   -3893.9596   -3427.9475   -3893.9596            0    6747.5265    17.108541    20.151601     20.87238    7196.0554    6985.5201    5548.2801    7708.7792   -349.89344   -973.78531    1263.7392   -2719.8142 
13712000    275.47363   -3891.4681   -3419.3157   -3891.4681            0    5794.0532    17.125348    20.171398    20.892885    7217.2843    5382.2797     4278.638    7721.2418   -1492.5055   -1221.9131   -666.63134   -2809.4529 
13713000    268.68445   -3872.2812   -3411.7652   -3872.2812            0    6534.6912    17.103568    20.145743    20.866313    7189.7819    6566.1761    7518.6552    5519.2424   -230.51545    1045.6646   -308.68568   -2726.5663 
13714000    252.67335   -3857.3352   -3424.2617   -3857.3352            0    9761.9095     16.99817    20.021599    20.737728    7057.6824     10325.14    10652.766    8307.8222    70.054769   -952.39198   -815.42851   -2419.4775 
13715000    247.90874   -3902.8662   -3477.9591   -3902.8662            0    7503.1444    16.991795     20.01409    20.729951    7049.7447    4851.8527    9769.6984     7887.882   -414.21006    1292.9632   -638.78298   -2706.5361 
13716000    270.72161   -3887.1666    -3423.159   -3887.1666            0    8559.2525    17.005787     20.03057     20.74702    7067.1737    7831.8036    9257.1887    8588.7651    1063.9734   -1661.4186    733.11439   -2540.9784 
13717000    262.35248   -3905.7167   -3456.0535   -3905.7167            0    5834.1051    17.141774    20.190745    20.912924    7238.0712    6546.0235     6902.989    4053.3029   -629.45247    5.6043812    1620.2821   -2840.2063 
13718000    268.67131   -3865.5116   -3405.0182   -3865.5116            0    6835.6358    17.068839    20.104838    20.823944    7146.0747    8536.3714    5811.2452    6159.2907   -898.29109    -1065.396    845.19943   -2692.6208 
13719000    268.66217   -3844.4702   -3383.9925   -3844.4702            0    9480.2324    16.996087    20.019146    20.735186    7055.0879    7189.9003    11527.043    9723.7534   -459.49089   -155.28067     1479.022   -2408.5598 
13720000    259.40635   -3874.1733   -3429.5597   -3874.1733            0     6708.858    17.039504    20.070285    20.788155    7109.2937    5783.5837     9131.038    5211.9522   -339.78387    177.56598    1709.0974   -2733.9735 
13721000    259.91687   -3867.9886      -3422.5   -3867.9886            0    5482.5991    17.092483    20.132687    20.852789    7175.8117    5721.0167    6771.3447    3955.4357   -769.87172   -238.13712   -94.524346   -2848.7358 
13722000    254.64467   -3869.3775   -3432.9253   -3869.3775            0    6883.2194    17.017559    20.044437    20.761383    7081.8611    5594.1321    6217.9117    8837.6144    1069.9134   -768.03377   -791.04712   -2722.0148 
13723000    261.09889    -3854.576   -3407.0614    -3854.576            0    7019.3828     17.00552    20.030257    20.746695    7066.8415     6156.911    6434.3854    8466.8522    258.10303   -1241.0215   -748.15016   -2683.6253 
13724000    262.18073   -3867.2119   -3417.8431   -3867.2119            0    7044.6927    17.074035    20.110958    20.830283    7152.6027    7934.4226    6646.7823    6552.8731    360.88511   -24.689798     653.8463   -2682.9875 
13725000    263.43347   -3875.0008   -3423.4849   -3875.0008            0    9376.6135    16.916755    19.925702    20.638401    6956.7555    10346.294    9074.7699    8708.7769    1160.0732   -3008.2384   -775.53797   -2472.1605 
13726000    258.51868    -3860.159   -3417.0668    -3860.159            0    5745.5561    17.030304    20.059448     20.77693    7097.7836    5832.8114    5406.4352    5997.4217      1474.15    100.85491   -1915.6588   -2822.3219 
13727000    277.24644   -3824.9886   -3349.7977   -3824.9886            0    7102.8074    17.039258    20.069995    20.787855    7108.9855    7913.3928    6653.3547    6741.6748    1041.1942    1071.6371    1362.0992   -2613.3981 
13728000    269.22543   -3813.5182    -3352.075   -3813.5182            0    9127.4004     17.03644    20.066676    20.784418    7105.4595    9772.7954    8162.2793    9447.1265     235.8269   -161.10875    47.319957   -2406.2405 
13729000    259.94669   -3849.7227    -3404.183   -3849.7227            0    8307.9623    17.085409    20.124355    20.844159    7166.9061    11033.276    6877.5237    7013.0873    965.17579   -77.739595   -365.20294   -2535.8183 
13730000     270.7265   -3829.0608   -3365.0448   -3829.0608            0    7184.4621     17.00503    20.029679    20.746097    7066.2302    7881.6771    5864.7475    7806.9618   -582.19657    1327.1874    155.92334   -2624.6593 
13731000    257.61648    -3805.979   -3364.4332    -3805.979            0    9959.9755    16.942681     19.95624    20.670031    6988.7899    12951.409    8944.9516    7983.5654   -455.34484    1725.1751    146.23987   -2349.2693 
13732000    262.08545   -3866.3734   -3417.1679   -3866.3734            0    4941.3959    17.160315    20.212584    20.935544    7261.5839    3270.0086    5081.3446    6472.8345   -1315.1355    769.03729   -1754.4666   -2893.8605 
13733000    271.26486   -3888.1143   -3423.1756   -3888.1143            0    8083.3032     16.96031    19.977004    20.691538    7010.6278    8678.9352    7054.0617    8516.9127    -1111.744   -1659.5539    471.00444   -2596.7159 
13734000    265.08755   -3876.5862   -3422.2352   -3876.5862            0    5401.6648    17.106224    20.148872    20.869553    7193.1318    5324.1776    4191.6373    6689.1796    578.84064   -272.03847    2142.7651   -2855.5766 
13735000    254.56206   -3882.5636   -3446.2529   -3882.5636            0    6598.4203     17.12032    20.165475     20.88675    7210.9287    7251.7867    6747.7671    5795.7072    705.32815   -52.530592   -988.21442   -2752.3366 
13736000    264.86345   -3896.5293   -3442.5624   -3896.5293            0    7181.3919    17.076819    20.114238     20.83368    7156.1023     7050.456    8725.7476     5767.972   -45.153983   -822.12776    485.43839   -2693.0807 
13737000     263.3491   -3907.1095   -3455.7382   -3907.1095            0    7341.6213    17.081648    20.119925     20.83957     7162.174    6326.2077    9492.4695    6206.1869   -1030.6281    678.79603   -303.38183   -2688.8841 
13738000    273.79185   -3884.5237   -3415.2539   -3884.5237            0    7027.8849    17.066247    20.101785    20.820782    7142.8199    6948.9195    8306.7436    5827.9915    956.78135    1090.2007    880.72207   -2683.1542 
13739000    254.30136   -3865.7982   -3429.9344   -3865.7982            0    8328.0005    17.033935    20.063725    20.781361     7102.325    8625.2431    8987.2063     7371.552   -1256.2757    482.78788    1290.0911    -2567.319 
13740000    260.83461    -3865.239   -3418.1774    -3865.239            0    8421.4899    16.986438     20.00778    20.723415    7043.0789    7145.4698    8402.4914    9716.5084  -0.34371663    85.231734    1177.6701    -2553.155 
13741000    263.97755   -3906.5433   -3454.0948   -3906.5433            0     5413.266     17.10192    20.143803    20.864303    7187.7045    4334.8201    6270.7145    5634.2633     619.8147    486.92592   -1388.0152   -2886.6475 
13742000     257.4381   -3859.8502   -3418.6101   -3859.8502            0    9321.0799    17.056072      20.0898    20.808368    7130.0516    9466.1013    8299.7564    10197.382   -331.16364      301.382     651.4787   -2449.3624 
13743000    263.28093    -3850.193   -3398.9385    -3850.193            0    7380.8714    17.008079    20.033271    20.749817    7070.0327    7226.6037    6645.8624    8270.1481    503.86793   -1328.4376   -847.98815    -2637.903 
13744000    256.06254   -3867.1536   -3428.2711   -3867.1536            0     7401.355    17.018938    20.046061    20.763065    7083.5825    6622.5244    6804.0122    8777.5284   -244.53258    389.12448   -72.012749    -2663.661 
13745000    272.89246   -3877.5847   -3409.8563   -3877.5847            0     6401.559    17.115241    20.159493    20.880554    7204.5134    7063.3782    5987.5735    6153.7252   -453.12649    -1090.714   -1302.5496   -2737.2417 
13746000    249.19709   -3879.2113    -3452.096   -3879.2113            0    8029.5882     17.12034    20.165499    20.886775    7210.9545    10247.009      6402.53    7439.2258   -680.29586   -349.01596    938.93877   -2607.6694 
13747000    253.15082   -3852.1991   -3418.3073   -3852.1991            0    7978.1418    17.098441    20.139705    20.860059    7183.3191    7816.7104    8624.0976    7493.6174    387.21486    2278.6788    486.11358   -2582.5064 
13748000    264.36082   -3843.2215   -3390.1161   -3843.2215            0    7416.4401    17.104102    20.146373    20.866964    7190.4558      6603.85    7040.0641    8605.4063   -646.54209   -520.16478    1395.5335    -2612.388 
13749000    260.52769     -3907.68   -3461.1445     -3907.68            0    6742.1624    17.128033    20.174561    20.896161    7220.6798    7659.0994    6929.6601    5637.7277   -1285.2177    1142.1179   -99.426758   -2751.1529 
13750000    273.67708   -3858.3566   -3389.2834   -3858.3566            0    6510.3374    17.081012    20.119176    20.838795    7161.3746    6566.0102    6725.6825    6239.3197    1495.4709    750.13883    -581.9853   -2709.3353 
Loop time of 452.417 on 64 procs for 250000 steps with 864 atoms

Performance: 95.487 ns/day, 0.251 hours/ns, 552.587 timesteps/s
99.0% CPU use with 64 MPI tasks x 1 OpenMP threads

MPI task timing breakdown:
Section |  min time  |  avg time  |  max time  |%varavg| %total
---------------------------------------------------------------
Pair    | 21.69      | 26.26      | 30.681     |  45.8 |  5.80
Bond    | 0.27127    | 0.27779    | 0.28805    |   0.7 |  0.06
Kspace  | 194.47     | 204.38     | 212.36     |  29.3 | 45.18
Neigh   | 5.3051     | 6.1303     | 6.6976     |  15.8 |  1.36
Comm    | 97.815     | 102.94     | 110.58     |  34.2 | 22.75
Output  | 1.2372     | 1.2389     | 1.2507     |   0.2 |  0.27
Modify  | 104.82     | 106.21     | 108.19     |   8.1 | 23.48
Other   |            | 4.98       |            |       |  1.10

Nlocal:        13.5000 ave          17 max           8 min
Histogram: 1 0 3 8 4 12 18 10 4 4
Nghost:        2215.09 ave        2253 max        2190 min
Histogram: 7 5 6 16 10 7 9 2 1 1
Neighs:        4307.33 ave        5708 max        2641 min
Histogram: 1 5 4 6 9 12 14 3 5 5

Total # of neighbors = 275669
Ave neighs/atom = 319.06134
Ave special neighs/atom = 2.0000000
Neighbor list builds = 14153
Dangerous builds = 1

unfix		3
unfix		2
unfix		1

write_data	data.final.${pid}
write_data	data.final.0
System init for write_data ...
PPPM initialization ...
  extracting TIP4P info from pair style
  using 12-bit tables for long-range coulomb (../kspace.cpp:340)
  G vector (1/distance) = 0.37374742
  grid = 24 24 24
  stencil order = 5
  estimated absolute RMS force accuracy = 0.0032201687
  estimated relative force accuracy = 9.6974425e-06
  using double precision FFTW3
  3d grid and FFT values/proc = 2535 216
Last active /omp style is kspace_style pppm/tip4p/omp
WARNING: Not all mixed pair coeffs generated from mixing. Use write_data with 'pair ij' option to store all pair coeffs. (../write_data.cpp:312)

write_restart   restart.lmp.${pid}
write_restart   restart.lmp.0
System init for write_restart ...
PPPM initialization ...
  extracting TIP4P info from pair style
  using 12-bit tables for long-range coulomb (../kspace.cpp:340)
  G vector (1/distance) = 0.37374742
  grid = 24 24 24
  stencil order = 5
  estimated absolute RMS force accuracy = 0.0032201687
  estimated relative force accuracy = 9.6974425e-06
  using double precision FFTW3
  3d grid and FFT values/proc = 2535 216
Last active /omp style is kspace_style pppm/tip4p/omp
Total wall time: 0:07:34
