LAMMPS data file via write_data, version 30 Jul 2021, timestep = 23000000

864 atoms
2 atom types
576 bonds
1 bond types
288 angles
1 angle types

0.1299865573315273 18.077585842676015 xlo xhi
0.10831991864937152 23.52085788136248 ylo yhi
0.12214950496355037 22.09104629503208 zlo zhi

Masses

1 1.00794
2 15.9994

Atoms # full

707 1 1 0.5897 3.252273702867017 1.917157675435558 3.719733640004301 0 0 0
706 1 2 -1.1794 3.260574795773839 1.9031298453771845 2.7626666224680334 0 0 0
30 1 1 0.5897 5.3806603276616665 4.138925202000819 1.9748657646487373 0 0 0
708 1 1 0.5897 2.4731037979503925 2.3844290588667443 2.508758399224184 0 0 0
29 1 1 0.5897 4.613463376060946 2.8344299539989883 2.014781740418572 0 0 0
28 1 2 -1.1794 5.389428182703314 3.2448477161947644 1.6331276826818986 0 0 0
3 1 1 0.5897 0.7345999438452023 4.039054925641467 2.642368528688202 0 0 0
188 1 1 0.5897 3.292776685349004 0.11041261185340048 2.3106323885390414 0 1 0
495 1 1 0.5897 8.33403333246208 1.836284535496361 2.6446815074012955 0 0 0
494 1 1 0.5897 6.8821533536792705 2.0357136232958792 2.2650038899680163 0 0 0
493 1 2 -1.1794 7.46295199441386 1.4559437137319837 2.757727697602946 0 0 0
1 1 2 -1.1794 0.7722895924163722 3.148156339726283 2.2943531173485816 0 0 0
846 1 1 0.5897 7.406236133587709 1.6787953427541609 4.6484646216704695 0 0 0
136 1 2 -1.1794 5.432241378796477 5.582952439505775 2.872312390911729 0 0 0
20 1 1 0.5897 0.55694232979979 2.973151182744733 0.4628020985933523 0 0 0
137 1 1 0.5897 5.313836940151175 5.5548624375629565 3.8217504627745167 0 0 0
595 1 2 -1.1794 0.9208824077784866 5.719234319497784 2.940661859256232 0 0 0
597 1 1 0.5897 0.8348244184789124 5.736890952866692 3.893827219866915 0 0 0
844 1 2 -1.1794 7.751817383256465 1.7406110955295833 5.538969787540715 0 0 0
487 1 2 -1.1794 3.325475898068915 2.0272867428826733 5.471915354331326 0 0 0
83 1 1 0.5897 4.878070906696382 2.599670440383189 6.327427496220969 0 0 0
784 1 2 -1.1794 0.9616866813981216 3.2853566495633646 6.6127362952565605 0 0 0
82 1 2 -1.1794 5.617306883424572 3.0462711229015618 6.740106731449202 0 0 0
488 1 1 0.5897 2.551006530372704 2.429284078731929 5.865401678300601 0 0 0
674 1 1 0.5897 3.309728719735847 2.2597693365161993 10.102274521557375 0 0 0
356 1 1 0.5897 6.924717062725768 0.8727561996945665 10.36277080357572 0 0 0
845 1 1 0.5897 7.552676515381348 0.8913808151640952 5.933172504682811 0 0 0
35 1 1 0.5897 0.6228950391516415 3.9727245696593783 9.719669896701712 0 0 0
183 1 1 0.5897 0.7049127291944357 4.964181524946014 6.080466605418879 0 0 0
673 1 2 -1.1794 2.5840575059282167 1.8228843034039723 10.548109116821156 0 0 0
785 1 1 0.5897 0.879545283633635 3.1923672783371067 7.561868299440919 0 0 0
274 1 2 -1.1794 4.890154229517216 3.2028914746532315 9.456456649477307 0 0 0
678 1 1 0.5897 4.7513784023455194 4.992161137765254 10.102180444252742 0 0 0
112 1 2 -1.1794 0.5318048224633503 5.635270582674302 10.252175687237893 0 0 0
36 1 1 0.5897 1.280564371810939 2.609834178869568 9.763356007810364 0 0 0
355 1 2 -1.1794 6.875470128803112 1.7840347472967444 10.65152771782374 0 0 0
34 1 2 -1.1794 0.5833256330871137 3.1002388476104996 9.327940993688825 0 0 0
84 1 1 0.5897 6.3910912542968275 2.6493814811656593 6.340157548609392 0 0 0
276 1 1 0.5897 5.5182926024209324 2.66751934745146 9.941280389787572 0 0 0
675 1 1 0.5897 2.6539887050978104 0.9068015260944238 10.279500484859946 0 0 0
275 1 1 0.5897 5.114977075278899 3.062792500886532 8.536626781174885 0 0 0
786 1 1 0.5897 0.137210452254795 2.9444572702645186 6.265954981792555 0 0 0
489 1 1 0.5897 3.3660825879018845 1.1535332209694278 5.860755360379687 0 0 0
686 1 1 0.5897 5.313595369746726 4.772674862139714 6.0820308461897135 0 0 0
419 1 1 0.5897 9.046867561317223 2.5224903186060863 6.453925053753153 0 0 0
177 1 1 0.5897 9.03258942803836 3.268356380965315 8.882711496801997 0 0 0
181 1 2 -1.1794 0.778672066934806 5.845755638602385 5.714890863189846 0 0 0
685 1 2 -1.1794 5.285179519698307 5.668347858201876 5.745569935738083 0 0 0
676 1 2 -1.1794 4.840502856536102 5.824471579108991 10.566451805186107 0 0 0
176 1 1 0.5897 8.130680778401393 2.9520958617483255 10.056780908300032 0 0 0
175 1 2 -1.1794 8.971932599520327 3.3509688431971165 9.834412608611625 0 0 0
166 1 2 -1.1794 2.8307039066778876 2.0624640107191743 13.218854158636809 0 0 0
167 1 1 0.5897 2.7585398911466203 1.9397704607836466 12.272280102100918 0 0 0
457 1 2 -1.1794 5.079303310057342 3.1657603273638864 14.406378906571508 0 0 0
458 1 1 0.5897 5.799798308747812 2.633383935192034 14.069202831089004 0 0 0
459 1 1 0.5897 4.3059214320925765 2.8439084689887593 13.943221879122154 0 0 0
762 1 1 0.5897 5.170335591711651 4.82781411144883 13.565467506191428 0 0 0
594 1 1 0.5897 7.908834908751141 2.0468111591576346 13.714321999312734 0 0 0
168 1 1 0.5897 2.0502284450250414 2.563242551034807 13.456137916344451 0 0 0
468 1 1 0.5897 0.5287920955045612 3.2973287285387256 14.89088854131523 0 0 0
466 1 2 -1.1794 0.5378915913822744 3.463196039807656 13.948210661148348 0 0 0
593 1 1 0.5897 7.199903801817428 0.7105301553503719 13.653570022793732 0 0 0
592 1 2 -1.1794 7.093156375712776 1.6349345693281039 13.429248350073783 0 0 0
365 1 1 0.5897 0.43837470002633194 5.05826926695033 13.19740900788916 0 0 0
71 1 1 0.5897 5.207776316990669 3.254749857675994 16.180605261990998 0 0 0
760 1 2 -1.1794 5.137878876695685 5.749382977297598 13.308691215363194 0 0 0
761 1 1 0.5897 5.009656788352932 5.729869405060264 12.360309110148723 0 0 0
357 1 1 0.5897 6.9943891545599675 1.7418760613509716 11.60037975263743 0 0 0
113 1 1 0.5897 0.47228864158701656 5.678382572063511 11.206553443796814 0 0 0
737 1 1 0.5897 2.860997095315242 0.3471104430329959 13.836308379136064 0 1 0
754 1 2 -1.1794 7.744723006461068 1.9772167362678679 17.361831123891385 0 0 0
648 1 1 0.5897 0.8882122374415046 5.6219341458866605 19.6577184252928 0 0 0
133 1 2 -1.1794 0.9320034418989596 3.2397631465332744 16.684581236649265 0 0 0
755 1 1 0.5897 7.782075783386462 1.9411399882547233 18.317623070759318 0 0 0
290 1 1 0.5897 3.0945461154254352 1.046594516117704 17.645972327689 0 0 0
42 1 1 0.5897 7.593737194580036 0.9642718715780861 20.534148034068984 0 0 0
289 1 2 -1.1794 3.0394942266982525 1.9637985659046862 17.914214360964777 0 0 0
41 1 1 0.5897 6.907407675420039 2.311204788272293 20.452770265318833 0 0 0
143 1 1 0.5897 5.333261809267541 4.9928357158232 20.650766770348817 0 0 0
569 1 1 0.5897 1.9957654165401228 1.9116440237866474 21.05043057654325 0 0 0
291 1 1 0.5897 2.3239618059107703 2.3244468799191926 17.390596339959203 0 0 0
570 1 1 0.5897 2.8163075313807875 1.7575704413376243 19.787547841861326 0 0 0
40 1 2 -1.1794 7.697570433668283 1.84641335565764 20.17738175148473 0 0 0
70 1 2 -1.1794 5.3538739432372795 3.4436942701456683 17.107556256941884 0 0 0
667 1 2 -1.1794 5.354657585049858 3.133909492161844 20.860593517070782 0 0 0
21 1 1 0.5897 0.5949074835612653 3.773959281616133 21.147477443244128 0 0 0
568 1 2 -1.1794 2.890965304862329 1.771821605301203 20.741727639779597 0 0 0
756 1 1 0.5897 6.943832145783667 2.4655807338687223 17.17122450732051 0 0 0
669 1 1 0.5897 4.521695828403376 2.6820843347310457 20.72544894944 0 0 0
278 1 1 0.5897 5.374181801404036 5.122732417638387 17.563939676294744 0 0 0
19 1 2 -1.1794 0.5232785902292387 2.8791181058464193 21.479711298871827 0 0 0
72 1 1 0.5897 4.608077547741927 3.043393819192532 17.554569657669965 0 0 0
134 1 1 0.5897 0.9197378803445904 4.112320206343498 17.0779421137927 0 0 0
135 1 1 0.5897 0.19367311036909207 2.783931714506978 17.088700036778896 0 0 0
571 1 2 -1.1794 0.940331224422396 5.779620242282464 17.921301014693256 0 0 0
360 1 1 0.5897 8.905763270568261 2.943553709823475 21.08862348324847 0 0 0
142 1 2 -1.1794 5.21545255099529 5.930036792820341 20.49582078528603 0 0 0
646 1 2 -1.1794 0.8220727032659676 5.555367664911336 20.610313442322727 0 0 0
668 1 1 0.5897 5.446415277444989 3.188642099368299 21.8118139787111 0 0 -1
253 1 2 -1.1794 3.269563741619615 7.024456131934222 2.1168947826194873 0 0 0
123 1 1 0.5897 3.0751247356368614 8.54085420509631 2.9260168274839953 0 0 0
121 1 2 -1.1794 2.9760328199062567 9.432637556524394 3.2593975403325315 0 0 0
122 1 1 0.5897 3.1589862101928006 9.360360410520077 4.196171346332719 0 0 0
44 1 1 0.5897 1.599593606214242 10.312368886267777 2.563368529047433 0 0 0
218 1 1 0.5897 5.866077950675276 10.532866964052456 2.244838585278616 0 0 0
417 1 1 0.5897 8.355410655951767 6.798706636403611 2.709883959714275 0 0 0
219 1 1 0.5897 4.368111800117766 10.374389424261954 2.39616946181422 0 0 0
138 1 1 0.5897 4.710346522339319 6.126367884013281 2.5564092607920403 0 0 0
415 1 2 -1.1794 7.586929589188912 7.179540494853213 2.2848826017954478 0 0 0
43 1 2 -1.1794 0.8918203829494109 10.797958544629715 2.1397084794419534 0 0 0
254 1 1 0.5897 3.163132667225462 7.337547950843613 1.2186283080925016 0 0 0
217 1 2 -1.1794 5.032308931073326 10.867814094095095 1.9148867526260067 0 0 0
66 1 1 0.5897 7.414101412586381 9.785462531405658 3.9504781315130844 0 0 0
65 1 1 0.5897 7.320876481733436 8.892648974119242 2.731381290395346 0 0 0
64 1 2 -1.1794 7.30656737402045 9.811389202981797 2.9996768324825327 0 0 0
416 1 1 0.5897 6.848772709328059 6.675677359335426 2.6276317088611987 0 0 0
255 1 1 0.5897 2.4185306401077193 6.648859518264766 2.3425413253567786 0 0 0
363 1 1 0.5897 4.850532241700104 10.93028817104619 0.16079346382205237 0 0 1
396 1 1 0.5897 0.8068830497666585 10.871225127331783 0.4287016654346261 0 0 0
162 1 1 0.5897 7.401586893835095 7.222411778694376 0.2353834604561768 0 0 1
773 1 1 0.5897 8.86531555409666 10.756183111332138 2.3941091092363695 0 0 0
45 1 1 0.5897 0.9590542731118882 11.682577076008947 2.4991164793279097 0 0 0
256 1 2 -1.1794 3.0411424131440667 9.911892291970947 10.710731788654579 0 0 0
12 1 1 0.5897 3.3761454227481686 7.736893001203846 6.712544516876803 0 0 0
10 1 2 -1.1794 3.2188655085471023 6.8407511929712 7.009935194757141 0 0 0
552 1 1 0.5897 1.0571016474940702 11.520850378133876 6.663204118026987 0 0 0
526 1 2 -1.1794 7.128908721861235 6.9916810440043635 9.636149417165035 0 0 0
577 1 2 -1.1794 5.478548930954464 10.987158211548252 6.987135996149557 0 0 0
145 1 2 -1.1794 7.626030699965661 7.1609294475182965 6.954157158166217 0 0 0
550 1 2 -1.1794 1.2694419264420387 10.68313128939072 7.07475366390235 0 0 0
551 1 1 0.5897 1.079365771203371 10.816910696729494 8.003306783008929 0 0 0
580 1 2 -1.1794 5.388273012928776 11.059839128250832 9.769647930121359 0 0 0
650 1 1 0.5897 2.911625208663341 7.1540984541563715 8.84708634787294 0 0 0
822 1 1 0.5897 8.320598737164273 10.151098539778253 9.961956194907494 0 0 0
527 1 1 0.5897 7.296271079070885 7.8966919900284775 9.899162967755304 0 0 0
15 1 1 0.5897 1.5813410531024734 10.690957642898278 10.209687957690942 0 0 0
582 1 1 0.5897 5.363995433724686 11.030632479066936 8.813199593584255 0 0 0
820 1 2 -1.1794 7.5728245242021925 9.632043943147897 10.25799659614345 0 0 0
581 1 1 0.5897 6.14243416237747 10.520343616181853 10.007155795571318 0 0 0
147 1 1 0.5897 7.47628618712047 7.206509853661194 7.898484354456534 0 0 0
649 1 2 -1.1794 2.7749933323289837 7.311481354847591 9.781329014998867 0 0 0
795 1 1 0.5897 4.154802673711151 9.779310730000146 6.166527112159719 0 0 0
794 1 1 0.5897 2.6526628774967103 9.798437124412322 6.353839372122368 0 0 0
258 1 1 0.5897 3.8530553153885005 10.285590943675613 10.368133093879353 0 0 0
528 1 1 0.5897 7.905911468519642 6.511150217058515 9.921797080678628 0 0 0
257 1 1 0.5897 2.9505858340614166 9.075426580513595 10.254249082750214 0 0 0
146 1 1 0.5897 6.869578658561424 6.683116717880399 6.614007962422675 0 0 0
578 1 1 0.5897 6.217089851199819 10.504002722133741 6.616530816338954 0 0 0
13 1 2 -1.1794 0.8375169111352609 11.034255244838427 9.714612595846303 0 0 0
11 1 1 0.5897 2.4328772329159483 6.565705323604006 6.537904478398838 0 0 0
651 1 1 0.5897 3.4728366893746028 6.81809238319535 10.212400165124455 0 0 0
793 1 2 -1.1794 3.3571066250153017 9.303147901369941 5.935901158717653 0 0 0
714 1 1 0.5897 7.430259611623965 8.600416098974817 6.069255720179435 0 0 0
713 1 1 0.5897 8.331009847816667 9.815678554800158 6.008454559363165 0 0 0
114 1 1 0.5897 1.236381883669443 6.243155295962249 10.027957407205426 0 0 0
712 1 2 -1.1794 7.470647731524714 9.49677507046334 5.735858791796296 0 0 0
677 1 1 0.5897 5.601624991940407 6.2431963801376735 10.164466340683076 0 0 0
687 1 1 0.5897 4.558155194121067 6.077920848811285 6.214520782989321 0 0 0
182 1 1 0.5897 0.1583839758441492 6.368828819612838 6.222708158396368 1 0 0
826 1 2 -1.1794 7.3831633567582395 7.153913637810547 13.88459138598688 0 0 0
827 1 1 0.5897 6.548980391852215 6.7282613075165 13.686652400860893 0 0 0
332 1 1 0.5897 2.7927292496852796 7.663269695025008 13.7760026354143 0 0 0
797 1 1 0.5897 3.183840840990647 9.686146533236649 12.527236444069544 0 0 0
796 1 2 -1.1794 3.141787569258535 9.526303646577654 13.470061536803584 0 0 0
798 1 1 0.5897 2.3766691990039712 10.021029313457937 13.76345252758172 0 0 0
722 1 1 0.5897 4.465756695481474 10.556474126779273 13.915946630819107 0 0 0
261 1 1 0.5897 0.873524471594168 11.094102455386125 14.897131611363832 0 0 0
723 1 1 0.5897 5.319918777779701 11.156621231899988 15.012361331654928 0 0 0
828 1 1 0.5897 7.441281268240965 7.135475171400197 14.839849389685588 0 0 0
259 1 2 -1.1794 0.8130294725575085 11.001000437533941 13.946386770939894 0 0 0
331 1 2 -1.1794 2.7665612989983677 6.821302477291037 14.230578410893008 0 0 0
225 1 1 0.5897 2.90333912519763 7.241596291612673 15.91790673283458 0 0 0
721 1 2 -1.1794 5.195430932922231 11.158216706692729 14.063288835364729 0 0 0
475 1 2 -1.1794 7.364011153871505 9.747470679648597 13.010344500603448 0 0 0
476 1 1 0.5897 6.557349741457102 10.073425613295134 13.409437497073322 0 0 0
477 1 1 0.5897 7.418553454464922 8.833987319872648 13.291072230978322 0 0 0
333 1 1 0.5897 3.584702698580503 6.38993286677407 13.984030193499878 0 0 0
366 1 1 0.5897 1.3338074403681743 6.272487982735002 13.323211211513042 0 0 0
104 1 1 0.5897 8.803420028434884 10.651048551181418 13.517121725423484 0 0 0
851 1 1 0.5897 8.849085557232204 6.29751942686969 13.310711487943582 0 0 0
821 1 1 0.5897 7.644157467140503 9.631127477742636 11.212537143362784 0 0 0
364 1 2 -1.1794 0.5206883817681878 5.970258337193972 12.918570083319969 0 0 0
522 1 1 0.5897 7.725694967397624 7.931009554848113 16.89444569291458 0 0 0
141 1 1 0.5897 7.279382300359729 9.054327075492457 20.775468515261522 0 0 0
462 1 1 0.5897 8.847243320044708 6.3611426667855655 20.89835747740848 0 0 0
9 1 1 0.5897 6.763503262954301 10.181404715728808 17.52798539699866 0 0 0
4 1 2 -1.1794 2.887195112913853 7.227781130924619 21.41774601371175 0 0 0
627 1 1 0.5897 2.285037409881932 10.49475378416794 17.325847211499685 0 0 0
394 1 2 -1.1794 0.7429661203852485 11.056820501762072 21.460738954390116 0 0 0
711 1 1 0.5897 8.843376963453165 6.150846001824972 17.534024967483838 0 0 0
140 1 1 0.5897 6.5915767459055585 10.401835051334238 20.72039532003621 0 0 0
5 1 1 0.5897 3.6998209095624253 6.8547697225436535 21.076097396873266 0 0 0
690 1 1 0.5897 1.989450158142435 10.222566736064213 20.63942802390769 0 0 0
625 1 2 -1.1794 3.0793028156495215 10.016620254422138 17.56408480576762 0 0 0
688 1 2 -1.1794 2.721690734664398 9.745335097644322 20.249170204739862 0 0 0
223 1 2 -1.1794 3.0249206134415356 7.30811012145559 16.86502312975469 0 0 0
361 1 2 -1.1794 4.928699044249288 11.021102016180858 21.180017612062507 0 0 0
689 1 1 0.5897 3.501900142642228 10.188086205302666 20.583057438741 0 0 0
161 1 1 0.5897 6.699123299841215 6.954255217630797 20.89030480126455 0 0 0
626 1 1 0.5897 3.019790980979596 9.910385556035848 18.513514163745803 0 0 0
139 1 2 -1.1794 7.39037090439175 9.948157497569534 20.451456779006307 0 0 0
6 1 1 0.5897 2.794796670752098 8.062683878646414 20.95879632446323 0 0 0
246 1 1 0.5897 8.830729533797708 10.487547095596938 17.059604187980298 0 0 0
8 1 1 0.5897 7.521779206322408 9.607483471377519 18.705960822581005 0 0 0
7 1 2 -1.1794 7.45998862554581 9.56403321223222 17.7517393515065 0 0 0
160 1 2 -1.1794 7.496581311071118 7.334721115987067 21.258448780841427 0 0 0
647 1 1 0.5897 1.4854383563472682 6.161658573554369 20.939895241684333 0 0 0
680 1 1 0.5897 4.5595022819645195 10.880934104340474 17.05800278565866 0 0 0
224 1 1 0.5897 3.254505330563839 8.225410941901213 17.01367849328662 0 0 0
521 1 1 0.5897 6.76281385283832 6.767028893926663 16.99410245671828 0 0 0
287 1 1 0.5897 9.007560840763635 10.44685405155036 21.067961582778373 0 0 0
520 1 2 -1.1794 7.612411546346786 7.017676683272047 16.63133139221508 0 0 0
572 1 1 0.5897 1.6185543554506534 6.2802778588247685 17.467888967719666 0 0 0
679 1 2 -1.1794 5.434782476987181 11.216907317217414 16.865021271368498 0 0 0
445 1 2 -1.1794 0.8778363939861015 11.21472080676918 16.62410221475472 0 0 0
447 1 1 0.5897 0.20340541917248345 10.719267721821732 17.088746453289005 1 0 0
277 1 2 -1.1794 5.266193126981085 6.048759893879015 17.78091485610581 0 0 0
279 1 1 0.5897 4.432490780098717 6.293652747363696 17.37941463969554 0 0 0
144 1 1 0.5897 5.176196499627418 6.012687996394248 19.542993620591844 0 0 0
200 1 1 0.5897 5.296291118351756 13.44968693276612 5.055798342748997 0 0 0
173 1 1 0.5897 4.64796753801383 13.747822300920877 2.6464770113817346 0 0 0
172 1 2 -1.1794 5.3824390545167065 13.338260495905695 3.1036795436524582 0 0 0
374 1 1 0.5897 0.9383534315106078 13.145103732324356 4.0163105254808755 0 0 0
558 1 1 0.5897 3.154592598352418 14.465990283976282 0.8905207343921168 0 0 0
556 1 2 -1.1794 3.227354556290583 14.549610247239235 1.8412834741013977 0 0 0
557 1 1 0.5897 2.5061713509493173 14.022041348485686 2.1844887979450864 0 0 0
478 1 2 -1.1794 7.454169651496134 14.89997078323602 2.0282201809028737 0 0 0
174 1 1 0.5897 5.432408536987903 12.456080796028266 2.7355845182025744 0 0 0
293 1 1 0.5897 2.7994524266756504 16.347128826601384 2.291989726320962 0 0 0
479 1 1 0.5897 8.294740681751902 14.592288557133772 2.367342559656537 0 0 0
449 1 1 0.5897 7.4149789184008865 16.417375263010545 2.9126073490393525 0 0 0
480 1 1 0.5897 6.800174648872056 14.435443855996695 2.5504599655646585 0 0 0
373 1 2 -1.1794 1.0480513878245927 13.278621525633442 3.074835916906675 0 0 0
375 1 1 0.5897 0.28025886656142907 13.78695600963731 2.8134674196580525 0 0 0
308 1 1 0.5897 7.51235348634427 17.437199329730667 4.976828333538132 0 0 0
292 1 2 -1.1794 2.71641289587715 17.262571067603414 2.559027111985057 0 0 0
317 1 1 0.5897 7.763946740557818 15.014288832424391 0.15519778587236666 0 0 0
448 1 2 -1.1794 7.3486460804521005 17.33377010057195 3.1810327592436787 0 0 0
294 1 1 0.5897 2.8072904208787506 17.24384507382604 3.5117240560614444 0 0 0
238 1 2 -1.1794 2.955493817573852 17.444730273217065 5.290794764880645 0 0 0
384 1 1 0.5897 2.8936602838603784 16.828333507596106 10.320053306491255 0 0 0
239 1 1 0.5897 2.910144139443858 16.551164377446696 5.630994531867885 0 0 0
454 1 2 -1.1794 5.094330760050532 13.828961463720685 10.325157848710985 0 0 0
184 1 2 -1.1794 7.608077151981021 17.233229996699116 10.360612557793663 0 0 0
811 1 2 -1.1794 3.0081849352318537 15.228364261856989 9.31805274216929 0 0 0
456 1 1 0.5897 5.135426987959894 12.877172997180015 10.232194642027235 0 0 0
813 1 1 0.5897 2.277912324864467 14.689499207428307 9.62229554966105 0 0 0
17 1 1 0.5897 2.9619705144545327 15.006173714089192 7.460269591547021 0 0 0
199 1 2 -1.1794 5.36811857610111 13.455996105470236 6.010282722105982 0 0 0
766 1 2 -1.1794 0.8685681231097981 13.671055589445762 10.225991868992223 0 0 0
377 1 1 0.5897 6.525804881485647 14.53214788020957 9.825986058884629 0 0 0
656 1 1 0.5897 1.50285627515755 13.602001041785659 6.073585680322893 0 0 0
519 1 1 0.5897 8.473429135449578 14.49123348022387 6.277848721048677 0 0 0
812 1 1 0.5897 3.7894878213403915 14.77298370281288 9.631800706776158 0 0 0
18 1 1 0.5897 3.8029328488419596 14.371202978577218 6.373280962310722 0 0 0
376 1 2 -1.1794 7.397794137454146 14.746975758158385 9.494741789397013 0 0 0
16 1 2 -1.1794 2.986527560953403 14.85006723328556 6.516200332051878 0 0 0
517 1 2 -1.1794 7.677181646972829 14.844434118514128 6.674680873254814 0 0 0
186 1 1 0.5897 7.595049038101361 16.370312774970134 9.946508411447047 0 0 0
378 1 1 0.5897 7.3195774884787275 14.667867360214741 8.544017568636098 0 0 0
518 1 1 0.5897 7.6649854084621145 15.764330535897562 6.41032734996947 0 0 0
201 1 1 0.5897 6.144368801212187 13.98675947647689 6.189030859799175 0 0 0
14 1 1 0.5897 0.8467623281241662 11.9753402101162 9.88928478062598 0 0 0
655 1 2 -1.1794 0.7010221880830623 13.107075305751026 5.905202366660681 0 0 0
59 1 1 0.5897 8.79839603838331 13.738624243743535 10.066354709067207 0 0 0
579 1 1 0.5897 5.563504596106122 11.869518168397116 6.625949012873995 0 0 0
307 1 2 -1.1794 7.507593449991627 17.475910477190805 5.933234900200276 0 0 0
296 1 1 0.5897 7.514571879408756 14.958942943826914 14.89593900525817 0 0 0
232 1 2 -1.1794 2.6039444798330327 15.105492908071732 14.03129145170326 0 0 0
234 1 1 0.5897 2.6693939795132224 15.040836562136395 14.984064500201256 0 0 0
606 1 1 0.5897 2.7327226825655573 16.771018423007305 13.488463467996652 0 0 0
427 1 2 -1.1794 4.903170025140728 13.770586303722776 13.14963840544691 0 0 0
233 1 1 0.5897 3.4039768108504855 14.691817842022424 13.707167242421546 0 0 0
639 1 1 0.5897 1.3433267198561056 13.993622887881623 13.365265388741642 0 0 0
429 1 1 0.5897 5.692010888042837 14.142277768879003 13.544353638243049 0 0 0
428 1 1 0.5897 4.960330244123188 12.833426596598345 13.33592191212108 0 0 0
637 1 2 -1.1794 0.5523048231788257 13.596119018481657 13.001246879306374 0 0 0
638 1 1 0.5897 0.5499238908208639 12.704376084959197 13.349137126024624 0 0 0
295 1 2 -1.1794 7.4309749784773365 15.041131205292514 13.945932832575867 0 0 0
270 1 1 0.5897 7.4188647086593855 16.679462835716606 13.492402536526235 0 0 0
297 1 1 0.5897 8.18444568332905 14.565180126667002 13.596638716160527 0 0 0
268 1 2 -1.1794 7.512868019718914 17.562763306764555 13.135783890904454 0 0 0
767 1 1 0.5897 0.7501582170590158 13.630566941998577 11.174984457888415 0 0 0
269 1 1 0.5897 7.587927618685464 17.43314608324908 12.190371927385987 0 0 0
455 1 1 0.5897 5.036788842530038 13.97561126021082 11.269310475483733 0 0 0
451 1 2 -1.1794 0.9229409095994369 13.373116392848448 20.201299188302222 0 0 0
664 1 2 -1.1794 3.1032069870631807 14.696811001584104 21.024803714227858 0 0 0
824 1 1 0.5897 3.8150450913757097 14.668596468437459 17.311091685173118 0 0 0
157 1 2 -1.1794 7.374156091126281 17.49314545739102 20.39420928488515 0 0 0
51 1 1 0.5897 8.279888638475065 14.300833800917314 17.035085641723477 0 0 0
452 1 1 0.5897 0.833037127445571 12.4680786873191 20.499728561838467 0 0 0
125 1 1 0.5897 5.416646713919653 13.776476954779916 18.802477910229655 0 0 0
124 1 2 -1.1794 5.316146017508018 13.741959381871503 17.851191799195078 0 0 0
684 1 1 0.5897 4.92920290457531 14.212446616531196 20.775715822565374 0 0 0
50 1 1 0.5897 7.656037063504697 15.680160631428988 17.04747617584224 0 0 0
666 1 1 0.5897 2.9893468756602686 15.558204658489105 20.62320236361394 0 0 0
316 1 2 -1.1794 7.995896947946336 14.983623169872361 21.19590792870546 0 0 0
53 1 1 0.5897 0.6222271649170028 13.601899818742728 18.416961354930457 0 0 0
318 1 1 0.5897 7.863010949481893 15.879331833293444 20.88560384862106 0 0 0
665 1 1 0.5897 2.360165133388925 14.183791487590945 20.707090256870934 0 0 0
584 1 1 0.5897 3.09156401217598 16.926078860339288 17.19006779317845 0 0 0
683 1 1 0.5897 6.441185719299491 14.137004073513156 20.784797238887684 0 0 0
126 1 1 0.5897 6.110642811124768 14.15327162312704 17.51084955545543 0 0 0
682 1 2 -1.1794 5.6596401427448315 13.635205998849331 20.55326563640383 0 0 0
715 1 2 -1.1794 2.7003991923645807 17.162415786929483 20.12333825601307 0 0 0
610 1 2 -1.1794 7.747842433195808 17.47327541839136 17.711172614692707 0 0 0
52 1 2 -1.1794 0.7416031584262839 13.88070772885961 17.509076653286 0 0 0
49 1 2 -1.1794 7.519860997994238 14.790700061044395 16.721059444798115 0 0 0
825 1 1 0.5897 2.3032226474913524 14.712297760094351 17.244926246344022 0 0 0
362 1 1 0.5897 5.066886079636955 11.957730434660665 21.039069301862362 0 0 0
716 1 1 0.5897 2.669719515375436 17.31090166524118 19.178209928761518 0 0 0
681 1 1 0.5897 5.4565992971317945 12.080557306281348 17.277192116739258 0 0 0
823 1 2 -1.1794 3.088979878947097 15.118278273323241 16.87882841832667 0 0 0
453 1 1 0.5897 0.27312386734393357 13.858947993868535 20.709186770141883 0 0 0
717 1 1 0.5897 3.5248465661587973 17.56082703520941 20.402222184812146 0 0 0
159 1 1 0.5897 7.561350670875472 17.49955694652698 19.45551058354428 0 0 0
446 1 1 0.5897 0.6588133109889898 12.131712517004146 16.78958988120393 0 0 0
267 1 1 0.5897 6.057527812795229 21.354300396884167 2.6675821228361354 0 0 0
696 1 1 0.5897 1.5274115206402246 22.030978829864534 2.7454985358214907 0 0 0
266 1 1 0.5897 4.5620020957416445 21.554061834006202 2.7915556535060366 0 0 0
265 1 2 -1.1794 5.271330251598047 20.966419430466853 3.051859086472717 0 0 0
344 1 1 0.5897 1.5591632695487816 18.535710953996855 2.1500435540152374 0 0 0
228 1 1 0.5897 5.214503561620238 19.162548152068727 2.3318513596533195 0 0 0
345 1 1 0.5897 0.7514198240482366 19.13620219752848 1.0191746105867088 0 0 0
817 1 2 -1.1794 7.688758194015618 22.20760285482607 1.926421047994862 0 0 0
249 1 1 0.5897 5.278595034963025 21.218484483683582 4.852321692950367 0 0 0
226 1 2 -1.1794 5.185602095433253 18.3669584169979 1.8004013237296612 0 0 0
187 1 2 -1.1794 3.1428863512586647 22.589770097985493 2.159153703797309 0 0 0
343 1 2 -1.1794 0.8633849683552107 19.167731283479764 1.96928277085044 0 0 0
694 1 2 -1.1794 0.8311702826966855 21.534774358950163 3.1759159067220137 0 0 0
818 1 1 0.5897 8.427307352087217 21.84429990139957 2.415077125803955 0 0 0
819 1 1 0.5897 7.660131383576305 23.128900124189634 2.1845449781987396 0 -1 0
189 1 1 0.5897 2.9863069317297786 22.52163999935432 1.2173046357307984 0 0 0
413 1 1 0.5897 0.8838836166449 21.406276196628006 4.9435107723910265 0 0 0
227 1 1 0.5897 4.321054774475108 17.994220661656595 1.9731656304162903 0 0 0
695 1 1 0.5897 0.8785367030327907 20.663668079969703 2.782001122987143 0 0 0
450 1 1 0.5897 6.586405671764482 17.66779142037157 2.708116332311626 0 0 0
321 1 1 0.5897 8.945541967239965 18.217424945850674 2.5099739926285443 0 0 0
498 1 1 0.5897 7.459778685999666 22.41241890442105 0.17947373581827009 0 0 0
555 1 1 0.5897 5.133283090062457 20.270045692192802 9.82792732793942 0 0 0
101 1 1 0.5897 6.0399580101339065 17.979183020582784 9.357308289585013 0 0 0
87 1 1 0.5897 7.911508818065773 22.103813783049084 9.953890258145572 0 0 0
37 1 2 -1.1794 2.943421314406022 22.720090733116226 9.34509664999621 0 0 0
86 1 1 0.5897 7.269396362243195 22.67231761167133 8.706336823042207 0 0 0
342 1 1 0.5897 0.999025396626472 18.755861226233435 7.387050491085727 0 0 0
32 1 1 0.5897 8.420631076265304 22.483602683440598 6.597483363949777 0 0 0
404 1 1 0.5897 1.7257778874035898 18.538437970156277 9.724159407345539 0 0 0
39 1 1 0.5897 3.6620284100071974 22.17797407963718 9.670581198073641 0 0 0
553 1 2 -1.1794 4.868746307757597 21.09365356756029 10.23771052370274 0 0 0
701 1 1 0.5897 3.0243744968088744 22.952620560934292 7.513077167029642 0 0 0
340 1 2 -1.1794 0.7418904035633089 18.712249348210893 6.46605877295841 0 0 0
387 1 1 0.5897 5.220925068987237 19.570534362253635 6.441059608479201 0 0 0
102 1 1 0.5897 5.116069168812416 18.57615241559949 8.317140822480559 0 0 0
700 1 2 -1.1794 3.1866625136600293 22.90081924542425 6.571154143831999 0 0 0
385 1 2 -1.1794 5.115967147598194 18.632468037396727 6.599993715592155 0 0 0
702 1 1 0.5897 2.447374437179654 22.399256662750645 6.227474305864333 0 0 0
38 1 1 0.5897 2.156221497038443 22.20316978141824 9.516370390448316 0 0 0
309 1 1 0.5897 8.349054362701036 17.870889116089884 6.161622438315048 0 0 0
412 1 2 -1.1794 0.834106771670128 21.369368473593067 5.898704353598763 0 0 0
33 1 1 0.5897 6.9423818474292025 22.188840241240246 6.456928932619062 0 0 0
386 1 1 0.5897 5.982376898821005 18.262078870032035 6.431454430926077 0 0 0
85 1 2 -1.1794 7.115471076425348 22.533383142349336 9.640809457090521 0 0 0
554 1 1 0.5897 5.654000822423191 21.64013873671935 10.206860930298973 0 0 0
403 1 2 -1.1794 0.9379309063858335 18.858984325256515 9.285098140908682 0 0 0
414 1 1 0.5897 0.8822506195867224 20.43603784315611 6.105642863482041 0 0 0
31 1 2 -1.1794 7.55748248568721 22.794545994815582 6.87044869357413 0 0 0
100 1 2 -1.1794 5.253070287206041 18.515890238957084 9.262570128512504 0 0 0
248 1 1 0.5897 4.546290560435303 21.7839361203873 6.050618659313517 0 0 0
341 1 1 0.5897 1.4884568683808657 18.30414455374002 6.027523346540427 0 0 0
94 1 2 -1.1794 0.6807981615825175 21.355891045894936 10.161165123808935 0 0 0
405 1 1 0.5897 0.9258064842103699 19.798204809274754 9.469370309331067 0 0 0
383 1 1 0.5897 3.848353311245975 17.998982111975646 10.219903971641774 0 0 0
240 1 1 0.5897 3.759101318576542 17.80413712037646 5.666663147035766 0 0 0
185 1 1 0.5897 8.353591653858379 17.68043355796655 9.960048837655673 0 0 0
247 1 2 -1.1794 5.306371129012846 21.254924414899566 5.808431430070221 0 0 0
382 1 2 -1.1794 3.0116214057001693 17.735214524039563 10.60269611041349 0 0 0
504 1 1 0.5897 0.590778290795517 19.074772489766808 15.062869816544985 0 0 0
88 1 2 -1.1794 5.0070517552861435 21.425774590773695 13.066986481568815 0 0 0
381 1 1 0.5897 1.3482018463386392 22.008571641180655 13.461596856666286 0 0 0
90 1 1 0.5897 4.98429796085994 20.596379875920643 13.54429423356906 0 0 0
763 1 2 -1.1794 5.286436604425498 18.8023475955477 14.153280643433796 0 0 0
738 1 1 0.5897 3.4741342707439142 22.37556182391368 13.819979877854173 0 0 0
89 1 1 0.5897 4.793151385770619 21.189229011799057 12.164474789997312 0 0 0
764 1 1 0.5897 4.4738747562317815 18.31334539520703 14.02345871822661 0 0 0
474 1 1 0.5897 5.554336464223121 18.865967448565197 15.910619352773146 0 0 0
765 1 1 0.5897 5.955317297143301 18.27729673977391 13.713780232684979 0 0 0
350 1 1 0.5897 2.9595829147279935 22.88604634991738 16.135374215429238 0 0 0
736 1 2 -1.1794 2.7612458386202277 22.88312985823856 14.207789337851644 0 0 0