LAMMPS (30 Jul 2021)
Processor partition = 1
  using 1 OpenMP thread(s) per MPI task
using multi-threaded neighbor list subroutines
variable        pid world 0 1
variable        phase world IceII IceIII

shell cd ${phase}
shell cd IceIII
include Restart.lmp
echo both
log log.lammps
#include		in.partitions
include		in.temp
variable        temperature equal 137.29
variable	tempDamp equal 100.0
include		in.pressure
variable        pressure equal 10418.8
variable        pressureDamp equal 1000.0 # This is 1 ps
include		in.seed
variable        seed equal 745823

units		real
atom_style	full

read_restart	restart.lmp.${pid}
read_restart	restart.lmp.1
Reading restart file ...
  restart file = 30 Jul 2021, LAMMPS = 30 Jul 2021
  restoring atom style full from restart
  orthogonal box = (0.14642963 0.12865108 0.24129063) to (19.853571 19.871350 20.458707)
  4 by 4 by 4 MPI processor grid
  restoring pair style lj/cut/tip4p/long/omp from restart
  restoring bond style harmonic/omp from restart
  restoring angle style harmonic/omp from restart
  972 atoms
  648 bonds
  324 angles
Finding 1-2 1-3 1-4 neighbors ...
  special bond factors lj:    0        0        0       
  special bond factors coul:  0        0        0       
     2 = max # of 1-2 neighbors
     1 = max # of 1-3 neighbors
     1 = max # of 1-4 neighbors
     2 = max # of special neighbors
  special bonds CPU = 0.007 seconds
  read_restart CPU = 0.016 seconds
include 	in.setup
variable	out_freq equal 1000
variable	out_freq2 equal 10000
variable	out_freq3 equal 1000

timestep	2.0

neigh_modify    delay 7 every 1

include		in.tip4p
# This is TIP4P/Ice

# create groups ###
group ox type 2
324 atoms in group ox
group hy type 1
648 atoms in group hy

# set charges - beside manually ###
set group ox charge -1.1794
Setting atom values ...
  324 settings made for charge
set group hy charge 0.5897
Setting atom values ...
  648 settings made for charge

# ### TIP3P Potential Parameters ###
pair_style lj/cut/tip4p/long/omp 2 1 1 1 0.1577 8.5
pair_coeff 1 1*2 0.000 0.000
pair_coeff 2 2 0.21084 3.1668
bond_style  harmonic
bond_coeff  1 450 0.9572
angle_style harmonic
angle_coeff 1 55 104.52
kspace_style pppm/tip4p/omp 1.0e-5
pair_modify tail yes

thermo          ${out_freq}
thermo          1000
thermo_style    custom step temp pe etotal epair emol press lx ly lz vol pxx pyy pzz pxy pxz pyz enthalpy

restart 	${out_freq3} restart.lmp.${pid} restart2.lmp.${pid}
restart 	1000 restart.lmp.${pid} restart2.lmp.${pid}
restart 	1000 restart.lmp.1 restart2.lmp.${pid}
restart 	1000 restart.lmp.1 restart2.lmp.1


include         in.dump
dump            myDump all atom ${out_freq2} dump.water.${pid}
dump            myDump all atom 10000 dump.water.${pid}
dump            myDump all atom 10000 dump.water.1
dump            myDump2 all dcd ${out_freq2} dump.dcd
dump            myDump2 all dcd 10000 dump.dcd
dump_modify     myDump append yes
dump_modify     myDump2 append yes


variable natoms 	equal  "count(all)"                        # NUMBER ATOMS
variable H      	equal  "enthalpy/v_natoms"                 # ENTHALPY-per-atom
variable Vol      	equal  "vol/v_natoms"                 # volume-per-atom
fix AVG all 		ave/time ${out_freq} 1 ${out_freq} v_Vol v_H file vol_enthalpy.dat
fix AVG all 		ave/time 1000 1 ${out_freq} v_Vol v_H file vol_enthalpy.dat
fix AVG all 		ave/time 1000 1 1000 v_Vol v_H file vol_enthalpy.dat


timer           timeout 02:55:00 every 1000
New timer settings: style=normal  mode=nosync  timeout=02:55:00

fix 		1 all shake 1e-6 200 0 b 1 a 1
Finding SHAKE clusters ...
       0 = # of size 2 clusters
       0 = # of size 3 clusters
       0 = # of size 4 clusters
     324 = # of frozen angles
  find clusters CPU = 0.002 seconds
fix             2 all nph aniso ${pressure} ${pressure} ${pressureDamp}
fix             2 all nph aniso 10418.8 ${pressure} ${pressureDamp}
fix             2 all nph aniso 10418.8 10418.8 ${pressureDamp}
fix             2 all nph aniso 10418.8 10418.8 1000
fix             3 all temp/csvr ${temperature} ${temperature} ${tempDamp} ${seed}
fix             3 all temp/csvr 137.29 ${temperature} ${tempDamp} ${seed}
fix             3 all temp/csvr 137.29 137.29 ${tempDamp} ${seed}
fix             3 all temp/csvr 137.29 137.29 100 ${seed}
fix             3 all temp/csvr 137.29 137.29 100 745823


run             250000
PPPM initialization ...
  extracting TIP4P info from pair style
  using 12-bit tables for long-range coulomb (../kspace.cpp:340)
  G vector (1/distance) = 0.37279224
  grid = 24 24 24
  stencil order = 5
  estimated absolute RMS force accuracy = 0.0034320487
  estimated relative force accuracy = 1.0335513e-05
  using double precision FFTW3
  3d grid and FFT values/proc = 2197 216
Last active /omp style is kspace_style pppm/tip4p/omp
Neighbor list info ...
  update every 1 steps, delay 7 steps, check yes
  max neighbors/atom: 2000, page size: 100000
  master list distance cutoff = 10.8154
  ghost atom cutoff = 10.8154
  binsize = 5.4077, bins = 4 4 4
  1 neighbor lists, perpetual/occasional/extra = 1 0 0
  (1) pair lj/cut/tip4p/long/omp, perpetual
      attributes: half, newton on, omp
      pair build: half/bin/newton/omp
      stencil: half/bin/3d
      bin: standard
Setting up Verlet run ...
  Unit style    : real
  Current step  : 33750000
  Time step     : 2
  Walltime left : 2:54:59.92
Per MPI rank memory allocation (min/avg/max) = 9.227 | 9.229 | 9.230 Mbytes
Step Temp PotEng TotEng E_pair E_mol Press Lx Ly Lz Volume Pxx Pyy Pzz Pxy Pxz Pyz Enthalpy 
33750000    143.75128   -4946.1476   -4668.9111   -4946.1476            0    9733.0197    19.707142    19.742699    20.217417    7866.0341    9589.8684    9329.2028    10279.988    142.40277    700.71028     359.2294   -3552.3582 
33751000    136.10472   -4961.9675   -4699.4781   -4961.9675            0    9967.5041    19.719703    19.664458    20.313414    7877.0806    9051.1242    11118.303    9733.0849   -451.81426    420.76638    935.88565   -3554.4198 
33752000    131.30367   -4938.0912   -4684.8611   -4938.0912            0    9669.1027    19.517509    19.675684    20.416334    7840.2876    9002.7997    9477.5791    10526.929   -707.27622   -39.611458    500.48686   -3579.2712 
33753000    138.59471   -4953.9993   -4686.7078   -4953.9993            0    11745.681    19.354894    19.717042    20.474609     7813.546    13470.692    10807.576    10958.774    54.547596   -264.96738    388.02272   -3348.2575 
33754000     128.4225   -4947.9151   -4700.2415   -4947.9151            0    11152.742    19.485547    19.810061    20.223325    7806.4031    12505.471    10217.749    10735.006   -297.00318   -1105.9839    904.70238   -3430.5199 
33755000    131.98126   -4942.8757   -4688.3387   -4942.8757            0    10671.343    19.446874    19.886159    20.322946    7859.3633    10944.767    10427.099    10642.164    45.822517   -816.36071    623.46366   -3465.1813 
33756000    142.55492   -4952.8247   -4677.8955   -4952.8247            0    10547.076    19.511491    19.639748    20.463287    7841.5471    10194.953     11816.95    9629.3259    254.82321   -387.55705   -91.211834   -3471.7222 
33757000     133.2702   -4933.0965   -4676.0737   -4933.0965            0    9884.1295    19.357251    19.617703    20.557414    7806.5709    9901.1887    9865.5642    9885.6356   -630.50519   -293.47419   -178.41217   -3550.7574 
33758000    139.35007   -4955.6571   -4686.9088   -4955.6571            0    9579.7357    19.585828    19.660651    20.454487     7876.412    9387.9626    9950.2153    9401.0292   -591.48345   -1141.5981    304.05856   -3586.4904 
33759000    141.46939   -4952.9509   -4680.1153   -4952.9509            0    8797.3789    19.588487      19.6885    20.494158    7903.9399    7651.2805    10218.007     8522.849    362.90108   -60.786784    935.63428   -3666.0339 
33760000    139.71275   -4954.8441   -4685.3963   -4954.8441            0    9342.9591     19.60228    19.751557    20.359204     7882.586    8907.7587    10331.807    8789.3112   -523.83386     799.9601    397.85884   -3611.3351 
33761000    134.89676   -4953.1202   -4692.9604   -4953.1202            0    9643.0959    19.575909    19.705644    20.360005    7853.9921    9042.3239    10297.155    9589.8091   -490.46113    840.26899     626.9612   -3588.4169 
33762000    145.96929   -4948.0311    -4666.517   -4948.0311            0    9469.8874    19.805845     19.68723    20.191788    7873.2267    8031.5014    9773.6926    10604.468   -284.97993   -462.00778    1730.9131   -3579.1567 
33763000    146.58687   -4936.1104   -4653.4053   -4936.1104            0    10791.173    19.470096     19.52814     20.48383    7788.2545    11263.744    10943.955    10165.821   -206.46389    2152.4592    358.97534   -3427.7039 
33764000    140.33509   -4953.0043   -4682.3562   -4953.0043            0    11374.996    19.341597    19.672361    20.422435    7770.6318    10913.631    12037.366    11173.991   -612.15597    1911.0946   -654.41047   -3393.2656 
33765000    139.63662   -4954.5872   -4685.2862   -4954.5872            0    12405.506    19.521631    19.617554    20.350504    7793.5645    10781.556    13759.749    12675.215   -193.21259    331.15583    731.75628   -3275.2622 
33766000    138.21047   -4955.4471   -4688.8965   -4955.4471            0    10200.215    19.504531    19.744826     20.43165    7868.5056    10325.183    10122.167    10153.296   -1452.8056   -868.83829    117.07834   -3518.3802 
33767000     142.0661   -4958.3548   -4684.3684   -4958.3548            0    11943.967    19.506824    19.597612    20.439986    7813.9447    11385.736    12806.787    11639.379   -86.831673    642.19463   -565.24669   -3323.2534 
33768000    133.11588    -4955.931   -4699.2059    -4955.931            0    10217.111    19.457369    19.908652     20.23407    7838.0717    10574.521    8471.0533     11605.76    112.39427    385.66762    824.18587   -3531.2854 
33769000    131.05266    -4940.498   -4687.7519    -4940.498            0    10006.889    19.417984    19.722675    20.432194    7825.0112    10524.813    10119.091     9376.764    473.50085    719.80652    480.25064   -3545.7681 
33770000    146.15403   -4965.8476   -4683.9772   -4965.8476            0    10438.375    19.573329    19.694264     20.24912    7805.6772    9400.1417    11406.278    10508.704   -516.82538    778.93534    314.74935   -3495.6957 
33771000    134.34693   -4962.3302   -4703.2308   -4962.3302            0    9181.2955    19.617292    19.708403    20.354611    7869.6114    9262.6263    9534.2773    8746.9828   -196.22266    235.37128    128.23312   -3649.4916 
33772000     135.7986   -4955.3172   -4693.4182   -4955.3172            0    9842.1072    19.671388    19.725715    20.322259    7885.6904    9934.2685    10311.934    9280.1192   -301.61525   -83.913338   -819.49015   -3561.5296 
33773000    131.34116   -4952.6683   -4699.3659   -4952.6683            0    10043.463    19.575042    19.646839    20.356719    7828.9441     9370.015    10398.165     10362.21   -574.78577    1648.9941   -979.16833   -3552.6322 
33774000    147.63729   -4950.0632   -4665.3323   -4950.0632            0    9756.7848    19.547443    19.719051    20.386519    7858.1273    9746.7607     9584.208    9939.3857   -499.78526   -144.10585    10.761498   -3547.1781 
33775000    144.15256   -4949.8141   -4671.8037   -4949.8141            0      11092.6    19.611649    19.637912    20.361187    7841.7415     10246.02    12018.282    11013.499   -200.31069     -70.3237    472.42257   -3403.2123 
33776000    141.55442   -4947.1113   -4674.1117   -4947.1113            0    9812.0545    19.564028    19.596387    20.502613    7860.3795    10613.595    8297.2823    10525.286    -382.7126    549.66657    372.41954   -3549.3013 
33777000    140.68098   -4935.9916   -4664.6765   -4935.9916            0    10753.142    19.463913    19.648751    20.383999    7795.6889    11148.449    10753.283    10357.695   -257.28583    620.14126    739.04175   -3442.1289 
33778000    134.93243   -4958.4983   -4698.2697   -4958.4983            0    9566.5997    19.477475    19.781243    20.422107    7868.4065    10718.009    8666.5914     9315.199     210.1346    1669.6473    993.66428   -3600.4772 
33779000    137.47542    -4944.024   -4678.8911    -4944.024            0    11688.066    19.448545    19.655517    20.431418     7810.343    12394.455    11548.849    11120.895   -111.87223   -928.47629    130.20944   -3347.5521 
33780000     140.2132   -4946.5512   -4676.1382   -4946.5512            0    9499.7165     19.44136    19.720975    20.416755    7827.8366    8712.0898    10479.057    9308.0026    551.33749   -328.65946   -767.68423   -3591.6414 
33781000    141.53716    -4938.301   -4665.3347    -4938.301            0    12072.964    19.658434    19.718733    20.149021    7810.5549    12003.179    12064.497    12151.216    195.80389    338.71211   -258.05206   -3290.1162 
33782000    138.32199   -4945.0317   -4678.2661   -4945.0317            0    10346.024    19.597312    19.672414    20.336049    7840.0845    12186.254    8667.5346    10184.285   -424.72055   -55.440249   -691.92181   -3495.3059 
33783000    140.87631   -4950.4605   -4678.7687   -4950.4605            0    11186.436    19.658273    19.674804    20.201664    7813.4515    9388.9442    12248.651    11921.712    107.90944    653.38438    -119.4742   -3404.0612 
33784000    134.71782   -4949.8643   -4690.0497   -4949.8643            0    10342.008    19.437715    19.578169    20.504826    7803.2115    10769.497    10772.259    9484.2669    494.83513    602.26838   -344.60048   -3513.1102 
33785000    129.70481    -4968.317   -4718.1704    -4968.317            0    9278.1697    19.505714    19.742156    20.483342    7887.8246    9397.1953    10188.627    8248.6868   -116.84922   -303.62295   -720.43335   -3650.8484 
33786000    132.77213   -4962.9274   -4706.8652   -4962.9274            0    10028.947    19.496567    19.744845    20.472131    7880.8837    11191.284    8822.2818    10073.275   -290.71649    702.43974    777.11617   -3554.1922 
33787000    143.82045   -4966.3091   -4688.9392   -4966.3091            0    9331.7808    19.626787    19.672325    20.328448    7848.9063     10002.12    9402.9065    8590.3162    553.52534   -380.55771    220.40094   -3620.7466 
33788000    140.04353   -4947.4191   -4677.3334   -4947.4191            0    10961.625    19.556765     19.82073    20.230152    7841.8011    11840.756    9506.8365    11537.284   -530.62696    -248.2749   -1111.6703   -3423.7112 
33789000    139.01213   -4964.9348   -4696.8383   -4964.9348            0    10047.041    19.506632    19.702642    20.366384    7827.4572    9159.6871    10111.057     10870.38      293.926    468.74216    911.02492   -3549.9139 
33790000    139.17905    -4956.283   -4687.8645    -4956.283            0    10474.648    19.547197     19.77975    20.253605    7830.8267     10142.46    11061.043    10220.442   -331.82347    918.06273   -552.95372   -3491.6117 
33791000    135.99295    -4945.266   -4682.9922    -4945.266            0    12129.751    19.535987    19.802507    20.209213    7818.1667    11996.177    11922.972    12470.104    154.55183    786.82842   -279.94152   -3299.9587 
33792000     134.7443   -4957.4052   -4697.5395   -4957.4052            0    9653.9817    19.629651    19.753864    20.292957    7868.8262    9079.5382    10038.769    9843.6379   -177.96275    313.09303   -706.30676   -3589.6606 
33793000    130.75521   -4923.5122   -4671.3397   -4923.5122            0    11223.589    19.559512       19.521    20.494049     7825.063    10802.936    13073.085     9794.746    108.80301    361.89686    42.525429   -3390.4979 
33794000    132.46622   -4952.4586   -4696.9863   -4952.4586            0    12679.116    19.552591    19.587548    20.356688    7796.3532    12899.559    13454.816    11682.973   -602.56184   -200.95412   -778.44851   -3255.3478 
33795000    131.29426   -4955.6182   -4702.4061   -4955.6182            0    10371.106    19.602483    19.791187    20.164015    7822.7587    8400.3921    11566.619    11146.307   -122.51803   -212.90666    260.39437   -3519.1987 
33796000    132.94731   -4949.4487   -4693.0486   -4949.4487            0    10704.438    19.432883    19.809141    20.287467    7809.6346    10591.697     10440.06    11081.555   -237.88078   -36.926734    240.42269   -3473.8612 
33797000    137.13124   -4941.2007   -4676.7316   -4941.2007            0    10933.516    19.284211    19.730391    20.407733    7764.8367    11322.568    10697.571     10780.41    567.37304    1207.7165   -173.02545   -3438.5964 
33798000    133.81015    -4954.623   -4696.5589    -4954.623            0    9849.8141    19.440775     19.65633    20.372767    7785.1328    10624.334    9307.1668    9617.9415   -316.04188    424.90355    52.797612    -3578.229 
33799000    137.16988   -4949.3111   -4684.7674   -4949.3111            0    9687.6134    19.543697    19.764516    20.357629    7863.5758    8310.0422    10483.436    10269.362   -864.69269   -511.31894   -768.35359   -3573.7707 
33800000    130.40253   -4949.0305   -4697.5382   -4949.0305            0    10513.413    19.354287    19.814871    20.396281    7822.0289    9768.7727    10929.851    10841.615   -89.959625   -465.03918    18.660713   -3498.2073 
33801000    146.32893   -4936.9684   -4654.7607   -4936.9684            0    9041.6894    19.572115    19.585587    20.523698    7867.3768    7823.9654    10296.489    9004.6142   -105.07338   -1530.3535    269.79438   -3617.3388 
33802000     134.4118   -4946.5838   -4687.3594   -4946.5838            0    11039.986    19.576377    19.571946    20.275113    7768.3644    11302.981     9882.376      11934.6    64.117861    139.82119    496.31102   -3436.5993 
33803000    130.82158   -4958.3241   -4706.0237   -4958.3241            0    10667.559    19.602995    19.658668    20.377326     7852.785    11563.414    9417.8016    11021.462   -10.428763    511.66572     562.5721   -3484.3234 
33804000    140.15583   -4935.5847   -4665.2824   -4935.5847            0    10674.996    19.527308    19.528875     20.44971    7798.4225    10763.887    11719.523    9541.5777    35.632399    584.11308   -878.53284   -3451.1938 
33805000    136.15606    -4948.722   -4686.1336    -4948.722            0    11190.256    19.729001    19.630457    20.218758    7830.5086    9990.8455    11784.655    11795.268    18.851274   -1266.6454    952.22411    -3408.207 
33806000     145.9159   -4952.6026   -4671.1915   -4952.6026            0    11652.601    19.797388    19.553318     20.34678    7876.3326    9726.9188    13470.427    11760.457     198.3504    1109.6025   -298.65012   -3332.6778 
33807000    128.03983   -4953.5387   -4706.6031   -4953.5387            0    10645.909    19.614786    19.767973    20.231187    7844.5326    11195.592    10191.282    10550.854    789.48844    833.76249    932.26197   -3488.6636 
33808000    135.54676   -4947.5831   -4686.1698   -4947.5831            0    9732.4612    19.631303    19.650378     20.32811    7841.8228    9934.3688    8935.3086    10327.706     33.52567    983.18046    131.43038   -3573.1174 
33809000    132.95984   -4940.8505   -4684.4263   -4940.8505            0    11645.382    19.695948    19.606717     20.19899    7800.3023    10149.664     13002.46    11784.023     234.1552   -356.02629   -650.11805   -3359.6545 
33810000    140.12869    -4957.354    -4687.104    -4957.354            0    9153.8144    19.625226    19.637171     20.33816         7838     8944.252    9081.9772    9435.2141   -42.522279   -257.29712    195.38335   -3640.7389 
33811000    136.96562   -4944.8871   -4680.7374   -4944.8871            0    10673.046    19.466779    19.733408    20.399531    7836.3964    11796.103    9882.2856    10340.748   -568.94192    109.66527    34.661407   -3460.9598 
33812000     147.3958   -4944.7285   -4660.4634   -4944.7285            0    10095.539    19.501151    19.653682    20.401239    7819.1708    9108.1436    11270.462    9908.0107   -419.03404   -118.08846   -3.7565194   -3509.2228 
33813000    140.49619   -4936.0705   -4665.1118   -4936.0705            0    11457.573    19.373059    19.785184    20.385445    7813.7315    14100.899    9917.7899    10354.029    23.321919     1329.118   -269.63149   -3359.4611 
33814000    137.83768   -4949.0735   -4683.2419   -4949.0735            0    10654.677     19.49194    19.687432    20.369952    7816.8921    10489.468    10451.861    11022.701    155.88315   -98.423629   -31.923268   -3468.5944 
33815000    133.39061   -4946.4964   -4689.2414   -4946.4964            0    10712.775    19.512368    19.779389    20.268579    7822.5105    9945.0221    11100.365    11092.937    537.62539   -1111.2573    850.68769   -3467.0928 
33816000    139.65439   -4937.3539   -4668.0186   -4937.3539            0    9233.7631    19.636198    19.567184    20.460703    7861.5158    7273.2198    11998.205    8429.8651   -750.61123    402.88448   -228.76127   -3609.3479 
33817000    140.50765    -4963.761   -4692.7802    -4963.761            0    11602.756    19.657009    19.604282    20.293122    7820.1892    11013.895    13135.644    10658.728    105.63401   -1172.4866   -532.85088   -3369.4925 
33818000    136.73194   -4951.7735   -4688.0745   -4951.7735            0     10775.54    19.728975    19.649158    20.217783    7837.5805    11642.841    10039.802    10643.979    150.55059    118.66278   -941.97308   -3456.3971 
33819000    132.01882   -4965.5973   -4710.9879   -4965.5973            0    9335.5646    19.736799    19.765304    20.163254    7865.7627    7609.7087    10275.972    10121.013    -414.3129    1393.2582    81.571433   -3640.0672 
33820000    136.33237   -4949.5111   -4686.5827   -4949.5111            0    10284.466     19.64249     19.69157    20.374664    7880.7465    10750.346    9999.0105    10104.042    118.89642    840.11253     190.9237   -3504.5622 
33821000    140.85258   -4949.0395   -4677.3934   -4949.0395            0    10702.487    19.550956     19.68274    20.290221    7808.0097    11135.533    9597.8969    11374.032   -115.85109    -1140.333    1151.8775   -3458.6818 
33822000    151.62205   -4948.8714   -4656.4555   -4948.8714            0     9166.394    19.595408    19.774828    20.225257    7837.2024    9407.7735      9175.93    8915.4784    66.264643      358.949    330.99036   -3608.7591 
33823000    134.99774   -4957.1774   -4696.8229   -4957.1774            0    10384.225    19.468567    19.646318    20.335461     7778.022    9834.0682    10768.096    10550.511   -208.26786   -283.28602     871.2769   -3518.8938 
33824000    135.76854   -4961.9615   -4700.1205   -4961.9615            0    9665.4811     19.60725    19.625721    20.317921    7818.4665    8598.1212    8891.1475    11507.175    111.07745    145.05435    97.266386   -3598.0206 
33825000    132.81294   -4944.2217   -4688.0808   -4944.2217            0    11229.092    19.318136    19.739014     20.45046    7798.1892    11604.935    10666.759    11415.582    194.54762   -672.49114    109.34803    -3411.012 
33826000    137.16874    -4941.034   -4676.4926    -4941.034            0    12094.677    19.393856    19.652365    20.310992    7741.2326    12688.966    10707.989    12887.077   -609.53962    6.9386386    405.44644   -3311.0284 
33827000     133.7152   -4959.9447   -4702.0637   -4959.9447            0     11403.95    19.436207    19.604764    20.443375    7789.7895    12576.399    10805.083    10830.369   -840.14974   -491.91346    284.01702   -3406.5055 
33828000    138.35926   -4938.3671   -4671.5296   -4938.3671            0     10183.79    19.550701    19.818879    20.313207    7870.8186    10319.092    10114.038    10118.242   -112.61419   -572.37588   -302.53805   -3502.5546 
33829000    134.37464   -4960.0734   -4700.9206   -4960.0734            0    9061.0576    19.572986    19.740629    20.295652    7841.8959    9062.8104    8571.0769    9549.2856   -165.12008    616.45585    -276.2044   -3664.6436 
33830000    140.69181   -4943.8996   -4672.5636   -4943.8996            0    10475.686    19.642006    19.653279    20.266677    7823.5417    9069.4407    11127.157     11230.46   -71.107896    401.88318   -491.15128   -3477.3053 
33831000    141.31858    -4939.389   -4666.8443    -4939.389            0    13327.231    19.521623    19.687875    20.176043    7754.4458     12859.45    13060.539    14061.705   -305.77217   -143.81894   -445.86938   -3159.6592 
33832000    139.22971    -4970.502   -4701.9858    -4970.502            0    9731.5695    19.525367    19.641858    20.416838    7830.1531    9944.7948    10114.673    9135.2409    75.807132   -358.81174    624.62425   -3590.6916 
33833000    140.72659   -4951.2477   -4679.8446   -4951.2477            0    10612.293    19.520051    19.763893    20.313481    7836.7825     11470.47    9019.0963    11347.312    355.11917    1271.9731    343.26907   -3466.9505 
33834000    146.60553   -4941.7829   -4659.0418   -4941.7829            0    11518.811    19.739641    19.563242    20.233392    7813.5567    10706.271    12378.383    11471.779   -500.30136    510.47805   -930.49448   -3346.4421 
33835000    128.62384   -4941.5304   -4693.4685   -4941.5304            0    11539.805    19.463977    19.592931    20.443411    7796.2249    12125.193    10992.195    11502.026    349.36355    -819.3316   -195.65656   -3381.3933 
33836000    137.67987    -4958.095   -4692.5678    -4958.095            0    9864.5412    19.531812    19.610345    20.490352    7848.3285    8358.8889    11820.437    9414.2979   -377.95281    798.94646    269.46851   -3563.4742 
33837000    133.13211   -4952.3953   -4695.6388   -4952.3953            0     9754.241    19.504192    19.693693    20.442104    7852.0076     10360.87    9662.1287     9239.724   -112.44404   -672.39698   -441.10233   -3578.6468 
33838000    141.85583   -4951.6584   -4678.0775   -4951.6584            0    11159.221    19.403298    19.590757    20.476418    7783.6047    10350.945    12985.641    10141.076   -89.438617    799.18564   -544.13302   -3411.3286 
33839000    127.60529    -4956.781   -4710.6835    -4956.781            0    10532.591    19.444309    19.662388    20.429721    7810.7227     10773.14    10339.155    10485.479   -664.47822    1298.8838    786.58124   -3510.9015 
33840000    132.50236   -4944.9186   -4689.3766   -4944.9186            0    9978.8934    19.437544    19.759696    20.378297    7826.8955    9782.4251    9602.2405    10552.015    6.7152103     353.7391   -702.47923   -3550.3134 
33841000    135.60941   -4951.7442     -4690.21   -4951.7442            0    10412.008    19.496559    19.514911     20.49564    7798.0504    10318.076    11064.927    9853.0205    -122.4092    299.58608    580.76055   -3506.0881 
33842000    135.08398   -4954.7377   -4694.2168   -4954.7377            0    10121.776    19.550793    19.612729    20.450575    7841.6585    9103.4153    11059.145    10202.768   -142.82316    176.22184   -1315.4521   -3536.6648 
33843000    140.24974   -4954.0163   -4683.5329   -4954.0163            0    9549.2859    19.685275    19.678999    20.365041    7889.1421    8851.1542    10812.295    8984.4089    100.29998    430.66412   -490.62893   -3584.8393 
33844000    135.21651   -4944.7094    -4683.933   -4944.7094            0    10064.173    19.450366    19.635596    20.499724    7829.2448    10044.669    10293.968    9853.8818    735.96525   -647.34136    1132.0473   -3534.7905 
33845000     133.2598   -4965.7599   -4708.7572   -4965.7599            0    9733.9751    19.561541    19.680871    20.401502    7854.3369    9269.9154    10721.601    9210.4086   -380.43269   -358.79843    45.086364   -3593.7552 
33846000    138.30674   -4943.9427   -4677.2066   -4943.9427            0     12018.27    19.585376    19.724336    20.265009     7828.546    12443.426    12798.219    10813.164    -866.0309    64.970528   -834.90836   -3305.0649 
33847000    137.55644   -4944.0714   -4678.7822   -4944.0714            0    11528.829    19.545008     19.50525    20.467468    7802.8186    12294.293    11054.003    11238.191   -26.375476    1025.0268   -720.61908   -3366.8463 
33848000    140.86361   -4955.1264   -4683.4591   -4955.1264            0    11100.061    19.774543    19.539095    20.224794    7814.3885    11116.974    10322.942    11860.269    710.76345   -730.91908   -55.115409   -3418.4424 
33849000    136.10047   -4942.3247   -4679.8435   -4942.3247            0    11548.169    19.694293    19.365711    20.373496    7770.3288    11995.854    12343.189    10305.464    110.85571    673.83181   -1317.5161   -3371.1787 
33850000    132.38909   -4929.0905    -4673.767   -4929.0905            0    12408.581    19.657801    19.248413    20.485615    7751.3773    12349.965    12427.116    12448.664    165.19118      904.328   -67.333154   -3271.0279 
33851000    128.96809   -4949.0035   -4700.2777   -4949.0035            0    12329.666    19.705281    19.360335    20.362072    7768.1477    11750.416    13162.684    12075.898     343.7507    243.71467   -159.68991   -3303.4441 
33852000    130.43043   -4941.5283   -4689.9823   -4941.5283            0     9967.344     19.82756    19.560847    20.291927    7870.0995     9509.388    9896.3162    10496.328   -260.17882    14.357566   -347.31025   -3545.9571 
33853000    140.63802   -4948.1973    -4676.965   -4948.1973            0    10831.826    19.883446     19.53451    20.226439    7856.2192    9290.1651    12106.601    11098.713    280.00066   -15.791124   -1401.7324   -3435.9096 
33854000    139.56346   -4946.1036   -4676.9437   -4946.1036            0    10186.222     19.79977    19.617373    20.193102    7843.3938    10651.457    9402.2434    10504.967    8.4583422    1186.3346    400.43011   -3511.7636 
33855000    142.53285   -4937.0847   -4662.1981   -4937.0847            0    10728.599    19.736248    19.470333    20.364384    7825.4487    10372.094    10021.067    11792.637   -660.02762    462.53284   -557.98172   -3437.7845 
33856000    135.44565   -4950.3675   -4689.1491   -4950.3675            0    10763.681    19.772805    19.467422    20.247272    7793.6921    11407.515      10076.8    10806.728   -312.18478    1169.0272   -890.54229   -3465.7168 
33857000    140.15675   -4957.1776   -4686.8735   -4957.1776            0    8881.5898    19.751828    19.537177    20.407241    7875.0511    9063.8402    8813.0216    8767.9077   -452.21738    265.54286    338.15708    -3666.827 
33858000    137.64406   -4940.0352   -4674.5771   -4940.0352            0     10653.42    19.734898    19.632528    20.210188    7830.3555    9800.0406    10520.831    11639.389   -122.21491    -143.9267    473.06567    -3457.981 
33859000    138.61842   -4950.7288   -4683.3915   -4950.7288            0    10546.172    19.649594    19.539513    20.346748    7812.0016    11555.848    10268.849    9813.8175   -106.68862    569.26607    807.13271   -3481.8659 
33860000    138.50622    -4940.897   -4673.7761    -4940.897            0    9727.4687    19.671066      19.6592    20.238207    7826.4672    10852.122    8634.6021    9695.6817    248.53697   -172.65807    788.81821   -3563.4731 
33861000    140.39701    -4936.758   -4665.9905    -4936.758            0    10527.089    19.599734    19.544642    20.399741    7814.5244    11530.257    8682.3336    11368.677    423.03298    353.15769   -637.42568   -3466.2516 
33862000    139.91222   -4950.4371   -4680.6047   -4950.4371            0    11206.714    19.646716    19.695628     20.29031    7851.4249    10985.696    11384.364     11250.08   -312.89628   -160.75796   -757.09937   -3397.3802 
33863000      133.499   -4951.7824   -4694.3183   -4951.7824            0    10809.772    19.697537    19.694886     20.13184    7809.9607     12350.58      8398.28    11680.456    303.72334     302.4827   -365.86014   -3463.0825 
33864000    136.12152   -4939.6588    -4677.137   -4939.6588            0    9854.5428    19.764742    19.408654    20.434907    7838.9743    8310.2522    11704.119    9549.2575    413.71344   -345.84699    660.43748   -3550.5322 
33865000      137.183   -4949.3662   -4684.7973   -4949.3662            0    10650.294    19.769207    19.710017     20.14942    7851.2499    10908.931    9996.5614    11045.389   -390.97005   -630.25611   -475.13583   -3465.3127 
33866000    133.40087   -4955.3775   -4698.1027   -4955.3775            0     10520.11     19.57554    19.583596     20.36156    7805.7971    9054.6349    12081.441    10424.254    580.60385    495.67564    163.59943   -3500.4981 
33867000    134.92805    -4958.748   -4698.5279    -4958.748            0    10001.914    19.616938    19.617321    20.337148    7826.3807    11024.382    9722.4633    9258.8963     680.1785   -295.55958    934.83034   -3556.9121 
33868000    134.08262   -4943.6069   -4685.0173   -4943.6069            0    11224.145    19.590338    19.500834    20.347263    7773.2227    12238.435     10277.93     11156.07    94.564522    1196.9557     1432.969    -3412.598 
33869000    138.79208   -4962.9897   -4695.3175   -4962.9897            0    10144.526    19.651178    19.570869     20.32099    7815.2623    10388.828    9788.7875    10255.962   -37.487775   -57.424401   -883.02852   -3539.0689 
33870000    141.39396   -4955.4618   -4682.7716   -4955.4618            0    9225.3619    19.572218    19.453023    20.523253    7813.9988     9617.164    9425.0815      8633.84   -108.74735   -1177.8278    271.92797   -3631.4572 
33871000    133.64179   -4963.7586   -4706.0191   -4963.7586            0    9526.3498    19.689718    19.566993     20.37045    7848.0939    9889.1742    9703.1716    8986.7035    495.82646    949.88845    547.58706   -3615.6674 
33872000    143.71073    -4957.001   -4679.8428    -4957.001            0    8250.4199     19.63511    19.679387    20.451352    7902.5445    8361.2373    8220.0149    8170.0074     301.2303   -112.47372   -260.21264   -3728.9777 
33873000    139.83184   -4942.9425    -4673.265   -4942.9425            0    12225.235    19.607177    19.585499    20.218834    7764.3627    12994.349    11864.597    11816.759    -15.95617    293.64333   -215.86438   -3288.9373 
33874000    136.75073   -4945.6124   -4681.8771   -4945.6124            0    11461.487    19.718399    19.534681    20.308473    7822.6744    11784.524     11156.02    11443.916    536.95637   -424.89799    153.34825   -3374.2856 
33875000    140.96558   -4932.4641   -4660.6001   -4932.4641            0    11095.061    19.686205    19.479573    20.328035    7795.3715     10797.08    11287.993    11200.111   -208.07999    170.14846   -912.27189   -3399.2304 
33876000     133.3174   -4956.0779   -4698.9641   -4956.0779            0    9678.6994    19.773429    19.366189    20.394777    7809.8932    9101.5979    10454.125    9480.3754   -45.392995    -521.3361   -547.49497   -3596.5672 
33877000    142.12243   -4954.0217   -4679.9266   -4954.0217            0    11226.428     19.73819    19.304118    20.397871    7772.1672    10419.061     12571.14    10689.085    156.11341    -254.5403   -609.86726   -3407.4212 
33878000    133.21299   -4942.7693   -4685.8569   -4942.7693            0    10536.392    19.636025    19.567115    20.295416    7797.9121    10314.964    9943.4264    11350.786    255.31732     515.2278   -223.09898   -3487.6105 
33879000    139.52126   -4930.1398   -4661.0613   -4930.1398            0    10546.089    19.697663    19.549497    20.292379     7814.177    10665.546    9464.5327    11508.187    181.01856    -144.1934   -382.61354   -3459.2105 
33880000    131.12103   -4955.9317   -4703.0537   -4955.9317            0    10290.845    19.741992    19.498458     20.25466    7796.7965     10479.16    10179.127    10214.247   -676.31401    -292.8959    65.689116   -3532.8995 
33881000    127.60758   -4951.1118   -4705.0099   -4951.1118            0    10498.248    19.678702    19.589348    20.242531    7803.3527     11758.06    8729.7675    11006.916   -233.21553    1000.7188   -1536.9928   -3510.2684 
33882000     137.5421   -4923.7623   -4658.5008   -4923.7623            0    10005.238    19.673657    19.497604    20.281391    7779.7217    11360.358    9226.2514    9429.1055   -639.33375   -1204.6201   -817.65972   -3523.3139 
33883000    140.73616   -4940.5472   -4669.1257   -4940.5472            0    8532.5746    19.582057    19.621433    20.396791    7837.0187    10083.201    8125.8004    7388.7224   -45.035605     601.7028    276.98615   -3693.8961 
33884000    129.18322   -4927.7239   -4678.5832   -4927.7239            0    12180.325    19.471253    19.656096     20.25753    7753.1407    13151.455    10351.371    13038.149   -185.59345    293.79939   -1612.9565   -3301.3343 
33885000    135.59392   -4949.4527   -4687.9485   -4949.4527            0    10047.091     19.71233    19.528838     20.33527    7828.2434    10589.605    8713.7086    10837.959    17.787818    530.80185   -1844.2411   -3540.9032 
33886000     143.6261   -4945.4468   -4668.4518   -4945.4468            0    10931.807    19.601774    19.571686    20.222965    7758.3337    10093.084    11108.783    11593.553    499.23345     351.1393    356.44307    -3431.547 
33887000    138.61275   -4968.4142   -4701.0879   -4968.4142            0    9645.5697    19.613721    19.638443     20.39627    7856.2955    10338.229    9430.8441    9167.6357   -36.177809   -702.62391    658.82299    -3595.937 
33888000    135.31243   -4949.2555   -4688.2941   -4949.2555            0    10599.006     19.59174    19.614087    20.330782    7812.5928    10188.931     11463.51    10144.577    -329.7451    916.00364   -784.43057   -3480.6576 
33889000    127.83214   -4947.8127   -4701.2777   -4947.8127            0    11685.064    19.623129    19.390757    20.413958    7767.6606    12005.616    12393.748    10655.829    63.219963   -22.025851   -190.80992   -3377.5543 
33890000    139.85447   -4945.4045   -4675.6834   -4945.4045            0    10879.823    19.597985    19.368305    20.544834    7798.4032    10787.228     11221.91    10630.331   -503.66822   -438.18425    47.163901   -3438.3025 
33891000    140.08616   -4956.1918   -4686.0238   -4956.1918            0    9954.0242    19.619079     19.39098    20.483208    7792.4918    8391.2394    12092.652    9378.1814    23.210736     57.78941   -457.54283   -3554.7938 
33892000    132.98398   -4948.7082   -4692.2374   -4948.7082            0    9450.5827    19.673476    19.624582    20.356901    7859.4687      10795.4    8602.5946    8953.7534    134.62274    1519.3408    338.12775     -3608.99 
33893000    138.39953   -4958.6848   -4691.7696   -4958.6848            0    9536.9119    19.645286    19.427704    20.484053    7818.0011    10353.676    9383.4887    8873.5706   -488.43684    835.39783     415.0526   -3604.3945 
33894000    144.82756    -4965.962   -4686.6498    -4965.962            0    10084.434    19.555521    19.603331    20.420957     7828.442    12003.093    9200.9428    9049.2662   -292.32896   -293.53938    907.54249    -3535.312 
33895000    130.48391   -4936.4648   -4684.8156   -4936.4648            0     11149.21    19.758104    19.583929    20.229221    7827.5212    10961.259    10675.243    11811.128   -109.31313    1285.0156   -336.66038   -3412.0623 
33896000    134.94204   -4961.7267   -4701.4796   -4961.7267            0    10049.856    19.718899    19.667079    20.273352    7862.2725    10987.187    8905.1423    10257.239   -204.38876   -358.82295   -241.68982   -3549.1312 
33897000     134.0769   -4963.1627   -4704.5841   -4963.1627            0    10572.148    19.730111    19.614244    20.275402    7846.4024    8560.8592    12518.495     10637.09    76.145796    244.34722    13.088973   -3494.7949 
33898000    132.91758   -4951.8945   -4695.5518   -4951.8945            0    10569.816    19.740215    19.446672    20.389994    7827.3414    8517.4249    12415.409    10776.616   -121.74312    689.48083    327.51981   -3488.9676 
33899000    137.53804   -4945.3387   -4680.0851   -4945.3387            0    10513.496    19.699374    19.446099    20.471006    7841.9508    10091.731    12357.533    9091.2254     189.6791    111.34692   -140.03977     -3477.69 
33900000    134.78085   -4954.8483   -4694.9121   -4954.8483            0    9587.1088    19.767549    19.516061    20.375622    7860.6034     8613.795    9586.0511     10561.48    143.19551    572.73424    339.85654   -3595.8571 
33901000    143.31326    -4937.398   -4661.0063    -4937.398            0    10719.535    19.820616    19.391715    20.341075    7818.2089    9546.3104    10835.033    11777.263    -66.75605   -175.11341   -394.37088   -3438.7589 
33902000    142.75443   -4945.1798   -4669.8659   -4945.1798            0    11021.659    19.738892     19.30097    20.428057    7782.6765    11295.588    11540.266    10229.122    185.00204    482.71855    64.265957   -3418.8817 
33903000    134.30522   -4957.2075   -4698.1886   -4957.2075            0    9530.8306    19.799521    19.389895    20.568444    7896.4447    7298.6185    10861.186    10432.687    80.641029   -71.264148   -514.99934   -3600.6034 
33904000    136.44542   -4953.8724   -4690.7259   -4953.8724            0    10181.352    19.592187    19.541323    20.509288    7852.1298    11376.408    10239.898    8927.7505    309.93413   -151.80996   -3.8718489   -3524.8057 
33905000    139.14096   -4959.1367   -4690.7917   -4959.1367            0    10260.423    19.659481     19.49674    20.402131    7820.0509    10656.555    9950.8795    10173.835   -183.49931    184.17685    545.14305   -3520.6169 
33906000    138.50346   -4964.9394   -4697.8239   -4964.9394            0    10827.181    19.634991    19.623651    20.351138    7841.5009     12234.58    8882.6394    11364.323   -149.00735   -215.42845    254.42887   -3459.6248 
33907000     140.6123   -4943.9094   -4672.7268   -4943.9094            0     11670.43    19.614458    19.408303    20.442173    7781.9946     11175.97    12272.948    11562.373   -923.00633   -1070.4761    395.76413   -3348.2215 
33908000    127.90984   -4950.9545   -4704.2696   -4950.9545            0    10116.283    19.653636    19.430285    20.515951    7834.5439    10274.603    10519.933     9554.312    350.57909   -150.12805   -193.75934   -3548.3954 
33909000    135.72469   -4960.0036   -4698.2471   -4960.0036            0    10840.956    19.821466    19.411494    20.378134    7840.7776    12011.465    10470.461    10040.943   -547.80029   -266.55806    108.32896    -3458.587 
33910000    134.61298   -4934.9081   -4675.2957   -4934.9081            0     11308.65    19.766548    19.225238    20.504842    7792.1801    11021.414     12155.29    10749.247   -19.976549    1356.4615   -655.37474   -3390.1699 
33911000    129.18246    -4948.106   -4698.9668    -4948.106            0    10822.914    19.833406      19.5089    20.311242     7858.987    9722.3337    11466.814    11279.593    897.83356    20.013148   -714.59221   -3458.4957 
33912000    134.82668   -4949.2943   -4689.2697   -4949.2943            0    9568.3408    19.810711    19.438562    20.399318    7855.6089    9110.7559    9493.1035    10101.163   -539.97817    421.80017    879.43019   -3593.0632 
33913000    138.40299   -4945.3975   -4678.4757   -4945.3975            0    10416.403    19.645603    19.517794    20.370226    7810.7355    11650.746    10051.725    9546.7391   -362.51877   -77.578474    657.43548   -3491.9269 
33914000    137.69293   -4963.5699   -4698.0175   -4963.5699            0    10607.214    19.763254    19.384889    20.480431     7846.227    8989.6014    11662.702    11169.337   -463.80822    207.99958    549.52432   -3484.2428 
33915000    135.52173   -4950.0698   -4688.7048   -4950.0698            0    11859.662    19.734219    19.472316    20.359431    7823.5378    12104.398    11852.026    11622.561    38.317488   -761.83865   -271.40583   -3335.5379 
33916000    136.29208   -4940.2672   -4677.4164   -4940.2672            0    10869.204    19.694874    19.514171    20.364179    7826.5469     11465.26    9783.5505    11358.801    374.43516    -415.6562   -1203.1851    -3436.782 
33917000    138.98844   -4952.0785   -4684.0276   -4952.0785            0    10185.651    19.760871    19.589236    20.264669    7844.4609    9968.1416    10847.019    9741.7942   -476.29288    59.993382   -793.37199   -3518.7543 
33918000    137.64478   -4932.0989   -4666.6393   -4932.0989            0    10908.572     19.74962    19.484455     20.32369    7820.7705     12009.36    10027.045     10689.31   -89.855094    439.76727    1004.4364   -3422.4304 
33919000    141.30536   -4942.8529   -4670.3337   -4942.8529            0    10152.142    19.666754    19.535286    20.387607    7832.8302      10792.1    10384.365    9279.9618   -79.822092   -1045.7177   -885.84043    -3510.616 
33920000    139.53526    -4954.552   -4685.4465    -4954.552            0     10030.11    19.718831    19.557181    20.378897    7859.0146    10120.551    9700.0901     10269.69   -354.08258    263.88795   -1304.5162   -3535.8387 
33921000    135.21803   -4937.7532   -4676.9739   -4937.7532            0    10178.562    19.602501    19.547307    20.457896    7838.9772    10557.936    10316.405    9661.3461   -474.40433    730.26676    75.028497   -3513.3256 
33922000     141.1433   -4966.9869   -4694.7801   -4966.9869            0    10763.911    19.617316    19.523364    20.401034    7813.5147    10607.914    10723.387    10960.431   -319.39711    263.43853    -37.48602     -3468.21 
33923000    133.52939   -4957.4171   -4699.8945   -4957.4171            0    9344.8573    19.639724    19.639091    20.328214     7840.721    9678.8209    7824.4841    10531.267    446.43807   -281.93631    918.98571   -3631.3206 
33924000    136.73534    -4947.062   -4683.3564    -4947.062            0    10032.506    19.647075    19.420868    20.474571    7812.3435    9606.2279    10705.645    9785.6457   -703.22509    1460.4073    1508.7145   -3540.3026 
33925000    139.28578   -4962.7235   -4694.0991   -4962.7235            0    9282.8883    19.694983    19.575357    20.377358    7856.2121    9272.0751    9675.4045    8901.1852    381.80079    1502.8916   -292.17344   -3630.5141 
33926000     136.0271   -4963.6978   -4701.3581   -4963.6978            0    10150.687    19.812731    19.400332      20.4814    7872.5086    10083.651    11265.386    9103.0242   -452.35992    1050.1672   -176.61865   -3535.9327 
33927000    138.23605   -4949.6782   -4683.0784   -4949.6782            0    10550.277    19.791711    19.491141    20.259118    7815.2183    10951.409    8965.6436    11733.778   -645.39134    458.48033   -378.71029   -3480.5901 
33928000    141.42237   -4962.4116   -4689.6667   -4962.4116            0    9794.4459    19.853483    19.349517    20.416654     7843.166    8828.9441    10782.214    9772.1794   -293.36401    372.52194   -205.45361   -3569.3336 
33929000    141.99645   -4946.3862   -4672.5341   -4946.3862            0    9191.7168    19.851612    19.498258    20.300247    7857.6539     8418.875    9497.1734     9659.102   -122.61223   -964.67509   -1235.5851   -3619.2018 
33930000    139.60421   -4945.6082   -4676.3697   -4945.6082            0     9547.822    19.770616    19.352546    20.474591    7833.8192    10701.258    8587.5781    9354.6302    187.38062   -879.83558    216.11096   -3585.5481 
33931000    138.39366   -4955.9892   -4689.0853   -4955.9892            0    10830.096    19.740581    19.451339    20.345441    7812.2574    10882.205    10910.173     10697.91   -175.82158   -244.78115    747.23326   -3455.1718 
33932000    138.10855   -4945.4532   -4679.0992   -4945.4532            0    11366.627    19.669883    19.413477     20.35025    7770.9633     10796.71    10748.899    12554.273    848.49957   -352.05119   -37.020282    -3390.902 
33933000    133.48537   -4960.3488   -4702.9111   -4960.3488            0    9422.0957    19.755651    19.409614    20.415871    7828.4569    8799.9916     9793.827    9672.4683    76.744041    1029.4951    1130.2283   -3627.1903 
33934000    131.83998    -4956.709   -4702.4446    -4956.709            0    9673.9714    19.783202    19.483858    20.371886    7852.4066    8654.1804    10852.905    9514.8288    -397.2907   -675.79239    127.58887   -3594.5882 
33935000    137.29992   -4936.7751   -4671.9806   -4936.7751            0    11613.578    19.843515    19.434041    20.246546    7807.8714    11862.102     11161.53    11817.102    652.29864   -418.54841    413.22607   -3349.5449 
33936000    139.22722   -4957.4008   -4688.8894   -4957.4008            0    8020.9722     19.83203    19.633634    20.346479    7922.4066    9410.0317    6679.5036    7973.3812    141.49292   -1522.9602   -376.10925   -3762.1448 
33937000    134.04843   -4956.7724   -4698.2488   -4956.7724            0    10402.971    19.668826    19.666234    20.335499    7866.0096    11204.868    9802.3754     10201.67    410.04699    1077.5382    194.96257    -3504.844 
33938000    139.54732    -4942.963   -4673.8342    -4942.963            0    11019.715    19.480178    19.544869    20.513023    7810.0779    11249.127    10775.369     11034.65   -400.61064   -694.23829    -329.5483   -3418.6669 
33939000    134.28373    -4961.034   -4702.0565    -4961.034            0    9100.3516    19.500994    19.744172    20.328505    7827.1041    9139.4538    7860.6254    10300.976   -175.21859    62.813738     645.5432   -3663.2488 
33940000    139.96452   -4927.7303    -4657.797   -4927.7303            0     11369.69     19.54572    19.723012    20.174546    7777.2971    11907.691    10993.489    11207.891   -66.705973   -537.94567   -494.24912   -3368.2024 
33941000    138.28726   -4949.0893   -4682.3907   -4949.0893            0    9577.1132    19.475865    19.723989    20.331018     7809.993    10218.856    8980.5299    9531.9536   -1345.4469     1223.594    266.48826   -3591.5504 
33942000    135.42857   -4936.0479   -4674.8625   -4936.0479            0    11002.205    19.447768    19.670525     20.33853    7780.4603     10271.97    10793.807    11940.839    46.755181   -185.33596   -7.4094997   -3426.4419 
33943000    136.86756   -4950.7205   -4686.7599   -4950.7205            0    10278.511    19.513951    19.816832    20.257574     7833.699    11109.526    10173.295    9552.7119   -294.38978   -1170.4608   -53.969527   -3512.4764 
33944000    140.32193     -4945.32   -4674.6973     -4945.32            0    10236.372    19.510359     19.56886    20.516295    7833.0289    10766.957    10551.516    9390.6429    118.10161    218.65393   -939.33105    -3505.328 
33945000    134.58831   -4943.2412   -4683.6764   -4943.2412            0    10884.511    19.491501    19.572678    20.468297    7808.6732    10242.147     11153.14    11258.246    20.638993    1228.5363    -686.0307    -3444.132 
33946000    138.84558      -4957.9   -4690.1246      -4957.9            0     9238.473    19.430732    19.781606    20.393739    7838.7632    9091.8694    8813.8212    9809.7282   -418.45417    313.38538   -696.50038   -3633.9794 
33947000    142.85727    -4955.028   -4679.5157    -4955.028            0    10033.677    19.575044    19.617202    20.279458    7787.4656    9734.5193    9199.5376    11166.974   -243.40538   -953.38805   -9.3948372   -3539.9689 
33948000    135.42405   -4939.1669   -4677.9902   -4939.1669            0    12619.388    19.550912    19.709706    20.189815    7779.9984    12197.739    12983.369    12677.058    195.80968   -396.66138    758.63842   -3246.1528 
33949000    138.91896    -4942.525   -4674.6081    -4942.525            0    9939.0716    19.481765    19.720628    20.457046    7859.4466    10606.618    8896.9338    10313.663   -710.85265    1105.9537   -90.573227   -3535.3722 
33950000    136.28684   -4951.4799   -4688.6393   -4951.4799            0    11491.673    19.481448    19.662714    20.321696    7784.3911    12573.797     10510.79    11390.432    -489.9307   -547.70171   -219.63292   -3384.0199 
33951000    138.52999   -4945.5604   -4678.3937   -4945.5604            0     12538.15    19.404607    19.657107     20.38129    7774.2073    12542.886    12231.284    12840.282    381.99148    82.063357   -389.01593   -3256.8327 
33952000    129.97574   -4935.8381   -4685.1689   -4935.8381            0    9818.1638     19.49592    19.513167    20.560304    7821.6978     7736.771    11844.569    9873.1512   -386.91119    913.32355   -453.72304   -3565.1968 
33953000    129.29954    -4943.757    -4694.392    -4943.757            0    11806.479    19.667351    19.516441    20.334841    7805.2584    11551.451    11910.745    11957.241   -107.31067    958.64218    434.75717   -3350.4406 
33954000    131.55263   -4952.2255   -4698.5152   -4952.2255            0    9453.8457    19.578829    19.706368     20.29881    7831.8413    10868.788    8500.7074    8992.0414   -406.97815    308.00636   -390.74587   -3618.7029 
33955000    130.72209   -4950.1907   -4698.0821   -4950.1907            0    11700.366     19.41801    19.648593     20.38551     7777.818    11527.096    11604.315    11969.687    105.71231    1517.9656    824.01636   -3370.8921 
33956000    128.22214   -4944.0396   -4696.7524   -4944.0396            0    10933.148    19.325521    19.660318     20.53928     7803.815    11008.682    10780.096    11010.668   -612.97978    235.66954   -806.74087   -3452.4438 
33957000    141.78351   -4963.6125   -4690.1711   -4963.6125            0    10906.067    19.554099    19.740353    20.289472    7831.8339    11242.986    10195.912    11279.305   -141.40232    543.65482    300.58729   -3444.4881 
33958000    136.75676   -4947.0433   -4683.2964   -4947.0433            0     9784.545    19.610161    19.656905    20.345189    7842.5631    10326.354    9147.1728    9880.1081   -405.73663    952.03289   -848.06997   -3564.1819 
33959000    132.84264   -4946.0524   -4689.8542   -4946.0524            0    10916.674    19.557684    19.711948     20.35767    7848.2898    11710.241    10475.334    10564.445      501.291   -165.70921   -75.881055   -3440.3399 
33960000     135.6368   -4930.7441   -4669.1571   -4930.7441            0    10175.298    19.497091    19.690112    20.380292    7823.9921    11432.428     9172.744    9920.7236    133.51998    -450.8458    792.50962   -3508.1057 
33961000    139.47379   -4952.6368   -4683.6499   -4952.6368            0     9550.625    19.663188    19.633536    20.297655    7836.0706     10247.13    9161.0736    9243.6718   -309.53041    646.17927   -30.942728   -3592.1944 
33962000    136.02068   -4944.2379   -4681.9106   -4944.2379            0    11117.571    19.567418    19.579029    20.369748    7803.8756    10876.689    11304.837    11171.187   -451.22392   -706.29316    259.86379   -3416.6029 
33963000    143.26213    -4949.234    -4672.941    -4949.234            0     10611.41    19.756622    19.585907    20.256995     7838.472     8849.207    11756.025    11228.999    259.14905    354.26589   -112.09699   -3459.8862 
33964000      143.848   -4962.6154   -4685.1925   -4962.6154            0    11545.059    19.641328    19.756357    20.227012    7848.9114     11083.32    11861.664    11690.193   -509.56177   -799.85534    605.08448   -3363.6489 
33965000    134.62631   -4964.2298   -4704.5916   -4964.2298            0    11760.827    19.545465    19.587962    20.317696    7778.7484    9805.9484    13176.987    12299.544    -629.4544   -884.49273    312.57293   -3370.3839 
33966000    134.76401   -4944.3299   -4684.4262   -4944.3299            0    11394.553    19.520337    19.615511    20.313272      7777.98     9969.058    11831.385    12383.215    39.090868    564.84313    77.042177   -3391.8981 
33967000    134.05113   -4962.2874   -4703.7585   -4962.2874            0    10757.833    19.610898    19.744163    20.163497    7807.3215    9325.8113     11407.75    11539.937     320.9035    395.17202   -25.878747   -3478.8525 
33968000     147.0822   -4957.6745   -4674.0142   -4957.6745            0    10692.112    19.482051      19.7424    20.338997    7822.8346    11000.463     10354.03    10721.842   -615.77821    686.33144    619.59872   -3454.1723 
33969000    135.41313   -4943.9964   -4682.8408   -4943.9964            0    11132.782    19.596864    19.622921    20.373608    7834.6244    10404.572    11040.973    11952.802   -420.91957   -717.49445   -60.927248   -3410.8095 
33970000    131.29429   -4957.4894   -4704.2774   -4957.4894            0    10306.367    19.656842    19.729106     20.25735    7856.0419     9069.861    11444.504    10404.736    3.6922048   -111.43107    20.821141   -3523.4531 
33971000    138.46997   -4963.9699   -4696.9189   -4963.9699            0    10104.187    19.652176     19.71949    20.314852    7872.6325    10292.144     9446.335    10574.083   -259.68295    -434.1036   -192.94864    -3536.814 
33972000    131.14728   -4946.9636    -4694.035   -4946.9636            0    10826.224    19.696664    19.642041    20.187245    7810.0954    8866.3513    12483.864    11128.456    76.997904   -635.21232    713.77228    -3460.904 
33973000    132.73238    -4955.831   -4699.8455    -4955.831            0    9552.6726     19.62609    19.624301    20.401562    7857.6271    9458.6585    9370.3826    9828.9768     81.76458    685.91051    833.05068   -3605.1528 
33974000     136.8201   -4951.8631   -4687.9941   -4951.8631            0    11346.146    19.674715     19.48362    20.412722    7824.9042    10846.807    11924.232    11267.399   -465.94208    351.93549    40.853219   -3393.1923 
33975000    133.68403    -4948.013   -4690.1921    -4948.013            0    10978.113    19.471569    19.634258    20.335276    7774.3756     10208.53    11262.117    11463.694    328.09633   -1850.8929    669.86784   -3445.4794 
33976000    137.52844   -4954.8301    -4689.595   -4954.8301            0    10679.173    19.374152     19.83477    20.426614     7849.577    10924.549    9811.6567    11301.314     235.8083    211.76767   -64.038289   -3467.0643 
33977000    142.44799   -4933.4297   -4658.7068   -4933.4297            0     9934.345    19.686683    19.704855    20.285767    7869.3204    9004.9611    11580.511    9217.5629    446.94003    179.30333    514.42948   -3518.5821 
33978000    144.62452   -4959.2052   -4680.2846   -4959.2052            0    10482.787    19.627895    19.714032    20.303217    7856.2272    11300.876    9390.7907    10756.694   -124.55705    331.38605   -256.31847   -3479.2192 
33979000    135.70759   -4935.9726   -4674.2491   -4935.9726            0    10947.928    19.424506    19.830615     20.30947    7823.2058    10754.327    10438.752    11650.704   -127.12591    573.11417    895.77467   -3425.1624 
33980000    142.37184   -4939.8952   -4665.3192   -4939.8952            0      10877.9    19.318786    19.691192     20.51982    7805.9428    12344.694    9736.5052      10552.5   -470.03504   -147.91032    314.10175   -3426.9609 
33981000    140.68035   -4940.1652   -4668.8514   -4940.1652            0    10213.243    19.503813    19.463875    20.527333    7792.5817    10192.581    10453.137     9994.012   -551.78839   -541.11133    949.97767   -3508.1488 
33982000    141.61722   -4956.1714   -4683.0507   -4956.1714            0    10652.254    19.521792    19.739905    20.285787    7817.2969    11655.363    9714.0432    10587.356     129.4518    620.78876     837.5457   -3468.6165 
33983000    135.95873   -4960.4448   -4698.2369   -4960.4448            0    11347.508    19.669991    19.695829     20.25125    7845.6738    11821.287    11268.435    10952.802   -261.10302   -344.19194    844.14637   -3399.8425 
33984000    136.14893   -4949.0253   -4686.4506   -4949.0253            0    9712.2869      19.5342     19.72709    20.476665    7890.7428    7562.5411    12415.793    9158.5266   -286.11831   -223.13163    10.685813   -3568.7763 
33985000    132.20835   -4954.1623   -4699.1873   -4954.1623            0    11325.735    19.462737    19.736681    20.304206    7799.4511    11045.293    11133.778    11798.134    95.703129    325.84503   -168.50752    -3410.919 
33986000    137.84678   -4967.3446   -4701.4955   -4967.3446            0    10101.848    19.644141    19.816891    20.146326    7842.6785    9112.0664    10024.047     11169.43   -664.55871   -1519.3408    134.18697   -3546.0722 
33987000    136.09808   -4954.7365   -4692.2599   -4954.7365            0    10356.996     19.68983    19.620564    20.316651    7848.8416    8744.2531     12069.89    10256.844   -41.183876    -133.9863   -61.819941   -3506.7225 
33988000    138.27599   -4947.2831   -4680.6062   -4947.2831            0    10649.048     19.68463    19.574817    20.384108    7854.4662    10361.934    11540.678    10044.533   -20.174419     826.4217    97.568105   -3460.7648 
33989000     134.7899   -4954.7924   -4694.8387   -4954.7924            0     9288.982    19.573166    19.674287     20.45185    7875.7641    9843.7975    9691.6005    8331.5481   -433.86514    5.6941134   -629.77884   -3627.9068 
33990000    136.43755   -4946.6574   -4683.5262   -4946.6574            0    11446.711    19.691936    19.773239    20.149851    7845.8149    12058.635    11108.982    11172.516    48.953198    1151.6073   -753.74829   -3373.7573 
33991000    132.41306   -4946.5746   -4691.2048   -4946.5746            0    11270.812    19.560923    19.730419    20.172114    7785.3307    11919.465    10494.711    11398.261   -549.32706    410.12921   -42.717584   -3411.5049 
33992000     137.3848   -4946.0248   -4681.0667   -4946.0248            0    12113.232    19.556588    19.692307    20.234858    7792.7339    11370.821    12559.886     12408.99    146.55597   -625.90104    92.724209   -3304.4096 
33993000     139.7339   -4938.1228   -4668.6343   -4938.1228            0    11462.666    19.529104    19.670653    20.258606    7782.3481    12204.732    10647.086    11536.179   -403.37669   -334.71192   -1096.7276   -3367.6496 
33994000    137.89362   -4942.0761   -4676.1367   -4942.0761            0    10669.257    19.578309    19.751377    20.164595    7797.6201     10873.54    10355.703    10778.527   -139.08193   -239.82214    1877.2945   -3462.8257 
33995000     140.9635   -4943.7687   -4671.9087   -4943.7687            0    9883.9975     19.58201    19.795051    20.356051    7890.5526    10983.155    8361.9112    10306.926   -341.47077   -25.123388    533.64084   -3534.5016 
33996000    136.12049   -4940.3782   -4677.8584   -4940.3782            0    10941.917    19.665138    19.473365    20.455779     7833.467    9888.7779    12658.195    10278.776   -362.83667   -1091.9437   -364.20344   -3427.8201 
33997000    135.32944   -4956.1672    -4695.173   -4956.1672            0    9707.3027    19.642159    19.648563    20.336941    7848.8427    7365.6718     11667.81    10088.426   -168.92317   -67.265064    1615.0215    -3584.004 
33998000    136.05168   -4934.9149   -4672.5277   -4934.9149            0    10479.945    19.827545    19.526069    20.222704    7829.3006    10411.184    10944.626    10084.025   -781.97725    619.85152   -420.01743   -3475.9033 
33999000    130.96573   -4950.7733   -4698.1949   -4950.7733            0    10743.288    19.712687    19.555735    20.285048    7819.8067    8334.1509    12077.731    11817.982    1.8254804   -289.05258   -346.18781   -3472.9889 
34000000    135.50429    -4927.342   -4666.0106    -4927.342            0    9949.3152    19.682233    19.703435     20.24163    7849.8582    10400.326     9510.455    9937.1642   -130.16803   -19.231203   -218.86837   -3526.9918 
Loop time of 349.391 on 64 procs for 250000 steps with 972 atoms

Performance: 123.644 ns/day, 0.194 hours/ns, 715.530 timesteps/s
99.1% CPU use with 64 MPI tasks x 1 OpenMP threads

MPI task timing breakdown:
Section |  min time  |  avg time  |  max time  |%varavg| %total
---------------------------------------------------------------
Pair    | 20.279     | 29.043     | 39.293     |  84.4 |  8.31
Bond    | 0.26067    | 0.27513    | 0.28478    |   1.1 |  0.08
Kspace  | 132.6      | 142.94     | 152.06     |  38.5 | 40.91
Neigh   | 1.0234     | 1.0358     | 1.0504     |   0.6 |  0.30
Comm    | 84.058     | 84.847     | 86.071     |   6.6 | 24.28
Output  | 1.4822     | 1.4831     | 1.4845     |   0.0 |  0.42
Modify  | 83.79      | 84.881     | 85.481     |   5.3 | 24.29
Other   |            | 4.89       |            |       |  1.40

Nlocal:        15.1875 ave          20 max          10 min
Histogram: 1 1 4 9 10 10 11 9 6 3
Nghost:        2368.58 ave        2395 max        2330 min
Histogram: 2 3 0 5 12 8 10 11 10 3
Neighs:        4988.47 ave        7087 max        3112 min
Histogram: 2 5 6 11 14 10 9 3 1 3

Total # of neighbors = 319262
Ave neighs/atom = 328.45885
Ave special neighs/atom = 2.0000000
Neighbor list builds = 2900
Dangerous builds = 0

unfix		3
unfix		2
unfix		1

write_data	data.final.${pid}
write_data	data.final.1
System init for write_data ...
PPPM initialization ...
  extracting TIP4P info from pair style
  using 12-bit tables for long-range coulomb (../kspace.cpp:340)
  G vector (1/distance) = 0.37283956
  grid = 24 24 24
  stencil order = 5
  estimated absolute RMS force accuracy = 0.0034268214
  estimated relative force accuracy = 1.0319771e-05
  using double precision FFTW3
  3d grid and FFT values/proc = 2197 216
Last active /omp style is kspace_style pppm/tip4p/omp
WARNING: Not all mixed pair coeffs generated from mixing. Use write_data with 'pair ij' option to store all pair coeffs. (../write_data.cpp:312)

write_restart   restart.lmp.${pid}
write_restart   restart.lmp.1
System init for write_restart ...
PPPM initialization ...
  extracting TIP4P info from pair style
  using 12-bit tables for long-range coulomb (../kspace.cpp:340)
  G vector (1/distance) = 0.37283956
  grid = 24 24 24
  stencil order = 5
  estimated absolute RMS force accuracy = 0.0034268214
  estimated relative force accuracy = 1.0319771e-05
  using double precision FFTW3
  3d grid and FFT values/proc = 2197 216
Last active /omp style is kspace_style pppm/tip4p/omp
Total wall time: 0:05:49
