LAMMPS data file via write_data, version 30 Jul 2021, timestep = 18500000

1008 atoms
2 atom types
672 bonds
1 bond types
336 angles
1 angle types

-3.087424316312445 14.697423315862993 xlo xhi
-0.09927678727495248 22.679275787268026 ylo yhi
-0.015129930532459923 19.24512793052427 zlo zhi
-0.06893628003666984 -6.253030798453791 0.021719348410557664 xy xz yz

Masses

1 1.008
2 15.999

Pair Coeffs # lj/cut/tip4p/long/omp

1 0 0
2 0.21084 3.1668

Bond Coeffs # harmonic/omp

1 450 0.9572

Angle Coeffs # harmonic/omp

1 55 104.52

Atoms # full

55 19 2 -1.1794 -0.6239071160318841 4.050197125648876 3.4126032167125766 0 0 0
56 19 1 0.5897 -1.178416592470978 3.5127978937729947 2.84679530255848 0 0 0
57 19 1 0.5897 0.059271681266888976 4.384599815117299 2.831368064916759 0 0 0
121 41 2 -1.1794 -2.4330044320514306 2.3922752121012194 2.356516176074815 1 0 0
122 41 1 0.5897 -2.4865450788546264 1.871744734198789 1.554860844727024 1 0 0
21 7 1 0.5897 0.8636478350075625 2.382135771183134 0.8899193029541707 0 0 0
31 11 2 -1.1794 1.2259476711970212 1.2471972602090757 2.2149659833281623 0 0 0
86 29 1 0.5897 -2.3808305207153317 1.344255454999533 3.828346805492017 1 0 0
32 11 1 0.5897 1.2998395231046525 1.517941409123009 3.1302492382200087 0 0 0
46 16 2 -1.1794 1.7513862425239113 4.820350407778514 2.30269985993198 0 0 0
53 18 1 0.5897 4.422015110085747 3.045573404158114 2.9198843359764837 0 0 0
67 23 2 -1.1794 -2.069742793107366 0.3188392979721435 8.287340220652498 0 0 0
5 2 1 0.5897 3.303619233075649 0.3979335593367441 4.903954396634206 0 0 0
71 24 1 0.5897 2.9939540866131855 0.33792176168707394 2.0934498719690473 0 0 0
70 24 2 -1.1794 3.834715102211536 0.22492344594407154 1.6499576591105578 0 0 0
123 41 1 0.5897 -3.3117239807978116 2.7558588823855605 2.4656792383582355 1 0 0
522 174 1 0.5897 2.5981717051400617 5.164832181620075 9.006305653479306 0 0 0
54 18 1 0.5897 3.048024208881614 3.6756965980918492 3.003784286281778 0 0 0
158 53 1 0.5897 -4.179484885892009 4.193932934850872 4.3575696925298955 1 0 0
157 53 2 -1.1794 -3.734373696074003 4.837750623703836 4.908710985822505 1 0 0
11 4 1 0.5897 2.5192878752157473 5.483223858493115 5.215296639473357 0 0 0
52 18 2 -1.1794 3.728772092507617 3.269964312437022 3.540720615204607 0 0 0
526 176 2 -1.1794 3.8507896974828144 2.606340186038488 0.10692962864667657 0 0 1
602 201 1 0.5897 -0.26786321770946 5.515766296534125 0.5032572256104973 1 0 1
47 16 1 0.5897 1.9230265485919906 5.366065323986934 1.5351275401529065 0 0 0
124 42 2 -1.1794 -4.99599022222948 2.468107510257457 7.445024238981225 1 0 0
669 223 1 0.5897 -5.185230254511628 1.5991241657861337 9.079028312162036 1 0 0
159 53 1 0.5897 -3.269247494997212 4.314378104657138 5.561474424758442 1 0 0
87 29 1 0.5897 -3.3927678941461226 1.0116161655673677 4.904308011993532 1 0 0
85 29 2 -1.1794 -2.4571077829787185 0.9706012778273634 4.7064410952103355 1 0 0
45 15 1 0.5897 0.6883263662352297 4.364623197142032 7.080898410503633 0 0 0
78 26 1 0.5897 0.4129458291111887 2.7962278937049554 4.415056466670528 0 0 0
76 26 2 -1.1794 1.1043965791140637 2.2663119832612315 4.81171722857146 0 0 0
59 20 1 0.5897 1.9018124261735414 3.470584801580777 5.8706584291158705 0 0 0
43 15 2 -1.1794 -0.234605441591333 4.614692658630697 7.124804324482211 0 0 0
60 20 1 0.5897 3.028919351017681 3.615908769398733 6.871098584964745 0 0 0
34 12 2 -1.1794 0.5858239672383134 1.1580528744542709 7.331011540809465 0 0 0
35 12 1 0.5897 0.6842809086601487 1.6414238645008792 8.151440617990463 0 0 0
36 12 1 0.5897 -0.31833987379591555 0.8440112209964702 7.344478634649858 0 0 0
44 15 1 0.5897 -0.3159857318979671 5.087451995557077 7.953264842634122 0 0 0
6 2 1 0.5897 3.6766030534964695 1.8468800573321247 4.672728502394627 0 0 0
68 23 1 0.5897 -2.9374995872911356 0.05314438058601209 7.982798356965152 0 0 0
58 20 2 -1.1794 2.332032531746119 4.109691737651617 6.438865696464441 0 0 0
33 11 1 0.5897 0.5212013819841022 0.5993868329656324 2.2124685921606937 0 0 0
98 33 1 0.5897 -3.8384669675885634 4.89089086349241 8.4925737093652 1 0 0
135 45 1 0.5897 -1.6277550285091067 3.3767453294210843 6.851456574239624 1 0 0
126 42 1 0.5897 -4.096600072062998 2.740427452116769 7.262691794653327 1 0 0
77 26 1 0.5897 0.7333762081414692 1.9710493188728684 5.643357802952178 0 0 0
134 45 1 0.5897 -2.174468932536092 2.267542185364989 5.977911332708454 1 0 0
133 45 2 -1.1794 -2.4470635793932494 2.9741222968904917 6.563390515984887 1 0 0
69 23 1 0.5897 -2.2396059485604116 1.0289226811136545 8.906418145354928 0 0 0
401 134 1 0.5897 2.911741354540256 0.1676768058013287 8.888963000368543 0 1 0
482 161 1 0.5897 -1.1992629425198975 -0.012012273732035728 0.6942361216398569 1 1 0
4 2 2 -1.1794 3.9517143266273163 1.0603279127962966 5.1438262399196555 0 0 0
19 7 2 -1.1794 0.9748284895811956 2.770296031679843 0.021910356096899446 0 0 0
527 176 1 0.5897 3.926430236528338 1.8340769554024134 0.6674823615527997 0 0 1
48 16 1 0.5897 2.090750928618676 5.3287076218353775 3.039489640270091 0 0 0
16 6 2 -1.1794 5.389910896508672 4.838988770579766 0.2038877413148782 0 0 0
97 33 2 -1.1794 -3.8187447820696523 4.582099460697754 9.39853092951337 1 0 0
18 6 1 0.5897 4.861311194703679 4.046102161737849 0.2945986428079362 0 0 0
528 176 1 0.5897 2.920838060290966 2.8316653916931744 0.1331162171345885 0 0 1
101 34 1 0.5897 -2.602773491335232 4.3460704092866 0.2796150016624877 1 0 0
551 184 1 0.5897 -0.9722719852703587 5.489715293054343 12.70703793816932 0 0 0
626 209 1 0.5897 -5.363404312641815 1.8505627026222886 12.952543878030344 1 0 0
524 175 1 0.5897 -2.6904228906512406 3.149065039353919 9.861245046606465 0 0 0
663 221 1 0.5897 -7.337907866328561 4.541198112395856 13.897977647973395 1 0 0
536 179 1 0.5897 -1.7894871537859771 1.509638687453491 13.031031396165666 0 0 0
593 198 1 0.5897 -7.325313340796478 0.9067347352969031 14.464773337341818 1 0 0
576 192 1 0.5897 0.004500336304568808 0.394996809325111 11.790707587753879 0 0 0
628 210 2 -1.1794 -7.88483237581765 2.4418823772025466 17.091668764902476 1 0 0
535 179 2 -1.1794 -1.7287598761384766 0.9404035279576137 12.26375435172155 0 0 0
601 201 2 -1.1794 -6.926318781388662 4.872824169306296 19.206509970675043 1 0 0
537 179 1 0.5897 -1.9048224922855246 1.5184886716023005 11.52130786280206 0 0 0
561 187 1 0.5897 -3.304067428388195 3.6531331670769043 13.636194076708037 0 0 0
508 170 2 -1.1794 0.7918783806009024 1.0498619017832325 14.778306217264307 0 0 0
164 55 1 0.5897 -8.447951541300029 1.599042306848967 18.48146299136927 1 0 -1
629 210 1 0.5897 -8.408159795925688 3.2309078817917714 16.951125378324456 1 0 0
557 186 1 0.5897 0.19869393030055438 2.5956801239351486 13.706079954442767 0 0 0
558 186 1 0.5897 -0.02933886867316815 3.602497605777125 12.59856349996861 0 0 0
559 187 2 -1.1794 -3.7856273343533573 4.334148866822149 13.166529101217174 0 0 0
560 187 1 0.5897 -4.477087412866619 3.8623481233245234 12.702136423914688 0 0 0
625 209 2 -1.1794 -5.574543864828279 2.4376750997237053 12.226518927850627 1 0 0
668 223 1 0.5897 -5.64832354677415 1.5694035894222855 10.520296526558925 1 0 0
556 186 2 -1.1794 0.6510246535025228 3.2480175171204837 13.171104066478124 0 0 0
580 194 2 -1.1794 -1.911439888466946 2.3437342659437177 14.552962882263065 0 0 0
552 184 1 0.5897 -2.2382406957651986 4.810466274603898 12.229384866190138 0 0 0
589 197 2 -1.1794 -5.425683591951307 0.9594651602842819 14.451004343232652 1 0 0
550 184 2 -1.1794 -1.3397156027333836 5.008681128372795 11.965385514698513 0 0 0
627 209 1 0.5897 -6.482904696577311 2.69580322255308 12.383093718810809 1 0 0
99 33 1 0.5897 -3.641860970590658 5.367663161595146 9.916167327408612 1 0 0
574 192 2 -1.1794 0.7878681799106313 0.22447397894776894 11.267634740894199 0 0 0
582 194 1 0.5897 -1.5005166811723178 3.104574387760514 14.963593682085738 0 0 0
591 197 1 0.5897 -4.825190254972858 0.25347585476597667 14.690191787174776 1 0 0
547 183 2 -1.1794 -3.367904711990069 4.857834434542447 16.900754737956422 0 0 0
639 213 1 0.5897 -5.739948757248227 3.8069190611889883 15.222699518389096 1 0 0
538 180 2 -1.1794 -2.9123274139525854 1.2477486816558827 16.99245484678841 0 0 0
540 180 1 0.5897 -3.7929638701472284 0.9845052157942342 17.259876221350368 0 0 0
661 221 2 -1.1794 -6.807197147975596 5.156391367949349 14.40421379607837 1 0 0
539 180 1 0.5897 -2.6299691680066326 1.8632341139669362 17.66911859124118 0 0 0
638 213 1 0.5897 -6.166555498088289 2.9677822536317127 16.408560994378213 1 0 0
549 183 1 0.5897 -4.049922360688193 4.227045764122208 16.669874444595994 0 0 0
562 188 2 -1.1794 -0.5975934887121186 4.166728662153984 16.30325972621292 0 0 0
523 175 2 -1.1794 -2.1281449145176405 2.3907695426756166 10.019521937674465 0 0 0
564 188 1 0.5897 -1.4022249077212985 4.273409580413494 16.81074002415753 0 0 0
667 223 2 -1.1794 -5.218697675534386 1.0353750938410815 9.852010305033609 1 0 0
20 7 1 0.5897 -5.286956024233691 2.0458685141438537 18.682536779838866 0 0 -1
637 213 2 -1.1794 -5.3916839646248995 3.3139626588492526 15.965733655186998 1 0 0
525 175 1 0.5897 -1.2375876411008955 2.7273721053217908 9.919843872404394 0 0 0
581 194 1 0.5897 -2.2400250053683886 1.8235338712431326 15.28634199913457 0 0 0
590 197 1 0.5897 -5.247706545080652 1.6518314503939853 15.087677476394129 1 0 0
563 188 1 0.5897 -0.5924482664942898 4.911539441740639 15.701947799620067 0 0 0
603 201 1 0.5897 -6.278675796972069 4.169396934409554 19.16209593525496 1 0 0
630 210 1 0.5897 -8.010589126334382 1.9255702050182282 16.29538531083624 1 0 0
23 8 1 0.5897 0.7727058312246893 2.0909917862733605 10.466458176926675 0 0 0
571 191 2 -1.1794 -5.309612124850277 0.5048406562991469 17.878385642824785 0 0 0
572 191 1 0.5897 -6.025438969275033 -8.225478322522461e-05 17.492355724164852 0 0 0
606 202 1 0.5897 -5.734740097505616 4.37023069787724 9.706809521040757 1 0 0
163 55 2 -1.1794 -8.709514074996239 1.0600460691840738 19.228108803722304 1 0 -1
548 183 1 0.5897 -3.367199472152654 5.485693226995693 16.17812343223076 0 0 0
987 329 1 0.5897 -3.0662627848228436 -0.08297767312673433 11.899187980124724 1 1 0
905 302 1 0.5897 -1.6032603424761884 0.11746239523130692 17.371326373017666 0 1 0
22 8 2 -1.1794 0.5880212072881541 2.6938630676917223 9.746175177463911 0 0 0
24 8 1 0.5897 1.1990420100003725 3.418938176669568 9.877508712543912 0 0 0
289 97 2 -1.1794 -2.4792755217596554 10.113944730105903 2.5332388467196805 1 0 0
332 111 1 0.5897 -1.9814269657786778 9.337988012684512 0.7930682739913745 1 0 0
255 85 1 0.5897 -2.2307864519375995 8.833946276009065 3.8472030171642597 1 0 0
147 49 1 0.5897 -0.7648390244741972 7.622805288240501 1.041514079437937 1 0 0
146 49 1 0.5897 -1.12604906996271 6.637852566879 2.1331694564785826 1 0 0
145 49 2 -1.1794 -0.38060293727235717 6.985003434177353 1.6430949491145341 1 0 0
174 58 1 0.5897 3.5782820428197155 8.950365558497218 4.479608090991416 0 0 0
112 38 2 -1.1794 -2.816997628192655 6.20342487786419 2.7219408130101885 1 0 0
111 37 1 0.5897 -4.59998839529681 6.554861616902572 7.198497612311033 1 0 0
187 63 2 -1.1794 1.1207874460731206 10.555752331587367 0.023368426496759888 0 0 0
303 101 1 0.5897 -1.4281465104767705 11.024941165593386 6.783773667785571 1 0 0
172 58 2 -1.1794 3.9306043858400823 8.272549673730555 5.056460388387661 0 0 0
201 67 1 0.5897 2.167389374192047 8.707605706087442 2.4013571720772275 0 0 0
188 63 1 0.5897 0.9549525385258661 10.113120933889073 0.8558614113363192 0 0 0
200 67 1 0.5897 0.7510437351275927 8.190425938622358 2.264900989073989 0 0 0
290 97 1 0.5897 -1.9142849333596512 10.866240678587102 2.7097680093835295 1 0 0
199 67 2 -1.1794 1.252272891977511 8.976618156020493 2.4816946496304366 0 0 0
239 80 1 0.5897 4.008426554162065 8.877737175267768 1.0506635074817867 0 0 0
238 80 2 -1.1794 3.899703164368903 8.112896939754458 1.615941191094007 0 0 0
173 58 1 0.5897 3.3635859683800344 7.515148609300072 4.910984088730955 0 0 0
10 4 2 -1.1794 2.342809147093396 6.21036656419155 4.6182517223799335 0 0 0
240 80 1 0.5897 3.4204558055799117 7.48288418970589 1.0776019551335014 0 0 0
245 82 1 0.5897 0.8109225025175508 9.634875234874647 4.085876906431735 0 0 0
82 28 2 -1.1794 2.4826884218939185 6.228158903460405 0.05946388448450243 0 0 0
586 196 2 -1.1794 -0.5102223599978277 5.9676836892847245 9.55680784275542 0 0 0
220 74 2 -1.1794 3.800969689606582 10.610580599213048 3.5838951517241675 0 0 0
12 4 1 0.5897 1.4352049209732414 6.454700926528445 4.79944496383312 0 0 0
222 74 1 0.5897 3.3681797298498477 11.248380430635622 3.0162402703552353 0 0 0
301 101 2 -1.1794 -2.2350168177594836 10.684294833514901 6.397408350890049 1 0 0
114 38 1 0.5897 -3.081532868162914 5.693062881375365 1.9564266096982132 1 0 0
221 74 1 0.5897 4.610724782065255 10.390192616184763 3.123413466848653 0 0 0
291 97 1 0.5897 -3.3402624142075297 10.379269081244976 2.856658836344555 1 0 0
254 85 1 0.5897 -1.4194142697142589 7.846137683636072 4.658368280864871 1 0 0
253 85 2 -1.1794 -2.1723082897605135 8.434481701340374 4.71523838562822 1 0 0
302 101 1 0.5897 -1.9645300395347778 9.888404758241796 5.939491963997165 1 0 0
244 82 2 -1.1794 0.5752835433660897 10.220303070286475 4.805701236874572 0 0 0
113 38 1 0.5897 -2.973790481537623 5.620578174656772 3.4649972649054894 1 0 0
294 98 1 0.5897 -4.888071379533743 10.052362990026104 8.122222501454473 1 0 0
109 37 2 -1.1794 -3.6555290808525567 6.402115527987091 7.167980217076276 1 0 0
7 3 2 -1.1794 -0.3366016225894981 6.3491878807660544 4.790976925233386 0 0 0
64 22 2 -1.1794 2.6274342373814346 6.82322455407139 7.774079318586621 0 0 0
237 79 1 0.5897 -1.8423841313724347 8.8432798695696 8.662798282969145 0 0 0
8 3 1 0.5897 -0.2884854720164567 5.890188340437142 5.629699905892253 0 0 0
837 279 1 0.5897 -5.629165089571558 8.214757280138336 9.015789881251914 1 0 0
292 98 2 -1.1794 -4.8296708405097535 10.516866188482132 7.2871923918829 1 0 0
191 64 1 0.5897 1.2218183454022498 9.604168394022942 8.710976413395118 0 0 0
293 98 1 0.5897 -3.895811173809201 10.695918364269025 7.1769521308997675 1 0 0
202 68 2 -1.1794 0.9225957889342169 8.740295625163995 7.046115865879758 0 0 0
203 68 1 0.5897 0.03222952868778117 8.489623497581695 7.292570777907476 0 0 0
204 68 1 0.5897 1.4386430543907949 7.9433705784047515 7.167865796945556 0 0 0
246 82 1 0.5897 0.5867464888628162 9.661794372971801 5.583089726124649 0 0 0
235 79 2 -1.1794 -1.660592718822874 8.082621729109084 8.110821934718201 0 0 0
236 79 1 0.5897 -2.524433373266218 7.733873002808142 7.890595388164086 0 0 0
65 22 1 0.5897 2.8087010607617717 7.1599021740111795 8.651747302662955 0 0 0
588 196 1 0.5897 -0.9719218648370433 6.611793175569329 9.019920287293166 0 0 0
258 86 1 0.5897 -4.838275093982269 9.207062367861845 5.956252124248395 1 0 0
257 86 1 0.5897 -4.030183997251529 8.287833268664 5.065106011785077 1 0 0
110 37 1 0.5897 -3.505391200358498 5.997264478323942 6.313567059132005 1 0 0
835 279 2 -1.1794 -5.140559508223049 8.869805461463669 9.514341614396269 1 0 0
224 75 1 0.5897 -0.1898518541461125 11.289628596051719 3.6653727006259667 0 0 0
9 3 1 0.5897 -0.672334055624833 5.694925807864371 4.178090288384738 0 0 0
331 111 2 -1.1794 -1.8704908655814325 8.771827751763738 0.029144939026766986 1 0 0
192 64 1 0.5897 1.4332507035570679 10.833390526772186 9.569186759930915 0 0 0
190 64 2 -1.1794 1.0720247779194896 9.94723303303625 9.592091560916394 0 0 0
678 226 1 0.5897 0.592955514594431 9.2334129746044 14.19068948841817 0 0 0
83 28 1 0.5897 -4.21251675767205 6.936953889705125 18.821021766393084 0 0 -1
759 253 1 0.5897 -5.444749061374347 8.597407000078864 13.580530533877587 1 0 0
651 217 1 0.5897 -4.283756718247211 6.937350745762246 11.49173649712517 1 0 0
513 171 1 0.5897 -3.690560019368428 5.962344017197326 14.043405310083898 0 0 0
797 266 1 0.5897 -6.506919652817677 10.531683182082928 16.85096458783984 1 0 0
795 265 1 0.5897 -5.548359294641425 9.512829492872667 11.167957053602827 1 0 0
693 231 1 0.5897 -2.053559640011455 9.872374337229603 10.493503877225711 0 0 0
649 217 2 -1.1794 -3.5129462527532636 7.043926567602369 10.93417352859577 1 0 0
650 217 1 0.5897 -2.969044196854278 7.68199607386302 11.3961160611614 1 0 0
742 248 2 -1.1794 0.4552944581187277 7.837435806499218 11.309203972474853 0 0 0
793 265 2 -1.1794 -5.4919666392762405 9.651461940580306 12.113544675540243 1 0 0
743 248 1 0.5897 0.8752931525177412 8.500231434025151 10.76086150612827 0 0 0
744 248 1 0.5897 0.09612492434991182 7.20423959093196 10.687547170638783 0 0 0
741 247 1 0.5897 -5.313500693855222 8.914557585757615 18.33343402663229 0 0 0
587 196 1 0.5897 -1.114825534363919 5.774911814126922 10.273558243320286 0 0 0
703 235 2 -1.1794 -2.002530984045303 8.831482939992027 12.010192985987178 0 0 0
704 235 1 0.5897 -1.0983678313502576 8.525632492418223 12.082352242270783 0 0 0
705 235 1 0.5897 -2.0894653684461737 9.488410668265352 12.70105478911181 0 0 0
724 242 2 -1.1794 0.7374095333994894 10.645112190074645 13.18234000916931 0 0 0
706 236 2 -1.1794 -2.5475870776315332 9.097447784046041 16.73198079315158 0 0 0
707 236 1 0.5897 -3.4710382371426407 8.87247604923366 16.845774007242305 0 0 0
750 250 1 0.5897 -3.1857186527478625 10.647437231107146 14.234116950149192 0 0 0
333 111 1 0.5897 -7.912748473990641 9.39389493321683 18.574158481801113 1 0 -1
676 226 2 -1.1794 0.7589599550533848 8.581503190771993 14.871744959605618 0 0 0
796 266 2 -1.1794 -7.43940692474801 10.48941556668306 17.063079560050216 1 0 0
748 250 2 -1.1794 -2.371492023438125 10.164438086636203 14.375517683283503 0 0 0
514 172 2 -1.1794 -0.660474557269116 6.253635524581558 14.439826061160261 0 0 0
708 236 1 0.5897 -2.0739742379121875 8.30999961579116 17.00003409288588 0 0 0
749 250 1 0.5897 -2.496897542043813 9.723417878966249 15.215898125303513 0 0 0
84 28 1 0.5897 -3.444104880084695 5.643182057580806 18.654988329653865 0 0 -1
512 171 1 0.5897 -4.111557668409989 7.3220834315400705 14.558988804302606 0 0 0
511 171 2 -1.1794 -3.4074949297847015 6.676053841329211 14.615137556089094 0 0 0
515 172 1 0.5897 -1.550322552020174 6.606249335325686 14.43083261272402 0 0 0
516 172 1 0.5897 -0.10191451765832849 7.015523001597529 14.594304606119817 0 0 0
570 190 1 0.5897 -0.08506812134576602 6.704975843717337 17.35130673602838 0 0 0
757 253 2 -1.1794 -5.453190626295276 8.468464125836972 14.529110774817942 1 0 0
695 232 1 0.5897 -2.23490023867211 10.019215659498748 18.194633164525325 0 0 0
758 253 1 0.5897 -5.244569425255031 9.33001697379852 14.890377572049273 1 0 0
616 206 2 -1.1794 -6.1556420097541125 6.50143526804109 12.134142692409085 1 0 0
762 254 1 0.5897 -7.377551767120245 8.554276088135547 14.48969063529882 1 0 0
568 190 2 -1.1794 -0.8816433250487163 6.923719161564877 17.834996056119074 0 0 0
798 266 1 0.5897 -7.800646232667804 9.865081542058205 16.433694479590212 1 0 0
617 206 1 0.5897 -6.7302619847109835 7.201082104243968 11.82341483384405 1 0 0
836 279 1 0.5897 -4.426796411426524 8.378595573993508 9.921205694841385 1 0 0
739 247 2 -1.1794 -5.060205639599527 8.15306293564613 17.811613922640113 0 0 0
613 205 2 -1.1794 -7.059023530419626 6.441701035681216 16.947879835379386 1 0 0
740 247 1 0.5897 -5.885753265234587 7.707904073941963 17.620167522857646 0 0 0
794 265 1 0.5897 -4.862101779634282 10.365216590620772 12.21433200072186 1 0 0
569 190 1 0.5897 -1.0050177461865157 6.190893851973292 18.43841513916125 0 0 0
732 244 1 0.5897 -0.11892838287534513 11.193366794129664 16.418494943256277 0 0 0
805 269 2 -1.1794 -5.104466365908247 10.885556258438976 15.749287028302263 1 0 0
726 242 1 0.5897 0.061166939517301344 11.114682244504872 12.693961166884437 0 0 0
618 206 1 0.5897 -6.374565415517961 5.7491368157680265 11.584145727243508 1 0 0
662 221 1 0.5897 -6.4822202181951205 5.782138788087071 13.756750885705728 1 0 0
731 244 1 0.5897 -1.173673025554499 11.095604848017752 15.336661837787585 0 0 0
614 205 1 0.5897 -6.9144976955034085 5.780262566380982 17.624615621085702 1 0 0
189 63 1 0.5897 -4.180215789713879 10.556718694312927 19.186233031041162 0 0 -1
615 205 1 0.5897 -6.903011677654298 5.980201680088448 16.123781556003934 1 0 0
696 232 1 0.5897 -1.9545824382281909 11.158300032840119 19.1518078655329 0 0 0
694 232 2 -1.1794 -2.4016408405570893 10.314133521946628 19.090020423550772 0 0 0
692 231 1 0.5897 -0.8839955295212913 10.40445974698893 9.692709377926738 0 0 0
691 231 2 -1.1794 -1.8354036691670048 10.302275347993149 9.666424944507442 0 0 0
280 94 2 -1.1794 -3.291675159840917 13.99315383845539 2.567365725390391 1 0 0
279 93 1 0.5897 -5.142211933589936 14.31350043406071 7.655285419644905 1 0 0
252 84 1 0.5897 3.266604501110221 14.460289347922034 0.6484274669091212 0 0 0
756 252 1 0.5897 -1.2064451848831053 14.28051701511198 8.998793573607392 0 0 0
371 124 1 0.5897 0.505260884171979 16.985224808324308 7.824542152899893 0 0 0
232 78 2 -1.1794 2.0431053189174992 14.561426707220901 8.024003100774454 0 0 0
499 167 2 -1.1794 -2.189822630935959 16.619110450458464 0.17701367189183895 1 0 0
277 93 2 -1.1794 -4.344846391657313 13.915882881481304 7.305466601930067 1 0 0
250 84 2 -1.1794 2.7314485435572218 13.81863405700398 0.18123019950470548 0 0 0
226 76 2 -1.1794 2.5558259583340828 11.811611575139345 6.56531296319841 0 0 0
408 136 1 0.5897 4.101805569268244 16.439281599194313 1.1871525662620686 0 0 0
281 94 1 0.5897 -3.2998157893872606 13.650320226795165 3.461173715642107 1 0 0
500 167 1 0.5897 -1.5519136634326987 15.97721465516307 0.4889397000986857 1 0 0
269 90 1 0.5897 -3.2814158129722863 12.892801552298515 1.1046488471902292 1 0 0
341 114 1 0.5897 3.1140375518220793 15.558089260956056 5.2287797218964975 0 0 0
227 76 1 0.5897 1.8058501567058372 11.943873048517537 7.145319601060916 0 0 0
367 123 2 -1.1794 1.3552984641643482 16.335054426484085 2.590496690578125 0 0 0
407 136 1 0.5897 4.70337638690714 15.337062594563765 2.0329177211104095 0 0 0
404 135 1 0.5897 -1.3871948693009286 15.726029354895422 7.400855547099645 0 0 0
403 135 2 -1.1794 -2.1130037452454595 15.4600660168613 7.965532148869956 0 0 0
282 94 1 0.5897 -2.3657389109881843 14.142665347850247 2.376060655609221 1 0 0
178 60 2 -1.1794 2.4077912787987312 14.017701873512596 4.767985701238115 0 0 0
180 60 1 0.5897 2.473105624270733 13.696140761571233 3.868629093287695 0 0 0
368 123 1 0.5897 2.253134166791793 16.13557518456633 2.3251798389450453 0 0 0
314 105 1 0.5897 -0.11957832221746756 15.386994688772731 2.1744501014396094 1 0 0
175 59 2 -1.1794 -0.325283806600539 13.82592521762549 5.1067330913588185 0 0 0
313 105 2 -1.1794 -0.8272146603889787 14.831287691926146 1.8476497948170818 1 0 0
315 105 1 0.5897 -0.39133863521218437 14.198460664793885 1.2767927370966266 1 0 0
225 75 1 0.5897 -0.44604587879227786 12.775779196455211 3.5326189696246817 0 0 0
278 93 1 0.5897 -3.657308844487768 14.556536213466824 7.4876765193378905 1 0 0
326 109 1 0.5897 -2.8818450774430406 11.977609505569626 5.3184337451030315 1 0 0
690 230 1 0.5897 2.0093617166088134 13.111795263539545 9.081663932456516 0 0 0
214 72 2 -1.1794 2.258976795636624 12.548967724962855 2.4645352885230323 0 0 0
215 72 1 0.5897 2.2931731206017645 12.96999585119069 1.605441536875334 0 0 0
216 72 1 0.5897 1.3402405353036126 12.304119278071518 2.575424991254778 0 0 0
176 59 1 0.5897 -0.7799079511473899 14.667003341964632 5.06064465656164 0 0 0
406 136 2 -1.1794 3.8694138538417118 15.750954691786344 1.8105146948196145 0 0 0
423 141 1 0.5897 -1.9732885221525187 16.47816433515712 3.8793936070288395 1 0 0
177 59 1 0.5897 0.6039104003378979 14.053080696947232 5.070396910307885 0 0 0
223 75 2 -1.1794 -0.3539549375130444 11.974515038884432 3.0170287043356874 0 0 0
421 141 2 -1.1794 -1.968893175250179 16.20774754028135 4.797739963652252 1 0 0
179 60 1 0.5897 2.5516999765189645 13.242714167397772 5.311129755980659 0 0 0
369 123 1 0.5897 1.448812042427802 16.806839881439956 3.418232797983192 0 0 0
425 142 1 0.5897 -3.8768436860608206 16.060319462827 4.937355336362878 1 0 0
327 109 1 0.5897 -3.906070681887333 13.046325709813141 5.635746764241654 1 0 0
211 71 2 -1.1794 -0.1919407110687681 12.313771150541633 7.329440159217465 0 0 0
212 71 1 0.5897 -0.2771018580078497 12.876015656012306 8.099545390233663 0 0 0
213 71 1 0.5897 -0.1764429222725239 12.920832176249807 6.5894072908024155 0 0 0
370 124 2 -1.1794 0.3378021500571293 16.39670072386354 7.088319980336387 0 0 0
267 89 1 0.5897 -3.7120261678930255 12.593386626221331 8.585003520065388 1 0 0
325 109 2 -1.1794 -3.530020391472589 12.550340459588412 4.90843217595759 1 0 0
405 135 1 0.5897 -2.1757850283746665 16.156163460507244 8.619673713944179 0 0 0
234 78 1 0.5897 1.5064019390130383 15.275483692498486 7.680015096958862 0 0 0
184 62 2 -1.1794 5.3350644861945735 12.45387733967218 0.07941242554866285 0 0 0
233 78 1 0.5897 2.8384010127331365 14.581080653867952 7.491572683275327 0 0 0
372 124 1 0.5897 0.35163792289838103 16.965354632623626 6.318344139263889 0 0 0
306 102 1 0.5897 -4.467815544021123 11.354913618705554 4.13522814153122 1 0 0
268 90 2 -1.1794 -3.0739473187525403 12.53354856375946 0.2418786003381702 1 0 0
228 76 1 0.5897 2.1899640894988943 11.376119538805696 5.795273686019758 0 0 0
340 114 2 -1.1794 3.58080492806563 16.381246403119697 5.373195333048239 0 0 0
769 257 2 -1.1794 -0.1974715935072342 12.928034508125508 0.02686674958429345 1 0 1
770 257 1 0.5897 -1.0860604966576535 12.617657239592155 0.20122818388316255 1 0 1
265 89 2 -1.1794 -3.611819953454109 12.374426562170742 9.511570047845408 1 0 0
771 257 1 0.5897 0.34826635892137414 12.14473171965421 0.09631550021982581 1 0 1
266 89 1 0.5897 -3.014360857567959 11.626628252026839 9.51815451993358 1 0 0
910 304 2 -1.1794 0.8610752087141647 15.984262270824964 11.076401569047622 0 0 0
1005 335 1 0.5897 -4.391585003606538 16.16573485313397 10.431799042555545 1 0 0
927 309 1 0.5897 -5.50471867950242 16.67204438383228 14.965902479102425 1 0 0
718 240 2 -1.1794 -1.2324610347751555 12.274092506090323 12.14174416977419 0 0 0
831 277 1 0.5897 -7.412095541556782 11.925917246212398 14.036025403738611 1 0 0
720 240 1 0.5897 -1.1908142572768616 12.933332340217424 12.834624636386526 0 0 0
911 304 1 0.5897 0.10747083056680218 16.12066488380321 11.650721293226992 0 0 0
873 291 1 0.5897 -2.2135726595693965 15.701470927876047 11.893201807449177 0 0 0
830 277 1 0.5897 -7.254157554227764 12.883383745645851 15.198237260365586 1 0 0
251 84 1 0.5897 -4.138666630477575 14.366879106380072 18.93328176873061 0 0 -1
729 243 1 0.5897 -4.418970491918769 12.429932987442607 13.46415679970143 0 0 0
844 282 2 -1.1794 0.5741171564563929 16.029861910007817 14.746457410441213 0 0 0
755 252 1 0.5897 -0.20145509280171048 14.503165443324631 10.109134658895929 0 0 0
784 262 2 -1.1794 -6.33241401905291 14.073305034527413 12.069765248437836 1 0 0
829 277 2 -1.1794 -6.827195768534905 12.595275353532166 14.391298982976977 1 0 0
719 240 1 0.5897 -0.9327825381008088 12.732009467601964 11.356276171812281 0 0 0
786 262 1 0.5897 -6.638713437456181 13.706007341848363 12.899071971561044 1 0 0
817 273 2 -1.1794 -3.6624011130438285 14.642283195112375 11.029971227976242 1 0 0
818 273 1 0.5897 -4.448552458164025 14.390922626969523 11.514899066930987 1 0 0
819 273 1 0.5897 -3.4764208419121805 13.890160632379844 10.467770507432604 1 0 0
737 246 1 0.5897 -0.4935310753951647 15.36814216837315 18.398964064660124 0 0 0
730 244 2 -1.1794 -0.7862417596865141 11.706924767245843 15.963245139239607 0 0 0
679 227 2 -1.1794 -3.9111498738720956 14.02852559983888 14.752727573583842 0 0 0
1003 335 2 -1.1794 -5.104950024666526 16.687868028221274 10.064693077735562 1 0 0
684 228 1 0.5897 -0.5066061935564532 14.622361970202366 14.241314698036122 0 0 0
682 228 2 -1.1794 -1.1451050963061906 13.912686260490734 14.17057937812868 0 0 0
688 230 2 -1.1794 2.24009663470032 12.397220484497721 9.675366123421652 0 0 0
683 228 1 0.5897 -0.8256034228355951 13.24146041107546 14.773647623038713 0 0 0
926 309 1 0.5897 -5.034573678279429 15.359728604946643 14.375308623367221 1 0 0
930 310 1 0.5897 -7.467593634803795 16.05244405390304 14.324241116374417 1 0 0
876 292 1 0.5897 -2.166481399558082 15.708451274989056 16.84890349097229 0 0 0
681 227 1 0.5897 -3.8743179821357323 13.565649372137939 15.589891679625886 0 0 0
907 303 2 -1.1794 -5.166880700446736 15.496548834180139 17.874197468092646 0 0 0
925 309 2 -1.1794 -5.75863393041066 15.985256764195352 14.349262588983905 1 0 0
680 227 1 0.5897 -3.005436298338182 14.286438830709828 14.581016976300461 0 0 0
908 303 1 0.5897 -5.791828428332668 14.918887899795441 17.43588174453177 0 0 0
785 262 1 0.5897 -6.953282790594733 14.775101294763209 11.874228124551085 1 0 0
806 269 1 0.5897 -5.598742330965033 11.500529121062145 15.207274196998313 1 0 0
715 239 2 -1.1794 -3.3562089905891934 12.52661328038616 17.053011596919262 0 0 0
716 239 1 0.5897 -3.2837712189590933 12.8788494740642 17.94024607106723 0 0 0
871 291 2 -1.1794 -1.6406132830317448 16.44061589293311 12.097453864857142 0 0 0
874 292 2 -1.1794 -2.830633317276071 16.393500539046354 16.772661402669193 0 0 0
736 246 2 -1.1794 -0.857379664333199 14.676970131421246 17.84552855300569 0 0 0
875 292 1 0.5897 -2.6664043745749266 16.792974098320855 15.91830416360111 0 0 0
738 246 1 0.5897 -0.11752911273957256 14.378776471411358 17.316350459188364 0 0 0
909 303 1 0.5897 -4.534290134680669 15.726313710047275 17.193421093444105 0 0 0
781 261 2 -1.1794 -7.335407015748468 13.94216341525411 16.774746815565234 1 0 0
782 261 1 0.5897 -7.05395754043399 13.264049729023679 17.388950843853834 1 0 0
185 62 1 0.5897 -1.0640614299595779 13.214643313691978 18.74907014085806 0 0 -1
717 239 1 0.5897 -2.4788592019635747 12.20106768801066 16.851660929455896 0 0 0
783 261 1 0.5897 -8.144153317574041 14.287546783923734 17.15280910452479 1 0 0
728 243 1 0.5897 -3.132743531118731 12.146515075741277 12.717529590332289 0 0 0
912 304 1 0.5897 1.502064891527013 15.532106455734283 11.625045365306839 0 0 0
846 282 1 0.5897 0.30085146344255165 16.794732345038216 14.239906385556724 0 0 0
727 243 2 -1.1794 -3.986403838680558 11.76689497657166 12.926037864847437 0 0 0
773 258 1 0.5897 -6.4471146890050814 12.973908099742655 10.70472999182715 1 0 0
807 269 1 0.5897 -4.454028014102619 11.427948846383124 16.195525578370596 1 0 0