LAMMPS data file via write_data, version 30 Jul 2021, timestep = 6750000

864 atoms
2 atom types
576 bonds
1 bond types
288 angles
1 angle types

0.08850849013287387 18.119063909867283 xlo xhi
0.10160687376956723 23.527570926228584 ylo yhi
0.06561913401118247 22.147576665981532 zlo zhi

Masses

1 1.00794
2 15.9994

Atoms # full

707 1 1 0.5897 2.720802739554928 1.7802059355684365 4.080416307891952 0 0 0
706 1 2 -1.1794 2.9180918951833363 1.865210546904453 3.1476986066070785 0 0 0
30 1 1 0.5897 5.465346876325462 3.733485874685469 2.3817921417434595 0 0 0
708 1 1 0.5897 2.1933729156247357 2.3818468917148743 2.7952804959328827 0 0 0
29 1 1 0.5897 4.5125775474864644 2.5568808944540335 2.3802219510697826 0 0 0
28 1 2 -1.1794 5.350622693675631 2.8528306387065085 2.0246355328265784 0 0 0
495 1 1 0.5897 8.156707497023863 1.7808354041763546 2.767296309763515 0 0 0
136 1 2 -1.1794 5.428833442974067 5.569062096189067 2.864575901590499 0 0 0
846 1 1 0.5897 7.007302119386033 1.5660590519813984 4.711892805239114 0 0 0
494 1 1 0.5897 6.650242112211649 1.6339012263467885 2.8030363288059994 0 0 0
493 1 2 -1.1794 7.456511725964787 1.2524837930646238 3.1505904512550065 0 0 0
597 1 1 0.5897 0.8752163468302115 5.816439160190197 4.027487233572771 0 0 0
3 1 1 0.5897 0.8158917340939927 4.006757984726381 2.4656950092254752 0 0 0
137 1 1 0.5897 5.201082734978596 5.605494664200833 3.793513640087543 0 0 0
1 1 2 -1.1794 0.738276052168672 3.1325031735182853 2.0836890465075055 0 0 0
668 1 1 0.5897 5.048499128865126 2.8502617859643276 0.14627462863804258 0 0 0
188 1 1 0.5897 3.1424170890087537 0.19483225025669842 2.50720419716745 0 1 0
20 1 1 0.5897 0.6165417918810803 3.2318653428182578 0.3161890306922941 0 0 0
489 1 1 0.5897 2.682138518766362 0.817570400780591 6.290260465187001 0 0 0
83 1 1 0.5897 4.141097972871671 2.5941775048159874 6.389446534806878 0 0 0
356 1 1 0.5897 7.40243283927903 0.8186863044098042 10.228210368829153 0 0 0
673 1 2 -1.1794 3.113802032299702 1.930467085553916 10.647302994319043 0 0 0
844 1 2 -1.1794 6.840101147436319 1.682414563461463 5.647102563231861 0 0 0
488 1 1 0.5897 1.843640256189602 2.075849171817078 6.213942679450595 0 0 0
82 1 2 -1.1794 4.868459973266809 3.09536633156717 6.758364099949107 0 0 0
487 1 2 -1.1794 2.6612464326182605 1.690692194048554 5.89846759098773 0 0 0
35 1 1 0.5897 0.9517977520089265 4.354300349220849 10.005340732837142 0 0 0
676 1 2 -1.1794 5.533338208324097 5.579114085844483 10.710642783804968 0 0 0
355 1 2 -1.1794 7.651542969073088 1.7072659412222264 10.482523690565987 0 0 0
274 1 2 -1.1794 5.301951100544171 2.9545896379300958 9.486899922327975 0 0 0
678 1 1 0.5897 5.3060277991399705 4.731470577399822 10.328389570789843 0 0 0
845 1 1 0.5897 7.030956768211516 0.8275341793828559 6.033146874872049 0 0 0
36 1 1 0.5897 1.5900296563496354 2.991552219399889 10.171735092728351 0 0 0
686 1 1 0.5897 4.732805359689741 5.11302243904627 5.993449443528723 0 0 0
674 1 1 0.5897 3.809667766572634 2.42444618558152 10.213574378015025 0 0 0
785 1 1 0.5897 0.609610467223754 3.2156541782219574 8.003884130137834 0 0 0
276 1 1 0.5897 6.109833253300141 2.4708485886909872 9.659181710741526 0 0 0
675 1 1 0.5897 3.0766794837994698 1.1003850738706418 10.17198787601703 0 0 0
275 1 1 0.5897 5.298833301932431 3.086602272147037 8.538900978078193 0 0 0
84 1 1 0.5897 5.652481013252434 2.68359991776237 6.394909729688343 0 0 0
784 1 2 -1.1794 0.6301816636841353 3.183097241957635 7.047528405751944 0 0 0
34 1 2 -1.1794 0.8883616170297866 3.4471223542956486 9.706523999180598 0 0 0
183 1 1 0.5897 0.7341803105213909 4.9216445764755266 6.333513028793753 0 0 0
176 1 1 0.5897 9.101280337902917 2.507859683817187 9.677946453799313 0 0 0
419 1 1 0.5897 8.628329122045873 2.4560871436473106 6.058186327285549 0 0 0
181 1 2 -1.1794 0.7082656531826889 5.716145157799106 5.8002761032254435 0 0 0
677 1 1 0.5897 6.346226522326288 5.83009457487256 10.271843731937672 0 0 0
165 1 1 0.5897 9.023340412694262 5.93361215549168 5.798721181238544 0 0 0
166 1 2 -1.1794 3.1513325489981447 2.536303000640662 13.442092480449183 0 0 0
167 1 1 0.5897 3.0157454010146405 2.3367347556446307 12.515860982035292 0 0 0
457 1 2 -1.1794 5.602469303076663 3.298479942491124 14.224506752735076 0 0 0
458 1 1 0.5897 6.377694500305197 2.938898217155089 13.79316810156925 0 0 0
459 1 1 0.5897 4.876597879303336 2.769068386362092 13.894095584638517 0 0 0
762 1 1 0.5897 5.453544454922405 4.927197753358729 13.644154129500134 0 0 0
594 1 1 0.5897 8.558794893705743 2.2919182090954475 13.426507299982564 0 0 0
168 1 1 0.5897 2.3249075483434978 2.926478214665411 13.7269535788643 0 0 0
71 1 1 0.5897 5.3452631706716955 3.154933686745044 15.974935911786254 0 0 0
592 1 2 -1.1794 7.695614193818861 2.018867625003177 13.115500835181567 0 0 0
468 1 1 0.5897 0.38164925744762823 3.15320934022011 15.196101369553805 0 0 0
365 1 1 0.5897 0.5822928440709279 5.09073177279089 13.907049791787523 0 0 0
593 1 1 0.5897 7.637363921715958 1.0929657768632497 13.3513256336371 0 0 0
737 1 1 0.5897 2.768448747503186 0.6751018099487273 13.963296214659291 0 1 0
466 1 2 -1.1794 0.616674243618831 3.170654398189255 14.268403752020646 0 0 0
364 1 2 -1.1794 0.6099821967125442 5.915902598372201 13.422715623757984 0 0 0
761 1 1 0.5897 5.33869927392352 5.654663414048498 12.32152668647927 0 0 0
760 1 2 -1.1794 5.235558048393448 5.778670955873198 13.264974725917547 0 0 0
357 1 1 0.5897 7.606146131816251 1.7048484993025297 11.43857655875729 0 0 0
133 1 2 -1.1794 0.48715901609019563 2.9275389965133045 16.88933816584325 0 0 0
40 1 2 -1.1794 7.30722538538388 1.377037033517465 20.183071330589996 0 0 0
290 1 1 0.5897 2.9326476209288357 0.5049770521923136 17.412558437871848 0 0 0
755 1 1 0.5897 7.684886754911247 1.7191937199766651 18.49956268664907 0 0 0
754 1 2 -1.1794 7.741249157185932 1.8731466923035482 17.556569651466706 0 0 0
571 1 2 -1.1794 0.5533819898809595 5.603562743430997 17.65959015615976 0 0 0
289 1 2 -1.1794 2.9212331172829713 1.4403438005872113 17.615668483230085 0 0 0
19 1 2 -1.1794 0.3884553027932983 3.2421771939060045 21.468636706064068 0 0 0
143 1 1 0.5897 4.722847877219879 5.021646012356595 21.104634636808573 0 0 0
569 1 1 0.5897 1.6916474742392913 2.2534056576418675 20.705484567180022 0 0 0
646 1 2 -1.1794 0.1912705423877677 5.798030195558236 20.411052715149168 0 0 0
570 1 1 0.5897 2.6015332220756457 1.8583220238143978 19.561849313354305 0 0 0
278 1 1 0.5897 5.37767269800209 4.866033112314029 17.45290554130455 0 0 0
669 1 1 0.5897 4.044629833330996 2.675644874046882 21.108552080924394 0 0 0
291 1 1 0.5897 2.051260661115604 1.7341041099644983 17.34508021772219 0 0 0
134 1 1 0.5897 0.5818402722104625 3.797883350880076 17.276418392549598 0 0 0
568 1 2 -1.1794 2.549391392609578 1.872211877657228 20.51746874764967 0 0 0
41 1 1 0.5897 6.585555130999211 1.9662110187356712 20.403180821131006 0 0 0
648 1 1 0.5897 0.30247647935150973 5.730155465682294 19.462829342331588 0 0 0
756 1 1 0.5897 6.917628906125411 2.3076471253450617 17.334718419316573 0 0 0
42 1 1 0.5897 7.200716887371656 0.6344688047693186 20.77763890437791 0 0 0
21 1 1 0.5897 0.2794317879105873 4.169701513729319 21.25855508935686 0 0 0
667 1 2 -1.1794 4.909627420638799 3.038243015433634 21.30004523746669 0 0 0
72 1 1 0.5897 4.4822806090985585 2.646986342965892 17.110327201658105 0 0 0
142 1 2 -1.1794 4.898736329083082 5.906678517211528 20.785106736226837 0 0 0
70 1 2 -1.1794 5.300717972348278 3.1095786575464572 16.929952817065406 0 0 0
323 1 1 0.5897 7.492726724707542 0.38772043807930795 16.73315063565314 0 1 0
360 1 1 0.5897 8.66449939239268 2.6471263672671137 21.008591512153934 0 0 0
81 1 1 0.5897 2.8317378192183553 0.2449200095867947 21.14440732847556 0 1 0
277 1 2 -1.1794 5.164325142581153 5.630727412566264 17.987669357139737 0 0 0
144 1 1 0.5897 5.0305179876175465 5.799901083659197 19.843111263824692 0 0 0
773 1 1 0.5897 8.985702381333477 10.39742994622547 2.528519581555413 0 0 0
123 1 1 0.5897 3.447823890682719 8.759750458031874 2.4301979699962577 0 0 0
121 1 2 -1.1794 3.4479405546700375 9.67085448062381 2.723771865207565 0 0 0
122 1 1 0.5897 3.1455113267493764 9.630658472254547 3.6309959388234634 0 0 0
44 1 1 0.5897 1.7760471559466158 10.555589809056663 2.3650664181491137 0 0 0
218 1 1 0.5897 6.16575707281225 10.666720172718415 2.060294832266586 0 0 0
396 1 1 0.5897 0.388212298176199 10.894214498945676 0.3790708793978194 0 0 0
219 1 1 0.5897 4.659569508596315 10.527748002766323 2.126492909932833 0 0 0
43 1 2 -1.1794 0.8406442487019306 10.758982698694552 2.3715786816754814 0 0 0
217 1 2 -1.1794 5.353535354834986 11.088667966825136 1.7799290356924842 0 0 0
254 1 1 0.5897 2.995694699707169 7.169208393182948 0.89902060676292 0 0 0
415 1 2 -1.1794 7.605056680850518 7.15826118466658 2.006365981977531 0 0 0
416 1 1 0.5897 6.936386266224605 6.579818166350071 2.373251164054881 0 0 0
66 1 1 0.5897 7.258166592012026 9.665340545539253 3.968430033388301 0 0 0
65 1 1 0.5897 7.479694157194453 8.870186860387417 2.699374832730708 0 0 0
64 1 2 -1.1794 7.416793790979569 9.766349845821582 3.0299296280611143 0 0 0
253 1 2 -1.1794 3.382551707004295 7.04580757782236 1.7657742482819345 0 0 0
417 1 1 0.5897 8.435857956175948 6.7553235457978 2.258885817230284 0 0 0
255 1 1 0.5897 2.650277393905296 6.773131121650918 2.318682062575473 0 0 0
138 1 1 0.5897 4.924405098126952 6.278210601448481 2.4658824334950786 0 0 0
45 1 1 0.5897 0.7914665026657776 11.65131117613425 2.7145821571713458 0 0 0
162 1 1 0.5897 7.326913828032951 7.084826145668248 0.1385790365840119 0 0 1
596 1 1 0.5897 0.34148930825631557 6.433952279377901 2.752499101465012 1 0 0
793 1 2 -1.1794 2.696984949590031 10.063719611144158 5.46303362513785 0 0 0
595 1 2 -1.1794 1.1129693207945541 6.001733337815001 3.1190323024311453 0 0 0
256 1 2 -1.1794 2.8496550295016707 9.370540003118805 10.250514286143055 0 0 0
551 1 1 0.5897 0.4115994433746512 11.197872384857357 7.686112411615058 0 0 0
10 1 2 -1.1794 2.8080305872880142 7.3799190543437465 6.4573927906684805 0 0 0
526 1 2 -1.1794 7.581074197904903 6.619357219777925 9.293141170734348 0 0 0
145 1 2 -1.1794 7.69995039467432 6.817119198225061 6.510734819645434 0 0 0
580 1 2 -1.1794 5.093721695809725 10.714278498710987 9.467702381009786 0 0 0
13 1 2 -1.1794 0.6462091887311371 10.890567497293238 9.461339223667881 0 0 0
822 1 1 0.5897 8.017389980905108 9.794283362788196 9.876588086186416 0 0 0
11 1 1 0.5897 2.0372479369611614 6.855696736676458 6.239589098746612 0 0 0
258 1 1 0.5897 3.6230783661839556 9.798757517662583 9.88339642481397 0 0 0
650 1 1 0.5897 3.22978614827181 6.6998630666540535 8.530201223632869 0 0 0
820 1 2 -1.1794 7.269744881617069 9.2527148581228 10.129770586727078 0 0 0
527 1 1 0.5897 7.586634507543836 7.51599824811464 9.628230996174889 0 0 0
15 1 1 0.5897 1.3676244447070316 10.267455882745304 9.548768619443685 0 0 0
685 1 2 -1.1794 5.032697867434975 5.964759695909847 5.675798974193398 0 0 0
581 1 1 0.5897 5.900526179497496 10.247492174347444 9.685743311104297 0 0 0
147 1 1 0.5897 7.646386209262119 6.665166067975268 7.4542130491983984 0 0 0
114 1 1 0.5897 1.7287439778573614 6.328472431050794 10.455878116964021 0 0 0
649 1 2 -1.1794 3.1417540429390116 6.730322591315512 9.48279051454294 0 0 0
577 1 2 -1.1794 5.170651405195544 10.952437642561382 6.79068583160599 0 0 0
714 1 1 0.5897 7.490825586066409 8.58067961140145 5.883782380275923 0 0 0
12 1 1 0.5897 2.6538104841732992 8.222471733610995 6.03008738353493 0 0 0
578 1 1 0.5897 5.830811542798407 10.463821143352716 6.299014473862922 0 0 0
257 1 1 0.5897 2.9100757220713596 8.464703432282784 9.947045412414115 0 0 0
528 1 1 0.5897 8.374458890994198 6.2233949495651455 9.65382276701103 0 0 0
795 1 1 0.5897 3.4452577702837326 10.490240232719312 5.8808104194410475 0 0 0
146 1 1 0.5897 6.901223821198594 6.42413004344372 6.158684867391452 0 0 0
713 1 1 0.5897 7.833653131823133 10.029451377857661 6.158745426895985 0 0 0
550 1 2 -1.1794 0.30554012277140385 11.03067771031935 6.749677247281546 0 0 0
582 1 1 0.5897 5.067937466029007 10.714806484815925 8.510904807438306 0 0 0
651 1 1 0.5897 3.9426758713638344 6.321453197984625 9.810960387418287 0 0 0
687 1 1 0.5897 4.332372408460842 6.571079762432926 5.917180212670462 0 0 0
712 1 2 -1.1794 7.17848598707164 9.47352175961602 5.736840649955504 0 0 0
794 1 1 0.5897 1.9323443520316266 10.435998925578879 5.902415845092968 0 0 0
14 1 1 0.5897 0.9594432843137805 11.683065272047644 9.897359323067427 0 0 0
112 1 2 -1.1794 0.8445531634842033 6.001849275377014 10.622954659981941 0 0 0
821 1 1 0.5897 7.161686023301486 9.415787261095822 11.066703012609741 0 0 0
828 1 1 0.5897 7.352844666798018 7.079777233099797 15.026679586251365 0 0 0
261 1 1 0.5897 1.091461446969468 11.241772269565828 14.725212996818998 0 0 0
332 1 1 0.5897 3.183119347482977 7.980279077970535 13.772889729363468 0 0 0
797 1 1 0.5897 3.3367769997119803 9.521042429945748 12.0411367812675 0 0 0
796 1 2 -1.1794 3.4719572602550897 9.775648129694808 12.953840809110446 0 0 0
798 1 1 0.5897 2.6514306412486315 10.197303829184806 13.209387592510627 0 0 0
722 1 1 0.5897 4.7772708252151554 10.597863218547593 13.752960235391859 0 0 0
827 1 1 0.5897 6.8244804972880395 6.5110460170816005 13.726968380269177 0 0 0
333 1 1 0.5897 3.63955632257914 6.538382467187502 13.841613696923451 0 0 0
225 1 1 0.5897 2.8644996858219027 6.787488418163726 15.837599649977504 0 0 0
723 1 1 0.5897 5.399577903618259 10.488358329655414 15.128618804378798 0 0 0
331 1 2 -1.1794 2.998354663677068 7.147691151790178 14.207608619144366 0 0 0
259 1 2 -1.1794 1.2169765987970431 11.11320949260138 13.785078447870825 0 0 0
826 1 2 -1.1794 7.548666206670616 7.019864002643062 14.09167657597616 0 0 0
475 1 2 -1.1794 7.568191216498654 9.577059407015005 12.985347566524732 0 0 0
476 1 1 0.5897 6.914186293674079 9.980595009327589 13.55606235960488 0 0 0
477 1 1 0.5897 7.5914773744070505 8.65976061360107 13.258060181185574 0 0 0
721 1 2 -1.1794 5.550209699507816 10.853179095851987 14.256638133358559 0 0 0
260 1 1 0.5897 0.4011119538682838 10.710978187877915 13.486849539599458 0 0 0
851 1 1 0.5897 8.960825084358905 5.98848397070879 13.375530944044629 0 0 0
366 1 1 0.5897 1.3348481572837272 6.40132933752453 13.816755552614346 0 0 0
445 1 2 -1.1794 0.6677176058684354 11.009175424588957 16.340757780379384 0 0 0
113 1 1 0.5897 0.780947224712722 5.958814624790159 11.57700235104374 0 0 0
160 1 2 -1.1794 7.205517258195841 7.134910333480901 21.272453068841287 0 0 0
363 1 1 0.5897 5.189391595588178 10.936690989833393 21.963102783600952 0 0 0
7 1 2 -1.1794 7.593536842053568 9.586727668710731 17.704448298110762 0 0 0
139 1 2 -1.1794 7.548415094290809 9.701263452417242 20.301118337499155 0 0 0
462 1 1 0.5897 8.790995629220482 6.193442145381524 20.70716059958457 0 0 0
5 1 1 0.5897 3.4298149633885564 6.86887721350691 21.171887536016616 0 0 0
141 1 1 0.5897 7.306235529304233 8.79183357161719 20.476046542511774 0 0 0
287 1 1 0.5897 8.717005498111106 10.699988265861377 21.088219070001138 0 0 0
161 1 1 0.5897 6.396433503670984 6.65032464928879 21.108141746857324 0 0 0
627 1 1 0.5897 1.8464389369309202 9.857581494621721 17.30820088408224 0 0 0
690 1 1 0.5897 1.9432081995148753 10.495891188939721 20.6230539143558 0 0 0
625 1 2 -1.1794 2.6488228828619733 9.448082962708588 17.632037987211696 0 0 0
688 1 2 -1.1794 2.641456353553998 9.880249804462634 20.399861619257315 0 0 0
140 1 1 0.5897 6.789781801429329 10.210736139713138 20.586186702534068 0 0 0
521 1 1 0.5897 6.472552729027625 6.7872941660142025 17.348793008104685 0 0 0
689 1 1 0.5897 3.448257413134767 10.38552113364247 20.500624255368713 0 0 0
681 1 1 0.5897 5.0181072104430395 11.351035608375017 17.31337853831699 0 0 0
626 1 1 0.5897 2.6686326740609405 9.663399639417941 18.564452224521588 0 0 0
522 1 1 0.5897 7.233901532807323 8.073772611924491 17.109116714736768 0 0 0
6 1 1 0.5897 2.6661969914518737 8.15166133918158 20.91994943067854 0 0 0
711 1 1 0.5897 8.914425307637277 6.536995705607461 17.25332844927095 0 0 0
8 1 1 0.5897 7.544158374831921 9.563121635865445 18.66001241699606 0 0 0
4 1 2 -1.1794 2.5539255176167193 7.25142141950225 21.22531568109216 0 0 0
361 1 2 -1.1794 5.177528030158929 10.971695083474536 21.006686845403074 0 0 0
279 1 1 0.5897 4.360628345935549 5.977805389148499 17.60044311339756 0 0 0
9 1 1 0.5897 6.818997525755702 10.081243614374577 17.436294708293417 0 0 0
394 1 2 -1.1794 0.45538870288842254 11.118446139253766 21.532952015779063 0 0 0
680 1 1 0.5897 4.19737182936058 10.084738087989512 17.19070145701374 0 0 0
246 1 1 0.5897 9.046143314045363 10.483246348814527 17.209697540640878 0 0 0
224 1 1 0.5897 2.903157925154522 7.583311920609702 17.124815190273214 0 0 0
647 1 1 0.5897 1.011728168108991 6.180757089613002 20.72207950209472 0 0 0
223 1 2 -1.1794 2.898883990031659 6.686990923674176 16.78883200462735 0 0 0
679 1 2 -1.1794 5.059505900156708 10.450315014019115 16.992012861460196 0 0 0
572 1 1 0.5897 1.3492816016158387 6.036139976768723 17.35012656151127 0 0 0
520 1 2 -1.1794 7.186986934887387 7.158933054429701 16.831338614007567 0 0 0
374 1 1 0.5897 0.7265858307093354 13.57105707797621 3.8072319217715247 0 0 0
173 1 1 0.5897 4.448062685323187 13.924115281632812 2.7303001125023503 0 0 0
172 1 2 -1.1794 5.3214744780092165 13.592521119641942 2.9391100109988932 0 0 0
293 1 1 0.5897 2.728914936095694 16.68617842743852 2.6503672006430854 0 0 0
558 1 1 0.5897 2.9571012333029643 15.02390270103901 1.1376572919112073 0 0 0
556 1 2 -1.1794 3.0603183653518538 14.905829422740034 2.0818557932666395 0 0 0
557 1 1 0.5897 2.3736199493998424 14.283789209277463 2.3223936380893613 0 0 0
478 1 2 -1.1794 7.430762178299115 14.926500747905449 1.8643307927887036 0 0 0
373 1 2 -1.1794 0.8498548136036905 13.524063615401074 2.859227456098259 0 0 0
174 1 1 0.5897 5.41925628690703 12.812868293618465 2.392458748217713 0 0 0
479 1 1 0.5897 8.15767841814345 14.399948868136761 2.1970051208277406 0 0 0
449 1 1 0.5897 7.427136660292545 16.582689621760032 2.5233522123057552 0 0 0
480 1 1 0.5897 6.654513227617587 14.557722823322065 2.285951502026159 0 0 0
200 1 1 0.5897 5.13502377557175 13.550755559329827 4.723894802731393 0 0 0
448 1 2 -1.1794 7.42482011934909 17.472933414195154 2.875132024462568 0 0 0
308 1 1 0.5897 7.406151076102089 17.066567612580194 4.632499062805716 0 0 0
292 1 2 -1.1794 2.5720893078955127 17.573401424990912 2.973667797838772 0 0 0
294 1 1 0.5897 2.720264155554661 17.51454512120801 3.917429541617256 0 0 0
307 1 2 -1.1794 7.701230037453701 16.98840026750767 5.539665211610879 0 0 0
317 1 1 0.5897 7.213525142683676 14.975534443458477 0.14164013622562166 0 0 0
201 1 1 0.5897 5.902895225660622 13.955429277684404 5.964219106655766 0 0 0
186 1 1 0.5897 7.39571936713752 16.675975939104234 10.130072719450972 0 0 0
766 1 2 -1.1794 1.022477174000918 13.827363884394902 10.300034318688594 0 0 0
656 1 1 0.5897 1.3869728099865948 14.026324544715907 5.744586740302607 0 0 0
811 1 2 -1.1794 3.302581598154206 15.238388697328892 9.594941120536127 0 0 0
184 1 2 -1.1794 7.349034783455352 17.629873584643057 10.195004470863665 0 0 0
813 1 1 0.5897 2.4598880916767483 14.806845295336103 9.736390384441492 0 0 0
17 1 1 0.5897 3.2473769895767512 14.855670353393721 7.642395151764843 0 0 0
384 1 1 0.5897 3.2445382469438333 16.8872569682349 10.46228875619713 0 0 0
377 1 1 0.5897 6.80467078381189 14.498359900409906 9.934341406978044 0 0 0
376 1 2 -1.1794 7.622338431674399 14.830376816513777 9.563497374828756 0 0 0
454 1 2 -1.1794 5.319577720967741 13.500548775609234 10.367445127845501 0 0 0
456 1 1 0.5897 5.286858521584061 12.615822921942964 10.003465556963656 0 0 0
812 1 1 0.5897 3.951904516641944 14.549601906780257 9.737408322629527 0 0 0
18 1 1 0.5897 3.6296507662161894 14.364596347609654 6.262389309325686 0 0 0
768 1 1 0.5897 0.18970984905518995 14.110966378056009 9.922594142503142 0 0 0
16 1 2 -1.1794 2.9692167026285534 14.878815472720818 6.72685283620435 0 0 0
517 1 2 -1.1794 7.37887336933749 14.524158337909984 6.719241315144663 0 0 0
519 1 1 0.5897 8.021916777133661 13.82555732421478 6.597559808904115 0 0 0
378 1 1 0.5897 7.473188013091279 14.833349894120083 8.618058735672511 0 0 0
518 1 1 0.5897 7.817470185732681 15.31246416619649 6.399070748106452 0 0 0
655 1 2 -1.1794 0.5916028841174593 13.50710642465639 5.625583603126148 0 0 0
239 1 1 0.5897 3.085225158829203 16.54087299359513 6.054571817110422 0 0 0
579 1 1 0.5897 5.247061795977608 11.850461693836372 6.468159253750677 0 0 0
238 1 2 -1.1794 3.239372961053541 17.385000316987004 5.630341833471142 0 0 0
240 1 1 0.5897 4.132620734186855 17.62033363251244 5.881543591242868 0 0 0
552 1 1 0.5897 0.5422239755750796 11.857781402466202 6.3299696630583435 0 0 0
199 1 2 -1.1794 5.102568941465146 13.513935362588262 5.679771599896515 0 0 0
429 1 1 0.5897 6.117863691318487 14.050591688900326 13.654317926912663 0 0 0
232 1 2 -1.1794 3.3445204878140826 14.860085747114326 14.15258595668214 0 0 0
234 1 1 0.5897 3.4841796683696966 14.656408168563438 15.077314860182762 0 0 0
606 1 1 0.5897 3.0144897435096776 16.60707576063669 13.853812036045184 0 0 0
427 1 2 -1.1794 5.444710961018321 13.524167780613789 13.222972261030852 0 0 0
233 1 1 0.5897 4.006761796577698 14.345626878072654 13.690945386520308 0 0 0
639 1 1 0.5897 1.6677997827415265 14.372271565169314 13.424526099361854 0 0 0
428 1 1 0.5897 5.614391496164454 12.629344294848687 13.517578265415747 0 0 0
637 1 2 -1.1794 1.0193923464429584 13.815490096863606 12.993397382140875 0 0 0
297 1 1 0.5897 8.425496888208412 14.582692864631026 13.892288354316563 0 0 0
296 1 1 0.5897 7.722824512631313 14.944395941893644 15.183491946571564 0 0 0
295 1 2 -1.1794 7.665810656596625 15.054095565254565 14.234376212740525 0 0 0
270 1 1 0.5897 7.580691482464625 16.77810621379208 13.296726900359708 0 0 0
767 1 1 0.5897 0.8809900064068873 13.86118880386388 11.246050200735793 0 0 0
455 1 1 0.5897 5.281502598300188 13.371652959705363 11.315097114695517 0 0 0
605 1 1 0.5897 2.9423643458286937 17.496922212667805 12.631197149599352 0 0 0
638 1 1 0.5897 1.1305579457488846 12.957002077228777 13.401954287368824 0 0 0
604 1 2 -1.1794 2.969663425057542 17.525459426258486 13.587511530546921 0 0 0
316 1 2 -1.1794 7.12585962665176 14.947194673285397 21.27090351864323 0 0 0
54 1 1 0.5897 0.21816638731979457 14.10427994509913 17.395751978686945 0 0 0
159 1 1 0.5897 7.673531648081996 17.44919419902665 19.57972599458387 0 0 0
452 1 1 0.5897 0.535142914047899 12.84516083286053 20.86845481839968 0 0 0
665 1 1 0.5897 1.8730984181113057 14.736279651693536 21.11727982735873 0 0 0
610 1 2 -1.1794 7.601135595220713 17.45760764239118 17.666704794338457 0 0 0
125 1 1 0.5897 5.330914180099202 13.262322975144869 18.797955439548325 0 0 0
664 1 2 -1.1794 2.6624947654962225 15.133312092637096 21.485529501521146 0 0 0
684 1 1 0.5897 4.012170285034754 14.297174816912056 20.85770402863529 0 0 0
52 1 2 -1.1794 0.9137910602850756 13.53018158694359 17.716446721638505 0 0 0
666 1 1 0.5897 2.720378007301491 15.989790297960026 21.061966146763368 0 0 0
318 1 1 0.5897 7.364055893503757 15.828064230191536 20.981691351613428 0 0 0
126 1 1 0.5897 6.194246626227598 13.471622325367653 17.572123334541605 0 0 0
824 1 1 0.5897 4.012182532953288 14.217732928388877 17.497805872841663 0 0 0
117 1 1 0.5897 8.624246322773859 14.06806224779326 20.798809682907702 0 0 0
451 1 2 -1.1794 0.5308345628417342 13.717105191496001 20.473531415401684 0 0 0
683 1 1 0.5897 5.514418874137777 14.393554392663841 20.69569209588322 0 0 0
51 1 1 0.5897 8.331108535602118 14.406983106064585 17.307398506613033 0 0 0
682 1 2 -1.1794 4.764030142297946 13.838807823021689 20.482274508363883 0 0 0
124 1 2 -1.1794 5.425716283068133 12.993777666594102 17.884165913127593 0 0 0
584 1 1 0.5897 3.1116895738722943 16.47197915759574 17.46223178348406 0 0 0
362 1 1 0.5897 5.0890064515318025 11.902522228570804 20.801698093094444 0 0 0
50 1 1 0.5897 7.509435122602036 15.67650658654976 17.380437494787554 0 0 0
53 1 1 0.5897 0.7411344018163066 13.444663339474797 18.65399514850813 0 0 0
716 1 1 0.5897 2.9075764095332444 17.592692570765273 19.470118851158794 0 0 0
583 1 2 -1.1794 2.956228285346778 17.37705769033255 17.73233332203673 0 0 0
715 1 2 -1.1794 2.895083722440618 17.615916332894052 20.426887402628843 0 0 0
825 1 1 0.5897 2.5135438437463495 14.204454656817454 17.282857644099806 0 0 0
446 1 1 0.5897 0.8101654245606534 11.82981321368932 16.81247501447884 0 0 0
49 1 2 -1.1794 7.460877382789691 14.7574848426542 17.1170946171771 0 0 0
157 1 2 -1.1794 7.557297430952609 17.49977412794017 20.52842969850723 0 0 0
823 1 2 -1.1794 3.3124459801530572 14.659906849575895 17.017016394518347 0 0 0
267 1 1 0.5897 5.970960388223012 21.513314717798316 2.901717986782357 0 0 0
696 1 1 0.5897 1.4756236528126068 21.6592807556543 2.673978134250137 0 0 0
266 1 1 0.5897 4.491611669041069 21.798149718245412 2.7511298806159017 0 0 0
265 1 2 -1.1794 5.10798669938217 21.114390516605418 3.0135945375322057 0 0 0
227 1 1 0.5897 4.146557314332995 18.06306462059686 2.3685114043684594 0 0 0
228 1 1 0.5897 5.019535331958882 19.29709719866984 2.2831341017552274 0 0 0
695 1 1 0.5897 0.5977709796912446 20.426905392037973 2.7270028740997474 0 0 0
343 1 2 -1.1794 0.34177593898550407 18.83404524395705 2.216772611419291 0 0 0
249 1 1 0.5897 5.316477843323864 21.01905582957538 4.954015086088528 0 0 0
226 1 2 -1.1794 4.983006513370047 18.376298530542677 2.0241121689238923 0 0 0
413 1 1 0.5897 0.9644808570816304 21.23726061818232 4.704362821232846 0 0 0
817 1 2 -1.1794 7.608749859925939 22.04309822801853 2.3338040751466522 0 0 0
345 1 1 0.5897 0.4537296466926398 18.755195373924074 1.2694864208638919 0 0 0
189 1 1 0.5897 3.0765647740401647 22.781893851018275 1.2487783831565846 0 0 0
344 1 1 0.5897 1.1252058406701253 18.426057029506637 2.585741339849053 0 0 0
321 1 1 0.5897 8.818297256045092 18.297619910070935 2.0958635836085664 0 0 0
818 1 1 0.5897 8.40721651329001 21.582838125699283 2.5925768650198293 0 0 0
187 1 2 -1.1794 3.0578082842184275 22.716968003117174 2.203526686863789 0 0 0
450 1 1 0.5897 6.572208643744458 17.828165816669937 2.6236217263264474 0 0 0
694 1 2 -1.1794 0.6122014920893435 21.356392918852777 2.955340174429026 0 0 0
819 1 1 0.5897 7.749449389617295 22.946219723921693 2.618171767243467 0 -1 0
602 1 1 0.5897 5.065044503712504 18.828600531304183 0.15118661945255343 0 0 0
498 1 1 0.5897 7.636127168781829 22.234973779421736 0.5234289590407878 0 0 0
94 1 2 -1.1794 0.7647197298277314 21.241010168606564 10.258039268592828 0 0 0
342 1 1 0.5897 1.1468371478272408 18.770980160084534 7.5682628781800325 0 0 0
701 1 1 0.5897 3.066299895510587 22.709559736488686 7.688470872685705 0 0 0
32 1 1 0.5897 7.983959009504096 22.071480660755157 6.424655456371746 0 0 0
383 1 1 0.5897 3.772276738194662 18.299873320944123 10.327426381543335 0 0 0
412 1 2 -1.1794 1.0186060743034395 21.31360499104477 5.656925433225139 0 0 0
414 1 1 0.5897 0.9704728432508815 20.411379369827642 5.973084308047333 0 0 0
405 1 1 0.5897 0.72763095633926 19.43987479983705 9.69791905582794 0 0 0
39 1 1 0.5897 3.912023360779257 22.29316935387071 9.854086784006165 0 0 0
37 1 2 -1.1794 3.14065474348456 22.76065543621867 9.53348077667313 0 0 0
86 1 1 0.5897 7.078138491244129 22.749771001189735 8.571782663206294 0 0 0
385 1 2 -1.1794 5.6008190923928645 18.1558028939953 6.590695416133377 0 0 0
100 1 2 -1.1794 5.262868992892069 18.901560718893748 9.234499988984075 0 0 0
102 1 1 0.5897 5.3356681915518775 18.749130900160367 8.29237953771391 0 0 0
33 1 1 0.5897 6.470550546649319 22.030151669372053 6.410549523956017 0 0 0
555 1 1 0.5897 5.127116868180197 20.4459854380286 10.174357369097164 0 0 0
341 1 1 0.5897 1.9982656854849767 18.426072652156854 6.3649620893058705 0 0 0
38 1 1 0.5897 2.406109682378237 22.1834415783893 9.742333860738007 0 0 0
248 1 1 0.5897 4.587612896594381 21.263375738249685 6.258163177224609 0 0 0
403 1 2 -1.1794 0.8431293057275256 18.555256742385716 9.350940361620962 0 0 0
31 1 2 -1.1794 7.2105267605023 22.572856833508098 6.68306423936575 0 0 0
404 1 1 0.5897 1.5640400805769732 18.1887539584814 9.863055053346796 0 0 0
85 1 2 -1.1794 7.264010198217894 22.596943423605616 9.498178859225876 0 0 0
554 1 1 0.5897 5.932878781672396 21.725346493238725 10.252751557873482 0 0 0
101 1 1 0.5897 6.052756572212965 18.506031794130983 9.603272068000066 0 0 0
700 1 2 -1.1794 3.2107362156236814 22.627928600517976 6.745820431756162 0 0 0
387 1 1 0.5897 5.790766282725254 19.07325969644264 6.394462202954975 0 0 0
87 1 1 0.5897 8.141680668267242 22.2148525250471 9.50705243368288 0 0 0
702 1 1 0.5897 2.455265878470222 22.13251179795082 6.429334368749518 0 0 0
553 1 2 -1.1794 5.1550698496161385 21.297441259954063 10.610866169054955 0 0 0
340 1 2 -1.1794 1.1176878213537245 18.707283296814516 6.613699253384059 0 0 0
247 1 2 -1.1794 5.339860671388319 20.802898054478355 5.886129173838076 0 0 0
382 1 2 -1.1794 3.1077016908436343 17.779988982649016 10.779499115301947 0 0 0
185 1 1 0.5897 8.197935259390857 17.93411717388235 9.873825044605132 0 0 0
386 1 1 0.5897 6.33264160311901 17.671982755886965 6.207671966815386 0 0 0
309 1 1 0.5897 8.362227008872274 17.673941808292227 5.636969803144051 0 0 0
503 1 1 0.5897 1.6450869652387416 18.701019026980283 14.288804759146107 0 0 0
88 1 2 -1.1794 4.882678257797894 21.469929726613827 13.462920492667848 0 0 0
381 1 1 0.5897 1.5532954357150481 22.26279437911343 13.282800053171515 0 0 0
90 1 1 0.5897 4.97882617315895 20.55548360018689 13.7291060849377 0 0 0
763 1 2 -1.1794 5.119100272323895 18.955056146632998 14.281197460719696 0 0 0
738 1 1 0.5897 3.5751447187584864 22.826236266897403 14.090545814313415 0 0 0
89 1 1 0.5897 4.772405639141526 21.432948319142056 12.51287342456503 0 0 0
736 1 2 -1.1794 2.716609722269865 23.2015623999688 14.2865440862384 0 0 0
789 1 1 0.5897 6.535460370542651 22.334555181310236 13.554561267459045 0 0 0
504 1 1 0.5897 0.6668579594254893 19.192637965396948 15.33441426262048 0 0 0
380 1 1 0.5897 0.9633495246715245 20.86990400747434 13.3455425951259 0 0 0
765 1 1 0.5897 5.911982103854193 18.671777301189664 13.825775931913151 0 0 0
787 1 2 -1.1794 7.359337061819114 22.783657981073127 13.744055135058797 0 0 0