LAMMPS (30 Jul 2021)
Processor partition = 0
  using 2 OpenMP thread(s) per MPI task
using multi-threaded neighbor list subroutines
variable        pid world 0 1
variable        phase world IceII IceVI

shell cd ${phase}
shell cd IceII
include Restart.lmp
echo both
log log.lammps
#include		in.partitions
include		in.temp
variable        temperature equal 30.49
variable	tempDamp equal 100.0
include		in.pressure
variable        pressure equal 8950.3
variable        pressureDamp equal 1000.0 # This is 1 ps
include		in.seed
variable        seed equal 745823

units		real
atom_style	full
box tilt large
read_restart	restart.lmp.${pid}
read_restart	restart.lmp.0
Reading restart file ...
  restart file = 30 Jul 2021, LAMMPS = 30 Jul 2021
  restoring atom style full from restart
  triclinic box = (-10.505566 -9.0532281 0.26520491) to (12.485566 12.043226 21.594794) with tilt (-9.1541575 1.7506854 2.7433662)
  4 by 2 by 4 MPI processor grid
  restoring pair style lj/cut/tip4p/long/omp from restart
  restoring bond style harmonic/omp from restart
  restoring angle style harmonic/omp from restart
  1296 atoms
  864 bonds
  432 angles
Finding 1-2 1-3 1-4 neighbors ...
  special bond factors lj:    0        0        0       
  special bond factors coul:  0        0        0       
     2 = max # of 1-2 neighbors
     1 = max # of 1-3 neighbors
     1 = max # of 1-4 neighbors
     2 = max # of special neighbors
  special bonds CPU = 0.002 seconds
  read_restart CPU = 0.009 seconds
include 	in.setup
variable	out_freq equal 1000
variable	out_freq2 equal 10000
variable	out_freq3 equal 1000

timestep	2.0

neigh_modify    delay 7 every 1

include		in.tip4p
# This is TIP4P/Ice

# create groups ###
group ox type 2
432 atoms in group ox
group hy type 1
864 atoms in group hy

# set charges - beside manually ###
set group ox charge -1.1794
Setting atom values ...
  432 settings made for charge
set group hy charge 0.5897
Setting atom values ...
  864 settings made for charge

# ### TIP3P Potential Parameters ###
pair_style lj/cut/tip4p/long/omp 2 1 1 1 0.1577 8.5
pair_coeff 1 1*2 0.000 0.000
pair_coeff 2 2 0.21084 3.1668
bond_style  harmonic
bond_coeff  1 450 0.9572
angle_style harmonic
angle_coeff 1 55 104.52
kspace_style pppm/tip4p/omp 1.0e-5
pair_modify tail yes

thermo          ${out_freq}
thermo          1000
thermo_style    custom step temp pe etotal epair emol press lx ly lz vol pxx pyy pzz pxy pxz pyz enthalpy

restart 	${out_freq3} restart.lmp.${pid} restart2.lmp.${pid}
restart 	1000 restart.lmp.${pid} restart2.lmp.${pid}
restart 	1000 restart.lmp.0 restart2.lmp.${pid}
restart 	1000 restart.lmp.0 restart2.lmp.0


include         in.dump
dump            myDump all atom ${out_freq2} dump.water.${pid}
dump            myDump all atom 10000 dump.water.${pid}
dump            myDump all atom 10000 dump.water.0
dump            myDump2 all dcd ${out_freq2} dump.dcd
dump            myDump2 all dcd 10000 dump.dcd
dump_modify     myDump append yes
dump_modify     myDump2 append yes


variable natoms 	equal  "count(all)"                        # NUMBER ATOMS
variable H      	equal  "enthalpy/v_natoms"                 # ENTHALPY-per-atom
variable Vol      	equal  "vol/v_natoms"                 # volume-per-atom
fix AVG all 		ave/time ${out_freq} 1 ${out_freq} v_Vol v_H file vol_enthalpy.dat
fix AVG all 		ave/time 1000 1 ${out_freq} v_Vol v_H file vol_enthalpy.dat
fix AVG all 		ave/time 1000 1 1000 v_Vol v_H file vol_enthalpy.dat


timer           timeout 10:00:00 every 1000
New timer settings: style=normal  mode=nosync  timeout=10:00:00

fix 		1 all shake 1e-6 200 0 b 1 a 1
Finding SHAKE clusters ...
       0 = # of size 2 clusters
       0 = # of size 3 clusters
       0 = # of size 4 clusters
     432 = # of frozen angles
  find clusters CPU = 0.001 seconds
fix             2 all nph tri ${pressure} ${pressure} ${pressureDamp}
fix             2 all nph tri 8950.3 ${pressure} ${pressureDamp}
fix             2 all nph tri 8950.3 8950.3 ${pressureDamp}
fix             2 all nph tri 8950.3 8950.3 1000
fix             3 all temp/csvr ${temperature} ${temperature} ${tempDamp} ${seed}
fix             3 all temp/csvr 30.49 ${temperature} ${tempDamp} ${seed}
fix             3 all temp/csvr 30.49 30.49 ${tempDamp} ${seed}
fix             3 all temp/csvr 30.49 30.49 100 ${seed}
fix             3 all temp/csvr 30.49 30.49 100 745823


run             250000
PPPM initialization ...
  extracting TIP4P info from pair style
  using 12-bit tables for long-range coulomb (../kspace.cpp:340)
  G vector (1/distance) = 0.37170034
  grid = 30 36 32
  stencil order = 5
  estimated absolute RMS force accuracy = 0.003665118
  estimated relative force accuracy = 1.1037394e-05
  using double precision FFTW3
  3d grid and FFT values/proc = 7344 1152
Last active /omp style is kspace_style pppm/tip4p/omp
Neighbor list info ...
  update every 1 steps, delay 7 steps, check yes
  max neighbors/atom: 2000, page size: 100000
  master list distance cutoff = 10.8154
  ghost atom cutoff = 10.8154
  binsize = 5.4077, bins = 7 5 4
  1 neighbor lists, perpetual/occasional/extra = 1 0 0
  (1) pair lj/cut/tip4p/long/omp, perpetual
      attributes: half, newton on, omp
      pair build: half/bin/newton/tri/omp
      stencil: half/bin/3d/tri
      bin: standard
Setting up Verlet run ...
  Unit style    : real
  Current step  : 10000000
  Time step     : 2
  Walltime left : 9:59:59.95
Per MPI rank memory allocation (min/avg/max) = 10.63 | 10.63 | 10.64 Mbytes
Step Temp PotEng TotEng E_pair E_mol Press Lx Ly Lz Volume Pxx Pyy Pzz Pxy Pxz Pyz Enthalpy 
10000000    35.937523   -6924.7257   -6832.2786   -6924.7257            0    8868.7664    22.991133    21.096454    21.329589     10345.52    8601.7322    9331.5252    8673.0417    765.38569   -76.440854    -427.1378   -5494.1698 
10001000    31.203003   -6931.1754   -6850.9075   -6931.1754            0    8740.4469    23.004083    21.117712     21.29435    10344.659    8526.5443    8904.6137    8790.1826   -89.626759   -283.63789   -37.293581   -5532.2692 
10002000    29.682515   -6925.1466   -6848.7902   -6925.1466            0    9394.5817    23.011406    21.113463     21.24891    10323.793    9091.1407    9354.5969    9738.0076    88.270996    142.69157    43.476351   -5434.3238 
10003000    30.160444    -6927.708   -6850.1221    -6927.708            0    9166.2541    23.018078    21.163155     21.19584    10325.239    8923.3261    8665.1549    9910.2811   -644.99964    401.32153    303.61952   -5469.8399 
10004000     29.81857    -6931.322   -6854.6155    -6931.322            0    8992.8419    22.980291    21.136334    21.281852    10337.002    8918.5047     9238.128    8821.8931    119.11814   -273.47245    180.75334   -5498.9034 
10005000    31.746148   -6933.9035   -6852.2384   -6933.9035            0    8869.5112    23.009771    21.065704     21.33745    10342.625    8858.4651    8920.2073    8829.8611    560.52465   -421.17062    127.93712   -5514.3917 
10006000    31.418394   -6928.8858   -6848.0639   -6928.8858            0    9260.3271    22.969986    21.106298    21.304162      10328.5    9236.8527    9576.5669    8967.5617    416.65793   -445.15368   -57.456856   -5453.1755 
10007000    30.451426   -6932.2324    -6853.898   -6932.2324            0    8750.3701    22.991234    21.149447    21.271209    10343.166    8806.8194    8562.8036    8881.4873   -71.442661   -10.716802    146.01612   -5533.9531 
10008000    31.797075   -6929.3357   -6847.5396   -6929.3357            0    9269.3416    23.011294    21.147235     21.22234    10327.326    9055.3818    9137.6216    9615.0215   -146.12196    -36.09965   -32.314996    -5451.452 
10009000    31.965081   -6930.2073   -6847.9791   -6930.2073            0    8739.4229    22.990882    21.129066     21.31326    10353.468    8678.1883    8853.3822    8686.6983    20.297824    72.122748    225.37719   -5528.3725 
10010000    30.644318    -6930.965   -6852.1344    -6930.965            0    8564.7234    23.016368     21.08254    21.358552    10364.098    8624.4274    8763.1157    8306.6272    311.18615    114.72869    360.54181   -5557.5786 
10011000    29.871003   -6928.0232   -6851.1818   -6928.0232            0    9211.4772    22.950994    21.140966    21.315321    10342.326    9443.4443    9282.0045     8908.983    143.97925   -82.823154   -80.350432   -5461.7944 
10012000    32.830456   -6929.7487   -6845.2944   -6929.7487            0    9031.8893    23.052057    21.101819     21.25278    10338.209    8998.8375    8818.7928    9278.0375    -358.0811    349.25434    90.159482   -5483.5367 
10013000    30.011693   -6925.6824   -6848.4792   -6925.6824            0    8886.8517    22.974177    21.190551    21.246643    10343.619    9115.3805    8485.0491    9060.1256   -243.64175     4.685898    177.63694    -5507.888 
10014000    29.692814   -6931.2834   -6854.9005   -6931.2834            0    9368.3744    22.995957    21.067082     21.33204    10334.471    9353.7582    9575.5941    9175.7708   -382.65726   -213.75625    271.02852   -5442.9209 
10015000    30.933441   -6931.9724    -6852.398   -6931.9724            0    8794.4211    22.947959    21.130488    21.356918    10356.003    8673.1311    9272.0575    8438.0746    172.29398     499.7314    -252.8633   -5524.1618 
10016000    29.816173   -6928.9207   -6852.2205   -6928.9207            0    9006.8444    23.033596    21.055876    21.328625    10344.224    9163.1167    9195.4238    8661.9928    97.956158   -1000.8168   -28.749193   -5493.4488 
10017000    31.227103   -6931.0379   -6850.7081   -6931.0379            0    8762.4084    22.958036     21.21162    21.237632    10342.241    8505.3575    8707.9472    9073.9205    166.78308   -78.226442   -435.60803   -5529.0655 
10018000    29.375366   -6931.0542   -6855.4879   -6931.0542            0    8882.2896    23.052014    21.069735     21.29943    10345.129    8754.4501    8991.4375    8900.9811   -217.49299   -72.803327   -169.55788   -5515.3894 
10019000    30.288317   -6928.6077   -6850.6928   -6928.6077            0    9357.4155     22.86762    21.176867    21.336545    10332.533    9628.8635     9355.504     9087.879    436.23911    215.64729    190.94514   -5440.6296 
10020000    30.039649    -6929.929   -6852.6538    -6929.929            0    9075.1965    23.023185    21.026717    21.364026    10342.368    8954.8309    9360.4511    8910.3074   -268.35217   -16.854605    186.37496   -5483.8163 
10021000    29.916326   -6930.3491   -6853.3912   -6930.3491            0    9208.5981     22.89651    21.205625    21.267501    10326.112    9570.9889    8739.1385    9315.6669    302.51875     2.090718   -134.60589   -5466.6155 
10022000    31.091556   -6928.9641    -6848.983   -6928.9641            0    9244.4106    23.051163    21.080411    21.255675    10328.728    9194.3666    9348.5627    9190.3026    23.586154   -61.470194    -247.2105   -5456.4614 
10023000    30.383715   -6930.0041   -6851.8439   -6930.0041            0    8929.6166     22.93573    21.200879     21.24933    10332.649    9299.6968    8077.2174    9411.9357    92.275483  -0.46412045   -106.35227   -5506.2303 
10024000    32.976707   -6930.1691   -6845.3385   -6930.1691            0    8645.9312    23.065839     21.03909    21.343534    10357.681    8367.1871    9635.6974    7934.9091    769.44887   -499.48304    168.75243   -5539.3173 
10025000    31.697567   -6929.6214   -6848.0813   -6929.6214            0     8895.808    22.939275    21.164017    21.315025    10348.172    9368.6222    8689.7775    8629.0244    -207.1654    332.85193    176.31657   -5505.5485 
10026000    30.444598   -6926.3706   -6848.0537   -6926.3706            0    8812.4439     23.09604    21.097378    21.239581    10349.323    8287.4785    8782.4971    9367.3561   -791.74499    452.99588    162.84957    -5517.954 
10027000    31.538793   -6930.6287   -6849.4971   -6930.6287            0    8773.4559    22.990583    21.188942    21.235672    10344.876     8870.621    8264.8008     9184.946    126.11444    107.50589   -48.928876   -5525.8511 
10028000    29.328624    -6929.639   -6854.1929    -6929.639            0    9208.9233    23.028978     21.05304    21.321356    10337.233    8713.4096    9799.5316    9113.8287    382.14603    71.736306    46.560127   -5465.8746 
10029000    30.281093   -6934.6202    -6856.724   -6934.6202            0    8530.1814    22.907613    21.145014    21.386483    10359.223    9125.1279    8439.2452    8026.1711    202.70814    232.00935    420.94322   -5567.9958 
10030000    32.082716   -6928.9757   -6846.4449   -6928.9757            0     9061.111    23.003035    21.068088    21.342971    10343.443    9403.2231    9379.4271    8400.6827   -159.62336   -497.41137   -21.330452   -5479.5898 
10031000    31.797136   -6928.7892    -6846.993   -6928.7892            0    9008.2345    22.974986    21.183361     21.23084    10332.783    8644.2541    8896.0225    9484.4267   -268.26883    218.21187    142.12641   -5489.5148 
10032000    31.653043   -6928.4767   -6847.0512   -6928.4767            0    8983.9931    23.022426    21.114525    21.264437    10336.804    8748.0186    9055.4984    9148.4622   -315.35292    65.959311    23.278761   -5492.6991 
10033000    31.079569   -6929.8171   -6849.8668   -6929.8171            0    9175.7922    22.967769    21.072025     21.34686    10331.398    9129.6873    9583.9134    8813.7759    69.128542     495.7629   -103.58842   -5467.3241 
10034000    29.747291   -6928.4679   -6851.9448   -6928.4679            0    8996.1232     22.96525    21.066702    21.364285    10336.085    9278.0529    9338.9432    8371.3735    550.32914   -287.61675     359.2986   -5495.8583 
10035000    29.768885   -6931.1433   -6854.5647   -6931.1433            0    8931.7745    23.007906    21.111651    21.283181    10337.983    8889.6499    9101.9239    8803.7497    109.71344   -147.08225    199.07412    -5507.931 
10036000    29.534508   -6925.7987   -6849.8229   -6925.7987            0    9386.0484    22.988706    21.174898    21.190263     10315.07    9279.2798    8663.9348    10214.931   -720.37895    420.45621    -186.4367   -5437.8354 
10037000    31.139166   -6930.6371   -6850.5335   -6930.6371            0    8907.1757    23.037103     21.11575     21.25928    10341.485    8480.3001    9088.0771    9153.1498    194.90325   -231.20906    110.85201   -5507.1536 
10038000    31.086534   -6932.7556   -6852.7874   -6932.7556            0    8654.5587    22.960528    21.117306    21.356275      10354.9    8684.5156    8900.5568    8378.6038    1424.7742    77.227783     106.4098   -5545.8141 
10039000    30.689402   -6930.2683   -6851.3217   -6930.2683            0    9082.4289    22.974075    21.073565    21.374184    10348.218    9440.8441     9338.825    8467.6175   -268.43254    -177.7083   -101.51167   -5480.6183 
10040000    30.121898   -6932.0928    -6854.606   -6932.0928            0    8727.1213    22.959463    21.195487    21.263322     10347.52     9005.871    8401.6401    8773.8528   -24.852261   -381.30942   -209.48239   -5537.6139 
10041000    31.094537   -6933.5071   -6853.5183   -6933.5071            0    8888.8408    23.049978    21.131293     21.23026    10340.747    8617.5989    8827.3708    9221.5527   -131.61035   -237.51785   -188.48277   -5512.9995 
10042000    30.174021   -6928.5401   -6850.9193   -6928.5401            0     9271.971    22.942869    21.183741    21.260567    10332.971    9343.5443    8706.9735    9765.3951   -28.300032    444.68298   -58.107294   -5453.6723 
10043000    30.640263   -6928.9687   -6850.1485   -6928.9687            0     8908.401    22.995016    21.072728    21.354454    10347.679    8839.9043    9403.8752    8481.4236   -189.43414   -50.614902    45.208969   -5505.7791 
10044000    31.213722   -6931.2274    -6850.932   -6931.2274            0    8868.8978    22.952958    21.104734    21.361915    10348.055     9067.083     9400.494    8139.1165    126.52716    392.99168    345.84495   -5512.4755 
10045000    28.781915   -6932.1247    -6858.085   -6932.1247            0    8976.0779    23.011156     21.12311    21.255494    10331.598    8775.5054    9025.3976    9127.3307   -482.73657    541.33652    -184.4969   -5505.6076 
10046000    31.784563   -6930.5345   -6848.7707   -6930.5345            0    8765.8458    23.017724    21.149534    21.230592    10335.352     8808.354    8632.7014    8856.4819   -494.54976   -293.23673   -135.91471   -5527.4903 
10047000    29.666599   -6928.6822   -6852.3667   -6928.6822            0    9166.5098    22.961468    21.101875    21.316162     10328.32    9279.7576    9491.7399    8728.0319    31.404798   -154.24479   -90.757839    -5471.634 
10048000    31.177489   -6928.6689   -6848.4667   -6928.6689            0     8900.885    22.932771    21.078551    21.397575    10343.365     9322.704    9000.1491    8379.8019    160.53716   -62.233183   -173.66436   -5505.7916 
10049000    31.418865   -6928.3009   -6847.4778   -6928.3009            0     9235.318    22.934908    21.077047    21.368643    10329.605    9533.2093    9780.2815    8392.4632    205.44995   -95.782825   -127.10428   -5456.2077 
10050000    32.103972    -6933.039   -6850.4535    -6933.039            0    8864.5616    23.006403    21.131058    21.260616    10335.841    8518.0841    8830.3857    9245.2151    81.185185   -248.69164   -23.037227   -5514.2304 
10051000    30.577476   -6925.8746   -6847.2159   -6925.8746            0    8961.1991    22.975882     21.17519    21.239103     10333.22    9062.2112    8422.3198    9399.0664   -646.36772    97.389591   -91.380298   -5496.7684 
10052000    29.945864   -6931.9841   -6854.9502   -6931.9841            0    8955.2993    23.019124     21.04995    21.348446     10344.42    8897.4373     9293.677    8674.7836    49.633309   -17.560098   -23.806609    -5503.929 
10053000    29.913923   -6931.1225   -6854.1708   -6931.1225            0    8906.2212    22.925084    21.115559     21.38211    10350.565    9337.5054    8717.8006    8663.3576   -76.079577   -136.68263    78.156446   -5509.7555 
10054000     31.15614   -6929.7191   -6849.5718   -6929.7191            0    9142.9057    23.042905    21.071474    21.291835    10338.208    8573.1105    9672.9452    9182.6615    376.79222    202.62584   -300.78394   -5471.0763 
10055000    31.109001   -6930.2198   -6850.1938   -6930.2198            0    8597.9791    23.000571    21.206576    21.215526    10348.156    8636.7239    7960.9283    9196.2851    128.62236    -247.6991    -163.8991   -5552.6105 
10056000    31.293291   -6927.0068   -6846.5067   -6927.0068            0    8961.1495     23.02215    21.154474    21.237977    10343.351    8758.5075    8586.2825    9538.6583   -232.21283   -3.8177261    213.70962   -5494.7427 
10057000    30.528687    -6931.443   -6852.9098    -6931.443            0    8922.0888    22.969706    21.131374    21.322034    10349.319    9455.2216    8903.5113    8407.5335    201.76273   -121.57456    189.77976   -5506.2615 
10058000    30.092765   -6930.9511   -6853.5393   -6930.9511            0    9027.3079    22.954853    21.123407    21.351252    10352.895    9388.2999    8754.3478    8939.2761      329.745   -244.25337    418.45441   -5490.5389 
10059000    30.486197   -6930.5107   -6852.0868   -6930.5107            0     8956.312    23.034001    21.087207    21.307279     10349.43    8674.2627    9010.0411    9184.6323    335.34945    155.78932    -165.5845   -5500.2585 
10060000     29.63246    -6930.693   -6854.4653    -6930.693            0    9066.4336    22.999001    21.176833    21.213801    10332.097     8932.139    8668.9269    9598.2348   -349.22137    -5.981477   -487.85594   -5488.3076 
10061000     31.02614   -6931.8598    -6852.047   -6931.8598            0    8828.3401     23.03512    21.124203    21.262477    10346.291    8835.1319    8403.4272    9246.4611   -789.38193      130.805   0.52157447   -5519.9384 
10062000    29.888044    -6925.822   -6848.9368    -6925.822            0    9226.9561    22.953085     21.09115    21.354901    10338.056    9259.2813    9430.9819     8990.605    207.62814    177.17733   -124.63948   -5457.7891 
10063000     32.45769   -6934.9294   -6851.4339   -6934.9294            0    8329.4263    23.006328    21.052064     21.42186    10375.264    8092.4074    9081.3551    7814.5163    482.03596    24.404825   -11.729963   -5591.0869 
10064000    29.977788   -6929.5562   -6852.4401   -6929.5562            0    9048.8145    22.953948    21.156386    21.284581    10336.274    9549.5905    8614.5103    8982.3428    10.485611   -481.49322   -256.08545   -5488.3861 
10065000    28.149308   -6928.9795   -6856.5672   -6928.9795            0    8722.3535    23.062075    21.097784    21.247616    10338.212    8326.4991    8754.8905    9085.6708   -151.24538   -208.78493   -210.32945   -5541.4786 
10066000    31.792633   -6929.9739   -6848.1893   -6929.9739            0    8657.6039    22.954368    21.160825    21.307025    10349.533    8966.2292    8234.2361    8772.3463   -198.36665   -61.755056     232.2827   -5541.4337 
10067000    29.384026   -6930.6955   -6855.1068   -6930.6955            0    9004.4589    23.001232    21.008941    21.399859    10341.086    8976.0338    9565.5831    8471.7599   -394.55435    145.08109    75.121069   -5497.1071 
10068000    29.245514   -6931.1819   -6855.9496   -6931.1819            0      8893.04    22.943669    21.138518    21.330373    10345.128    9392.5833    8520.0999    8766.4367    183.24705   -353.15583    287.43222   -5514.2293 
10069000    29.385367   -6934.1417   -6858.5496   -6934.1417            0    8718.5245    23.032093    21.115648    21.271504    10345.132    8231.4483     8457.711     9466.414   -200.99297    21.797485    259.71428   -5543.1585 
10070000    31.236081   -6931.0739    -6850.721   -6931.0739            0    9058.3995    22.983228    21.147448    21.252248    10329.371    8655.2869    9037.6004    9482.3111    211.43712    178.86353    98.142527    -5486.134 
10071000    31.134379   -6932.1323    -6852.041   -6932.1323            0    8833.9621    23.009216    21.085372     21.32309    10345.065    8839.1139    9012.1001    8650.6723    227.41264   -114.48132    101.71403    -5519.242 
10072000    30.614299   -6924.1129   -6845.3594   -6924.1129            0    8988.6166    22.924828     21.08285    21.421159     10353.29    9209.0854    9577.0201    8179.7443    382.83859    -560.3393   -23.507269   -5488.1492 
10073000     29.68265   -6931.2309   -6854.8741   -6931.2309            0    9082.6243    22.959943    21.104921    21.336207    10338.838    9122.8445    9241.7894    8883.2391    116.60807    155.20418    193.00898   -5485.3837 
10074000     30.90048   -6931.8345   -6852.3449   -6931.8345            0    8740.4125    22.986755    21.147122    21.285918    10347.164    8651.6391    8764.6369    8804.9615   -368.26378   -142.96489   -224.84239   -5533.3925 
10075000    30.932125   -6930.5456   -6850.9746   -6930.5456            0     9079.641     23.00427    21.138585    21.261179    10338.838    9146.0137    8585.8557    9507.0537    -98.74195   -77.469717   -138.26323   -5481.9342 
10076000    30.510813   -6932.4558   -6853.9686   -6932.4558            0    8858.7722    22.986365    21.099656    21.346414    10353.105    8684.7363    9059.3469    8832.2334    327.80289     204.6328   -123.25228   -5516.3877 
10077000    29.942139   -6931.1039   -6854.0796   -6931.1039            0    9136.4408    22.916903    21.101728    21.392041    10344.897    9692.7179    9368.0621    8348.5423    33.204907   -219.61624   -241.69657   -5475.6674 
10078000    31.238117   -6928.7879   -6848.4297   -6928.7879            0    8918.1513    22.987584    21.106392    21.335215    10351.525    9154.7307    8554.2479    9045.4753   -450.43529    220.41739   -198.33892   -5502.0887 
10079000    28.783292   -6926.8507   -6852.8074   -6926.8507            0    9129.4873    22.944723    21.217364    21.218994    10329.969    9458.6807    8175.0375    9754.7439   -148.53311   -180.46271   -2.9387324   -5477.4318 
10080000    31.336241    -6927.411   -6846.8004    -6927.411            0    9044.6799    23.055394    21.073549    21.275078    10336.687    8942.2674    9119.7852    9071.9871    537.85128   -680.81967   -7.3667863   -5483.3151 
10081000    30.623335   -6933.0262   -6854.2495   -6933.0262            0     8823.184    22.935108    21.134752    21.336331    10342.313    9176.7119    8623.4124    8669.4279    408.39838   -215.25782    285.47523   -5523.4308 
10082000    30.483902   -6931.9427   -6853.5247   -6931.9427            0    9035.6043    22.979487    21.092108    21.333076    10339.839     9381.385    8945.3175    8780.1104    31.211393   -88.971997   -74.407135   -5490.9922 
10083000    30.243941   -6927.7654   -6849.9647   -6927.7654            0    9048.5571     23.00598    21.133133    21.251624    10332.294     9038.764    9029.0064     9077.901   -413.33252   -119.03976    50.610937   -5486.4746 
10084000    32.958517   -6928.4969   -6843.7131   -6928.4969            0    9169.8797    23.047375    21.155711    21.184846    10329.384    9053.7267    8596.1603    9859.7519   -836.73221    291.60902   -323.93426   -5462.3307 
10085000    29.391212   -6929.3577   -6853.7506   -6929.3577            0    8725.5873    23.025874     21.11582    21.285224    10349.093    8738.2471     8927.282    8511.2327   -58.203762    272.46266   -283.00085   -5536.7898 
10086000     31.69154   -6935.3582   -6853.8336   -6935.3582            0     8993.193    23.015557    21.050323    21.340889    10339.339    8805.5605    9557.3914    8616.6271    121.71237   -118.79546   -104.68836   -5497.7622 
10087000    29.285857   -6929.7812   -6854.4451   -6929.7812            0    8974.8547    23.011703    21.119727    21.266322    10335.452    8952.1592    9327.5263    8644.8788    215.68538    549.11994   -478.52011   -5501.6477 
10088000    29.951055   -6925.1851   -6848.1378   -6925.1851            0    9207.2323    23.066638      21.1271    21.181474    10322.393    8543.3416    9094.9948    9983.3604    11.119377   -209.54257    366.41103   -5462.0672 
10089000    29.713821   -6934.5711   -6858.1341   -6934.5711            0    8870.8733    23.001314    21.161868     21.24966    10343.288    8936.4841    8630.7138     9045.422    78.109512     382.5693    88.258733   -5519.9961 
10090000    29.743087   -6930.7506   -6854.2383   -6930.7506            0    8787.9692    23.029631    21.087438    21.322644    10355.042    8725.7296     8974.224     8663.954    89.223925   -189.88334    330.46275   -5527.0998 
10091000    29.831163   -6932.4116   -6855.6728   -6932.4116            0    9173.9701    22.944979    21.120566    21.339174    10341.198    9259.9214    9185.2251    9076.7639    144.37455   -155.45729    498.45724   -5472.0935 
10092000    30.503832   -6930.6855   -6852.2163   -6930.6855            0    8673.7467    23.053537    21.085262    21.294206    10350.898    8399.3751     8810.111     8811.754    81.011594    346.85657   -146.44186   -5542.8515 
10093000    30.164847   -6926.3976   -6848.8003   -6926.3976            0    9481.6286    22.975654    21.165997    21.218471    10318.598    9623.3474    9207.0067    9614.5316   -351.67332   -238.99921    118.71322   -5421.9464 
10094000    29.587917   -6925.8991    -6849.786   -6925.8991            0    9191.9878    23.003423     21.10705    21.289485    10336.777    9341.1763    9558.4406    8676.3465    58.981001   -259.00593    113.05807    -5464.082 
10095000    29.143225   -6932.9423   -6857.9731   -6932.9423            0    8813.1839    23.013839    21.063247    21.353657    10351.104    8621.2727    9090.8912    8727.3879    48.495215    185.37462   -56.518387   -5527.5329 
10096000    31.766126   -6930.4085   -6848.6921   -6930.4085            0    8850.9773    22.930585    21.157826    21.335635    10351.225    8736.1692    9039.8609    8776.9018     386.7814   -141.13248    184.66474   -5512.5308 
10097000    30.534473   -6928.9464   -6850.3983   -6928.9464            0    9428.7482     23.08019     21.02994    21.279446    10328.511    9014.7826    9790.5653    9480.8967   -159.96893    33.433204    81.609204    -5430.139 
10098000    28.690665   -6929.9619   -6856.1569   -6929.9619            0    8960.4161    22.971845    21.177921    21.248827    10337.468    9029.7547    8672.2027    9179.2908   -318.95011    328.10855   -130.50088   -5505.2724 
10099000     30.54599   -6926.3754   -6847.7977   -6926.3754            0    9439.1593    23.028641    21.067548    21.274565    10321.505    9578.5037    9339.3444    9399.6297   -611.50622   -370.91542    107.45481   -5426.9347 
10100000    30.415599   -6931.6242   -6853.3819   -6931.6242            0    9205.7921    22.885663     21.14949    21.349096    10333.392    9325.6269    9340.1188    8951.6305    216.20038    290.73242   -486.46991   -5466.0514 
10101000    30.456628   -6935.2265   -6856.8787   -6935.2265            0    8715.4567    22.999747    21.067515    21.359687    10349.783    8773.4827    8792.6433    8580.2442    113.71627   -300.63093     5.985084   -5541.3592 
10102000    31.053983   -6931.7099   -6851.8254   -6931.7099            0    8808.5827    22.906525    21.191791    21.307319    10343.218    9110.7493    8189.0872    9125.9116    214.12284   -409.61257   -107.67859   -5523.0928 
10103000    31.465847   -6930.0577   -6849.1137   -6930.0577            0     8921.528    23.036412    21.093637    21.289115    10344.843    8740.0037    9258.3681    8766.2121   -94.774891   -22.472626   -682.43019   -5503.1323 
10104000    31.027241   -6931.9684   -6852.1527   -6931.9684            0    8729.0424    22.923872    21.215498     21.27381    10346.333    8894.9211    8226.9917    9065.2143   -549.47653   -150.06223    189.37393   -5535.0217 
10105000    30.629199   -6927.7341   -6848.9423   -6927.7341            0    9251.1518    23.029668     21.04379    21.333635    10338.952    9466.2562    9276.3092      9010.89   -98.508606   -83.185249   -247.54303   -5454.0259 
10106000    30.014692   -6933.1079   -6855.8969   -6933.1079            0    8698.1656    22.906922    21.214294    21.298635    10350.161    8876.3685     8566.767    8651.3612    451.58088   -45.058874    298.56644   -5542.9395 
10107000    30.077377   -6930.8192    -6853.447   -6930.8192            0    9134.5519    23.034228    21.084941    21.291341     10340.68    9215.1942    9025.9189    9162.5425   -46.393794   -355.60659   -439.59716   -5475.8816 
10108000    29.778394   -6931.5187   -6854.9156   -6931.5187            0    8639.5702    22.938703    21.188296    21.305963    10355.381    8718.0617    8659.6015    8541.0475    679.45215    212.61283   -41.796829   -5550.1452 
10109000    29.858398    -6930.785   -6853.9761    -6930.785            0    8922.9103    23.020279    21.082454    21.329805    10351.866    8866.3669    8841.4623    9060.9016   -134.83397   -453.02249    329.42987   -5506.8723 
10110000    29.165975   -6928.3369   -6853.3093   -6928.3369            0    9411.8399    22.927009    21.120596    21.341522     10334.25    9512.3909    9781.5437    8941.5852    942.58976    308.06932   -126.95315   -5434.8091 
10111000    29.696524   -6930.2582   -6853.8657   -6930.2582            0    8778.1285    23.025571    21.106657    21.309246    10356.141    8845.6476     8471.686    9017.0519    28.248609   -351.01856    478.39283   -5528.0726 
10112000    30.798413   -6930.8011    -6851.574   -6930.8011            0    8679.9059    22.930904    21.217896    21.280075    10353.726    8976.4066    8083.9768    8979.3343   -172.70068    57.629324    124.69612   -5540.9215 
10113000    30.687103   -6929.8364   -6850.8957   -6929.8364            0    9146.9579    23.026141    21.106204    21.275322    10339.688     9057.218     9074.381    9309.2747    313.23608   -167.03774    306.55771   -5471.5917 
10114000    30.863386     -6929.76   -6850.3658     -6929.76            0       8898.7     22.98564    21.138725    21.297925    10348.387    8725.6885    9086.4891    8883.9224    280.44078    -0.418136    190.02148   -5507.3685 
10115000    30.415803   -6929.1959   -6850.9531   -6929.1959            0    8856.4502    23.012147    21.100732    21.312228    10348.646     8637.733     9029.929    8901.6887   -167.75741    413.70273   -281.64011   -5514.2988 
10116000    29.423354   -6932.5197   -6856.8299   -6932.5197            0    9028.8964      23.0116    21.113439    21.283777    10340.808    9093.3676    8712.3222    9280.9992   -417.75664   -648.07434    199.20206   -5495.1813 
10117000    28.720661   -6933.8845   -6860.0023   -6933.8845            0    8893.2383    22.993513    21.145364    21.266714    10340.009    8821.6897    9061.5168    8796.5083   -53.374799    500.53285   -580.80921    -5518.916 
10118000    30.131039   -6931.6376   -6854.1274   -6931.6376            0    9148.3668    23.007847    21.118682    21.272741    10336.327    9380.1294    8782.1759     9282.795   -427.75536    62.162954    74.984437   -5475.0593 
10119000    30.100862   -6931.7452   -6854.3125   -6931.7452            0    8777.7697    22.936007    21.185194     21.29454    10347.097    8671.9452    8597.5868    9063.7769    458.30831   -326.39819    422.99283   -5529.7313 
10120000    30.204509   -6931.1153   -6853.4161   -6931.1153            0    8988.9661    23.054433    21.034587    21.337576    10347.455     8886.732    9060.3051    9019.8612    331.53818   -158.81817    40.128606    -5496.918 
10121000    29.891923   -6929.0377   -6852.1425   -6929.0377            0    9232.6772    22.889881    21.196145    21.296896    10332.769    9565.6805    9150.2789    8982.0723    195.56715   -53.107174   -276.67819   -5460.8442 
10122000    30.868511   -6926.9717   -6847.5644   -6926.9717            0    8733.2211    23.090274    21.037057    21.306149    10349.492    8877.0299     8779.274    8543.3594   -95.708895   -600.68282   -45.303833   -5529.4006 
10123000    30.347486   -6929.2971     -6851.23   -6929.2971            0    9091.8061    22.913057    21.184234     21.28179    10330.087    9263.5605    8841.0284    9170.8295    127.80214    511.21901    111.52633   -5481.5157 
10124000     31.60222   -6932.4644   -6851.1697   -6932.4644            0    8776.2542    23.075091    21.025985     21.32615    10346.947    8177.3432    9356.9845    8794.4349   -321.54438     312.1873    379.86384   -5526.8363 
10125000    31.649493   -6929.7916   -6848.3752   -6929.7916            0    8863.3451    22.904964    21.178828    21.315728    10340.266    9262.8568    8602.7727    8724.4057   -121.62656    344.02447   -9.7818173   -5511.7636 
10126000    30.726961    -6930.908   -6851.8647    -6930.908            0    8944.3274    23.156758    20.964693    21.302306    10341.723    8730.5223    8948.9345    9153.5253     56.78407   -446.81903   -168.69559   -5502.8507 
10127000    30.165889   -6929.5478   -6851.9479   -6929.5478            0    8877.1857    22.930452    21.226065    21.240153    10338.076    8925.7845    8423.2665     9282.506    133.80541   -417.54328    188.81308   -5513.5325 
10128000    30.902865   -6930.9088   -6851.4131   -6930.9088            0     9082.323    23.112047    21.011704    21.280299    10334.213    8658.3833    9547.7592    9040.8265    370.23307   -240.88439    107.73764   -5482.5808 
10129000    30.819565   -6924.6833   -6845.4018   -6924.6833            0     9216.325    22.919083    21.170878    21.295746    10333.061    9435.3868    9388.1407    8825.4475    376.05384   -43.284798    -47.32098   -5456.5285 
10130000    29.079229   -6933.0791   -6858.2745   -6933.0791            0    8907.5858    23.076347    21.068593    21.275111    10343.664    8626.9171    8690.6379    9405.2024   -363.76737   -186.20986    205.61592   -5514.5498 
10131000    29.458789   -6929.7948   -6854.0139   -6929.7948            0     9118.778    22.945467    21.206178    21.229435    10329.939    8951.2339    8815.7388    9589.3614    117.33588    792.26726   -274.77743   -5480.2558 
10132000    31.466589   -6926.6373   -6845.6914   -6926.6373            0    9313.5867    23.089916    21.038789    21.264108     10329.76    8830.9044    9681.2773    9428.5783   -338.58983   -242.69618    511.18365   -5442.6093 
10133000    30.609576   -6929.2872   -6850.5459   -6929.2872            0    8820.7578    22.936514    21.175489    21.291756    10341.233    9048.9905    8629.9633    8783.3196    597.64764    36.741105    382.61293    -5520.232 
10134000    29.133842   -6929.3058   -6854.3607   -6929.3058            0    9349.0269    23.097162    20.969802    21.336384    10334.127    8388.1336    10098.535    9560.4119   -28.016313    91.085791    193.28074   -5445.3442 
10135000    29.702307   -6931.3563    -6854.949   -6931.3563            0    9046.8275     22.91955     21.20271    21.273849    10338.167    9421.0335    8384.9405    9334.5085    203.89472    121.69161    139.34587   -5490.9447 
10136000    31.641071    -6929.841   -6848.4463    -6929.841            0    9051.8316    23.076857    21.062375    21.273315    10339.967       8568.4    9428.9183    9158.1765   -259.93384   -134.33067   -125.34298   -5483.4498 
10137000     30.29452   -6932.4181   -6854.4873   -6932.4181            0    8621.0102    22.951499    21.196997    21.277092    10351.366    8705.3657    8279.7629     8877.902   -215.88439    636.11295    13.859079   -5553.0246 
10138000    29.927648   -6932.5104   -6855.5234   -6932.5104            0    8957.2158    23.039588    21.048547    21.336581    10347.172    8967.9168    9070.3799    8833.3506    182.14239   -117.25774    86.843373   -5503.8537 
10139000    32.013196   -6936.7483   -6854.3963   -6936.7483            0    8995.4217    22.920356    21.204219    21.276314    10340.464     9266.537    8709.6088    9010.1193    237.25512   -391.77353    334.50672   -5497.8412 
10140000    30.449163    -6930.764   -6852.4354    -6930.764            0    8959.3288     23.05282    21.095873    21.267661    10342.875    8595.9798    9063.5329    9218.4738   -342.39322    22.954918   -307.62287   -5501.0082 
10141000    29.717797    -6930.424   -6853.9768    -6930.424            0    9073.4035    22.933639    21.211371     21.25408    10339.131     9373.688    8438.3256    9408.1969   -218.12166    428.14545   -204.74676    -5485.838 
10142000    31.182253   -6933.9069   -6853.6924   -6933.9069            0    8787.0372    23.036161    21.085653    21.321113    10356.357    8449.7776    9224.8907    8686.4432    404.26797   -311.87627    262.32973    -5526.526 
10143000    29.505768   -6927.7566   -6851.8548   -6927.7566            0    8953.9251    22.948137     21.17144    21.301593    10349.274    9403.3783    8706.1227    8752.2743    576.47228   -446.65317     -511.111   -5500.4071 
10144000    30.973788   -6930.6438   -6850.9657   -6930.6438            0     9285.337    23.048262    21.080539    21.260111    10329.646    8880.2941     9327.312    9648.4049    343.17352   -310.21014    48.230118   -5452.1548 
10145000    32.024166   -6930.1594   -6847.7791   -6930.1594            0    8836.9199    23.015271    21.152776     21.24354    10342.139    8530.8825    8978.7297    9001.1474    66.491571   -320.96575   -77.930242    -5514.911 
10146000    29.722713   -6928.9438    -6852.484   -6928.9438            0     9208.509    23.044092    21.070618    21.290336    10337.592    9051.2317    9161.8196    9412.4756   -226.49678    376.42983   -165.91688   -5464.1799 
10147000    29.977276   -6932.9751   -6855.8604   -6932.9751            0    8873.7678    22.984058    21.114314    21.318797    10345.855    9247.2976    8639.6033    8734.4025   -80.797393   -350.08298     173.7039   -5516.9537 
10148000    29.063034    -6928.518   -6853.7551    -6928.518            0    9226.7813    22.945888    21.144642    21.297258    10333.059    9704.6785    9047.4467    8928.2186   -127.23707   -452.03371   -30.587801   -5463.3063 
10149000    31.717658    -6930.605   -6849.0133    -6930.605            0     8732.287    23.021079    21.133038    21.264832    10345.454    8645.4794    8583.1945    8968.1871   -39.935995    46.909247   -281.71568   -5531.5047 
10150000    29.619183   -6928.5085    -6852.315   -6928.5085            0    9217.5726    22.966411     21.14918    21.270699     10331.62    9399.9954    8644.5452    9608.1773    -805.7087   -46.534856    202.46593   -5463.4473 
10151000    30.756177   -6928.3668   -6849.2484   -6928.3668            0    8992.9199    22.993133    21.070738    21.350532    10343.954    9070.2331    9732.9986     8175.528   -69.060805    32.035348    16.057441   -5492.6128 
10152000    30.682473   -6934.2301   -6855.3013   -6934.2301            0    9042.4219    22.936135    21.128078    21.332049    10337.435    9184.1251    8855.6894    9087.4512    153.58967    75.868172    21.263751   -5492.0577 
10153000     31.23398   -6929.4431   -6849.0956   -6929.4431            0    8894.0459     23.04598     21.05825    21.315536    10344.601    8369.9305    9410.0352    8902.1719   -194.09678   -74.669574    132.89832   -5507.2919 
10154000    29.323727   -6928.7335      -6853.3   -6928.7335            0    8658.6769     22.91612    21.197928    21.306863    10350.326    9145.6426    8533.0997    8297.2883   -123.98421    27.989949   -19.125677   -5546.2824 
10155000    29.805322    -6932.452   -6855.7796    -6932.452            0    8953.9815    23.031117    21.038855    21.348281    10344.274    8849.4682    9754.6854    8257.7909   -321.21933   -520.56368   -471.09731   -5504.9764 
10156000    28.358708    -6932.594    -6859.643    -6932.594            0    8813.5978    22.899241    21.177928    21.335334    10346.751    9195.6283      8865.49     8379.675    796.74459   -257.84983    -226.8918   -5529.6998 
10157000    29.521693   -6931.0992   -6855.1564   -6931.0992            0    8815.5632     23.03229    21.059521    21.338462      10350.2    8865.6126    9041.0604    8540.0166    143.15496   -610.67815    151.10722   -5524.4732 
10158000    31.149115   -6934.3449   -6854.2157   -6934.3449            0    9196.4018    22.924288    21.175615    21.280895     10330.51    9426.7006    9091.8362    9070.6685   -162.38382    456.22204   -103.92046   -5468.6868 
10159000    29.728645   -6928.1211   -6851.6459   -6928.1211            0    8856.3489    23.091953    21.042244     21.29533     10347.54    8693.9071    9225.1601    8649.9794    -745.2046   -129.12602    -11.53068   -5515.1498 
10160000    30.634954   -6930.7782   -6851.9717   -6930.7782            0    9107.0654    22.935474     21.17407    21.277767    10333.278     9324.005    8867.3836    9129.8076    145.85101    119.77952    83.269631   -5479.5346 
10161000    29.914205   -6933.4929   -6856.5404   -6933.4929            0     8906.068    23.063272    21.033149    21.330606    10347.333    8755.4121    9586.4229    8376.3691    148.45912   -403.75045    6.2103916   -5512.5681 
10162000    30.335452   -6929.3701    -6851.334   -6929.3701            0    9139.2961    22.933716    21.181283    21.274648     10334.49    9100.5465    8723.9951    9593.3467    506.39224   -148.76587    208.59381   -5473.8781 
10163000    30.507741   -6930.8774   -6852.3981   -6930.8774            0    8761.5659    23.092479    21.064458    21.262828    10342.889    8624.4417    9179.5923    8480.6637   -56.380819   -270.28433   -560.62353   -5530.7997 
10164000    29.144106   -6928.4572   -6853.4857   -6928.4572            0    9053.1187    22.972588    21.167356    21.246219    10331.377    8740.7125     8927.732    9490.9116   -359.83548    157.10982    245.50083   -5489.4294 
10165000    30.613572   -6928.7552   -6850.0037   -6928.7552            0    8899.2298    23.060072     21.00995    21.332833    10335.565    9011.5013    9716.9817    7969.2065   -463.11155    -97.23562    5.5383311   -5508.5906 
10166000    31.705739   -6928.3171    -6846.756   -6928.3171            0    9001.1297    22.922717    21.141564    21.310838    10327.702    8971.8882      9046.85     8984.651    159.54884    481.13693    195.21197   -5491.0153 
10167000    31.024839    -6933.022   -6853.2125    -6933.022            0    8954.4355    23.041411    21.068692    21.295802    10338.098    8535.8028    9318.1743    9009.3294    308.09192   -66.849976   -140.48497   -5503.1473 
10168000    30.784888   -6925.8901   -6846.6978   -6925.8901            0    8963.5321    22.924015    21.181847    21.277906    10331.976    9271.3692    8632.5245    8986.7026    341.79741    440.74783    282.35109   -5496.0614 
10169000    30.738578   -6925.4053   -6846.3322   -6925.4053            0    8714.2149    23.054932    21.075422     21.30042    10349.713    8546.1974    8928.5462    8667.9012    92.611916   -391.43744    97.572542   -5531.0091 
10170000    29.568163   -6928.4853    -6852.423   -6928.4853            0    8918.1905    22.911348    21.188221    21.294253     10337.31    9325.6722    8221.6397    9207.2595    399.38625    422.58022     98.37146   -5507.9249 
10171000    30.210972   -6929.3587   -6851.6429   -6929.3587            0    8993.7732    23.058114    21.029909    21.324545    10340.486    8655.4923    9513.8074    8812.0199   -161.61181   -343.67328    -51.98124   -5495.3335 
10172000    31.106625   -6929.7972   -6849.7773   -6929.7972            0    9167.8419    22.955587    21.184898    21.239575    10329.056    9140.0804    8716.0898    9647.3555    136.33356    142.79375    165.40328   -5468.7456 
10173000    31.012039   -6932.9479   -6853.1713   -6932.9479            0     9080.104    23.050144    21.098108    21.249817    10334.093    9011.4114    8951.6653    9277.2353   -333.99179       168.45    66.334049   -5484.6893 
10174000    30.348025   -6933.3733   -6855.3049   -6933.3733            0     9101.221    22.956953    21.139544    21.299621    10336.696     9249.579    8975.9315    9078.1527    19.585758    43.964105   -24.260689   -5483.2948 
10175000    30.575557   -6930.7367    -6852.083   -6930.7367            0    9006.5062    23.008085    21.103051    21.311828    10347.762    9087.9419    9292.1149    8639.4618    135.74819   -394.09768   -57.021871   -5492.8977 
10176000    30.162621   -6933.3301   -6855.7386   -6933.3301            0    8897.6286    23.000498    21.158943    21.257846    10345.476    8665.3849    8807.1142    9220.3868    514.01921    163.35993   -20.616219   -5513.2808 
10177000    30.967268   -6927.9394    -6848.278   -6927.9394            0      8918.59    23.004024    21.144499    21.277754    10349.682    9198.3885     8674.763    8882.6185   -179.80508    -339.4766   -219.13663   -5502.1106 
10178000    30.416996   -6932.0597   -6853.8139   -6932.0597            0    8660.0232    22.962003     21.17379    21.323595    10367.375    8953.1924    8141.8309    8885.0462   -288.86467    -67.08966    412.46306   -5544.4398 
10179000    29.606853   -6929.3694   -6853.2076   -6929.3694            0    9018.5506    22.956602    21.137105    21.331648    10350.886    9217.6942    8748.2472    9089.7106   -289.91374    206.09756    104.88181   -5491.7938 
10180000    30.343211   -6931.5254   -6853.4693   -6931.5254            0    8958.2722    23.003738    21.124845    21.306128    10353.722    8525.0786      8888.39    9461.3481   -116.84732    282.82728   -64.658843   -5500.7844 
10181000    30.913992    -6933.697   -6854.1726    -6933.697            0    8777.2148    22.991589    21.177414    21.269704     10356.27    9140.0503    8366.8226    8824.7717   -152.71837   -520.93123    248.39985    -5528.501 
10182000     30.21422   -6928.1589   -6850.4347   -6928.1589            0    9151.6907    23.061459    21.086392    21.271865    10344.145    8863.7195    9302.7412    9288.6114   -469.82186    374.45627   -91.794303    -5469.822 
10183000    30.192593   -6932.5527   -6854.8841   -6932.5527            0    8792.1321    22.990574    21.159044     21.27133    10347.621    8551.8535    8660.0789    9164.4639    134.27865   -71.369175   -14.471423   -5528.0684 
10184000    30.496537   -6931.5526   -6853.1021   -6931.5526            0    9333.0337    23.045069    21.059525    21.283322    10329.184    9134.9464    9550.6141    9313.5407   -275.64125    60.890459    99.790089   -5447.1688 
10185000    31.577278    -6930.694   -6849.4634    -6930.694            0    8790.5016    23.007697    21.137498    21.266057    10342.218    8425.1918    8761.8599     9184.453    288.80082    566.79824    -356.5635   -5523.5864 
10186000    31.441911   -6930.9628   -6850.0804   -6930.9628            0      8829.04     23.04276    21.081441    21.293392    10343.788    8590.8472     9305.154    8591.1188   -345.76687   -439.87571   -206.69364   -5518.1884 
10187000    29.226241   -6932.0104   -6856.8276   -6932.0104            0    8946.3966     22.93677    21.129447    21.335789    10340.204    9380.1432    8840.3793    8618.6672   -163.45303    290.69372    50.330697   -5507.6997 
10188000      30.7321   -6927.1745   -6848.1181   -6927.1745            0    9110.5087     23.02033    21.071806    21.322987    10343.353    8604.2044    9820.7605    8906.5611   -120.17324    502.47959    -183.7103   -5473.8234 
10189000     28.68727   -6930.6057   -6856.8094   -6930.6057            0    8828.4394    22.914199    21.182252    21.300764    10338.844    9602.9689    7994.0906    8888.2586   -142.35859    40.407208    543.16076   -5525.6447 
10190000    32.151705    -6927.831   -6845.1227    -6927.831            0    8961.6713    23.041393    21.056492    21.319627    10343.663    8774.5156     9167.365    8943.1333   -77.102188   -57.496852   -9.5229807   -5493.2393 
10191000    31.152116   -6927.6625   -6847.5255   -6927.6625            0    9144.8889    22.851626    21.200293    21.342098    10339.418    9663.8569     8766.352    9004.4578     56.86614    652.60824    307.52941   -5468.5695 
10192000    30.156442   -6929.4838   -6851.9082   -6929.4838            0    8768.9815    23.068452    21.041424    21.329738    10353.307    8205.3581    9221.7236    8879.8627   -166.44717    17.965801    605.54557    -5527.859 
10193000    29.566656   -6928.6825    -6852.624   -6928.6825            0    9075.8664    22.921298    21.185029    21.285006    10335.751     9118.762    8620.6421    9488.1952    306.41795     517.9322    178.11313   -5484.5613 
10194000    29.470581   -6927.9373   -6852.1261   -6927.9373            0    9031.1647    23.064472     21.08663    21.267371    10343.428    8351.8121    9072.8555    9668.8265   -503.28531   -170.08243    417.27639   -5489.7903 
10195000    31.567512   -6932.2163   -6851.0108   -6932.2163            0    8934.1518    22.922426     21.19477    21.302654    10349.587    9406.3024     8225.215    9170.9381    193.88645    226.99308    370.63343   -5502.5068 
10196000    29.997867   -6933.4276     -6856.26   -6933.4276            0    8735.8984     23.11011    21.033495    21.305382    10356.256    7869.4603    9250.4763    9087.7586    221.42499   -29.598466    269.35055   -5536.8303 
10197000    29.865032   -6928.8258   -6851.9998   -6928.8258            0    8899.6761    22.953981    21.208605    21.248847    10344.404    8951.2395    8356.5777     9391.211    167.42471    1.1704773    300.78644   -5509.3723 
10198000    30.270427   -6927.5984   -6849.7296   -6927.5984            0     9070.704    23.124999    21.023272    21.269539    10340.466    8422.8083     9287.018    9502.2858     8.872122    255.93793    38.033179   -5481.8213 
10199000    30.736291   -6926.8147   -6847.7474   -6926.8147            0    9237.8283    22.962194    21.152669    21.270185    10331.177    9297.0302    9033.3183    9383.1365   -12.112824    200.15266   -53.761654   -5455.8873 
10200000    29.384451   -6930.3818   -6854.7921   -6930.3818            0    8895.1531    23.073082    21.073838    21.278551    10346.448    8756.9561    8825.5497    9102.9537   -375.18655    33.727811   -64.755475   -5512.5817 
10201000    31.561309   -6931.5573   -6850.3677   -6931.5573            0    8933.2763    22.990273    21.151402    21.259783    10338.133    8885.3723    8852.3218    9062.1347   -10.577626      93.1522    136.73719   -5503.4882 
10202000    30.161764   -6930.2663    -6852.677   -6930.2663            0    9113.1594    23.018747    21.117635    21.258962    10334.014    9271.3009    8909.6834    9158.4939    175.52466   -2.9257735   -132.30914   -5479.2237 
10203000    29.157161   -6933.1908   -6858.1858   -6933.1908            0    9134.8468    23.004717    21.151682    21.251954    10340.956     9067.329    8774.2713    9562.9401   -210.20963    170.54007    46.255433   -5480.5391 
10204000    30.065452   -6930.7779   -6853.4364   -6930.7779            0    9073.1788     23.00208    21.128115    21.272243     10338.11    9248.2397    8731.1153    9240.1814    485.57524   -332.19922    268.70666   -5485.4666 
10205000    28.824671   -6929.3922   -6855.2425   -6929.3922            0    8973.1502    22.987389    21.139212    21.287384    10344.291    9237.5364    8924.5749    8757.3392   -167.26657     184.0322   -189.68725   -5501.5452 
10206000    29.815335   -6933.3324   -6856.6343   -6933.3324            0    8880.1254     22.96932    21.146419    21.297788    10344.737    8924.7802    9192.4313    8523.1646    18.926157   -240.23272   -311.29309    -5516.913 
10207000    30.610458   -6935.3163   -6856.5728   -6935.3163            0    8992.7218    23.019863    21.097542    21.292272    10340.858    9051.8902    9044.8563     8881.419    447.03403   -439.77761   -307.70689   -5500.3731 
10208000    31.269438   -6932.5067    -6852.068   -6932.5067            0    8894.6997     22.95018    21.178234    21.274193      10340.2    8906.8234     8686.978    9090.2975    -107.8307    56.087339   -22.017702   -5510.7365 
10209000     30.61108   -6928.9087   -6850.1635   -6928.9087            0    8735.2514    23.049695    21.081356    21.293383    10346.856    8365.6861    8879.4416    8960.6264   -156.26359   -33.291547   -161.88128   -5532.0292 
10210000    30.187928   -6930.2575   -6852.6009   -6930.2575            0     9060.791    22.940206    21.184191    21.275467    10339.233    9153.9849    8987.9096    9040.4785    67.685033   -181.95741   -129.59083   -5486.3505 
10211000    30.229697   -6929.0495   -6851.2854   -6929.0495            0    8942.2762     23.08899    20.986923    21.363016    10351.809    8468.3195    9432.6422     8925.867   -334.63386   -285.95652     107.4988   -5501.2653 
10212000    30.328603   -6931.7174   -6853.6989   -6931.7174            0    9147.6883    22.902146    21.146757    21.344619     10337.33    9566.7644    9136.7144    8739.5861    323.43822     302.6911   -249.71029   -5474.5993 
10213000    30.781717   -6932.4034   -6853.2194   -6932.4034            0    9162.8515    23.031914    21.018009    21.358171     10339.17    9036.5095    9750.2795    8701.7654   -151.85856    102.30985    -5.050321   -5471.5879 
10214000    30.529663   -6931.3591   -6852.8234   -6931.3591            0     8839.959    22.909234    21.186508    21.321516    10348.754    9797.9581    7974.2046    8747.7143   -410.46525   -34.224198    92.289251   -5518.6442 
10215000    30.251556   -6934.7274   -6856.9071   -6934.7274            0    9022.3448    23.006045    21.073658    21.334745    10343.544    9188.2173    8941.6896    8937.1277   -811.32032   -569.06727   -81.960704   -5495.8866 
10216000    29.704305   -6930.1255    -6853.713   -6930.1255            0    8843.5972    22.958255    21.139047     21.32088    10347.357     8868.145    8727.4566    8935.1901    147.55505    61.491915   -71.343447   -5519.1648 
10217000    29.143903   -6927.7222   -6852.7512   -6927.7222            0    8960.9012    23.077883    21.005826    21.340214    10345.095    8660.6176    8982.5346    9239.5514     192.3184    -76.34111   -90.215896   -5500.7967 
10218000    30.693537   -6928.4679   -6849.5107   -6928.4679            0    9030.6179    22.924749    21.201667    21.270791    10338.517    9188.8901    8688.2901    9214.6736    211.61953    8.3991172    56.348789   -5487.9042 
10219000    29.239314   -6927.7925   -6852.5761   -6927.7925            0    9144.3418    23.076245    21.034661    21.300768    10339.414    8895.7242    9240.8668    9296.4343   -325.82781   -49.216477   -60.923985   -5473.7031 
10220000    29.703869   -6933.1253   -6856.7139   -6933.1253            0     9075.134    22.880783    21.223014    21.287344    10337.117    9453.0342     8522.246    9250.1217    90.707125    97.681272    355.45907   -5488.5808 
10221000    28.844323      -6927.9   -6853.6997      -6927.9            0    9109.8365    23.088938    21.016539    21.320122     10345.58    9131.8519    9026.2167    9171.4409   -505.75668   -233.09167   -20.836689   -5479.2106 
10222000    30.465651   -6932.9459   -6854.5748   -6932.9459            0    9169.6377    22.910649    21.203623    21.277362    10336.303    8991.7446      9099.05    9418.1185    377.42127    689.06393    60.893302   -5472.3034 
10223000    30.861455   -6936.0201   -6856.6309   -6936.0201            0    8712.5501    23.099258    21.024323    21.328156     10357.94    8464.9175    9334.5685    8338.1641    303.42347    -564.7638   -79.365615   -5540.5138 
10224000    30.840199   -6927.0166   -6847.6821   -6927.0166            0    9284.9039    22.856667    21.210446    21.315483    10333.748    9938.1833    8892.3154    9024.2131    134.53868    132.76078   -92.192304    -5448.381 
10225000    28.777783   -6929.3184   -6855.2893   -6929.3184            0    8707.2835    23.102179    21.006848    21.341217    10356.977    8362.5604    9183.7301    8575.5601   -163.19052   -377.09777   -40.010259     -5540.09 
10226000    30.944837    -6932.939   -6853.3353    -6932.939            0    8754.8968     22.92485    21.199161    21.289422    10346.395     9386.806     8304.772    8573.1124    72.390354   -666.91728   -23.969992   -5532.2952 
10227000    31.778125   -6927.4796   -6845.7323   -6927.4796            0    8944.4168     23.08754    21.038476    21.301618    10346.764    8318.1144     9469.203    9045.9328    -77.99818   -369.44757   -348.64689   -5496.0472 
10228000    31.514192   -6929.6981   -6848.6298   -6929.6981            0    8565.9749    22.952756    21.177749    21.303878    10355.553    8976.4103    7859.1549    8862.3593   -164.19956   -9.3241243    282.16428   -5554.9524 
10229000    30.517369   -6929.1741     -6850.67   -6929.1741            0    9000.3393    23.032205    21.068799    21.315763    10343.706    9015.6324     9316.129    8669.2566     14.70713   -211.63242     -351.996   -5492.9477 
10230000    31.777929   -6929.8385   -6848.0917   -6929.8385            0     8910.864    22.920997    21.177676    21.307914    10343.148    8668.9383    8863.5705    9200.0831    423.31535   -116.54839     230.3733   -5503.9395 
10231000    30.853781   -6928.4705    -6849.101   -6928.4705            0    8942.5046    23.000187    21.102007      21.3124    10343.976    8923.8444    9044.8102    8858.8592    121.75646    179.32513    19.371152   -5500.0681 
10232000    31.132884   -6930.1463   -6850.0588   -6930.1463            0    8986.1265    22.980798    21.134209    21.281316    10335.931    9052.0065    8666.2018    9240.1714    223.57847   -99.886071    167.75013   -5495.4996 
10233000    31.145843   -6934.1832   -6854.0624   -6934.1832            0    8988.7576    22.982291    21.125644    21.288691    10335.994    8836.7349    9186.6652    8942.8727   -185.70326    -4.473692   -40.119262   -5499.0983 
10234000    29.452023    -6927.711   -6851.9475    -6927.711            0    8811.5861    22.996957     21.11476    21.296831    10341.214    8976.1063    8914.4379     8544.214   -321.97807    42.493022   -273.20177   -5523.0194 
10235000    29.445121   -6929.1583   -6853.4125   -6929.1583            0    8963.0482    22.994002    21.098588    21.317042    10341.771    9105.2922    8877.9753    8905.8769    247.54811   -77.892357    4.5393082   -5501.5686 
10236000    30.005354    -6931.383   -6854.1961    -6931.383            0    8877.8453    23.039639    21.089474    21.297088    10348.124    8476.5852    9032.6827     9124.268    621.31958   -186.24013    194.83071   -5514.3802 
10237000    29.639078   -6929.8996   -6853.6548   -6929.8996            0    8962.7576    22.995309    21.165881    21.231177    10333.553    8766.2061    8723.7875    9398.2792    176.62185   -4.4690667    -61.26835    -5502.929 
10238000    31.524544   -6929.4092   -6848.3143   -6929.4092            0    8995.7988    23.055417    21.104551    21.245004    10337.271    8347.4938    9005.5401    9634.3626   -5.0947938    331.55179   -178.74193   -5492.1211 
10239000    29.721651   -6929.3154   -6852.8583   -6929.3154            0    9099.5328     22.91847    21.143393    21.329964    10335.951    9410.0844    9157.2896    8731.2243    426.23348    417.12958    266.67731   -5481.2017 
10240000    29.826579   -6928.2901   -6851.5631   -6928.2901            0    8969.8741    23.025356    21.055654    21.347255    10349.446    8849.5204    9333.2933    8726.8086   -196.05463     41.91929    311.58992   -5497.6856 
10241000    29.573633   -6929.4089   -6853.3325   -6929.4089            0    9192.2896     22.90192     21.24003    21.245281    10334.501    9431.0238    8282.8116    9863.0332   -475.69581    436.69854    237.87339   -5467.8882 
10242000    29.995244   -6930.9792   -6853.8183   -6930.9792            0    8822.8645    23.087766    21.090507    21.237948    10341.451    8348.0437    9020.4671    9100.0826   -132.16735    -123.7478    -1.683082   -5523.1587 
10243000    30.682436   -6929.6871   -6850.7584   -6929.6871            0      8819.53    22.957051    21.172608    21.284631    10345.621    8837.3142    8644.4463    8976.8295    84.810787    195.73325   -55.997985   -5520.0653 
10244000    30.143264   -6930.3773   -6852.8356   -6930.3773            0    8954.8214     23.08386    20.972331    21.387252    10354.047     8649.114    10475.425    7739.9252    373.05344   -323.43039   -314.09152   -5500.6293 
10245000    31.957586    -6929.607   -6847.3981    -6929.607            0    8942.7191    22.941446    21.156671    21.315874    10345.971    9529.7303     8703.508    8594.9191    159.95705   -135.96132   -44.849078   -5498.0726 
10246000    29.841438   -6929.9403    -6853.175   -6929.9403            0    8997.3171    23.086038    21.068698    21.252192    10336.913    8564.2699    9251.2451    9176.4363   -576.99487    102.37794   -291.02561      -5496.8 
10247000    30.645038   -6930.4476   -6851.6152   -6930.4476            0    8959.3213     22.95515    21.205919    21.234134    10336.459      9191.85    8179.7532    9506.3608    217.34906   -175.25045    138.14026   -5501.0275 
10248000    30.026807   -6927.7072    -6850.465   -6927.7072            0    9040.1267    23.055837    21.039458    21.321324    10342.597    8915.2621    9731.4517    8473.6662    167.08361   -522.01136   -646.50822   -5486.8869 
10249000    30.537649   -6932.5438   -6853.9876   -6932.5438            0    9117.4644    22.912901    21.163744    21.321208    10339.139    9798.1082    8642.3353    8911.9497    95.866818   -46.354963    145.71648   -5479.2039 
10250000    32.914058   -6930.2151   -6845.5457   -6930.2151            0    8796.0922    23.137942    21.036288    21.264208    10350.064    8347.6962    9316.5399    8724.0405    65.369835   -481.18564    -31.56512   -5517.8189 
Loop time of 626.844 on 64 procs for 250000 steps with 1296 atoms

Performance: 68.917 ns/day, 0.348 hours/ns, 398.824 timesteps/s
195.6% CPU use with 32 MPI tasks x 2 OpenMP threads

MPI task timing breakdown:
Section |  min time  |  avg time  |  max time  |%varavg| %total
---------------------------------------------------------------
Pair    | 38.606     | 49.529     | 61.884     | 116.1 |  7.90
Bond    | 0.87727    | 1.0868     | 1.4277     |  12.3 |  0.17
Kspace  | 321.46     | 343.61     | 363.69     |  56.9 | 54.82
Neigh   | 0.14252    | 0.17117    | 0.19387    |   3.4 |  0.03
Comm    | 80.427     | 92.171     | 102.81     |  61.2 | 14.70
Output  | 0.58712    | 0.58747    | 0.58918    |   0.0 |  0.09
Modify  | 115.2      | 119.44     | 121.92     |  16.8 | 19.05
Other   |            | 20.25      |            |       |  3.23

Nlocal:        40.5000 ave          50 max          30 min
Histogram: 2 6 1 5 2 0 0 4 7 5
Nghost:        3228.34 ave        3244 max        3212 min
Histogram: 2 2 4 5 3 5 2 3 2 4
Neighs:        13499.3 ave       16699 max       10037 min
Histogram: 5 4 3 3 1 0 0 6 7 3

Total # of neighbors = 431978
Ave neighs/atom = 333.31636
Ave special neighs/atom = 2.0000000
Neighbor list builds = 266
Dangerous builds = 0

unfix		3
unfix		2
unfix		1

write_data	data.final.${pid}
write_data	data.final.0
System init for write_data ...
PPPM initialization ...
  extracting TIP4P info from pair style
  using 12-bit tables for long-range coulomb (../kspace.cpp:340)
  G vector (1/distance) = 0.37121454
  grid = 30 36 32
  stencil order = 5
  estimated absolute RMS force accuracy = 0.0037612192
  estimated relative force accuracy = 1.13268e-05
  using double precision FFTW3
  3d grid and FFT values/proc = 7344 1152
Last active /omp style is kspace_style pppm/tip4p/omp
WARNING: Not all mixed pair coeffs generated from mixing. Use write_data with 'pair ij' option to store all pair coeffs. (../write_data.cpp:312)

write_restart   restart.lmp.${pid}
write_restart   restart.lmp.0
System init for write_restart ...
PPPM initialization ...
  extracting TIP4P info from pair style
  using 12-bit tables for long-range coulomb (../kspace.cpp:340)
  G vector (1/distance) = 0.37121454
  grid = 30 36 32
  stencil order = 5
  estimated absolute RMS force accuracy = 0.0037612192
  estimated relative force accuracy = 1.13268e-05
  using double precision FFTW3
  3d grid and FFT values/proc = 7344 1152
Last active /omp style is kspace_style pppm/tip4p/omp
Total wall time: 0:10:26
