#include		in.partitions
include		in.temp
variable        temperature equal 145.10
variable	tempDamp equal 100.0
include		in.pressure
variable        pressure equal 2053.3
variable        pressureDamp equal 1000.0 # This is 1 ps
include		in.seed
variable        seed equal 745823

units		real
atom_style	full
box tilt large
read_restart	restart.lmp.${pid}
read_restart	restart.lmp.0
Reading restart file ...
  restart file = 30 Jul 2021, LAMMPS = 30 Jul 2021
  restoring atom style full from restart
  triclinic box = (-10.724059 -9.1872060 0.071466068) to (12.704059 12.177204 21.788533) with tilt (-9.0845934 1.7090941 2.9596496)
  4 by 2 by 4 MPI processor grid
  restoring pair style lj/cut/tip4p/long/omp from restart
  restoring bond style harmonic/omp from restart
  restoring angle style harmonic/omp from restart
  1296 atoms
  864 bonds
  432 angles
Finding 1-2 1-3 1-4 neighbors ...
  special bond factors lj:    0        0        0       
  special bond factors coul:  0        0        0       
     2 = max # of 1-2 neighbors
     1 = max # of 1-3 neighbors
     1 = max # of 1-4 neighbors
     2 = max # of special neighbors
  special bonds CPU = 0.002 seconds
  read_restart CPU = 0.009 seconds
include 	in.setup
variable	out_freq equal 1000
variable	out_freq2 equal 10000
variable	out_freq3 equal 1000

timestep	2.0

neigh_modify    delay 7 every 1

include		in.tip4p
# This is TIP4P/Ice

# create groups ###
group ox type 2
432 atoms in group ox
group hy type 1
864 atoms in group hy

# set charges - beside manually ###
set group ox charge -1.1794
Setting atom values ...
  432 settings made for charge
set group hy charge 0.5897
Setting atom values ...
  864 settings made for charge

# ### TIP3P Potential Parameters ###
pair_style lj/cut/tip4p/long/omp 2 1 1 1 0.1577 8.5
pair_coeff 1 1*2 0.000 0.000
pair_coeff 2 2 0.21084 3.1668
bond_style  harmonic
bond_coeff  1 450 0.9572
angle_style harmonic
angle_coeff 1 55 104.52
kspace_style pppm/tip4p/omp 1.0e-5
pair_modify tail yes

thermo          ${out_freq}
thermo          1000
thermo_style    custom step temp pe etotal epair emol press lx ly lz vol pxx pyy pzz pxy pxz pyz enthalpy

restart 	${out_freq3} restart.lmp.${pid} restart2.lmp.${pid}
restart 	1000 restart.lmp.${pid} restart2.lmp.${pid}
restart 	1000 restart.lmp.0 restart2.lmp.${pid}
restart 	1000 restart.lmp.0 restart2.lmp.0


include         in.dump
dump            myDump all atom ${out_freq2} dump.water.${pid}
dump            myDump all atom 10000 dump.water.${pid}
dump            myDump all atom 10000 dump.water.0
dump            myDump2 all dcd ${out_freq2} dump.dcd
dump            myDump2 all dcd 10000 dump.dcd
dump_modify     myDump append yes
dump_modify     myDump2 append yes


variable natoms 	equal  "count(all)"                        # NUMBER ATOMS
variable H      	equal  "enthalpy/v_natoms"                 # ENTHALPY-per-atom
variable Vol      	equal  "vol/v_natoms"                 # volume-per-atom
fix AVG all 		ave/time ${out_freq} 1 ${out_freq} v_Vol v_H file vol_enthalpy.dat
fix AVG all 		ave/time 1000 1 ${out_freq} v_Vol v_H file vol_enthalpy.dat
fix AVG all 		ave/time 1000 1 1000 v_Vol v_H file vol_enthalpy.dat


timer           timeout 10:00:00 every 1000
New timer settings: style=normal  mode=nosync  timeout=10:00:00

fix 		1 all shake 1e-6 200 0 b 1 a 1
       0 = # of size 2 clusters
       0 = # of size 3 clusters
       0 = # of size 4 clusters
     432 = # of frozen angles
  find clusters CPU = 0.005 seconds
fix             2 all nph tri ${pressure} ${pressure} ${pressureDamp}
fix             2 all nph tri 2053.3 ${pressure} ${pressureDamp}
fix             2 all nph tri 2053.3 2053.3 ${pressureDamp}
fix             2 all nph tri 2053.3 2053.3 1000
fix             3 all temp/csvr ${temperature} ${temperature} ${tempDamp} ${seed}
fix             3 all temp/csvr 145.1 ${temperature} ${tempDamp} ${seed}
fix             3 all temp/csvr 145.1 145.1 ${tempDamp} ${seed}
fix             3 all temp/csvr 145.1 145.1 100 ${seed}
fix             3 all temp/csvr 145.1 145.1 100 745823


run             250000
PPPM initialization ...
  extracting TIP4P info from pair style
  using 12-bit tables for long-range coulomb (../kspace.cpp:340)
  G vector (1/distance) = 0.36740101
  grid = 30 40 32
  stencil order = 5
  estimated absolute RMS force accuracy = 0.004496805
  estimated relative force accuracy = 1.3541995e-05
  using double precision FFTW3
  3d grid and FFT values/proc = 7888 1280
Last active /omp style is kspace_style pppm/tip4p/omp
Neighbor list info ...
  update every 1 steps, delay 7 steps, check yes
  max neighbors/atom: 2000, page size: 100000
  master list distance cutoff = 10.8154
  ghost atom cutoff = 10.8154
  binsize = 5.4077, bins = 7 5 5
  1 neighbor lists, perpetual/occasional/extra = 1 0 0
  (1) pair lj/cut/tip4p/long/omp, perpetual
      attributes: half, newton on, omp
      pair build: half/bin/newton/tri/omp
      stencil: half/bin/3d/tri
      bin: standard
Per MPI rank memory allocation (min/avg/max) = 10.65 | 10.66 | 10.67 Mbytes
Step Temp PotEng TotEng E_pair E_mol Press Lx Ly Lz Volume Pxx Pyy Pzz Pxy Pxz Pyz Enthalpy 
19000000    151.84106   -6605.7805   -6215.1786   -6605.7805            0    1869.1982    23.428118     21.36441    21.717067    10869.998    1963.9487    2189.5603    1454.0855   -282.14856    1030.8653   -760.95411   -5918.8588 
19001000    146.76213   -6635.2336    -6257.697   -6635.2336            0    1537.9851    23.364421    21.321819    21.835319    10877.744    1053.3114    2896.7326     663.9113    617.14109   -309.93459    -35.60913   -6013.7099 
19002000    144.76995   -6625.3211   -6252.9092   -6625.3211            0    2640.3854      23.3046    21.330286    21.815776    10844.487    3146.6764    3329.2652    1445.2145    262.69374   -44.304641   -826.91729   -5835.3172 
19003000    144.38633   -6627.9985   -6256.5735   -6627.9985            0    2593.6646    23.317262    21.382842    21.747562    10843.102    2427.8648    3378.7004    1974.4286   -604.40136    138.96827   -444.37911   -5846.4229 
19004000    140.02142   -6636.6078   -6276.4112   -6636.6078            0    546.08039    23.417592    21.438182    21.762706    10925.544    371.08586    523.66847    743.48686    161.98991   -460.56705    776.51916   -6189.3999 
19005000    146.08891   -6632.7397   -6256.9349   -6632.7397            0    1419.1589    23.412912    21.372283    21.776106    10896.488    428.12948    1540.2021    2289.1449   -59.730503     854.6976    872.44293   -6031.4105 
19006000    148.44291   -6630.0993   -6248.2389   -6630.0993            0    1829.0785    23.372444     21.38806    21.791929    10893.595    1057.2689    2754.6291    1675.3376   -403.91068    1191.5442   -493.40066   -5957.6497 
19007000    141.22631   -6632.4889   -6269.1928   -6632.4889            0    1948.6089    23.336504    21.437601    21.727887    10869.998    1170.4987    1467.7643    3207.5636    241.23654   -599.85088    817.71864   -5960.2841 
19008000    145.26566    -6626.479   -6252.7919    -6626.479            0    1716.6747    23.224697    21.440869    21.798838    10854.899    1928.1587    1527.1716    1694.6939   -338.33886    889.36121    309.01342   -5981.0293 
19009000     151.2739    -6621.817   -6232.6741    -6621.817            0    2289.4758    23.319505    21.482512    21.656965    10849.307    2854.1113    2422.6655    1591.6507    478.87071   -625.63726   -58.070347   -5870.4195 
19010000      142.921   -6617.1921   -6249.5365   -6617.1921            0    2711.9122    23.284008    21.357354    21.814481    10848.009    2811.8526    3324.7481    1999.1357   -213.66862    724.38213   -92.323642   -5820.4928 
19011000    142.73452   -6623.5524   -6256.3766   -6623.5524            0    2102.4296    23.164276    21.593698    21.737484    10873.141    2434.6615    1736.0448    2136.5824   -436.69362   -226.75609   -230.94219   -5922.9867 
19012000    142.79024    -6600.522   -6233.2028    -6600.522            0    2464.1317    23.256846    21.559567    21.640646    10850.783    2572.5964     1532.597    3287.2017    1621.4761    661.20416    1039.2584     -5843.26 
19013000     149.8132   -6625.5963    -6240.211   -6625.5963            0    1586.3835    23.317044     21.48265    21.709849    10874.721    691.91688    1489.4511    2577.7826   -202.71757    296.58825    383.85559   -5988.6158 
19014000    139.46379   -6634.7087   -6275.9466   -6634.7087            0     2029.821    23.272909    21.374909    21.797993    10843.549    2203.4189    2154.0334    1732.0106    586.28575    -42.51758   -334.31024   -5954.9465 
19015000    145.38181   -6625.6026   -6251.6167   -6625.6026            0    2343.7748    23.314744    21.343252    21.841928    10868.815    2930.5313    1308.0883    2792.7049   -1478.9752   -201.75752    1732.4848   -5880.1038 
19016000    144.12525   -6626.8172   -6256.0638   -6626.8172            0    2449.7143     23.41311    21.454107    21.615851    10857.801    1962.8487    2596.8633    2789.4308    225.05106    154.77542   -446.24848   -5868.1518 
19017000    145.32121   -6631.2014   -6257.3714   -6631.2014            0    1183.8906    23.375082    21.425461    21.764455    10900.116    59.323594    1766.5736    1725.7747     792.5657    189.06582    841.18633   -6069.1719 
19018000    144.23932   -6645.1899   -6274.1431   -6645.1899            0    2021.6635    23.254737     21.37871    21.863437    10869.545    2844.5059    2011.1633    1209.3213    -1209.818   -540.63646   -788.36963   -5953.6666 
19019000    147.93292   -6643.9438   -6263.3954   -6643.9438            0    2983.5947    23.302035    21.327534    21.739651    10804.062    2495.2133    3548.8536    2906.7173    685.95869    597.76384   -1043.2299   -5793.2818 
19020000    148.61204   -6647.6251   -6265.3297   -6647.6251            0    2124.9386    23.308745    21.392761    21.697777    10819.345    1399.9531    2947.8404    2027.0224   -366.25025    818.99688   -3.5603837   -5930.0376 
19021000     143.9054   -6645.3286   -6275.1407   -6645.3286            0    2795.7928    23.280104    21.406126    21.720712    10824.231    2643.0188    2498.2064    3246.1532     748.9515    393.58737     150.5831    -5833.796 
19022000    150.68635   -6639.7921   -6252.1606   -6639.7921            0    2019.8556    23.308022    21.356658    21.797953    10850.617    1448.9562    2720.4429    1890.1676    -35.48589    657.11153    523.04209   -5932.5283 
19023000    145.72722   -6639.0882   -6264.2138   -6639.0882            0    1047.4074    23.435001    21.492709    21.624047    10891.635    731.02108    604.24282    1806.9584   -873.42394   -63.446835   -1474.1028   -6097.8401 
19024000    157.43891   -6616.7574   -6211.7553   -6616.7574            0    1997.7977    23.316232    21.420978    21.765117    10870.729    2054.0524    1249.7084    2689.6324     386.7552   -161.19456    724.66475   -5895.0276 
19025000    150.27145   -6622.4604   -6235.8963   -6622.4604            0     2219.642     23.27646    21.504139    21.695156    10859.298    2289.5053    2314.1619    2055.2587   -272.72181   -570.80447   -963.17935   -5884.3678 
19026000    146.65772   -6614.4296   -6237.1616   -6614.4296            0    2214.2738    23.128919    21.508734    21.799265    10844.562    2421.4672     2318.358    1902.9962   -770.17528    528.15598    890.90958   -5886.9591 
19027000    143.32619   -6613.2116   -6244.5137   -6613.2116            0    2616.9052    23.318074    21.449642    21.666148    10836.635    2865.3501    2237.8636    2747.5018    338.72734    -191.4684     309.5655   -5830.9349 
19028000    142.38653   -6643.7344   -6277.4537   -6643.7344            0    2506.9165    23.307476    21.416829    21.706323    10835.193     2594.256    2790.0054     2136.488   -548.18048   -251.37687    321.88121   -5881.3103 
19029000    144.24553   -6638.3947   -6267.3319   -6638.3947            0    1662.2589    23.394414    21.247893    21.872362    10872.358    1256.3909    2646.5419    1083.8437    1049.5783    651.71747    928.75329   -6003.7605 
19030000    155.56627   -6632.8062   -6232.6214   -6632.8062            0    2181.3541    23.458779    21.274579     21.81239    10886.033    2485.4864    2289.4731    1769.1028    277.12664   -1967.5674    413.03698   -5886.3061 
19031000     148.3196   -6620.2855   -6238.7424   -6620.2855            0    2248.0452    23.402132    21.327215    21.789411    10875.146     3161.373    1974.0843    1608.6781   -413.59753   -494.46765   -575.35478    -5882.196 
19032000    141.20257   -6607.5892   -6244.3542   -6607.5892            0    2768.7352    23.304291    21.391296    21.757496    10846.307    2595.5313    3350.2093     2360.465   -380.36852   -323.79462   -185.24644   -5806.3894 
19033000     143.3454   -6625.5934   -6256.8461   -6625.5934            0    2024.7163     23.28137    21.506653    21.686448    10858.499    2007.5791    1313.0754    2753.4944    128.51599   -300.73748    445.29046   -5936.2119 
19034000    143.31667   -6631.3823   -6262.7089   -6631.3823            0    1925.6955    23.136498    21.564837    21.763198    10858.417    2916.1894    830.91055    2029.9865   -797.91226    1706.9417    1086.0994   -5957.7579 
19035000    145.05486   -6646.0449   -6272.9001   -6646.0449            0     2143.639    23.151597    21.534278    21.766249    10851.627    3132.3582    1964.0028     1334.556    24.875777   -442.56052   -519.96245   -5933.6481 
19036000    140.72091   -6633.2186   -6271.2226   -6633.2186            0    1641.2208    23.238885    21.562052    21.687496    10867.128    1581.2665    1108.7587    2233.6372    42.258528    950.03475    1171.3433   -6011.1122 
19037000    139.44227   -6610.7067        -6252   -6610.7067            0    1991.1869    23.327921    21.548653    21.626433    10871.289    1528.8739    2234.8481    2209.8386    583.04165    481.31919   -440.46499   -5936.3041 
19038000    144.23177    -6632.396   -6261.3686    -6632.396            0    1208.7879     23.34867    21.442966    21.755559    10892.241    1686.1659    1246.9375    693.26027    25.512409   -255.53092   -731.49251     -6069.35 
19039000     141.7866   -6619.3448   -6254.6074   -6619.3448            0    2059.4266     23.37769     21.30321    21.843214    10878.354    1512.3704    2326.8708    2339.0386    436.55614   -304.53034    478.58494   -5927.8801 
19040000    143.77629   -6638.4983   -6268.6426   -6638.4983            0    2588.4654    23.373272    21.314581    21.741807    10831.584    1765.6679    4180.3803    1819.3481    145.33526   -113.35816   -408.44116   -5859.7491 
19041000    147.99502   -6653.5032    -6272.795   -6653.5032            0    2193.5791    23.440519    21.327658    21.647321    10822.175    1508.7757    2078.7529    2993.2087    927.20608   -394.47142    380.76521   -5926.5817 
19042000    139.98482   -6622.3234    -6262.221   -6622.3234            0    2410.3415    23.347528    21.424725    21.652164    10830.724    3246.7871      1690.22    2294.0173   -45.275343   -409.59851   -257.39041   -5881.4955 
19043000    148.32333   -6629.1534   -6247.6007   -6629.1534            0    2797.6261    23.265531    21.525296    21.623574    10829.031    3981.4884    1340.2563    3071.1337   -827.92189     569.9332     794.8219   -5805.7708 
19044000    149.26056   -6635.4645   -6251.5008   -6635.4645            0    2294.8218    23.218897    21.501573    21.710737    10838.929    2478.1101     1751.526    2654.8293    778.25532   -17.301997    796.32579   -5888.7476 
19045000    139.18552   -6657.1991   -6299.1529   -6657.1991            0    2110.5958    23.211817    21.551985    21.666619    10838.959    2856.7679     516.9031    2958.1164    34.480978   -1005.8267    469.97886   -5965.5202 
19046000    146.76924   -6626.5862   -6249.0312   -6626.5862            0    2111.0696    23.152596    21.531609    21.733461    10834.405    2511.9409    2426.9672    1394.3008    827.75799     1013.581    97.648611   -5915.4639 
19047000     146.5118   -6651.5585   -6274.6658   -6651.5585            0     2048.141    23.202689     21.53547    21.696364    10841.257    2554.9515    944.53997    2644.9317   -658.52448   -501.51417   -549.71229   -5950.8371 
19048000    150.55507   -6636.2671   -6248.9734   -6636.2671            0    1804.5031    23.308112    21.429423    21.768833    10873.083    2279.7871    2207.9104    925.81185   -348.90471   -533.47438   -440.12914   -5962.8283 
19049000    151.64253    -6634.234   -6244.1428    -6634.234            0    2272.1648    23.314039     21.32765    21.781657    10830.573    2353.0636    2486.5606    1976.8702   -404.61886   -61.876512    218.69843    -5885.248 
19050000    146.54398    -6629.321   -6252.3456    -6629.321            0    2597.3037    23.329298    21.354477    21.745858    10833.459    2412.2667    2699.6362    2680.0081   -171.45303    52.747085   -508.36641   -5841.9849 
19051000    142.05032   -6607.9827   -6242.5669   -6607.9827            0    1975.6386    23.322616    21.451218    21.731106     10872.04    1716.4674    1901.3019    2309.1465   -162.90476    303.59474    671.83255   -5929.3145 
19052000    137.77423   -6626.6438    -6272.228   -6626.6438            0    1286.6209    23.434033    21.418255    21.720686    10901.962    1093.8164    1408.3164    1357.7299   -694.96551    162.23165    -949.0863   -6067.6631 
19053000    142.81278   -6641.1425   -6273.7653   -6641.1425            0    1214.7607    23.348083    21.423791    21.787215    10898.062    1284.8627    1257.6078    1101.8114   -417.11442    278.73702    771.99298   -6080.6948 
19054000    149.65871   -6633.1628   -6248.1749   -6633.1628            0     1886.787    23.276435    21.457254     21.73217    10854.098    1283.8814    1511.5985    2864.8811    236.07655    189.53226    952.06007   -5949.5043 
19055000    149.94606   -6634.8915   -6249.1644   -6634.8915            0    2040.7881     23.23356    21.477945    21.797289    10877.047    2424.2686    1739.1445    1958.9513   -243.26383   -228.61694   -653.91343    -5925.433 
19056000    148.66807   -6616.9302   -6234.4906   -6616.9302            0    2136.8025    23.232129    21.442071    21.783669    10851.425    1903.1823    2643.0238    1864.2014    230.93471    146.71832    297.86245   -5896.3269 
19057000    146.89143   -6631.4032   -6253.5339   -6631.4032            0    2741.7822    23.315662    21.494167    21.600013    10824.862    3155.7957    1905.1081    3164.4428    598.66142   -590.24234   -2.3242077   -5820.6901 
19058000    142.51893   -6627.7826   -6261.1613   -6627.7826            0    2063.1774    23.362929    21.384926    21.772244    10877.729    1682.3247    2299.7403    2207.4672   -543.89761   -598.31405   -194.83206   -5933.8577 
19059000    146.25239   -6629.1335   -6252.9081   -6629.1335            0    1196.4788    23.402129    21.364572    21.813851    10906.412     1444.817    826.96436    1317.6551   -439.51901    714.99925    625.28079   -6062.5976 
19060000    138.53022   -6637.3725    -6281.012   -6637.3725            0    1461.1723    23.367588     21.43385    21.788136    10912.749    1781.9869    1591.3464    1010.1836   -363.87427   -244.23792   -824.10928   -6048.4646 
19061000     148.5287    -6638.979    -6256.898    -6638.979            0    1584.4409    23.345078     21.33513    21.790845    10853.373    2071.8898    1334.8831    1346.5498   -260.43186    1153.8944    370.59117   -6006.1043 
19062000    145.19721   -6623.8133   -6250.3024   -6623.8133            0    1569.9919    23.272567    21.482167    21.763316    10880.464    706.00715     2609.505    1394.4636   -416.78081   -360.19519   -489.11999   -6001.1754 
19063000    150.02757   -6621.4238    -6235.487   -6621.4238            0    1776.7947    23.317129     21.47812    21.720453    10877.779    2241.7248    972.58689    2116.0724    185.60153   -15.317802    475.15439   -5953.6141 
19064000    143.17426   -6631.5856   -6263.2785   -6631.5856            0    1409.9598    23.246205    21.493786    21.715261    10850.008    1631.8171     572.9692     2025.093   -337.90345     689.2508    816.67346   -6040.1718 
19065000    141.72026   -6647.6231   -6283.0564   -6647.6231            0     3415.726    23.230337     21.47173    21.622029    10784.972    4232.3058    2663.3445    3351.5276   -235.70572   -948.86726   -937.18204   -5745.8045 
19066000    146.96468   -6615.4316   -6237.3739   -6615.4316            0    3077.7478    23.242692    21.403321    21.763929    10826.919    4025.7993    3502.6535    1704.7907    -557.0355    147.95091    178.54194    -5751.399 
19067000    138.62818   -6637.5034   -6280.8908   -6637.5034            0    2310.7694      23.2975    21.410246    21.746604    10847.319    2138.1941    2412.9404    2381.1736    -312.6137    378.30679   -3.8137719    -5915.334 
19068000    142.50795   -6639.0303   -6272.4373   -6639.0303            0    787.13256    23.545262     21.29698    21.753476    10908.128   -67.665941    1540.7957    888.26796    209.80168     189.1051   -361.38342   -6147.2172 
19069000    137.17343   -6640.7772   -6287.9069   -6640.7772            0    1045.5658    23.456282    21.277821    21.827632     10894.14    25.481268    2273.9042    837.31197    407.40166    460.78011   -182.22779   -6121.7875 
19070000    145.30555   -6636.7637    -6262.974   -6636.7637            0    1533.9713    23.473204    21.384741    21.686517    10885.946    395.92893    2257.8826    1948.1024   -33.726228    327.17464   -213.83945   -6019.4402 
19071000    145.65086   -6631.4303   -6256.7524   -6631.4303            0    2432.9375    23.329882    21.375714    21.736968    10840.071    2221.4332    2902.9976    2174.3816    258.17951     522.9952   -95.610899   -5872.1261 
19072000    151.35142   -6617.5377   -6228.1954   -6617.5377            0    2177.8557    23.273224    21.436044    21.740799    10846.177    1934.7938    2453.3676    2145.4059    262.38091    209.66611    1111.6752   -5883.7014 
19073000    142.18611   -6641.2827   -6275.5176   -6641.2827            0    1937.5509    23.259349    21.528806    21.673924    10853.131    1635.5524    1743.0165    2434.0838    320.11102    38.967035   -1216.4329   -5968.8386 
19074000    146.17358   -6637.2313   -6261.2086   -6637.2313            0    2406.7597    23.225078    21.492238    21.710498    10836.988    2233.9546    2369.2522    2617.0723   -48.064411    255.43586    303.09812    -5880.829 
19075000    146.92797   -6635.9923   -6258.0291   -6635.9923            0     1989.979    23.317341     21.56777    21.578751     10852.02    1451.8728    1311.7038    3206.3603    1517.1674    -113.7538   -239.25364   -5943.0839 
19076000    148.32847   -6642.9254   -6261.3595   -6642.9254            0    1722.7635    23.285646    21.537106    21.689761    10877.533    1864.1245    845.89594      2458.27   -218.48738   -687.77518    324.63278   -5988.0643 
19077000    144.11219   -6643.2024   -6272.4825   -6643.2024            0    2532.6372    23.198719    21.363064     21.86459    10835.997    3497.7611    2617.9701    1482.1804    79.946063   -257.73297    520.22723   -5872.2451 
19078000    158.24307   -6640.1665   -6233.0959   -6640.1665            0    2336.3936    23.324593    21.453878     21.63905    10828.245    2242.3761     2942.018    1824.7868   -25.149717   -223.83755   -1132.0157   -5864.1353 
19079000    143.90928   -6645.1617   -6274.9639   -6645.1617            0     2948.668    23.389634    21.342317    21.592555    10778.766    2393.1431    3356.1536    3096.7074    632.68545   -442.27015   -648.92277   -5811.4414 
19080000    151.39681   -6623.0255   -6233.5664   -6623.0255            0    2976.3147    23.312101    21.337823    21.780264    10834.146    2224.6097    4006.2788    2698.0557    946.13691    443.17245    311.44306   -5763.2941 
19081000    145.78186   -6646.4489   -6271.4339   -6646.4489            0    1033.7557    23.269054    21.448638    21.880254    10920.205     1994.248    661.95011    445.06893   -454.85946    319.32716    -539.0823    -6106.798 
19082000    146.32671   -6642.7167   -6266.3001   -6642.7167            0    1900.3301    23.216281    21.431218    21.764096    10828.795    2628.3304    1791.4471    1281.2129    353.15438    752.65178    384.29962   -5966.1869 
19083000    145.39231   -6635.5123   -6261.4994   -6635.5123            0    1446.1826    23.303915    21.545434    21.625899    10858.212    776.29513    1279.8868    2282.3658    722.98075   -204.43794    417.03646   -6032.4879 
19084000    153.30125   -6624.5388   -6230.1807   -6624.5388            0    1838.5851    23.263591    21.498986    21.761611    10883.931    1193.5132    2758.9842    1563.2579    1133.1114    745.92138   -500.24932   -5938.3403 
19085000    144.43118   -6636.0322   -6264.4918   -6636.0322            0    2174.8144    23.133149    21.453202     21.86776    10852.534    2822.8493    2372.9126    1328.6814   -335.66674    788.64365    187.80554   -5920.2772 
19086000    146.45741   -6646.0555   -6269.3027   -6646.0555            0    1793.7885     23.31475    21.449259    21.668056     10835.85    2227.9407    994.09451    2159.3304    909.53531   -772.36616    292.26219   -5985.8307 
19087000    142.12018   -6642.4698   -6276.8742   -6642.4698            0    2196.2152    23.365437    21.422244    21.632309    10827.838    1184.4845    2318.4389    3085.7222    163.41855    71.683769    461.88785   -5930.0635 
19088000    146.67497   -6632.0918   -6254.7794   -6632.0918            0    2658.3821    23.261729    21.330202    21.834436    10833.753    3490.0141    2890.0575    1595.0748     -876.027    824.80642    224.83489   -5834.7572 
19089000    138.98629   -6646.4046   -6288.8709   -6646.4046            0    2173.1658     23.29324     21.31766    21.832731    10841.203    2656.7326    2424.1302    1438.6344     289.7853   -1112.7356    532.98411   -5945.2763 
19090000    143.34958   -6639.1092   -6270.3512   -6639.1092            0    1853.3174    23.290555    21.427399    21.755191    10857.059    1789.3649    1426.1113    2344.4761     291.3512    -67.23023   -78.983733   -5976.8986 
19091000    138.88696   -6635.6541   -6278.3758   -6635.6541            0    1823.0352    23.355569     21.51371    21.629481    10868.056    1498.3515    1125.4096    2845.3444   -615.07136    493.29775   -181.53406   -5989.4257 
19092000    147.18204   -6637.4524   -6258.8355   -6637.4524            0    1605.1875    23.244042    21.470264    21.747451     10853.19    1951.3286    1730.3692    1133.8649   -395.61544    1106.5163    298.93752   -6004.7622 
19093000    147.52985   -6641.1421   -6261.6306   -6641.1421            0    2470.1665    23.273648    21.445919     21.70898     10835.49    2746.3573    2899.3086    1764.8337   -684.57529   -118.72191   -625.99735   -5871.2837 
19094000    149.09786   -6635.8346   -6252.2895   -6635.8346            0    2133.5164    23.335645    21.392996    21.703904    10835.009    1702.0143    2553.9802    2144.5548    625.09512   -909.48618   -57.629101   -5915.1566 
19095000    140.46946   -6644.1559   -6282.8068   -6644.1559            0      1420.21    23.425315    21.389258    21.692547    10869.053    1157.2893    1196.3582    1906.9826   -278.19059    990.95728   -147.34277   -6057.6836 
19096000      152.905   -6636.6564   -6243.3176   -6636.6564            0    1668.7262    23.375113    21.325645    21.816173     10875.13    809.52098    2869.8718    1326.7858     324.4508   -155.72026   -381.37442   -5978.6533 
19097000    146.13049   -6640.4738   -6264.5621   -6640.4738            0    1875.9918    23.372872    21.353106    21.750288    10855.208    1117.9723    1564.0818    2945.9214    701.98912   -76.255201   -394.30023   -5967.5699 
19098000    142.00145   -6647.4205   -6282.1305   -6647.4205            0    1974.5661    23.385771    21.413105    21.669391    10851.207    1643.2745    1629.8014    2650.6223   -576.96464    89.099738   -550.91945    -5969.648 
19099000    150.48681   -6642.3582   -6255.2401   -6642.3582            0    2690.1604    23.254353    21.393897    21.749913    10820.609    3498.6948    2398.9764    2172.8101   -230.79295   -794.90764    312.67017   -5830.7127 
19100000    147.42248   -6651.0837   -6271.8483   -6651.0837            0    2391.0776    23.164103    21.481782     21.75658    10826.209    2524.2404    2022.6732    2626.3192    -355.9416    586.48158    239.56237   -5894.3231 
19101000    141.68748    -6642.433   -6277.9506    -6642.433            0    2706.1959    23.235356    21.501057    21.637724    10809.876    2384.9147    3248.5615    2485.1114   -1085.3418    2.0976583    50.449723   -5851.3163 
19102000     148.6975   -6641.5125   -6258.9972   -6641.5125            0    2191.9855    23.288315    21.548793    21.617548    10848.444    2505.2759    1047.0312    3023.6495    -454.5024     361.3158    12.634921   -5912.1957 
19103000    150.36879   -6627.8746   -6241.0601   -6627.8746            0    1243.6344    23.147344    21.531054    21.877966    10903.688    2520.9745    106.99828    1102.9305   -409.54551   -1263.4733    738.20955   -6043.2985 
19104000    150.08925    -6642.076   -6255.9805    -6642.076            0    944.62975    23.312019    21.473365    21.793996    10909.802     1008.603    779.80193    1045.4843   -361.38571    614.32199    478.26912   -6105.6821 
19105000    142.58242   -6614.7765   -6247.9919   -6614.7765            0     677.9897    23.455705    21.423335    21.736619    10922.639   -753.21338    1676.3784    1110.8041   -126.89145    135.87941    888.83842   -6139.9912 
19106000     145.0219    -6648.342    -6275.282    -6648.342            0     1911.265    23.407792    21.367001    21.745917    10876.314     1704.849    1875.5672    2153.3789    1098.2151   -452.31025    14.927006   -5972.1174 
19107000    143.03091   -6635.8912   -6267.9529   -6635.8912            0    1062.5217    23.375792    21.419357     21.78802     10909.14   -50.877195    1669.1467    1569.2956    279.41175    533.10959    913.87676   -6098.9071 
19108000    145.36631    -6638.139    -6264.193    -6638.139            0    1361.4538    23.437018    21.348722    21.755465    10885.355     462.1069    1901.1128    1721.1416    1524.3628      245.627    454.04576   -6048.0598 
19109000    140.79425   -6631.8781   -6269.6935   -6631.8781            0    2584.4788    23.362042    21.380388    21.686087    10831.973    2290.8466    2956.8305    2505.7594    33.245867    255.33493    -241.1478   -5861.4151 
19110000    143.02038   -6638.7772    -6270.866   -6638.7772            0    2921.7137    23.195367    21.400501    21.781223    10812.035    3288.9141    3110.5999     2365.627    126.49883   -204.32744    -248.3228    -5810.163 
19111000     144.4454    -6625.556    -6253.979    -6625.556            0    1924.5329    23.249437    21.467876    21.749858    10855.703    2542.2437    1203.1853    2028.1696    169.29603   -1129.2768    833.37183   -5949.2883 
19112000    145.74556   -6629.9768   -6255.0553   -6629.9768            0    1564.0636     23.32417    21.580552    21.600949    10872.805    1734.4221    1555.4313    1402.3376    513.78572      286.762   -403.81951   -6007.0437 
19113000    144.05178    -6627.975   -6257.4106    -6627.975            0    1929.8371    23.281137    21.464544    21.758399    10873.085    2064.4987     1470.799    2254.2136    63.587352    -315.2405    568.37841   -5951.3909 
19114000    148.38801   -6632.6184   -6250.8993   -6632.6184            0    871.83195    23.298991    21.472581    21.856337    10934.496    481.24824    1701.3777    432.86995    539.85085    -129.7408   -35.902096   -6111.8696 
19115000    145.80944   -6626.3406   -6251.2547   -6626.3406            0    1791.8612     23.27685    21.313808    21.923815    10876.806    1557.5071     2271.729    1546.3474    -1102.055    828.72872    811.86383    -5967.017 
19116000    138.96052   -6641.4134    -6283.946   -6641.4134            0    2233.3204    23.404419    21.372363     21.69269    10850.852    1600.2917    2130.7501    2968.9194    221.38519   -801.62709      657.877   -5930.5263 
19117000    138.53984   -6660.4225   -6304.0371   -6660.4225            0    1627.2786    23.372426    21.385992    21.746033    10869.592    1876.9856    2384.1473    620.70311    454.92558   -1199.5065   -1244.3573   -6046.0779 
19118000    137.95551    -6632.133   -6277.2508    -6632.133            0    855.09867    23.338373    21.390151    21.778262    10871.955    2045.1477    431.49614    88.652197   -307.79995    110.70499    1013.4436   -6141.6696 
19119000     145.8074    -6637.972   -6262.8914    -6637.972            0    2219.2608    23.375197    21.354447    21.733531    10848.605    2169.8593    2164.9212    2323.0017    486.92951   -643.81165   -213.62368   -5911.7693 
19120000    146.23158   -6640.4687   -6264.2969   -6640.4687            0    2211.3124    23.282972    21.453712    21.751018    10864.768     2768.429    2370.2619    1495.2462    459.96508   -826.73467    263.89954   -5913.9111 
19121000    140.47148   -6624.3368   -6262.9825   -6624.3368            0    2552.1649    23.334164    21.351536    21.755265    10838.914    2489.1365    3204.7377    1962.6206   -342.93394     1717.275    476.92288   -5859.5505 
19122000     147.5445   -6619.3531   -6239.8039   -6619.3531            0    2401.8795    23.343513    21.486335    21.654005    10860.925    2796.2846    1591.9011    2817.4527   -244.58628    95.477892   -639.72496   -5859.3571 
19123000    143.52271   -6637.7793   -6268.5759   -6637.7793            0    2012.6959       23.326     21.42594    21.728389    10859.446    1047.3362    2362.1785    2628.5728    788.17326    729.54341     549.3806   -5949.8175 
19124000    147.87091   -6633.8998   -6253.5109   -6633.8998            0    1739.9968     23.31775    21.456303    21.768097    10890.856    1106.0681    1993.0866    2120.8357    331.51879    405.10196   -242.84024   -5977.1438 
19125000    151.42645   -6633.9514   -6244.4161   -6633.9514            0     2030.114    23.231522    21.397119     21.85505    10863.875    1281.7713    3066.2635    1742.3071    30.584591   -112.51309    890.94232   -5922.7679 
19126000    145.42172    -6638.355   -6264.2665    -6638.355            0    2224.3368    23.364289    21.429672    21.674175    10852.022    1219.9354    2784.1445    2668.9305   -313.66527   -322.09243   -909.70736   -5912.2305 
19127000    140.66979   -6625.0704   -6263.2059   -6625.0704            0    1824.5934    23.354421    21.503252    21.670663     10882.92    2880.0997     350.1008    2243.5797   -38.575159   -518.95512     510.3152   -5973.6133 
19128000    143.86227   -6630.3286   -6260.2517   -6630.3286            0    1940.5785    23.266959    21.472017    21.761078    10871.585    1742.2692    1852.7476    2226.7186     978.1931   -4.7573036    591.98802   -5952.5712 
19129000    146.61571   -6612.7357   -6235.5757   -6612.7357            0    619.95441    23.194053    21.507469    21.937768    10943.554    1856.9475    1020.5338   -1017.6181   -97.876123    357.44728   -208.02611   -6136.6306 
19130000    138.06228   -6645.0432   -6289.8864   -6645.0432            0    2098.5735    23.323649    21.423523    21.723457    10854.662    2073.6511    1676.8784     2545.191   -198.90071   -199.22206    250.40258   -5957.6736 
19131000    144.48234   -6656.5262   -6284.8542   -6656.5262            0     2272.981    23.326248    21.320513    21.775658    10829.635    1605.7325    2804.9471    2408.2634    -182.9348    -610.0493    637.02851   -5925.8616 
19132000    152.31708   -6634.1943   -6242.3679   -6634.1943            0    2770.8828    23.427996    21.325587    21.674875    10829.109    2427.9136    3182.8961    2701.8388   -224.49965   -668.90533   -1162.7889   -5804.7583 
19133000    147.69178   -6634.6152   -6254.6871   -6634.6152            0    1974.0263    23.359392    21.335508    21.772252    10850.953    2413.0098    1810.8419    1698.2272    173.32002    121.71578    837.66775   -5942.2974 
19134000     140.1614   -6640.1742   -6279.6175   -6640.1742            0    2742.2339    23.382501    21.297949    21.673731    10793.503    2401.6615    2676.1551    3148.8851    657.35127    -231.5862   -122.54035   -5847.9565 
19135000    139.97682   -6641.4539   -6281.3721   -6641.4539            0    2070.1338    23.312515    21.363017    21.791874    10852.912    1677.7205    2540.3845    1992.2963    706.76319   -219.86329   -588.70109   -5953.7142 
19136000    148.34573   -6630.0328   -6248.4225   -6630.0328            0     2405.047    23.247593    21.466376    21.739738    10849.033    2304.8572    1659.4498    3250.8341    752.99734    215.96921    801.81378   -5867.8911 
19137000    146.26677   -6640.7454    -6264.483   -6640.7454            0    1826.4278    23.256394    21.627801    21.610011    10869.504    2137.7899    1020.8728    2320.6206    148.61531   -360.31042   -767.96705   -5974.9567 
19138000    146.67822   -6652.9726   -6275.6518   -6652.9726            0    1999.0799     23.19344    21.515519    21.738175     10847.76     2606.186    2039.8137    1351.2402  -0.27812274    465.34405   -260.25105   -5959.3905 
19139000    141.07789   -6632.0251   -6269.1108   -6632.0251            0    2573.8546    23.251015    21.485304    21.685468    10833.086    2990.3603    1309.2046    3421.9989    205.46467    165.88013   -290.24972   -5862.4689 
19140000    144.41603   -6634.5625   -6263.0611   -6634.5625            0    2001.4069    23.225182     21.39697     21.82764    10847.214    2187.4092    2001.1124    1815.6991   -168.52721    400.54156    1119.9584   -5946.4475 
19141000    147.91107   -6653.3426   -6272.8504   -6653.3426            0    1938.6647    23.376088    21.346181    21.791603    10873.796    1238.7885    3042.2302    1534.9754    484.03093     533.4785   -712.39994   -5965.4108 
19142000    150.96304   -6648.1661   -6259.8229   -6648.1661            0    2072.4536    23.327734    21.379911    21.749789    10847.596    2204.8552    1804.4115    2208.0941   -145.90827    229.05633     342.3129   -5931.9585 
19143000    143.06093   -6629.2799   -6261.2644   -6629.2799            0    2454.3236    23.331327    21.337079    21.797921    10851.492    2090.4175    2837.0163     2435.537    -342.8022    683.49828    721.34108   -5872.8483 
19144000    143.47597   -6640.0132     -6270.93   -6640.0132            0    464.88535    23.419748    21.472743    21.723792    10924.596   -861.14727    1221.9134    1033.8899    -64.26986   -9.8609085   -520.56151   -6196.8626 
19145000     149.1107   -6620.6753   -6237.0971   -6620.6753            0    2054.0682    23.325837    21.448867    21.711579     10862.58    2017.3179    1539.1158    2605.7707    505.85432    67.088756    137.72686   -5911.6924 
19146000    146.93745    -6643.391   -6265.4034    -6643.391            0    2882.1489    23.243732    21.400933    21.720499    10804.592    2773.2447    3650.9243    2222.2776    266.45125   -559.02107     -754.546    -5811.252 
19147000    145.41237   -6649.7833   -6275.7189   -6649.7833            0    2830.9393    23.269242    21.450401    21.687411    10824.937    3270.5005    3119.3877    2102.9297    412.68912    471.64549    -594.9258   -5828.7968 
19148000    146.54202   -6652.3959   -6275.4255   -6652.3959            0    2204.3081    23.284733    21.552337    21.596446    10837.969    2132.2731    2347.7471    2132.9042   -1285.2992    140.54856   -403.34217   -5927.0111 
19149000    147.29615   -6620.0105   -6241.1002   -6620.0105            0    2183.0427    23.256419    21.426758    21.788835    10857.587    1793.4442    3127.5036    1628.1804    818.65154    553.66838    232.55831   -5895.4224 
19150000    142.88468   -6637.8585   -6270.2963   -6637.8585            0    1709.2978    23.236205    21.492867     21.80644    10890.412     2284.544    1328.8015     1514.548   -466.76995    157.64069   -280.66876   -5998.8163 
19151000     146.7805   -6629.0482   -6251.4643   -6629.0482            0    1699.7354    23.247439    21.476042     21.81283    10890.339     935.1587    2447.8061    1716.2415    701.00072    1181.5661   -264.17325   -5981.5049 
19152000    140.48429   -6641.5413   -6280.1541   -6641.5413            0    1523.9676     23.37307    21.464428    21.658059    10865.623    1032.9042    890.25206    2648.7465    92.449045    383.23061    347.66041   -6038.6601 
19153000    148.60013   -6628.4086   -6246.1438   -6628.4086            0    2280.4256    23.367255    21.430394    21.688318    10860.848    2381.3427    2684.8937    1775.0404   -371.82089    509.21533     -627.187   -5884.9373 
19154000    149.40831   -6647.1862   -6262.8424   -6647.1862            0    1446.4263      23.2736    21.393006    21.859074    10883.464    931.88217    1987.4591    1419.9376    750.76679   -204.72626    896.82659   -6033.2596 
19155000    143.70925   -6650.2785   -6280.5952   -6650.2785            0    2345.4643    23.213101     21.44135    21.815053    10857.793    3172.1866    1573.3168    2290.8894   -279.56823   -332.66343   -234.55508   -5909.1915 
19156000    141.58059   -6656.0733   -6291.8659   -6656.0733            0    2536.5641    23.236968    21.457555    21.719416    10829.486      3001.23    1638.6415    2969.8208    399.65092   -49.781329    172.34809   -5891.2487 
19157000    145.07826   -6648.0089    -6274.804   -6648.0089            0    1438.6123    23.347806    21.511596    21.641728    10869.527    854.11922    1694.3222    1767.3956   -456.24926    141.31482   -62.018835   -6046.7538 
19158000    149.68624   -6662.1074   -6277.0486   -6662.1074            0    816.15115    23.290724    21.509579    21.759712    10901.043     622.8863    184.36223    1641.2049   -797.87013    564.69515    599.37593   -6147.2965 
19159000    146.93298   -6639.0645   -6261.0883   -6639.0645            0    2474.3097    23.205376    21.469554    21.815657    10868.758    2815.5385    2018.2883    2589.1023   -30.906168    119.94738    599.24408   -5868.8863 
19160000    151.35074   -6655.2963   -6265.9557   -6655.2963            0     2199.739    23.324372    21.414994    21.684063    10831.001    2569.5196    2283.2767    1746.4208   -662.57579   -581.62902   -397.64416   -5918.4871 
19161000    145.09402   -6655.1029   -6281.8574   -6655.1029            0    2429.9396    23.355916    21.342773    21.675759    10804.932    1975.8631    2818.3559    2495.5999    65.180123    816.56274    435.73228   -5898.9503 
19162000    143.51795   -6628.0126   -6258.8214   -6628.0126            0    1823.4224    23.299252    21.471478    21.754124    10882.922    2250.0608    1696.6489    1523.5575   -558.68007   -503.67775    -350.1456   -5969.4147 
19163000    148.36597   -6644.1548   -6262.4924   -6644.1548            0    1258.6075    23.308575    21.411931    21.804065    10882.008    835.82917    2265.1437    674.84952    378.91556    564.48217     346.1078   -6062.7477 
19164000     147.3768   -6654.9499   -6275.8321   -6654.9499            0    2138.3676    23.363427    21.412087    21.680491    10845.877    771.10481    2733.8841    2910.1139   -198.61202    297.42077   -286.03826   -5937.5937 
19165000    143.08146   -6631.7936   -6263.7252   -6631.7936            0    1145.6125    23.477503    21.467043    21.620357    10896.499   -102.44513    689.40997    2849.8727    604.60702   -1103.4752   -75.913583   -6081.6711 
19166000    152.13102   -6636.0904   -6244.7426   -6636.0904            0    1918.7194     23.28557    21.381955    21.819769    10863.867    1038.8541    2823.8838    1893.4204   -552.73302    785.32708     610.4628   -5940.7438 
19167000    141.62145   -6631.6547   -6267.3422   -6631.6547            0      1710.55      23.3751      21.4422    21.697763    10875.214    1698.2557    1979.0647    1454.3296    1385.2634    942.22989     6.464778   -5996.0424 
19168000    146.13933   -6621.3165    -6245.382   -6621.3165            0    1658.2388     23.37315    21.422912    21.674942    10853.098     1055.238    1659.4175    2260.0611    1015.4009   -857.72262    868.11633   -5982.9138 
19169000     151.0202   -6613.2512    -6224.761   -6613.2512            0    2117.9475    23.353386    21.373785    21.757297     10860.16    1967.0755    2735.3908    1651.3762    8.9911986    314.65002   -318.32053   -5889.3114 
19170000    142.94611   -6629.7122    -6261.992   -6629.7122            0    2495.8981     23.27843    21.343795    21.828617    10845.549    3170.0616    2745.6121    1572.0205   -198.09606   -618.81923    552.92675   -5867.2128 
19171000    140.46517   -6625.9289   -6264.5908   -6625.9289            0    2385.8398     23.25525    21.456367    21.739386    10847.371    2333.0725     2899.512    1924.9349    302.72062    633.68329   -891.64232   -5887.1563 
19172000    150.69404   -6648.6397   -6260.9884   -6648.6397            0     1692.735    23.278664    21.531975    21.668992    10861.271    2080.8128    1333.5441    1663.8481   -366.33534   -140.07823   -275.08598   -5992.8584 
19173000    146.39925   -6646.1974   -6269.5943   -6646.1974            0    1288.2948    23.293669    21.528972    21.689366    10876.973    1501.4714    1290.8876    1072.5254    791.14002    276.50147   -887.43022   -6065.2327 
19174000    143.76541   -6644.6086   -6274.7809   -6644.6086            0    2049.3055    23.201195    21.450611    21.817459    10858.109     2740.392    1495.2458    1912.2785    -776.6533     496.3987    1159.0658   -5950.2644 
19175000      144.885   -6632.5921   -6259.8842   -6632.5921            0    2393.9387    23.281748    21.463608    21.683832    10835.635    2068.1249    2778.9572    2334.7339   -231.18222    19.220097   -301.80421   -5881.5782 
19176000    141.15852   -6639.0309   -6275.9092   -6639.0309            0    1753.7157    23.387056    21.424345    21.674448    10860.034     1794.354    1854.6106    1612.1826   -507.23879   -404.72478    101.90366   -5998.1514 
19177000    145.43806   -6612.2292   -6238.0986   -6612.2292            0    1766.7661    23.359162    21.336688    21.855643    10893.009    1370.0983    1920.5061    2009.6939   -599.09901    339.28857   -6.0079087   -5957.4242 
19178000    150.41532   -6639.4898   -6252.5556   -6639.4898            0    2512.0324    23.351138    21.290236    21.805959    10840.859    1774.1903    3385.9337     2375.973    112.48131   -36.663194    297.02662   -5855.3962 
19179000    138.70787   -6614.1923   -6257.3747   -6614.1923            0    2648.8984    23.486767    21.204513    21.746371    10830.247    2115.8873    2913.4982    2917.3096   -349.01544    294.85432    369.51962   -5838.9864 
19180000    143.48696   -6621.7518   -6252.6403   -6621.7518            0    2491.8529    23.515289    21.249434    21.664721     10825.57    1912.4901    3507.5266    2055.5422   -197.78966    -46.14844   -1193.5623    -5859.227 
19181000    143.02085   -6634.7293   -6266.8169   -6634.7293            0    2391.4548    23.405867     21.33531     21.71288    10842.792    2067.3934    2634.5642    2472.4067   -274.80416   -339.30143   -439.67998   -5888.6538 
19182000    147.57743    -6627.391   -6247.7571    -6627.391            0    2281.5778    23.184194    21.412307    21.869896    10856.809    3529.0726    2515.0549    800.60584    6.0852676   -24.307734   -573.50421   -5886.5025 
19183000    144.44064   -6644.1521   -6272.5873   -6644.1521            0    2234.6093    23.284493    21.504757    21.649119    10840.306    1957.6892    1595.0398     3151.099   -27.256797   -317.44456    -83.64266   -5919.3073 
19184000    141.71374   -6638.1375   -6273.5875   -6638.1375            0    2104.7479    23.259404    21.518219    21.667962    10844.836    2239.6591    1519.5359    2555.0487   -358.95916    383.23817   -250.53294   -5940.6989 
19185000    147.95585   -6629.9992   -6249.3918   -6629.9992            0     2090.186     23.21645    21.453221    21.823311    10869.485    2094.1205    2261.3738    1915.0638   -305.13187     260.6838    38.666676   -5918.0549 
19186000    148.95421   -6628.5762   -6245.4006   -6628.5762            0    1904.6099    23.203456    21.521752    21.754488    10863.735    2535.9002    2129.3964    1048.5332    190.73638    563.16608   -21.504967    -5943.641 
19187000    138.66242   -6633.7416   -6277.0409   -6633.7416            0    2614.9476    23.218507    21.576908    21.614684    10828.601     4140.614    795.14648    2909.0822   -821.47061   -443.94108    463.19031   -5864.0778 
19188000    149.01319   -6624.8822   -6241.5549   -6624.8822            0    1569.7848    23.287705    21.512567     21.72547     10883.99    1585.1505    847.37978    2276.8241   -164.48114    327.70204    663.61468   -5992.3801 
19189000    140.65857   -6650.3302   -6288.4946   -6650.3302            0    2280.8107    23.238402    21.426792    21.811911    10860.683    2694.3751    2256.0552    1892.0018   -1218.1149   -253.00118    897.61331   -5927.2326 
19190000    152.28568   -6623.3392   -6231.5936   -6623.3392            0    2580.9638    23.381477    21.376808    21.729791    10861.013    2639.7925    2720.9738    2382.1252   -347.66079    985.40004   -807.48101   -5822.7774 
19191000    147.72626    -6626.533   -6246.5162    -6626.533            0    1942.1578    23.460935    21.411392     21.64943    10875.186    1418.2611    1940.3285    2467.8837   -812.34679    321.77509    201.50659   -5938.4834 
19192000    144.09671   -6624.0048   -6253.3248   -6624.0048            0    1269.4356    23.384886    21.353053    21.778721    10874.958    1047.5221    2249.6972    511.08749    798.44435   -322.30277    332.19218   -6051.9922 
19193000    145.73089   -6640.6552   -6265.7714   -6640.6552            0    2351.7041    23.303622    21.312272    21.853717    10853.717    2349.1041     3121.837    1584.1712   -845.37553     65.68279    -822.0211   -5893.5193 
19194000    150.93611   -6645.1335   -6256.8596   -6645.1335            0    1472.5767    23.313868    21.388673    21.808489    10874.862    1252.3447    1501.8082    1663.5774    242.35276   -426.52951    412.74094   -6023.3108 
19195000    149.52637   -6635.0629   -6250.4154   -6635.0629            0    1898.4555    23.429223    21.429653    21.654207    10872.147    1318.2074    2190.8542    2186.3049   -80.525018    630.26351   -553.91807    -5949.398 
19196000    144.31914   -6639.3412    -6268.089   -6639.3412            0    944.33295    23.342545    21.494583    21.702305    10888.877    1445.2957    430.00196    957.70121    150.95493    555.50563   -168.79793    -6118.126 
19197000    144.09103   -6630.6835   -6260.0181   -6630.6835            0    1253.3017    23.246893    21.509901    21.815844    10908.759    1794.7637    1392.0967    573.04465   -299.68205   -445.55261    347.40846   -6060.6265 
19198000    143.10496   -6624.9758    -6256.847   -6624.9758            0     2459.023    23.241925    21.507839    21.725012    10859.977    2568.4741    2215.0391    2593.5557   -150.75725    334.44462    575.66256    -5867.383 
19199000     149.4875   -6633.8294   -6249.2819   -6633.8294            0    1694.4289    23.324578    21.503059    21.659077    10863.105    1742.4789    1468.3897     1872.418    -121.1941    277.22085     49.40155   -5980.8383 
19200000    138.60083   -6625.2261   -6268.6839   -6625.2261            0    2836.8075    23.299914    21.412167     21.70341    10827.867    2636.5661    2690.7949    3183.0614   -267.19852    732.51582    56.142532   -5820.7141 
19201000    148.55727   -6639.1495    -6256.995   -6639.1495            0    2076.4798    23.327354    21.293535    21.853689    10855.204    1726.8137    3128.6278     1373.998   -320.37107    820.26759    493.56437   -5928.2633 
19202000    148.77104   -6645.2766   -6262.5722   -6645.2766            0    3076.1925    23.441134    21.300722    21.649539    10809.898    2708.3544    3413.6309    3106.5922    367.11531   -869.42161   -449.20752   -5777.6065 
19203000    140.67247   -6656.1761   -6294.3047   -6656.1761            0    1387.2619    23.419036    21.352555    21.722998    10862.721    900.10546    2253.0942    1008.5862   -445.57246    468.67421   -480.55729   -6074.5324 
19204000    139.74974    -6631.845   -6272.3473    -6631.845            0    1654.0382    23.391487    21.384158    21.743651    10876.332    356.25353    2886.8112      1719.05    5.0607155      585.907   -350.83706   -6009.9835 
19205000    139.43027   -6632.3498   -6273.6739   -6632.3498            0    2235.6341    23.308752     21.37819    21.775461    10850.689    1707.4512    2836.3033    2163.1477    239.19007     -327.724   -148.04425   -5919.8934 
19206000    134.86219   -6627.5674   -6280.6426   -6627.5674            0    2063.1645    23.242459    21.487279    21.724959    10849.818    1673.0862    2214.1004     2302.307   -505.54566    1326.9581    -178.4184   -5954.1809 
19207000    139.81596   -6634.0858   -6274.4178   -6634.0858            0    1163.8001    23.182384    21.596662     21.74753    10888.164    2177.4181      368.952    945.03022   -465.89445    670.75141    -162.6216   -6089.6148 
19208000    145.41486   -6632.9698   -6258.8989   -6632.9698            0    2186.5386    23.201463    21.609883    21.691808    10875.858    2173.8178    2126.0069    2259.7912    954.32115   -557.86505    47.410061   -5912.0849 
19209000    146.11574   -6623.7703   -6247.8965   -6623.7703            0    3436.3317    23.131118    21.461801    21.733511    10789.285    3711.4301    3218.7131    3378.8518   -302.44056    30.197456     522.7715   -5707.1875 
19210000    145.26029    -6639.355   -6265.6817    -6639.355            0    1749.6393    23.264353    21.481793    21.747524    10868.543    2227.5716    1057.8081    1963.5382   -62.957803    793.32651   -524.73211   -5988.3524 
19211000    146.52577   -6627.0436    -6250.115   -6627.0436            0    2343.3494    23.292959    21.457036    21.697982    10844.605    1774.6939    1817.9027    3437.4516   -349.02774    933.52015    438.22484   -5879.4969 
19212000    145.24395   -6645.2173   -6271.5861   -6645.2173            0    1886.2604     23.34688    21.349897    21.756606    10844.656    970.01269    2229.3177    2459.4508    883.76527    280.18386    531.99194   -5973.2586 
19213000    143.01008   -6635.2814   -6267.3967   -6635.2814            0    1699.4241    23.379667    21.389877    21.799572    10901.708    1672.1023    2071.1486    1355.0214   -516.69348   -617.53398    -275.1136   -5997.2049 
19214000    144.14762   -6633.4781   -6262.6672   -6633.4781            0    2245.5258    23.335596    21.290424    21.833873    10847.608    2293.2463    3050.4687    1392.8624    115.49073    62.050331   -574.00845   -5907.4222 
19215000    143.78864    -6650.609   -6280.7215    -6650.609            0    3124.6451    23.450857    21.357972    21.558952    10798.076    2083.1198    3235.7251    4055.0904   -37.765657    -315.9114   -203.68174   -5788.6559 
19216000    146.54031   -6639.5057   -6262.5397   -6639.5057            0     2731.464    23.331631    21.372975    21.674043    10808.117     2913.677    2911.8706    2368.8444   -73.029556   -121.69461     837.5086   -5831.9919 
19217000     143.3046   -6629.6751   -6261.0327   -6629.6751            0    2323.0499    23.244448    21.484202     21.70376    10838.606    3136.9224    1683.7276    2148.4997     -466.748     477.4646   -772.61958   -5893.8283 
19218000    146.11528   -6625.2345   -6249.3618   -6625.2345            0    2238.4952    23.235854    21.569483    21.696225     10873.83    1733.8298    1853.3753    3128.2807     703.7998   -262.62086    107.15021    -5894.373 
19219000    140.35095   -6626.8736   -6265.8293   -6626.8736            0    1154.5155    23.226913    21.560348    21.715413    10874.652    1343.2007    792.98039    1327.3655    1052.7595    959.62824    272.87542   -6082.7282 
19220000     140.8698   -6647.1858   -6284.8069   -6647.1858            0     1719.356    23.254252    21.539175    21.707575    10872.834    1840.1699    1755.2414    1562.6567   -5.0480757   -575.00681    204.64451   -6012.1701 
19221000    140.40095   -6633.1693   -6271.9964   -6633.1693            0    2291.6779    23.193535    21.363864     21.93023    10866.506     2473.976    3117.0041    1284.0536    561.07057    1229.7815    425.93541   -5908.8185 
19222000    148.38372   -6658.2441    -6276.536   -6658.2441            0    2227.2995    23.338157    21.390471    21.688598    10827.255    2324.1295    1800.0474    2557.7218   -648.65627   -228.77688   -203.66131   -5924.8356 
19223000    140.67721   -6632.7913   -6270.9078   -6632.7913            0    2188.2065    23.429328    21.321437    21.704573    10842.453    2120.7664    1710.5923    2733.2607    25.221982    394.69741     179.1083   -5924.8953 
19224000    150.09746   -6627.6459   -6241.5294   -6627.6459            0    2993.2599    23.311607    21.300357    21.814452    10831.869    2733.9492    3307.9495     2937.881   -1066.1325    572.98605    470.66943    -5768.679 
19225000    146.44189   -6648.2966   -6271.5837   -6648.2966            0    2526.9067     23.29522    21.316839    21.803026    10826.956    2652.9536    3854.7106    1073.0561    -189.6488   -450.95579   -682.73106    -5872.585 
19226000    146.72599   -6641.1729   -6263.7292   -6641.1729            0    1951.0608    23.369392    21.458878    21.633309    10848.692    953.32397    2150.8643    2748.9942    37.242084   -299.78515    996.11162   -5955.0381 
19227000    150.22477   -6614.1051    -6227.661   -6614.1051            0    2301.6159    23.336569    21.460961    21.655918     10845.83    2113.3154    1764.0409    3027.4916    -88.01649    125.90632    221.45534   -5863.6022 
19228000    149.73001   -6620.5565   -6235.3851   -6620.5565            0    1709.6635    23.181115    21.511537    21.873325    10907.383    2208.4109    2506.4077    414.17197   -53.251197    29.003871   -182.71838   -5963.4238 
19229000    143.93076   -6620.8883   -6250.6352   -6620.8883            0    2006.9059    23.081928    21.507974    21.928463    10886.287     3577.511    1154.9202    1288.2865   -651.97701    773.26323    347.21929   -5932.0082 
19230000    145.27169   -6613.2281   -6239.5255   -6613.2281            0    1847.9522    23.245351    21.574649    21.724567    10895.094    2138.1882    2076.7038    1328.9647   -836.01997    -148.2063   -521.20114   -5945.8974 
19231000    148.82647   -6623.0908   -6240.2437   -6623.0908            0    2243.5721    23.291101    21.486264    21.680847    10849.936     1844.639    2252.4149    2633.6625    583.52441   -182.21506    81.466364   -5885.2317 
19232000    147.46618   -6635.5508   -6256.2031   -6635.5508            0    1430.2527    23.280989    21.414811    21.832537    10884.785    1184.8462    1859.6084    1246.3036    796.56164      450.096    44.146032   -6029.1598 
19233000    139.38598   -6634.3873   -6275.8253   -6634.3873            0    2071.1172    23.389392    21.305643    21.816229    10871.595    751.28224    3250.9056    2211.1639    110.18756      130.129   -867.85336   -5947.4475 
19234000    142.81698   -6627.5929   -6260.2049   -6627.5929            0    2514.0533    23.413883     21.33036    21.685412    10830.271     2058.922    2690.9737    2792.2642   -56.866122    498.02855    523.66086   -5863.1143 
19235000    139.82017   -6622.2181   -6262.5393   -6622.2181            0    2704.8239    23.524052    21.304611    21.609726    10830.163    786.37021    3960.0515      3368.05    356.06592    704.19535   -668.88413   -5835.3209 
19236000    143.88422   -6638.7739   -6268.6406   -6638.7739            0    2380.8487    23.306228    21.286609    21.859822    10844.889    2425.7261    3387.5194    1329.3008    613.42539   -288.17936    787.10251   -5892.0818 
19237000    143.94533   -6644.6871   -6274.3965   -6644.6871            0    1875.7895    23.301828     21.40408    21.790051    10867.879    2596.1398    2345.9256    685.30296    -401.0113    400.77806   -1132.1143   -5977.0898 
19238000    144.59568   -6615.4218   -6243.4582   -6615.4218            0    1998.6655    23.255433    21.501872    21.715494    10858.515    2592.1781    1292.2688    2111.5494   -650.04567   -1003.2166    184.08647    -5926.949 
19239000    145.55278   -6641.7252   -6267.2995   -6641.7252            0    1824.9828    23.160351    21.610639    21.688852    10855.487    1878.9756    1208.8194    2387.1535    1008.0134    620.13667    236.54122   -5978.3753 
19240000     145.3429   -6628.9405   -6255.0548   -6628.9405            0    2311.5192    23.193721    21.525167    21.710604    10838.991    2636.8949    1586.9406    2710.7221   -101.25765    480.25835   -684.71234   -5889.6601 
19241000    145.39486   -6643.3568   -6269.3374   -6643.3568            0    2725.1159    23.184641    21.430816    21.736158    10799.953    4342.4573    1672.5409    2160.3495    877.00395   -210.95349   -138.42416   -5840.1146 
19242000     141.8341   -6629.8569   -6264.9974   -6629.8569            0    2692.8354    23.301092    21.458491    21.637663    10818.967    2926.8286    2058.6051    3093.0725   -114.49263     -150.383   -142.29861   -5840.1123 
19243000    143.71949   -6620.0052   -6250.2956   -6620.0052            0     1969.226    23.348932    21.419283    21.720612    10862.855    1999.7249    1639.5589    2268.3943   -294.57288    1041.4154   -161.33894   -5938.3237 
19244000    140.17484   -6624.5182   -6263.9269   -6624.5182            0    1143.4102    23.308993    21.443214    21.807267    10899.702    1030.0225    1780.8715    619.33662   -99.643169   -328.41621    5.3376849   -6082.1693 
19245000    150.43943   -6619.0679   -6232.0716   -6619.0679            0    1777.5454    23.385933    21.350463    21.830285    10899.872    653.59109    3612.0625    1066.9825    147.19989    1029.0519   -704.88649   -5949.5069 
19246000    146.09561   -6642.5607   -6266.7386   -6642.5607            0    2165.6631    23.424411    21.441268    21.572743     10834.89    1198.2525    2524.4382    2774.2987    505.09864   -419.36082   -113.28202   -5924.5297 
19247000    140.20683   -6625.9104   -6265.2369   -6625.9104            0    2347.6334    23.358944    21.415842     21.71026    10860.589     1410.008    2950.5364    2682.3557    811.24823    943.93129   -770.19908   -5893.3939 
19248000    146.42119   -6632.4681   -6255.8085   -6632.4681            0    1041.2961    23.227175    21.445912    21.868382    10893.252    1279.4407    1239.2783    605.16936    91.769053    655.55153    419.74204   -6090.3811 
19249000    148.58402   -6651.6679   -6269.4445   -6651.6679            0     2600.133     23.23046    21.429165    21.746895    10825.808    2821.0546    2522.0031    2457.3413    111.92397     412.3413    652.15037   -5858.9269 
19250000    145.21669   -6598.6604   -6225.0993   -6598.6604            0    3087.1215    23.309496    21.513957    21.596362    10830.132    3221.2171    2232.7255     3807.422   -1062.6385    8.7705626   -314.57447   -5737.4996 
Loop time of 584.32 on 64 procs for 250000 steps with 1296 atoms

Performance: 73.932 ns/day, 0.325 hours/ns, 427.848 timesteps/s
195.5% CPU use with 32 MPI tasks x 2 OpenMP threads

MPI task timing breakdown:
Section |  min time  |  avg time  |  max time  |%varavg| %total
---------------------------------------------------------------
Pair    | 37.852     | 48.114     | 56.656     |  87.1 |  8.23
Bond    | 0.60107    | 0.99568    | 1.4501     |  14.2 |  0.17
Kspace  | 309.81     | 322.53     | 337.21     |  40.2 | 55.20
Neigh   | 1.7594     | 2.0163     | 2.2019     |   9.8 |  0.35
Comm    | 75.874     | 82.76      | 90.707     |  47.2 | 14.16
Output  | 0.50776    | 0.50812    | 0.50972    |   0.0 |  0.09
Modify  | 107.09     | 111.68     | 115.44     |  14.5 | 19.11
Other   |            | 15.72      |            |       |  2.69

Nlocal:        40.5000 ave          50 max          30 min
Histogram: 3 0 6 5 2 0 3 0 9 4
Nghost:        3063.41 ave        3088 max        3034 min
Histogram: 1 1 4 3 7 2 3 6 2 3
Neighs:        12890.2 ave       15921 max        9581 min
Histogram: 3 5 3 4 1 1 2 3 7 3

Total # of neighbors = 412485
Ave neighs/atom = 318.27546
Ave special neighs/atom = 2.0000000
Neighbor list builds = 4100
Dangerous builds = 0

unfix		3
unfix		2
unfix		1

write_data	data.final.${pid}
write_data	data.final.0
System init for write_data ...
PPPM initialization ...
  extracting TIP4P info from pair style
  using 12-bit tables for long-range coulomb (../kspace.cpp:340)
  G vector (1/distance) = 0.36684887
  grid = 30 40 32
  stencil order = 5
  estimated absolute RMS force accuracy = 0.0046407047
  estimated relative force accuracy = 1.3975344e-05
  using double precision FFTW3
  3d grid and FFT values/proc = 7888 1280
Last active /omp style is kspace_style pppm/tip4p/omp
WARNING: Not all mixed pair coeffs generated from mixing. Use write_data with 'pair ij' option to store all pair coeffs. (../write_data.cpp:312)

write_restart   restart.lmp.${pid}
write_restart   restart.lmp.0
System init for write_restart ...
PPPM initialization ...
  extracting TIP4P info from pair style
  using 12-bit tables for long-range coulomb (../kspace.cpp:340)
  G vector (1/distance) = 0.36684887
  grid = 30 40 32
  stencil order = 5
  estimated absolute RMS force accuracy = 0.0046407047
  estimated relative force accuracy = 1.3975344e-05
  using double precision FFTW3
  3d grid and FFT values/proc = 7888 1280
Last active /omp style is kspace_style pppm/tip4p/omp
Total wall time: 0:09:44
