#include		in.partitions
include		in.temp
variable        temperature equal 58.97
variable	tempDamp equal 100.0
include		in.pressure
variable        pressure equal 6797.8
variable        pressureDamp equal 1000.0 # This is 1 ps
include		in.seed
variable        seed equal 745823

units		real
atom_style	full

read_restart	restart.lmp.${pid}
read_restart	restart.lmp.1
Reading restart file ...
  restart file = 30 Jul 2021, LAMMPS = 30 Jul 2021
  restoring atom style full from restart
  orthogonal box = (0.15273264 0.15669799 0.15338794) to (19.847268 19.843303 20.546610)
  4 by 2 by 4 MPI processor grid
  restoring pair style lj/cut/tip4p/long/omp from restart
  restoring bond style harmonic/omp from restart
  restoring angle style harmonic/omp from restart
  972 atoms
  648 bonds
  324 angles
Finding 1-2 1-3 1-4 neighbors ...
  special bond factors lj:    0        0        0       
  special bond factors coul:  0        0        0       
     2 = max # of 1-2 neighbors
     1 = max # of 1-3 neighbors
     1 = max # of 1-4 neighbors
     2 = max # of special neighbors
  special bonds CPU = 0.002 seconds
  read_restart CPU = 0.008 seconds
include 	in.setup
variable	out_freq equal 1000
variable	out_freq2 equal 10000
variable	out_freq3 equal 1000

timestep	2.0

neigh_modify    delay 7 every 1

include		in.tip4p
# This is TIP4P/Ice

# create groups ###
group ox type 2
324 atoms in group ox
group hy type 1
648 atoms in group hy

# set charges - beside manually ###
set group ox charge -1.1794
Setting atom values ...
  324 settings made for charge
set group hy charge 0.5897
Setting atom values ...
  648 settings made for charge

# ### TIP3P Potential Parameters ###
pair_style lj/cut/tip4p/long/omp 2 1 1 1 0.1577 8.5
pair_coeff 1 1*2 0.000 0.000
pair_coeff 2 2 0.21084 3.1668
bond_style  harmonic
bond_coeff  1 450 0.9572
angle_style harmonic
angle_coeff 1 55 104.52
kspace_style pppm/tip4p/omp 1.0e-5
pair_modify tail yes

thermo          ${out_freq}
thermo          1000
thermo_style    custom step temp pe etotal epair emol press lx ly lz vol pxx pyy pzz pxy pxz pyz enthalpy

restart 	${out_freq3} restart.lmp.${pid} restart2.lmp.${pid}
restart 	1000 restart.lmp.${pid} restart2.lmp.${pid}
restart 	1000 restart.lmp.1 restart2.lmp.${pid}
restart 	1000 restart.lmp.1 restart2.lmp.1


include         in.dump
dump            myDump all atom ${out_freq2} dump.water.${pid}
dump            myDump all atom 10000 dump.water.${pid}
dump            myDump all atom 10000 dump.water.1
dump            myDump2 all dcd ${out_freq2} dump.dcd
dump            myDump2 all dcd 10000 dump.dcd
dump_modify     myDump append yes
dump_modify     myDump2 append yes


variable natoms 	equal  "count(all)"                        # NUMBER ATOMS
variable H      	equal  "enthalpy/v_natoms"                 # ENTHALPY-per-atom
variable Vol      	equal  "vol/v_natoms"                 # volume-per-atom
fix AVG all 		ave/time ${out_freq} 1 ${out_freq} v_Vol v_H file vol_enthalpy.dat
fix AVG all 		ave/time 1000 1 ${out_freq} v_Vol v_H file vol_enthalpy.dat
fix AVG all 		ave/time 1000 1 1000 v_Vol v_H file vol_enthalpy.dat


timer           timeout 02:55:00 every 1000
New timer settings: style=normal  mode=nosync  timeout=02:55:00

fix 		1 all shake 1e-6 200 0 b 1 a 1
       0 = # of size 2 clusters
       0 = # of size 3 clusters
       0 = # of size 4 clusters
     324 = # of frozen angles
  find clusters CPU = 0.006 seconds
fix             2 all nph aniso ${pressure} ${pressure} ${pressureDamp}
fix             2 all nph aniso 6797.8 ${pressure} ${pressureDamp}
fix             2 all nph aniso 6797.8 6797.8 ${pressureDamp}
fix             2 all nph aniso 6797.8 6797.8 1000
fix             3 all temp/csvr ${temperature} ${temperature} ${tempDamp} ${seed}
fix             3 all temp/csvr 58.97 ${temperature} ${tempDamp} ${seed}
fix             3 all temp/csvr 58.97 58.97 ${tempDamp} ${seed}
fix             3 all temp/csvr 58.97 58.97 100 ${seed}
fix             3 all temp/csvr 58.97 58.97 100 745823


run             250000
PPPM initialization ...
  extracting TIP4P info from pair style
  using 12-bit tables for long-range coulomb (../kspace.cpp:340)
  G vector (1/distance) = 0.37260939
  grid = 24 24 24
  stencil order = 5
  estimated absolute RMS force accuracy = 0.0034571233
  estimated relative force accuracy = 1.0411024e-05
  using double precision FFTW3
  3d grid and FFT values/proc = 3211 432
Last active /omp style is kspace_style pppm/tip4p/omp
Neighbor list info ...
  update every 1 steps, delay 7 steps, check yes
  max neighbors/atom: 2000, page size: 100000
  master list distance cutoff = 10.8154
  ghost atom cutoff = 10.8154
  binsize = 5.4077, bins = 4 4 4
  1 neighbor lists, perpetual/occasional/extra = 1 0 0
  (1) pair lj/cut/tip4p/long/omp, perpetual
      attributes: half, newton on, omp
      pair build: half/bin/newton/omp
      stencil: half/bin/3d
      bin: standard
Per MPI rank memory allocation (min/avg/max) = 10.19 | 10.19 | 10.19 Mbytes
Step Temp PotEng TotEng E_pair E_mol Press Lx Ly Lz Volume Pxx Pyy Pzz Pxy Pxz Pyz Enthalpy 
40750000    61.019186   -5115.1454   -4997.4648   -5115.1454            0    8201.8845    19.694536    19.686605    20.393222    7906.8304    8881.1927     7703.823    8020.6376   -308.18088    616.65448    689.91502   -4051.6808 
40751000    59.652479   -5129.7322   -5014.6874   -5129.7322            0    6718.7553    19.675104    19.815872    20.399437    7953.3192    7960.8252    5968.7785    6226.6622    81.805282    319.57256   -316.16812   -4235.3723 
40752000    59.521612   -5122.8277   -5008.0352   -5122.8277            0     6708.094     19.63091      19.7594    20.413471    7918.2835    7213.3943    6367.1181    6543.7695   -156.01566   -112.73471   -42.886633   -4233.3842 
40753000    59.521387   -5126.0124   -5011.2204   -5126.0124            0    7286.8315    19.721499    19.716496     20.39378    7929.8943    7187.7409    7541.2901    7131.4635    172.49499    475.78392    622.72623   -4168.5029 
40754000    56.253853   -5127.0623    -5018.572   -5127.0623            0    6951.4466    19.688834    19.697865    20.440424    7927.3686    6792.8703    7656.8309    6404.6384    -165.8539     345.7023   -4.3983598   -4214.8976 
40755000    56.962336   -5123.6546    -5013.798   -5123.6546            0    6131.1872    19.726504    19.735169    20.487847    7976.0399    5314.1648    6795.8831    6283.5137     104.6236    73.638752     482.2952   -4300.6038 
40756000    60.942271    -5121.295   -5003.7627    -5121.295            0    7465.7453    19.613924    19.720505    20.434455    7903.9754    6523.9309    8062.3526    7810.9524   -267.01963   -232.68823   -53.377014    -4143.176 
40757000     59.86667   -5124.2469    -5008.789   -5124.2469            0    7199.7878    19.749446    19.873645     20.21049    7932.4854    6697.3828    6785.0295    8116.9512   -631.05348    136.88358    -2.351035    -4175.866 
40758000     59.18221   -5123.9033   -5009.7654   -5123.9033            0    6748.1749    19.679735    19.723844    20.482992    7950.6792    6835.6776    6961.0982     6447.749    249.76244    181.74982    225.48342   -4227.2977 
40759000    62.287724   -5125.7382   -5005.6111   -5125.7382            0    6090.1341    19.784767    19.748842    20.376061    7961.4616     6402.001    5675.4602    6192.9412   -397.50982    819.15577    564.17106   -4298.4872 
40760000    58.523924   -5118.6575   -5005.7891   -5118.6575            0    6761.2269    19.703233    19.751829    20.363245    7924.8631    6867.4767    6780.9924    6635.2117   -19.924672   -15.032489   -114.28424   -4224.3536 
40761000    59.244169   -5127.5965   -5013.3392   -5127.5965            0    6535.5893    19.857494    19.751567    20.291576    7958.6936    6172.9634    6612.3178    6821.4868    363.84708    662.40734    22.332461   -4254.7574 
40762000    61.663348   -5118.9062   -4999.9832   -5118.9062            0    7044.6899    19.777241    19.714868    20.379333    7946.0181    6650.7754     7450.968    7032.3264   -312.87883   -56.414402   -188.47352   -4183.6127 
40763000    62.303352    -5119.932   -4999.7747    -5119.932            0     6719.085    19.635498    19.836848    20.335298    7920.7286    6358.1234    6703.5962    7095.5355    -188.0841    650.23029   -414.69948   -4223.6149 
40764000    57.882809    -5122.744   -5011.1121    -5122.744            0    7479.6578    19.658666    19.848433    20.319315    7928.4689    7729.7443    6828.1806    7881.0485   -59.770155   -296.40082    220.67964   -4146.2499 
40765000    57.070177   -5124.8149   -5014.7503   -5124.8149            0    5794.1555    19.739811    19.769737    20.434391    7974.5385    5695.5744    6172.5015    5514.3906    26.296381   -269.08724     1048.639   -4340.8873 
40766000     58.31233   -5117.3101   -5004.8499   -5117.3101            0    7208.2408    19.728258    19.648427    20.354246    7889.9009    6139.3808    7973.0186    7512.3231   -350.78355    139.62212   -431.76605   -4175.4257 
40767000    62.101385   -5129.5945   -5009.8267   -5129.5945            0    6377.8695    19.648435     19.82532    20.355045    7929.0333    5445.2589    6760.4509    6927.8988    -107.7434   -8.6020837    477.63359   -4272.3102 
40768000    57.201158   -5125.6931   -5015.3758   -5125.6931            0    6581.0982    19.663481    19.816835     20.38035    7941.5694    6561.3236    6588.6967    6593.2743   -118.62061     874.2463    130.86257   -4253.1554 
40769000    55.883648    -5117.314   -5009.5377    -5117.314            0    7161.9963    19.711634     19.73977    20.354302    7919.9227    7295.7769    6484.9106    7705.3013    16.861185   -501.12207   -311.83283   -4182.2989 
40770000     57.90442   -5124.2495   -5012.5759   -5124.2495            0    6170.3473     19.72639    19.826252    20.355013     7960.853    5917.8441    6643.2302    5949.9677    365.77704    574.51445    805.40326   -4296.1932 
40771000    57.077605   -5126.3067   -5016.2278   -5126.3067            0    7156.0484    19.723032    19.815144    20.282463    7926.6851    7034.9886    7420.4117    7012.7448    -390.1851   -430.58406    1072.8475   -4188.9702 
40772000    61.772087   -5128.3495   -5009.2169   -5128.3495            0    6611.6326    19.751555    19.749958    20.414503    7963.5423    7054.9678    5985.4793    6794.4508   -390.23341    878.96734    204.22575   -4241.3412 
40773000    59.171571   -5125.7891   -5011.6718   -5125.7891            0    7540.0216    19.612257    19.852295    20.343833    7920.8373    9095.8393    5356.9853    8167.2402   -333.09542    406.84316    34.624732   -4140.6689 
40774000    61.773943   -5119.4389   -5000.3027   -5119.4389            0    6369.3092    19.667861     19.80808    20.440924    7963.4273    6438.9775    5957.6047    6711.3453   -1.8269547    116.07084    483.82481   -4260.5812 
40775000    61.001329    -5118.996   -5001.3498    -5118.996            0    7412.2671    19.753057    19.792855      20.2514    7917.6776    7332.6254    6553.9786    8350.1973   -165.87808   -293.62787    158.43224   -4145.4464 
40776000    60.099372   -5116.7681   -5000.8614   -5116.7681            0    6761.2411    19.689739    19.855568    20.244345    7914.5457    6621.3754    6509.2362    7153.1118   -479.94639    109.11151    17.068713   -4220.4416 
40777000    64.699392   -5132.9874   -5008.2092   -5132.9874            0     5775.262    19.675488    19.884144    20.389325    7976.9206     6617.006    4946.3071    5762.4728   -71.865791    832.97342   -138.99838   -4336.3429 
40778000    58.218989   -5125.3737   -5013.0935   -5125.3737            0    6923.9602    19.679981    19.773657    20.352514    7920.0833     7678.099     5787.169    7306.6127    49.213685    927.80438   -293.72879   -4213.3325 
40779000    62.137766   -5130.6935   -5010.8556   -5130.6935            0    6463.2764    19.728022    19.771901    20.392127    7954.1631    5676.6071    6989.5719    6723.6504    133.05949    673.59414     311.7519   -4261.0941 
40780000    60.619374   -5122.6064   -5005.6968   -5122.6064            0    6741.3608    19.687276    19.758457    20.416559    7941.8411    6738.7337    6813.2036    6672.1452    40.364906    109.22792    24.734963   -4224.8881 
40781000    56.612964   -5113.8934   -5004.7106   -5113.8934            0    6397.1706     19.78584    19.729575    20.358478    7947.2621    6999.8741    5916.8704    6274.7673   -388.55913    97.355893   -89.222119   -4263.2614 
40782000    59.084291   -5122.7217   -5008.7727   -5122.7217            0    6334.3047    19.713944    19.711684    20.496542    7964.8544    6746.0499    6065.3181    6191.5461    102.73031   -140.86317   -290.96619   -4272.9847 
40783000    58.813725   -5118.1607   -5004.7335   -5118.1607            0    6529.0219    19.609255    19.838346    20.349913    7916.4252    6342.9879    6721.3311    6522.7465   -372.11434     280.8339    195.98135   -4250.9387 
40784000    59.133239   -5125.5699   -5011.5265   -5125.5699            0    6734.6435    19.702958    19.638778    20.440102    7909.1341    6685.6193    7652.7654    5865.5457   -275.60599   -9.7022817    -276.0157   -4234.7082 
40785000     54.53449   -5123.6199   -5018.4456   -5123.6199            0      7375.07    19.772682    19.750094     20.28661    7922.1715    7934.4461    6700.5795    7490.1844    151.14519    1104.1499   -31.147795    -4166.354 
40786000    57.782585    -5126.534   -5015.0954    -5126.534            0    6580.0208    19.713274     19.77939    20.378527     7945.925    6802.5147     6195.264    6742.2837   -11.618566   -275.42842    326.03454   -4252.5818 
40787000    57.235835   -5117.4719   -5007.0877   -5117.4719            0    7438.4069    19.582463    19.756747    20.439309    7907.6778    7756.0667    7328.5916    7230.5623    45.477894    53.048363    139.28465   -4149.2507 
40788000      60.9551   -5125.7665   -5008.2095   -5125.7665            0    6475.1242     19.73855    19.732116    20.465919    7971.1352    6712.5695    6438.6058    6274.1973    10.730273    95.228793    413.70458   -4255.4709 
40789000    57.830357   -5127.7872   -5016.2565   -5127.7872            0    6444.6918     19.64383     19.78655    20.461648    7953.1074    6227.5589    6902.6711    6203.8453   -284.18597   -118.30847   -408.32201   -4268.7502 
40790000    57.939954   -5126.7482   -5015.0062   -5126.7482            0    6517.5889    19.722854    19.860163    20.353915      7972.61    7824.4904    5407.1579    6321.1185   -161.07997    -306.6145    212.52074   -4257.1908 
40791000    57.443067   -5116.4822   -5005.6984   -5116.4822            0    7512.6426    19.663354     19.74018    20.375979    7909.1022    7218.5626    7195.4207    8123.9446   -113.68106    90.981483   -128.13052    -4139.144 
40792000    56.099657   -5123.4678   -5015.2749   -5123.4678            0    6586.5802    19.711516     19.89184    20.331533      7971.96    7118.3072    5969.5927    6671.8406   0.68725479    -121.2247   -761.11484   -4249.5002 
40793000    59.216495   -5121.7656   -5007.5616   -5121.7656            0    6603.1712    19.739458    19.745368    20.398843    7950.7118    6637.4694    6778.2333    6393.8108    210.11719    214.57718   -184.73285   -4241.9042 
40794000    56.650828   -5126.4944   -5017.2386   -5126.4944            0    6621.7135    19.848767    19.743008    20.287714    7950.2351    5124.2928     7305.167    7435.6807   -213.11518   -244.90399   -147.83734   -4249.4772 
40795000    57.769027   -5124.3084   -5012.8959   -5124.3084            0    8229.1055    19.682716    19.730754    20.325992    7893.6974    7700.4917    9081.5328    7905.2919    140.56456    371.10939   -26.555069   -4065.5491 
40796000    56.305423   -5122.1997     -5013.61   -5122.1997            0    6449.3524    19.738818    19.832699    20.305276    7948.9883    5824.8048    6429.9619    7093.2905    101.88744    394.35281   -11.142521   -4265.9504 
40797000    59.045863   -5123.3802   -5009.5052   -5123.3802            0    7074.8869    19.713555    19.713912    20.397149    7926.9701    7022.9432    6579.7234    7621.9941   -30.242222    446.87585    496.44276   -4191.6007 
40798000     59.63642   -5130.8474   -5015.8336   -5130.8474            0    6778.2168     19.69884    19.742743    20.366973     7920.902    7335.1141    5930.5475    7068.9887   -501.46313    256.49636    78.703132    -4232.826 
40799000     59.52894   -5125.1791   -5010.3725   -5125.1791            0    6398.6877    19.740444    19.647328    20.531261    7962.9878    6401.7753    6577.5219     6216.766   -228.18169    1063.5538    199.53585     -4267.28 
40800000    55.918885   -5121.0719   -5013.2277   -5121.0719            0    7178.5282    19.704576    19.718093    20.370371    7914.6355    7015.6314    7234.4592    7285.4939   -329.58674   -43.547035   -94.303667   -4184.6328 
40801000    64.125685   -5118.2596   -4994.5878   -5118.2596            0     6157.027    19.776315    19.710969    20.390809     7948.548    4965.3266    7353.6866     6152.068   -142.73071    133.50239    230.52183   -4280.8565 
40802000     57.90479   -5124.2294   -5012.5552   -5124.2294            0    6739.6684     19.78161    19.755785    20.271577    7922.1573     6127.921    7022.9482    7068.1361    156.77362    334.92922    477.75217   -4233.8772 
40803000    57.938783   -5130.4865   -5018.7467   -5130.4865            0    6567.0941    19.666777    19.801477    20.378039     7935.845    7135.9407    6065.8524     6499.489   -377.15618    208.53559    161.35723   -4258.6965 
40804000    60.833462   -5123.9995   -5006.6771   -5123.9995            0    6300.9396    19.730808    19.807287    20.353376    7954.3794    6220.2465    6419.1531    6263.4191   -309.23815    114.02032    438.28271   -4275.7274 
40805000    58.129184   -5123.5085   -5011.4015   -5123.5085            0    6054.6547    19.767548    19.758468    20.369473    7955.8366    6592.9901    5215.7809    6355.1931   -43.542589    323.97967   -580.28867   -4308.8937 
40806000    62.678741   -5121.1068   -5000.2256   -5121.1068            0    6686.5924    19.659968    19.808274    20.402467     7945.333    6050.6245    6994.8524    7014.3004    181.89874    185.37963    461.87379   -4225.4199 
40807000    58.200189   -5133.8316   -5021.5876   -5133.8316            0    5784.4308    19.725692     19.79887    20.425817    7977.2297    7002.8894    5116.6784    5233.7246    57.478456    481.18917   -104.03352   -4348.6286 
40808000    60.832345    -5127.651   -5010.3307    -5127.651            0    6634.4162    19.678053    19.725616    20.479182    7949.2346     6829.103    5802.6778    7271.4679    8.1116862    436.57711    729.30217   -4241.1933 
40809000    58.382991   -5123.8128   -5011.2163   -5123.8128            0    7184.3485    19.664048    19.824213     20.34367    7930.4565    7218.2383     7212.088    7122.7193    167.60052    593.38581   -31.649708   -4180.2919 
40810000    59.203048   -5123.9634   -5009.7854   -5123.9634            0     7032.934    19.709507    19.780498     20.31321    7919.3865    6625.8767    6712.5369    7760.3886   -44.169233    101.78518    103.16617   -4197.5087 
40811000    60.419458   -5126.4472   -5009.9232   -5126.4472            0    6892.2716    19.664635    19.810848    20.396562    7945.9517    6602.6143    6612.1751    7462.0254    237.52399    222.21501   -578.34003   -4211.2223 
40812000    61.587117   -5118.6042   -4999.8282   -5118.6042            0    6616.2187    19.673645    19.691794    20.479714     7934.033    6262.7775    7934.3712    5651.5074   -17.582341   -392.76739   -95.967907   -4234.2673 
40813000    57.702634   -5116.2441   -5004.9597   -5116.2441            0    6659.9829      19.7517    19.745936    20.377079    7947.3825    6244.5547    6517.1564    7218.2377    118.34315     519.8017   -516.68765   -4233.0383 
40814000    58.558059   -5124.6512   -5011.7171   -5124.6512            0    7013.2492    19.717482    19.810123    20.352097    7949.6459    7290.6989    6627.0086    7122.0402   -455.44192    866.53594    470.93785    -4198.619 
40815000    57.483159   -5118.3621    -5007.501   -5118.3621            0     8221.641    19.633768    19.711448     20.36691    7882.1976    7552.0058    8780.5788    8332.3384   -5.5272425   -226.18574    288.71148   -4062.3923 
40816000    59.226019   -5114.4859   -5000.2636   -5114.4859            0    6633.3098    19.738167    19.710147    20.436738    7950.7529    8082.4943    6301.7393    5515.6959   -416.91876   -225.74382   -564.60486   -4231.1076 
40817000    58.507691   -5125.6834   -5012.8464   -5125.6834            0    7313.4632     19.69242    19.645197    20.457447     7914.198    7231.9976    7530.2274    7178.1645   -293.53252   -185.74455   -401.23371   -4168.7231 
40818000    57.605951   -5125.0241   -5013.9262   -5125.0241            0     6435.577    19.727916    19.809381    20.399506    7972.0822    6981.0401    6123.0855    6202.6053   -258.07574     617.1613   -41.581376   -4265.6961 
40819000    56.958554   -5128.4446   -5018.5952   -5128.4446            0    6312.5103     19.62498    19.868818    20.352481    7935.9448    7595.1691    5297.2926    6045.0693    61.513071    843.27894   -272.21159   -4288.0003 
40820000    57.963852   -5119.4483   -5007.6601   -5119.4483            0    6805.7963    19.688135    19.817051    20.351924    7940.5226    5832.3474     8217.453    6367.5886    -355.5725   -430.72269   -401.54397   -4219.5191 
40821000      59.4813   -5120.2195   -5005.5048   -5120.2195            0    7196.2205    19.731855    19.753482    20.361831    7936.4885    7552.1243    7044.2743    6992.2627   -290.65964   -434.10244   -23.032844   -4172.5743 
40822000    62.594018   -5120.9749   -5000.2571   -5120.9749            0    6372.6104    19.777593    19.640083    20.500296    7963.0029    6191.5503     7376.943    5549.3379    71.214331    920.44867   -303.18172   -4260.1916 
40823000    57.196941   -5131.7427   -5021.4336   -5131.7427            0    6109.5546    19.778175    19.781014    20.365247    7967.5437    5277.0228     5978.324    7073.3169   -278.51236    162.21296     293.5633   -4311.5128 
40824000    58.546527   -5127.8285   -5014.9166   -5127.8285            0    6875.2442    19.749317    19.792703    20.274384    7925.1017    6222.7206    7166.1942    7236.8177   -238.92271   -379.71955    190.11056   -4220.2794 
40825000     55.10614   -5118.4315   -5012.1547   -5118.4315            0    6514.4278    19.729273    19.713531    20.351595    7915.4199    5537.4777    7165.0192    6840.7863    229.62638   -689.06425    661.61259   -4260.1404 
40826000    58.380545   -5124.5977   -5012.0059   -5124.5977            0    5957.5162    19.799402    19.729203    20.349509    7949.0558    6321.0481    5296.2646    6255.2358   -200.04232    338.24112   -407.16489   -4321.3581 
40827000    56.797014   -5127.7895   -5018.2517   -5127.7895            0    7098.8495    19.729406    19.780508    20.275432    7912.6429    7015.2865    7456.5346    6824.7275    126.14628    407.18403    274.23629   -4199.0602 
40828000    60.447777   -5115.7377   -4999.1591   -5115.7377            0    6744.7254    19.608393    19.840189    20.361974    7921.5051    6460.3128    6412.7849    7361.0785   -206.85099    406.56965   -286.44378    -4219.961 
40829000    58.973955   -5127.0619   -5013.3257   -5127.0619            0    6980.4345    19.607554    19.755892    20.475537    7931.5006      8179.48    6187.2086    6574.6148   -186.19105    1118.9973    -67.26069   -4205.8792 
40830000    61.273155   -5123.5093   -5005.3388   -5123.5093            0    6321.5384    19.781168    19.720995    20.386769    7952.9668    5521.3319    7233.7708    6209.5125     126.2756    475.63148    114.44876   -4272.1297 
40831000    58.078831   -5118.9841   -5006.9742   -5118.9841            0    6452.9351    19.690804    19.775403    20.377727    7934.9561    6044.6821    6946.3647    6367.7586     24.98922    418.82624    428.61271   -4260.2199 
40832000    58.540135   -5131.1163   -5018.2167   -5131.1163            0     6672.233    19.687231    19.710399     20.51501    7960.7095    6361.0107    7285.4492    6370.2391   -164.51901   -187.85105    211.74997   -4243.5786 
40833000    57.514348   -5116.5465   -5005.6253   -5116.5465            0    8461.2761    19.726196    19.675655    20.376366    7908.5943    8186.7021    8571.0223    8626.1037   -24.267789    138.65844    -313.5333   -4029.7124 
40834000    61.040657   -5120.4139   -5002.6918   -5120.4139            0    6677.6719    19.693998    19.768905     20.43299    7955.1508    6411.4196    6728.7697    6892.8264   -135.00343     398.2093    851.31321   -4227.9636 
40835000    57.379491   -5123.4182    -5012.757   -5123.4182            0    6881.1487    19.715087    19.834206    20.259565    7922.1605    6723.7443    6191.0767    7728.6252   -546.60375    895.99293    140.59109   -4217.7326 
40836000    56.689873   -5122.2138   -5012.8826   -5122.2138            0    6830.4512    19.767564    19.691883    20.395544    7939.1807    6113.4096     7442.812    6935.1318   -29.712429   -121.89706    184.65175   -4222.0201 
40837000    58.426092   -5125.0333   -5012.3537   -5125.0333            0    6468.3341    19.730961    19.773071    20.339741    7935.3811     6575.195    6241.2985    6588.5086     -2.42332   -365.09464   -15.375992   -4263.7773 
40838000    58.547437   -5120.8289   -5007.9152   -5120.8289            0    7389.3664     19.59532    19.840625    20.346917    7910.5435    7624.0659    7246.4623    7297.5711   -143.59893    370.46597    591.94174    -4155.425 
40839000    57.869443    -5130.368   -5018.7619    -5130.368            0      7231.57    19.690471    19.704102      20.4078    7917.8803    6546.3413    7674.4947     7473.874   -301.11091    1128.8581    715.38534   -4183.7024 
40840000    59.597667   -5128.4771    -5013.538   -5128.4771            0    6382.0654    19.797037    19.736369    20.336911    7946.0706    6125.9396    6226.8263    6793.4305   -495.14891    376.18363    204.53965   -4273.9505 
40841000    57.742605   -5126.6446   -5015.2831   -5126.6446            0    6881.8957    19.710644    19.712731    20.476951    7956.3319    6506.7571     7564.341     6574.589   -353.51867    744.98307   -81.151975   -4216.7428 
40842000    56.951518   -5121.0801   -5011.2443   -5121.0801            0    6732.7962    19.677286    19.796905    20.339828     7923.367    7329.3882    6176.8209    6692.1794   -35.918054    328.77704    489.91429   -4233.2415 
40843000    60.032037   -5121.3379    -5005.561   -5121.3379            0     7073.895    19.693772    19.693464    20.486341    7945.3936     7664.182    6406.5684    7150.9346    90.508023     912.8787    1316.3249   -4185.8705 
40844000     58.43278   -5125.4122   -5012.7197   -5125.4122            0    6906.1863    19.703815    19.783431    20.422769    7960.9804    7856.4038    6052.0296    6810.1255    36.899497   -99.722084   -415.83311   -4210.8926 
40845000    58.287304   -5131.7361   -5019.3241   -5131.7361            0    7721.2379    19.629403    19.659403    20.548607    7929.7556    8131.9336     8474.377    6557.4031    63.008218    232.29264   -113.03939   -4126.3834 
40846000    60.169437   -5124.5244   -5008.4826   -5124.5244            0    7098.2603    19.741283     19.74677    20.375579    7942.9421     8052.663    6845.2384    6396.8795   -1.3673152   -177.73243     157.0463   -4186.2225 
40847000    58.291976   -5122.3257   -5009.9047   -5122.3257            0    6634.1175    19.774441    19.741173    20.333339    7937.5392     7007.531    6725.0901    6169.7313   -49.858875    -125.2261    11.899807   -4241.9336 
40848000    59.289972   -5124.0426   -5009.6969   -5124.0426            0    6870.3002    19.771295    19.734983    20.340626    7936.6311    6124.2644    7170.6655    7315.9708   -180.65788   -365.78962    -175.3589    -4214.476 
40849000    59.751336   -5124.4094   -5009.1739   -5124.4094            0    6404.7189    19.672337    19.687099    20.453028    7921.2786    6043.7865    7189.0333    5981.3371   -209.95661   -66.178323    299.93061   -4269.2769 
40850000    58.402324     -5122.79   -5010.1562     -5122.79            0    6625.5231    19.771312    19.715331    20.332244    7925.4672    6255.7339    7065.3718    6555.4635    225.45529    289.21445    535.59062   -4244.3464 
40851000    55.974223   -5128.7438   -5020.7928   -5128.7438            0    6786.6749    19.659612    19.762827    20.457344    7948.2816    7250.8179    6319.9155    6789.2914    168.46217    400.26166    358.27663   -4234.0982 
40852000    59.649821   -5121.5483   -5006.5086   -5121.5483            0    7345.3133    19.649256    19.752834     20.39414    7915.5466    7594.7469    7130.0067    7311.1863    185.25519     297.1668   -193.38104   -4158.5647 
40853000     59.54145   -5113.0666   -4998.2359   -5113.0666            0    7927.5268    19.656312     19.73903    20.286908    7871.2497     7617.215    7428.1702    8737.1951    19.442716    276.91283    325.98915   -4088.2026 
40854000     58.85974   -5120.3005   -5006.7845   -5120.3005            0    5897.6917     19.66696    19.845015     20.37384    7951.7284    5583.7795    5783.1607    6326.1347    29.515651    184.24707     474.6146   -4322.8422 
40855000    62.302581   -5120.2572   -5000.1014   -5120.2572            0    6269.5722    19.668636    19.810802    20.373027    7938.3796    5923.7269    6132.3522    6752.6376    71.515727   -167.06058   -32.524606   -4274.2534 
40856000    57.079794   -5125.9773   -5015.8942   -5125.9773            0    6657.5526    19.681638    19.757057    20.426389    7942.8268    7018.6913    6391.7293    6562.2373    48.293086    324.01224    493.02583   -4244.6967 
40857000    57.925995    -5120.199   -5008.4838    -5120.199            0    7312.0973    19.664883    19.818655    20.354612    7932.8346    7317.7171    6927.6355    7690.9394    31.102384   -409.74242    576.88712   -4162.5308 
40858000    59.886059   -5119.5429   -5004.0476   -5119.5429            0    6797.7217    19.742732    19.773704    20.314565    7930.5412    6624.8348    6130.8054    7637.5248   -294.36464   -377.21172    548.90431   -4217.8312 
40859000    59.338596   -5129.4205    -5014.981   -5129.4205            0      6672.98    19.736127    19.827958    20.356396    7966.0097    6395.1298    6592.5923     7031.218    209.53993    374.74432    315.64259   -4239.7404 
40860000    62.609031   -5125.4294   -5004.6826   -5125.4294            0    6685.0344    19.747111    19.680239    20.429397    7939.4326    5452.8916    8007.0677     6595.144    -496.6526   -9.1505775   -215.08962   -4230.6326 
40861000    62.562873   -5125.4447   -5004.7869   -5125.4447            0    6565.7333    19.676629    19.739612    20.468928    7950.3163    6220.6927    7001.4908    6475.0164   -285.18323    507.28509     99.04161   -4243.5085 
40862000    61.653677   -5124.2549   -5005.3506   -5124.2549            0    6861.0367    19.662491    19.703735    20.461884    7927.4351      7415.18    6775.3466    6392.5835   -429.63606    336.72912   -801.66576   -4212.1221 
40863000     59.34973   -5131.9868   -5017.5259   -5131.9868            0    6178.8242    19.775456    19.782463    20.331674    7953.8976    5986.6827    6920.4015    5629.3883    10.206464    681.41468    383.47726   -4300.7858 
40864000    55.724139   -5112.0736   -5004.6049   -5112.0736            0    6678.9038    19.738912    19.786705    20.312598    7933.4516    5833.2933    7710.9401    6492.4781     303.5417    337.18618    173.78695   -4231.8474 
40865000    58.755925   -5120.7003   -5007.3845   -5120.7003            0     6590.695    19.546992    19.782776    20.467775    7914.7608    6799.4283    6795.4265    6177.2302   -483.73881    556.04481     818.8463   -4246.6294 
40866000    57.509929    -5127.248   -5016.3352    -5127.248            0    7081.4239    19.750575    19.826905    20.273256    7938.8607    7827.9484    6221.6084    7194.7149   -127.64118   -473.65461    13.041252    -4196.447 
40867000    56.641287   -5128.1808   -5018.9433   -5128.1808            0    6804.8739     19.86988    19.715005    20.316325    7958.6113    5556.1518    7459.9052    7398.5646   -93.223316   -232.14011   -127.01518    -4229.114 
40868000    56.079232   -5118.7809   -5010.6274   -5118.7809            0    8090.8868    19.758649    19.695101    20.293271    7897.0978    7089.6847    8794.5104    8388.4654   -215.24008    336.54497    109.30297   -4078.7913 
40869000    56.508962   -5126.4824   -5017.5002   -5126.4824            0    6806.5805    19.779236     19.66296    20.420621    7941.9536    6814.3184    6625.0389     6980.384   -137.70633     209.1428    539.65396   -4229.1263 
40870000    57.934063   -5122.3079   -5010.5772   -5122.3079            0    7035.7155    19.777378    19.713192    20.364218    7939.5047    7379.8346     6816.874    6910.4379    388.85025    130.37828    652.78794    -4195.915 
40871000    57.858625   -5129.4467   -5017.8615   -5129.4467            0    6605.4752     19.76919    19.701333    20.358748    7929.3128    5735.1169    7622.4918    6458.8169    419.17178    560.20402   -157.52178   -4253.9984 
40872000    60.993431   -5119.8432   -5002.2123   -5119.8432            0    7322.1702    19.579164    19.844006    20.332814    7899.8886    7635.2836    6347.8498    7983.3772   -221.87099    592.79989    6.7836538   -4158.6121 
40873000    59.302928   -5126.1926   -5011.8219   -5126.1926            0    6640.3347    19.770083    19.701231     20.40394    7947.2315    7405.9466     6129.815    6385.2425    -416.0648    343.55071    312.42622   -4242.1924 
40874000    57.360729   -5118.7724   -5008.1474   -5118.7724            0    7049.8493    19.682585    19.831852    20.321436    7932.3124    6945.0614    6888.7673    7315.7193   -13.123267   -70.404344    56.806075   -4192.5881 
40875000    59.798804   -5120.9855   -5005.6585   -5120.9855            0    6696.2936    19.651178    19.866148    20.370019    7952.3171    6592.4757    6592.7448    6903.6604   -173.03545   -314.13887    44.625377   -4229.0465 
40876000    56.165431   -5127.5274   -5019.2076   -5127.5274            0     5695.283    19.739853    19.740502    20.374024    7939.2398    5527.3874    5826.9402    5731.5215   -164.87196   -64.529678   -802.79403   -4359.7755 
40877000    60.202641   -5127.9944   -5011.8885   -5127.9944            0    7095.1612    19.727309    19.740686    20.354979    7926.8521    7356.1878    6485.0505    7444.2453   -197.74303   -690.02411    248.14655   -4191.6524 
40878000    58.823053   -5133.0398   -5019.5946   -5133.0398            0    6116.2133     19.80518     19.70898     20.44094    7978.9148    5862.7305    6838.9303     5646.979   -129.20631    145.67504   -673.76957   -4307.8858 
40879000    62.636262   -5119.0829   -4998.2836   -5119.0829            0    7089.8113    19.688804    19.767763    20.324712    7910.4511    6982.0462    7061.5334    7225.8545   -406.17646    551.99374     -267.536   -4180.3617 
40880000    55.768176   -5124.0665   -5016.5128   -5124.0665            0    7277.4492    19.649091    19.731557    20.413835    7914.5899    7323.0932    8057.8297    6451.4246    112.02475    126.97491    234.73573   -4176.5047 
40881000    58.110971   -5132.9765   -5020.9046   -5132.9765            0     6837.229    19.681721    19.792932    20.383056     7940.402    7712.8752    6408.4201    6390.3918    173.42838    22.762054     972.1597   -4229.1356 
40882000    61.063845   -5119.4402   -5001.6734   -5119.4402            0     7634.786    19.803505    19.594532    20.435086    7929.6395    6042.8728    9541.1672     7320.318    308.60178     291.4801    543.29997   -4118.7436 
40883000    61.161627   -5115.7046   -4997.7493   -5115.7046            0    7975.0043    19.671832    19.720155    20.348433    7893.7997    7282.7155    8418.3881    8223.9094    64.066134   -324.90846    849.66158   -4079.6431 
40884000    56.874267   -5122.6782   -5012.9914   -5122.6782            0    6707.1088    19.648022    19.877689    20.307941    7931.4141    7130.7694    6296.3379    6694.2191    154.12061    263.82443    800.67523   -4237.1698 
40885000    57.001107   -5123.5832   -5013.6518   -5123.5832            0    6246.8168    19.754077    19.785487    20.358493    7956.9955    7427.5702    4609.3192     6703.561   -312.91519   -460.46145    548.89937   -4288.7423 
40886000    58.544238   -5123.6399   -5010.7324   -5123.6399            0    6861.3782    19.683572     19.71995    20.490946     7953.746    7175.6648     7251.642    6156.8279    46.343724    239.45688    202.28012   -4214.8316 
40887000    58.574933   -5131.7376   -5018.7709   -5131.7376            0    5900.6542    19.716777     19.74178    20.463816    7965.4229    5718.1213    6501.9415    5481.8998   -259.85728   -12.149175   -362.68225   -4333.3066 
40888000    59.111136   -5124.9946   -5010.9938   -5124.9946            0    7469.6155    19.710632     19.78528    20.304198    7918.2388    8179.4381     6529.389    7700.0194   -12.736381   -316.18054   -732.19251   -4148.4072 
40889000    56.590718   -5129.9084   -5020.7684   -5129.9084            0    7150.1521    19.724615     19.73981    20.381963    7935.9244    7378.9872    6461.2943    7610.1747    56.094336    35.117955    154.41749    -4193.229 
40890000    58.740187   -5124.1496   -5010.8642   -5124.1496            0    6438.1154    19.741721    19.772649     20.49176    7998.8789    5947.1351    6599.0582    6768.1529    203.50013   -340.48435    430.86664    -4259.823 
40891000    58.587465   -5124.7604   -5011.7696   -5124.7604            0    6795.0142    19.642466     19.78795    20.415143    7935.0419    7454.5662    6661.2527    6269.2238   -238.38262    241.36804    359.90943   -4225.4203 
40892000    56.323223    -5120.089    -5011.465    -5120.089            0     6632.637    19.570121    19.895806    20.403838    7944.5063    6865.2155    7258.8202    5773.8754   -301.11469   -57.376797   -492.18609   -4242.9912 
40893000    56.672382   -5123.7343   -5014.4368   -5123.7343            0    6710.6536    19.591391    19.819184    20.437559    7935.6055    8115.5584    5813.7907    6202.6116   -145.91859   -45.490059    15.578316    -4237.795 
40894000    62.552213   -5130.1141   -5009.4769   -5130.1141            0    7061.5448    19.754553    19.696045    20.402902    7938.4949    6544.7452    7555.6794    7084.2097    409.99353    107.56065   -91.492974   -4191.9279 
40895000    57.696558   -5122.9839   -5011.7112   -5122.9839            0    6787.1864    19.807894    19.743227     20.29057    7935.0688    6711.7835    6792.7778     6856.998    60.547372    45.409373   -405.14964   -4226.2651 
40896000    59.421835   -5128.7497   -5014.1497   -5128.7497            0    7153.6752    19.655509    19.747484    20.395594    7916.4855    6603.0839    7906.9085     6951.033    57.074771    1541.0396   -183.13528   -4188.2305 
40897000    59.312436   -5132.0622   -5017.6732   -5132.0622            0    7351.9386     19.76696    19.664635    20.399576    7929.5204    7088.3239     7794.203     7173.289    262.37466   -116.87411    501.88924   -4167.4662 
40898000    58.879876   -5126.1272   -5012.5724   -5126.1272            0    6988.3686    19.818665      19.6441    20.337764    7917.8951    6773.7124    7863.0095    6328.3841     27.17705   -694.83421   -802.89625   -4205.5949 
40899000    60.199704   -5123.2761   -5007.1759   -5123.2761            0    6737.6039    19.705614    19.774766    20.355632    7932.0585    6188.3985    7556.2428    6468.1702   -113.04985    30.525508    43.224882   -4227.7636 
40900000     59.66254   -5129.1853   -5014.1211   -5129.1853            0    6451.6749    19.713561    19.721579    20.441395    7947.2572    6030.3563    7285.1748    6039.4937     12.19478    456.22187   -214.10273   -4266.3552 
40901000    60.845495   -5120.2684   -5002.9228   -5120.2684            0    6797.5441    19.713919    19.769983    20.400283    7950.8848    7139.0508    6591.9491    6661.6322   -311.62568   -319.35017    671.31488   -4214.7102 
40902000    57.795428   -5115.5626   -5004.0992   -5115.5626            0    7214.0897    19.783379    19.681995    20.315372     7910.326     5843.552     8730.489    7068.2281    122.84514   -306.04716    193.94782    -4171.853 
40903000    60.313876    -5127.926   -5011.6056    -5127.926            0    7020.7027    19.587701    19.867361    20.374899    7929.0127    7181.0967    6953.8684    6927.1429    202.53386   -134.19385    344.80146    -4199.756 
40904000    57.221079   -5122.0797    -5011.724   -5122.0797            0    6975.4403    19.688593    19.668486    20.517286    7945.2126    7153.2959     7569.053     6203.972   -255.89321    494.12823   -42.010884   -4203.4604 
40905000     59.59843   -5127.3689   -5012.4283   -5127.3689            0    7313.7303    19.808888    19.744107    20.331487    7951.8237    6450.1574    8333.2837    7157.7498   -138.70091   -499.79311     737.3137   -4164.2609 
40906000    55.720812   -5120.8669   -5013.4046   -5120.8669            0    6874.0175     19.65003    19.816869    20.341852    7921.1592    6243.9751    7253.8626    7124.2147   -445.22637    422.47567    715.60808   -4219.3045 
40907000    60.727477   -5123.2071    -5006.089   -5123.2071            0    7300.9113     19.72725    19.806072    20.278542    7923.2181    8216.4407    6370.1605    7316.1327    24.806159    54.518725   -97.565555    -4162.454 
40908000    56.078786   -5125.7832   -5017.6306   -5125.7832            0     7120.093    19.748397    19.710643    20.390404     7937.038    7559.0691    6871.9359    6929.2741   -484.42333    143.61587   -582.46506   -4193.4545 
40909000     55.67818   -5121.4188   -5014.0388   -5121.4188            0    7749.6211    19.729334    19.727442    20.398434    7939.2598     8251.124    7399.5995      7598.14    220.60124   -384.59002     1136.829   -4116.7414 
40910000    56.168825   -5115.4773    -5007.151   -5115.4773            0    7176.7985    19.625867    19.734465    20.449244    7920.1143    7169.4343    7071.6578    7289.3035   -147.28112    358.95154    254.68699   -4178.1824 
40911000    57.136925    -5123.155   -5012.9616    -5123.155            0    7079.9997    19.665109    19.762029    20.354927    7910.3813    7001.9799    6969.7788    7268.2404    -406.7516    124.72197    325.31866   -4196.1789 
40912000    59.719064   -5125.0502   -5009.8769   -5125.0502            0    7379.0921    19.687474    19.789094    20.379688     7939.871    7447.3945    7616.3194    7073.5624   -751.10111    150.45949   -210.63323   -4155.4159 
40913000     61.45816   -5128.3644   -5009.8372   -5128.3644            0    7096.7062    19.763927    19.714206    20.414266    7954.0132     7415.019    6742.3732    7132.7266     317.5498   -276.40184   -589.65159   -4186.6113 
40914000    57.816559    -5123.267   -5011.7629    -5123.267            0    7175.2991     19.69814    19.741938    20.360782    7917.8897    7255.3168    7276.6665    6993.9138   -132.22276    522.38515   -247.61543   -4183.2003 
40915000    60.287627   -5123.7122   -5007.4425   -5123.7122            0     7270.872    19.724265    19.740945    20.272548    7893.6359    7479.6493    6854.9435    7478.0234    56.708211    651.47629    920.68155   -4170.4154 
40916000    59.333976   -5122.9385    -5008.508   -5122.9385            0    6824.3053    19.660911    19.805267    20.405347    7945.6297    6273.5327    7145.0784    7054.3046    2.8274305    1106.1693    953.57706   -4217.7153 
40917000    61.189117   -5128.8876   -5010.8793   -5128.8876            0    6390.8917     19.71718    19.759376    20.379026    7939.6521    6268.6894    6443.6086     6460.377   -114.52076     897.6006   -18.387209   -4270.8672 
40918000    60.485746   -5122.5722   -5005.9204   -5122.5722            0    7042.7698    19.799655    19.746035    20.373091    7965.1587    6303.3732    7859.5943     6965.342   -53.038297    486.33535    981.91137   -4187.8064 
40919000    61.514735   -5120.9002   -5002.2638   -5120.9002            0    7064.3743     19.74912    19.688889    20.379184    7924.2062    6408.9321    7713.4423    7070.7483   -51.350092     111.7879    547.99678   -4185.8594 
40920000    58.700087   -5117.9509   -5004.7429   -5117.9509            0    7311.6846    19.589276    19.808683    20.354856    7898.4527    6843.4888    6940.7329    8150.8322   -160.17396   -596.39437    1118.0045   -4162.5039 
40921000    58.949534    -5120.509   -5006.8199    -5120.509            0    6474.6508    19.691118    19.804339    20.359267    7939.4946    6206.8144    6490.1693    6726.9687   -112.80662    261.87503   -793.16843    -4257.124 
40922000    58.241165   -5127.3783   -5015.0553   -5127.3783            0    6310.7371    19.739191     19.79872    20.368558    7960.2507    6801.2176    5607.9834    6523.0104    44.821995    349.49721    593.57051   -4282.4286 
40923000     57.20325   -5126.7387   -5016.4174   -5126.7387            0    6708.8758     19.60498    19.788451    20.440931    7930.1038    6706.2679    7056.7484     6363.611   -112.64714     571.2578    1.8321765   -4240.5196 
40924000    62.871226   -5131.2763   -5010.0238   -5131.2763            0    6630.9653    19.635311    19.743028    20.443862    7925.2779    7265.7468    6352.5689    6274.5803    257.62752    321.84392    314.31128   -4243.6033 
40925000    60.175676   -5128.5467   -5012.4929   -5128.5467            0    7244.9663    19.684216    19.749022    20.370909    7919.0688    7310.5999    6887.9589    7536.3402   -158.31265   -281.56166   -89.262227   -4175.7609 
40926000    58.570645   -5132.3849   -5019.4265   -5132.3849            0    6522.5573    19.727598    19.742035    20.409914    7948.9051    6495.5903    6338.7907    6733.2909    233.13092   -102.42006    228.81792   -4263.2884 
40927000    59.546497   -5125.7635   -5010.9231   -5125.7635            0    7232.4887    19.726961    19.812352     20.30736    7936.8779    7051.3023    7419.2509    7226.9128    50.032145    436.65784    418.91572   -4173.7537 
40928000    60.309988   -5126.9351   -5010.6222   -5126.9351            0    6933.5353    19.729328    19.730735    20.400791    7941.5004     7918.415    6303.1889    6579.0022   -372.16737      13.1016   -1006.2672   -4207.5896 
40929000    59.466629   -5118.4887   -5003.8023   -5118.4887            0    6745.8393    19.694058    19.687713    20.454988     7931.032    6920.5706    6884.1044    6432.8428   -456.22949     733.3869   -131.18056   -4223.5383 
40930000     61.73642   -5123.3026   -5004.2387   -5123.3026            0    6862.9195    19.614781    19.862705    20.340364     7924.659    7558.3402     6082.455    6947.9632   -426.45518    261.60662    480.96839   -4211.0703 
40931000    58.961286   -5126.8394   -5013.1276   -5126.8394            0    5982.9924    19.814191    19.785923    20.264032     7944.353    5813.3668    5563.6006    6572.0098   -129.51988     -209.496     538.3816   -4319.9367 
40932000    57.694733   -5122.5684   -5011.2992   -5122.5684            0    7077.5618    19.774924    19.755744     20.29608    7929.0358    6797.2729    7145.0483    7290.3641   -160.98301    199.13105    230.15268   -4192.8722 
40933000    56.928829   -5129.5317   -5019.7396   -5129.5317            0     6537.991     19.75929    19.727219    20.410807    7956.0477     6012.569    7091.6564    6509.7476     164.2127    211.37759   -597.45238   -4261.1313 
40934000    59.461329   -5133.1253   -5018.4491   -5133.1253            0    5851.8786    19.658191    19.907217    20.324845    7953.9223    6039.1048    5265.7787    6250.7521   -17.712754     437.5136   -265.58578   -4339.6324 
40935000    61.557189   -5121.1847   -5002.4665   -5121.1847            0    6771.9708     19.86633    19.670446    20.264191    7918.8318    5959.4316    7557.3682    6799.1126    52.714416    749.71727   -46.593428   -4220.3849 
40936000    60.867309   -5127.6663   -5010.2786   -5127.6663            0    6067.6274    19.779726     19.71159    20.462046    7977.9444    5746.8177     6689.071    5766.9936    298.35695    106.70018   -258.68311   -4304.3093 
40937000    58.785252   -5124.1164   -5010.7441   -5124.1164            0    6850.8941    19.672319    19.727288    20.364452    7903.0674    7241.8634    6074.4882    7236.3309   -385.31352   -329.29414   -555.80487   -4221.1228 
40938000    60.694241   -5124.1814   -5007.1275   -5124.1814            0     6956.112    19.608402    19.766951    20.406569    7909.5521    7582.9441     6874.536     6410.856   -422.35545    67.186155    161.65759   -4204.7212 
40939000    55.559089   -5125.7229   -5018.5725   -5125.7229            0    6651.0889    19.796387    19.785021    20.296808    7949.6902    5947.2294    7189.3854     6816.652   -379.98036    248.61287    98.101171    -4247.458 
40940000    60.801949    -5119.613   -5002.3513    -5119.613            0    6516.4169    19.653489     19.73555    20.495443    7949.6167    7126.5503    6716.0151    5706.6852   -920.28491   -194.88387    100.07513   -4246.8575 
40941000    59.102632   -5122.6528   -5008.6684   -5122.6528            0    6638.5697    19.687997    19.796592    20.348453    7930.9162    6916.8432    6120.6139     6878.252   -438.68505    584.23208    60.975965    -4240.823 
40942000    58.147366   -5118.2848   -5006.1427   -5118.2848            0    7796.2034    19.639807     19.78373    20.366324    7913.3073    7390.1008    7609.3005     8389.209    85.340126    70.054784   -200.22509   -4106.4026 
40943000    59.200498   -5127.0321   -5012.8589   -5127.0321            0    6812.9461     19.74589    19.738029    20.453007     7971.456    7406.8743    7017.4517    6014.5123     233.8123    1033.2901   -301.68891   -4220.8164 
40944000    61.584972   -5121.7346   -5002.9628   -5121.7346            0    6919.7743    19.648402    19.763514    20.393412       7919.2     6980.585    7186.5939    6592.1441    66.625495    433.31018    123.82327   -4203.7745 
40945000    58.731597   -5124.6834   -5011.4146   -5124.6834            0    6353.6018    19.691917    19.811512    20.372912    7948.0159    4829.4079    7082.8901    7148.5074   -143.30263    14.355533    260.30592   -4274.9454 
40946000    56.422182   -5123.4642   -5014.6493   -5123.4642            0     5765.142    19.639681     19.84234    20.449097    7968.9566     6838.342    4475.7177    5981.3663   -492.01212   -111.06737    173.60103   -4344.6299 
40947000    58.307069   -5122.1294   -5009.6793   -5122.1294            0    6470.3263    19.667342    19.717094    20.442074    7927.0858    5505.1481    6928.7877     6977.043   -363.58285    167.18352    603.08453   -4261.6552 
40948000    61.677538    -5130.117   -5011.1667    -5130.117            0    6127.5569    19.842379    19.703584    20.371923     7964.729    5770.5605    6424.4634     6187.647    9.8627846   -47.993534    492.48232   -4299.4056 
40949000    59.802606   -5116.0301   -5000.6958   -5116.0301            0    7410.0069     19.65913    19.719722    20.343607    7886.6586    7188.3323    7384.8634    7656.8251   -290.19079    119.09687    579.49623   -4148.4054 
40950000    58.298668   -5125.8129    -5013.379   -5125.8129            0    6586.1085    19.663229    19.817532    20.362454    7934.7732    6712.8194    6421.1644    6624.3418   -112.53787    649.24125   -310.22392    -4251.231 
40951000    58.460006   -5129.0937   -5016.3486   -5129.0937            0    5810.5433    19.726158    19.878407    20.348672    7979.2153    6821.9822    5397.8256    5211.8221    -145.6797    575.30075   -463.46082   -4340.1834 
40952000    57.540868   -5121.2209   -5010.2485   -5121.2209            0    7819.6945    19.778142    19.672828    20.407025    7940.2099    7896.0727    8158.1736    7404.8374   -373.02334   -171.87059    416.23435   -4104.7293 
40953000    58.198846    -5126.377   -5014.1356    -5126.377            0     6762.237    19.622784    19.846061    20.343335    7922.4058    7901.3542    5988.8814    6396.4756    57.569345   -608.26773     168.7014   -4232.8256 
40954000    56.761794   -5119.5048   -5010.0349   -5119.5048            0    7700.6782    19.680919    19.755831    20.252296    7874.3542    7606.5388    7997.3949     7498.101   -171.39707    388.11185   -335.54383   -4125.6938 
40955000     56.73875   -5128.0198   -5018.5943   -5128.0198            0     6407.832    19.664097     19.78957    20.427964    7949.4202     7344.612    5298.7441      6580.14   -72.351653     569.5554   -248.78917   -4275.7078 
40956000    55.891858   -5128.9192    -5021.127   -5128.9192            0     6427.912    19.760588    19.721634    20.439808    7965.6194    6179.9988    7019.2245    6084.5126   -23.139825     126.4865    680.41772    -4274.394 
40957000    57.963659   -5125.5622   -5013.7744   -5125.5622            0     6044.919    19.703515     19.78983    20.411617    7959.0858    6621.0331    5962.4153    5551.3087   -615.74574   -664.29334    346.79578   -4312.1098 
40958000    58.213787    -5119.257   -5006.9869    -5119.257            0    6275.0178      19.6186    19.754514    20.466502    7931.9137     6023.077    7352.2388    5449.7376    50.251417   -537.07625    -210.8742   -4281.1002 
40959000    54.900251   -5118.5391   -5012.6594   -5118.5391            0    6349.6789    19.774178       19.728    20.375759    7948.6849    7122.7302    5275.9752    6650.3312    -82.36702   -602.96694   -1074.4244   -4276.5829 
40960000    59.406236   -5115.8692   -5001.2993   -5115.8692            0    6739.9968    19.786546    19.595818    20.423247    7918.7782    5935.7859    7519.6341    6764.5704    342.47635    -214.4598    211.62742   -4222.9155 
40961000    62.622002    -5131.271   -5010.4992    -5131.271            0    6915.4613    19.725743    19.727399    20.384172    7932.2477    5986.3699    7462.6218    7297.3922   -5.0118918    82.725954    -696.9906   -4210.4931 
40962000    58.999253   -5123.6238   -5009.8388   -5123.6238            0    6707.0456    19.584825    19.771975    20.470534    7926.8186    6181.5395    7312.0872    6627.5101    -91.94325    63.448932    74.481091    -4234.474 
40963000    63.387026   -5127.9769   -5005.7297   -5127.9769            0    7294.8285    19.787824    19.707392    20.373626    7945.0295    7916.1029    6852.6387    7115.7439     258.8361    299.53694    124.88257   -4160.4772 
40964000    60.822422   -5123.7554   -5006.4542   -5123.7554            0    7914.6305    19.736273    19.710151    20.392585    7932.8157    7740.3489    8434.9558    7568.5868    -23.60432   -257.76852   -383.85491   -4090.7949 
40965000    55.547482   -5127.6311   -5020.5031   -5127.6311            0    7300.1542    19.546107    19.768451    20.459085     7905.314    7768.1691    7013.2864    7119.0071    299.35094    964.58486   -8.2449953   -4178.8618 
40966000    57.260874   -5123.3379   -5012.9055   -5123.3379            0    7182.5346    19.597683    19.837755    20.356957    7914.2561    7299.0468    7275.9645    6972.5926   -290.53005   -167.87075    264.56027   -4183.8879 
40967000    54.298364   -5125.6352   -5020.9163   -5125.6352            0    6598.7852    19.763486    19.765917    20.363087    7954.7061    6588.8227    6869.1953    6338.3375   -355.10003    658.49057     238.6607   -4255.3831 
40968000    59.959974    -5122.051   -5006.4131    -5122.051            0    7345.1362    19.816648    19.678959    20.366781     7942.454    6658.9021     7768.468    7608.0385   -34.209763    3.5717441    193.22321   -4155.6073 
40969000    56.752142   -5113.9878   -5004.5365   -5113.9878            0    7015.6893    19.715447    19.748177    20.307138    7906.4651    7222.9037    6319.9104    7504.2539   -142.34651    16.111908    363.08223   -4195.5736 
40970000    57.222418   -5126.5121   -5016.1539   -5126.5121            0    6533.2806    19.627308     19.83007    20.371643    7928.8652    6648.5388    5651.0765    7300.2263   -306.06212   -286.40765    309.80674   -4260.6821 
40971000    58.961256   -5127.3546   -5013.6429   -5127.3546            0    6421.7465    19.740672    19.714203     20.42217    7947.7288    6674.3051    6501.2579    6089.6766   -98.189522    370.21998    221.21739   -4269.3016 
40972000    56.800399   -5126.1183   -5016.5739   -5126.1183            0    6575.2745    19.770769    19.770238     20.32172    7943.2078    7191.5939     5537.018    6997.2117   -109.46972     968.1621    781.55832   -4254.8709 
40973000    57.570221   -5124.8583   -5013.8293   -5124.8583            0    6438.2587     19.69747    19.730206    20.429882      7939.77    5774.0203    7185.0572    6355.6986    166.97532    524.32258     226.0709   -4268.3214 
40974000    59.779614   -5128.0697   -5012.7797   -5128.0697            0    6775.5984    19.642348    19.837277    20.398618    7948.3357    6438.6558    6978.7796    6909.3599   -244.59709    524.94288    242.77779   -4227.3636 
40975000    57.735837   -5129.0247   -5017.6763   -5129.0247            0    6314.1535     19.67066    19.816431    20.393968    7949.6153     6889.755    5729.4971    6323.2084    -331.2385    402.99064    441.42485   -4285.6323 
40976000    58.726595   -5127.5762    -5014.317   -5127.5762            0    6534.8987    19.798311    19.692806    20.400034    7953.6529    6599.3902    6834.2079     6171.098    150.21687    579.51356   -721.66824   -4256.2957 
40977000    63.420599   -5116.0641   -4993.7522   -5116.0641            0    7588.4951    19.683521    19.715836    20.361756    7901.9308    6802.1412    7987.5022     7975.842    113.70275    754.48322   -659.91456   -4119.2422 
40978000    62.221688   -5122.9712   -5002.9715   -5122.9712            0    6965.5096    19.709382    19.702451    20.406988    7924.5059    7036.9944    7126.3631    6733.1712   -220.70329    719.14522   -393.41751    -4197.962 
40979000    59.911665   -5124.9994   -5009.4547   -5124.9994            0    6600.2765    19.784913    19.704683     20.41563     7959.144    7122.3501    6360.9583    6317.5211   -207.21294    71.117197    837.19918   -4243.3213 
40980000    60.826289   -5122.3752   -5005.0666   -5122.3752            0    6750.0355    19.711996      19.6997    20.498408    7959.9503    6440.1373    7008.9941     6800.975   -131.61634    871.75039     585.3367   -4221.4704 
40981000    61.374365   -5123.8113   -5005.4457   -5123.8113            0    6806.0709    19.735703    19.750441    20.369515    7939.8099    7186.2178    6301.6497    6930.3453   -238.16622    603.20231     557.8655   -4217.3436 
40982000    61.249031   -5124.0866   -5005.9627   -5124.0866            0    7291.8741    19.742661    19.694297    20.336648    7907.2513    6423.3684    7845.9369    7606.3172   -93.431358    959.12131    983.51956     -4165.07 
40983000    57.831802   -5127.3963   -5015.8628   -5127.3963            0    7043.9674    19.736727    19.782226    20.349417     7945.153    5925.4271     8072.701    7133.7742   -287.35714     655.6031   -474.54689   -4199.6649 
40984000    60.936139   -5118.7815    -5001.261   -5118.7815            0    8013.5917    19.622149    19.794908    20.346409    7902.9246    8836.6375    7165.2088    8038.9287   -115.70243    1307.0911    367.67043   -4077.6461 
40985000    55.170515   -5124.6074   -5018.2064   -5124.6074            0    6543.2535    19.727914    19.836836    20.363921    7969.2048     6525.166    5879.7739    7224.8205   -147.33907    2.7750399   -285.48368   -4257.7319 
40986000    57.623525   -5126.5396   -5015.4078   -5126.5396            0    7068.5748    19.694522    19.758264    20.407004    7940.9684    7167.7928    7169.8835    6868.0481   -315.37711    639.27497    141.54728   -4196.7899 
40987000    57.207441   -5122.5976   -5012.2682   -5122.5976            0    6661.8557    19.681583    19.787215    20.387841    7939.9168    7107.9478    6226.5378    6651.0816   -378.01447    967.73289    402.13546    -4240.855 
40988000    60.538793   -5121.5567   -5004.8025   -5121.5567            0    6819.3687    19.727839    19.784072    20.281405     7915.771    6377.5447    7183.4575    6897.1039   -94.265316    104.49709    61.699149   -4217.5514 
40989000    59.511307   -5130.5784   -5015.8058   -5130.5784            0     6442.184    19.761911    19.803803    20.395968    7982.1864    6329.2184    6793.2777    6204.0558    35.260911    374.10105    836.39789   -4265.8583 
40990000    59.047047   -5121.2907   -5007.4135   -5121.2907            0    6821.9393    19.659173     19.76148    20.426388    7935.5365     5158.556    8539.4359     6767.826   -390.56388     520.6248     361.7562   -4217.8992 
40991000    58.031083   -5129.2352   -5017.3174   -5129.2352            0    6151.3357    19.775485    19.766284    20.347284    7953.5062    6088.8765    5653.3874    6711.7433    187.36389   -414.61284    35.595807    -4303.801 
40992000     56.74077   -5121.3484    -5011.919   -5121.3484            0    6664.4808    19.753474    19.763799    20.372603    7953.5391    6856.8736    6639.2101    6497.3587   -278.91671    662.31498    652.79532   -4238.8779 
40993000    61.151605   -5128.3925   -5010.4565   -5128.3925            0     5975.957    19.760382    19.735022    20.431929    7967.8714      6141.88    5800.8432    5985.1479   -425.32467    304.03449   -694.39192    -4316.031 
40994000    59.290815   -5119.7394   -5005.3921   -5119.7394            0    6922.7456    19.595259    19.734527    20.509406    7931.0523     7348.694    6559.5837    6859.9589    66.775709    129.68844    17.356392    -4204.664 
40995000    61.185652   -5120.0408   -5002.0391   -5120.0408            0    7087.9499    19.612698    19.772574    20.437044    7925.3533    7312.8139    7156.6239    6794.4119   -91.757827    181.66077    88.211899   -4182.7915 
40996000    60.271192   -5124.2653   -5008.0273   -5124.2653            0    7292.7572     19.79434    19.649057      20.4433    7951.2192    6601.0077     8439.877     6837.387   -461.39384    347.78409    570.72954   -4162.3564 
40997000    59.101349   -5126.5875   -5012.6056   -5126.5875            0    7110.7141    19.728141    19.745122    20.379024    7938.3335    7154.5221    7481.5482    6696.0719     230.1087    206.74446     19.10444   -4189.3808 
40998000    58.467873   -5117.1664   -5004.4061   -5117.1664            0    7221.5226    19.694422    19.728779    20.398105    7925.6202    6971.7224    7300.6832    7392.1622   -71.915657    720.44152    538.69525   -4169.6917 
40999000    58.955828   -5125.6179   -5011.9166   -5125.6179            0    7371.1574    19.661994    19.708652    20.417017    7911.8269    7118.1471     7692.448    7302.8773    8.6651539    218.58348    485.86555   -4161.3891 
41000000    62.830645   -5123.2052   -5002.0311   -5123.2052            0    6713.7018    19.748609    19.702305    20.473054    7965.9245    7232.5379      6351.95    6556.6176    301.60198    685.77732   -748.79613   -4222.0678 
Loop time of 367.906 on 64 procs for 250000 steps with 972 atoms

Performance: 117.421 ns/day, 0.204 hours/ns, 679.522 timesteps/s
193.6% CPU use with 32 MPI tasks x 2 OpenMP threads

MPI task timing breakdown:
Section |  min time  |  avg time  |  max time  |%varavg| %total
---------------------------------------------------------------
Pair    | 24.927     | 35.42      | 52.882     |  91.7 |  9.63
Bond    | 0.99211    | 1.231      | 1.8313     |  16.4 |  0.33
Kspace  | 152.95     | 174.52     | 190.35     |  51.8 | 47.44
Neigh   | 0.09007    | 0.10266    | 0.11312    |   2.2 |  0.03
Comm    | 59.644     | 65.902     | 69.968     |  37.1 | 17.91
Output  | 0.51581    | 0.51611    | 0.51749    |   0.0 |  0.14
Modify  | 70.94      | 72.511     | 74.849     |   9.9 | 19.71
Other   |            | 17.7       |            |       |  4.81

Nlocal:        30.3750 ave          36 max          24 min
Histogram: 4 0 3 1 3 10 2 3 3 3
Nghost:        2742.34 ave        2767 max        2718 min
Histogram: 3 2 4 1 4 8 3 4 0 3
Neighs:        9866.59 ave       12426 max        6983 min
Histogram: 2 2 2 4 6 3 3 6 1 3

Total # of neighbors = 315731
Ave neighs/atom = 324.82613
Ave special neighs/atom = 2.0000000
Neighbor list builds = 263
Dangerous builds = 0

unfix		3
unfix		2
unfix		1

write_data	data.final.${pid}
write_data	data.final.1
System init for write_data ...
PPPM initialization ...
  extracting TIP4P info from pair style
  using 12-bit tables for long-range coulomb (../kspace.cpp:340)
  G vector (1/distance) = 0.37239352
  grid = 24 24 24
  stencil order = 5
  estimated absolute RMS force accuracy = 0.0034845956
  estimated relative force accuracy = 1.0493756e-05
  using double precision FFTW3
  3d grid and FFT values/proc = 3211 432
Last active /omp style is kspace_style pppm/tip4p/omp
WARNING: Not all mixed pair coeffs generated from mixing. Use write_data with 'pair ij' option to store all pair coeffs. (../write_data.cpp:312)

write_restart   restart.lmp.${pid}
write_restart   restart.lmp.1
System init for write_restart ...
PPPM initialization ...
  extracting TIP4P info from pair style
  using 12-bit tables for long-range coulomb (../kspace.cpp:340)
  G vector (1/distance) = 0.37239352
  grid = 24 24 24
  stencil order = 5
  estimated absolute RMS force accuracy = 0.0034845956
  estimated relative force accuracy = 1.0493756e-05
  using double precision FFTW3
  3d grid and FFT values/proc = 3211 432
Last active /omp style is kspace_style pppm/tip4p/omp
Total wall time: 0:06:08
