LAMMPS data file via write_data, version 30 Jul 2021, timestep = 21750000

972 atoms
2 atom types
648 bonds
1 bond types
324 angles
1 angle types

0.13658565089922625 19.8634153490988 xlo xhi
0.039381943159998656 19.960619056838176 ylo yhi
0.1957164296815499 20.504281570328196 zlo zhi

Masses

1 1.008
2 15.999

Pair Coeffs # lj/cut/tip4p/long/omp

1 0 0
2 0.21084 3.1668

Bond Coeffs # harmonic/omp

1 450 0.9572

Angle Coeffs # harmonic/omp

1 55 104.52

Atoms # full

4 2 2 -1.1794 4.216868567905185 1.3839374770972126 3.5409826999416603 0 0 0
6 2 1 0.5897 4.670271504711954 1.0181565668422135 4.300589442664323 0 0 0
17 6 1 0.5897 4.293799004538282 4.372355311476687 2.9183079648542427 0 0 0
10 4 2 -1.1794 1.1984974720120785 3.8533831412373947 3.9191813019334494 0 0 0
11 4 1 0.5897 1.0025175216147657 3.0007872888779175 3.5308023336778818 0 0 0
12 4 1 0.5897 2.15416813644926 3.881028902674964 3.967843312670975 0 0 0
16 6 2 -1.1794 3.906534980560478 3.9817682647648214 3.701782481954956 0 0 0
18 6 1 0.5897 3.9866334917762796 3.0380009223660234 3.5639682543476074 0 0 0
23 8 1 0.5897 2.4780234467226845 0.9866843729519102 4.404063105133364 0 0 0
31 11 2 -1.1794 0.9379494125084284 1.8092602266023334 2.038088057963022 0 0 0
33 11 1 0.5897 1.6189456743475406 2.1149949340954928 1.4387788493631 0 0 0
5 2 1 0.5897 4.3485254098557 0.7367081136122148 2.8481426918139925 0 0 0
236 79 1 0.5897 1.108090419869328 0.08139392696359476 1.9452093790481826 0 1 0
22 8 2 -1.1794 1.8722474030210363 1.0113424831186997 5.144901085838894 0 0 0
356 119 1 0.5897 1.4054572742451592 2.6780949914308048 8.546148879835352 0 0 0
561 187 1 0.5897 0.7067456643461356 0.6833746220648115 9.061653298951967 0 1 0
325 109 2 -1.1794 2.566333556160619 2.86451906965916 7.120330479598988 0 0 0
326 109 1 0.5897 2.518865139544606 2.251289959751784 6.3868621086776045 0 0 0
327 109 1 0.5897 3.475696538227146 2.815780240742663 7.415502779310265 0 0 0
330 110 1 0.5897 4.154066773839564 0.5326534497152827 9.52424938880945 0 0 0
355 119 2 -1.1794 0.7172156675435228 2.525381844575218 9.19376923931045 0 0 0
27 9 1 0.5897 2.5813949261615283 4.561461616871446 6.361215642390598 0 0 0
328 110 2 -1.1794 3.931433118782838 1.2295752981203805 10.141473260548711 0 0 0
342 114 1 0.5897 4.158368281065793 4.451880470028266 9.640065404141485 0 0 0
341 114 1 0.5897 3.9517942528152914 3.029191871348681 10.114323000741281 0 0 0
24 8 1 0.5897 2.1289521038263377 0.26734942050424004 5.689677045211303 0 0 0
683 228 1 0.5897 4.683060217518596 2.4097450187660803 14.060250538061277 0 0 0
334 112 2 -1.1794 1.4198320649872047 4.588674923335581 10.875244112508407 0 0 0
346 116 2 -1.1794 1.7024704460454487 0.9895608657770759 12.043690384284469 0 0 0
347 116 1 0.5897 0.7934250638113318 1.1671080313283855 11.801707995226547 0 0 0
348 116 1 0.5897 2.1856848209530853 1.0457062320198225 11.219206385634426 0 0 0
350 117 1 0.5897 2.9799597356883285 4.500006187582732 13.639806592050247 0 0 0
649 217 2 -1.1794 2.9800267188047838 2.5026370442036834 13.93147746321825 0 0 0
650 217 1 0.5897 2.537388377771255 1.9939751528669338 13.252026946277013 0 0 0
651 217 1 0.5897 2.357325099060504 2.525446372628661 14.658217368172444 0 0 0
329 110 1 0.5897 4.609282279292854 1.178801374407625 10.815544224654197 0 0 0
336 112 1 0.5897 2.369399588566926 4.470389862557496 10.903125308410667 0 0 0
340 114 2 -1.1794 4.019965240578969 3.9300218637414925 10.430526280568214 0 0 0
335 112 1 0.5897 1.1002884755522861 3.845611318228629 10.363406096701807 0 0 0
652 218 2 -1.1794 4.072217327250176 1.2102924171963123 16.992516811537957 0 0 0
653 218 1 0.5897 3.224300600814809 0.9940798851747678 17.38073932677017 0 0 0
654 218 1 0.5897 4.217950817547526 0.5269375519099024 16.33828460850336 0 0 0
658 220 2 -1.1794 1.5808767072278056 4.176588037393887 17.230639628005015 0 0 0
659 220 1 0.5897 0.937633850488349 4.236277733894006 17.937113950997226 0 0 0
664 222 2 -1.1794 4.3724474858469415 3.986642951445937 17.032596960057564 0 0 0
665 222 1 0.5897 3.4426958604252835 4.167856948536961 17.17103305078185 0 0 0
666 222 1 0.5897 4.4281871395339865 3.0317795466819675 16.99761147188648 0 0 0
670 224 2 -1.1794 1.7037288908632264 0.7185653568315113 18.556511829294735 0 0 0
671 224 1 0.5897 2.067617979947438 1.4141879137814146 19.104162789503793 0 0 0
672 224 1 0.5897 0.7860677216157071 0.6588662297097524 18.822542475479654 0 0 0
681 227 1 0.5897 0.9407828938733219 2.7607936882438944 16.352250492583778 0 0 0
884 295 1 0.5897 0.9406233451949711 0.2774025154962867 15.58207507125761 0 1 0
679 227 2 -1.1794 0.7731211600526572 2.0311270143529496 15.755858600147027 0 0 0
660 220 1 0.5897 1.3744947262561376 4.913185030392626 16.655260584853973 0 0 0
1 1 2 -1.1794 2.5996758569649883 2.6977524889005675 20.312887731295323 0 0 -1
2 1 1 0.5897 2.53590224837566 3.6450052474432764 20.191444708273714 0 0 -1
3 1 1 0.5897 3.525868649923065 2.5412852885598256 20.49762924806628 0 0 -1
110 37 1 0.5897 2.395917921970291 9.418093105366744 0.9259772598527641 0 0 0
141 47 1 0.5897 1.0376403559415088 7.76983890418428 2.4039906575599135 0 0 0
139 47 2 -1.1794 0.910219504496226 8.69133148094708 2.178756174130335 0 0 0
114 38 1 0.5897 3.417010676420569 7.662614979463033 3.705660899052442 0 0 0
111 37 1 0.5897 3.822865200767504 9.351822191155374 0.4241219717299205 0 0 0
14 5 1 0.5897 4.27927174255899 5.437658664699406 1.2327762558481035 0 0 0
15 5 1 0.5897 4.691288289201183 6.465012309743546 2.2656185422883595 0 0 0
19 7 2 -1.1794 1.0762422404622427 5.897301242886804 2.0370649189159993 0 0 0
13 5 2 -1.1794 4.987474945599658 5.662365698872399 1.8364014211633337 0 0 0
112 38 2 -1.1794 4.301554326604235 7.656861156306097 3.339612686129108 0 0 0
674 225 1 0.5897 2.312874464475025 5.7213254082700065 0.6917068187906799 0 0 1
20 7 1 0.5897 1.2291207829025588 5.2260192364305365 2.7020928185817157 0 0 0
140 47 1 0.5897 1.1306573487498077 9.166770378755837 2.9798138480552097 0 0 0
126 42 1 0.5897 4.4926659246478495 9.547135187956107 3.4295662372103117 0 0 0
132 44 1 0.5897 0.9307871614527791 7.643914625598187 5.129034599369533 0 0 0
130 44 2 -1.1794 1.8745259361079187 7.667798948883825 4.970185703062783 0 0 0
113 38 1 0.5897 4.8653510412010865 7.425572950009309 4.0778861805943345 0 0 0
21 7 1 0.5897 0.14742367070721213 5.813838940521465 1.8207932116990408 0 0 0
26 9 1 0.5897 2.1766557685715435 5.794825842782454 7.14020442520747 0 0 0
464 155 1 0.5897 1.4627040740615393 9.153794529615372 8.610427932825566 0 0 0
344 115 1 0.5897 1.2855133433690469 5.648881417670177 9.385666888370922 0 0 0
437 146 1 0.5897 4.248418454334545 7.332125772468407 9.39710962888854 0 0 0
339 113 1 0.5897 4.303066346521285 5.550149493410286 7.455786732143005 0 0 0
435 145 1 0.5897 2.440070931611943 8.964910471428098 6.3143677837171985 0 0 0
433 145 2 -1.1794 2.7368851668287255 9.376610122402145 7.126000193599366 0 0 0
463 155 2 -1.1794 0.6917258981384191 8.9427562952027 9.137191023115474 0 0 0
345 115 1 0.5897 1.0706044289656023 7.075837383082112 8.928229528259044 0 0 0
131 44 1 0.5897 2.197707054928914 6.837036416998822 5.318840853200595 0 0 0
343 115 2 -1.1794 1.1970836808500611 6.186248241788606 8.598437223224254 0 0 0
468 156 1 0.5897 4.504189804065595 9.036296514463984 7.417474659399884 0 0 0
337 113 2 -1.1794 4.608139034410882 5.6778742794492265 8.354130397874306 0 0 0
25 9 2 -1.1794 2.6883354449199164 5.512369778444332 6.382048199805508 0 0 0
438 146 1 0.5897 3.944623782012282 8.76251950251238 9.788648296289502 0 0 0
436 146 2 -1.1794 3.9280636118891485 7.866218387476624 10.12404643248897 0 0 0
757 253 2 -1.1794 2.8348084797014934 9.406853576441764 14.108801696779507 0 0 0
351 117 1 0.5897 3.8388516393633894 5.6361198578332194 14.153116934304844 0 0 0
668 223 1 0.5897 1.6418691079996877 6.094565314102236 14.796978585982673 0 0 0
759 253 1 0.5897 2.492136471396056 8.871113766883775 13.39334448437255 0 0 0
792 264 1 0.5897 4.5705565042185015 9.10300603732453 14.1072143561388 0 0 0
454 152 2 -1.1794 2.029334033967677 7.544618194150458 12.127924555069846 0 0 0
455 152 1 0.5897 2.616341058856863 7.650862069196048 11.379230572299353 0 0 0
456 152 1 0.5897 2.4005779518470143 6.813734732293187 12.622103031497952 0 0 0
349 117 2 -1.1794 3.0027294902305925 5.45312011518696 13.724364082365442 0 0 0
533 178 1 0.5897 0.21935842601319555 7.489364999457084 12.133703842921078 1 0 0
789 263 1 0.5897 1.6623734034416773 9.104545974213254 15.345847370874438 0 0 0
673 225 2 -1.1794 2.8663420458664306 5.481029115903644 20.257075342190404 0 0 0
788 263 1 0.5897 1.1558134559077147 9.5651016260889 16.69624637337313 0 0 0
667 223 2 -1.1794 0.9716549904463749 6.210092125234892 15.470694164966407 0 0 0
779 260 1 0.5897 2.573522175265564 8.250815409591684 19.171217437958397 0 0 0
780 260 1 0.5897 2.991894376755896 7.651790096597257 17.845203539402345 0 0 0
675 225 1 0.5897 2.6969324660796077 6.158662020509167 19.602593275650484 0 0 0
760 254 2 -1.1794 4.260623150643466 7.929410794762411 16.776905115703986 0 0 0
761 254 1 0.5897 4.343144317580507 8.88297255130723 16.779901889816962 0 0 0
778 260 2 -1.1794 2.3720389890710445 7.537412084741006 18.565707581256582 0 0 0
663 221 1 0.5897 4.94994545672392 6.692916300402406 15.764905394415868 0 0 0
762 254 1 0.5897 4.729231843990057 7.645533332353724 17.561884305319907 0 0 0
669 223 1 0.5897 1.0259410969469442 7.136036656519563 15.706905190839542 0 0 0
787 263 2 -1.1794 0.9853737100287462 8.930737878467525 15.999965752918449 0 0 0
858 286 1 0.5897 0.5724122099975665 7.19576309829725 18.553471342568518 1 0 0
109 37 2 -1.1794 2.9269413368061348 9.529196608672457 20.44581696290069 0 0 -1
222 74 1 0.5897 4.701483084646763 13.827796511612217 2.752316327240745 0 0 0
118 40 2 -1.1794 1.6223975276926632 10.881432977717019 3.8918449988754364 0 0 0
119 40 1 0.5897 2.5791052052202192 10.851439345259356 3.9072159757506926 0 0 0
120 40 1 0.5897 1.4134659926453448 11.534896965796232 3.2243271445803967 0 0 0
220 74 2 -1.1794 4.369106428488957 14.38190356745421 3.4585543646287795 0 0 0
783 261 1 0.5897 2.1814494751397335 12.5376448521253 0.703218950508296 0 0 1
124 42 2 -1.1794 4.538022476668353 10.49668190671209 3.5409243530412104 0 0 0
240 80 1 0.5897 2.936916619167702 14.159688132552313 4.447740683587693 0 0 0
127 43 2 -1.1794 1.0525408669835776 12.739439858515336 2.0139382666952996 0 0 0
129 43 1 0.5897 1.161702387253208 13.639555050635394 2.3205466293611687 0 0 0
123 41 1 0.5897 4.642525182844531 12.448461298949814 0.937561657719409 0 0 0
238 80 2 -1.1794 2.171610284513787 14.167608265681945 5.022780204450566 0 0 0
122 41 1 0.5897 4.994723087386073 11.717818574659699 2.215941399945872 0 0 0
125 42 1 0.5897 4.966222275932303 10.618779358662543 4.38835873213347 0 0 0
188 63 1 0.5897 0.19171109831215377 11.289809589586088 4.962822199315089 1 0 0
128 43 1 0.5897 0.1419777784294962 12.69406161649258 1.7220040844610909 0 0 0
317 106 1 0.5897 0.36013140630242435 14.148557172197041 5.158014819041327 1 0 0
133 45 2 -1.1794 2.4346350907204335 12.160411145136454 6.739161586922789 0 0 0
134 45 1 0.5897 1.826427956239829 12.440028365587905 7.42348949251132 0 0 0
135 45 1 0.5897 3.299856435896544 12.389730263090994 7.078625717108901 0 0 0
446 149 1 0.5897 4.477889150461031 13.509288016624156 8.932152303572835 0 0 0
239 80 1 0.5897 2.2984634347694395 13.415811859941504 5.601510076535833 0 0 0
573 191 1 0.5897 0.9249424676955388 14.800022707167427 9.359677782058322 0 0 0
450 150 1 0.5897 4.119607112432568 11.444705507868955 9.348048821095084 0 0 0
451 151 2 -1.1794 0.830986220716674 12.884282267036458 8.991138950358259 0 0 0
453 151 1 0.5897 0.9429747545852151 12.176357165677416 9.625601596445868 0 0 0
445 149 2 -1.1794 4.685457191973961 12.83921260178355 8.280869461376877 0 0 0
434 145 1 0.5897 2.521400694606697 10.302888732919627 7.017873845178954 0 0 0
544 182 2 -1.1794 4.123763183101472 14.653503149703752 10.20203579994478 0 0 0
448 150 2 -1.1794 3.978916901042939 10.680027657782892 9.90633945315326 0 0 0
546 182 1 0.5897 4.815163015669356 14.619640008481428 10.863267703383803 0 0 0
444 148 1 0.5897 2.3281866577751424 10.85660887869621 10.813060690936934 0 0 0
457 153 2 -1.1794 2.6241937868650513 12.00627868295514 13.47252481751861 0 0 0
458 153 1 0.5897 1.8746039952169176 12.232740269006579 14.023206265249662 0 0 0
459 153 1 0.5897 3.3877658818562164 12.27028214502603 13.986019125381631 0 0 0
758 253 1 0.5897 2.8073965158397165 10.302446758551339 13.772206559267762 0 0 0
442 148 2 -1.1794 1.382418123473909 10.822089346926983 10.957219877821293 0 0 0
562 188 2 -1.1794 1.929289635861801 14.079512574739619 11.853613625993669 0 0 0
563 188 1 0.5897 2.1916406062150324 13.289861542469225 12.326716579619614 0 0 0
545 182 1 0.5897 3.3459134174659964 14.322025283608337 10.650895031203389 0 0 0
769 257 2 -1.1794 4.752642311292297 12.65251435928798 15.180059089723857 0 0 0
449 150 1 0.5897 4.476003498121215 10.869164965509144 10.702292480403942 0 0 0
775 259 2 -1.1794 0.9273049333928585 12.716856671151694 15.368023382281745 0 0 0
642 214 1 0.5897 0.3065079277872623 14.11341096732809 12.16126703035596 1 0 0
564 188 1 0.5897 2.158973070528198 14.79892068398349 12.441777183206169 0 0 0
512 171 1 0.5897 0.1432293494625221 11.19216594192435 12.162233944741292 1 0 0
443 148 1 0.5897 1.0833263300129226 10.09279474810576 10.414171284382792 0 0 0
766 256 2 -1.1794 1.6235268284493165 11.08368462995725 17.561885231017826 0 0 0
965 322 1 0.5897 0.19897445117305268 14.18883423408098 18.8568019948561 1 0 0
768 256 1 0.5897 1.3456588465104355 11.721143152642902 16.904083626208067 0 0 0
772 258 2 -1.1794 4.312517048081943 10.656613638358058 16.96812585181677 0 0 0
773 258 1 0.5897 3.4239499565457225 10.872132423148754 17.251728286388502 0 0 0
774 258 1 0.5897 4.492856010593286 11.270588671835368 16.25622906111794 0 0 0
868 290 2 -1.1794 4.087553020869834 14.690027201538847 16.770419347481848 0 0 0
767 256 1 0.5897 0.9205883655786665 11.087433127070634 18.211732717768076 0 0 0
869 290 1 0.5897 3.2816739126284897 14.459199389974216 17.232694799513364 0 0 0
886 296 2 -1.1794 1.9407550366060375 14.277190416359948 18.488184018317323 0 0 0
888 296 1 0.5897 2.087462221386901 13.427471142389052 18.903650620188813 0 0 0
781 261 2 -1.1794 2.8399276170713845 12.371216943967015 20.337157964443595 0 0 0
771 257 1 0.5897 4.48165431945544 13.518396870551733 15.484946960429479 0 0 0
782 261 1 0.5897 2.829376456319434 11.42126033736801 20.22072983766275 0 0 0
777 259 1 0.5897 1.0413213069812284 13.587498944806846 15.748951387543384 0 0 0
887 296 1 0.5897 2.273936206562425 14.914013130102257 19.12041942962695 0 0 0
870 290 1 0.5897 4.784349772780895 14.525549290521038 17.40590502123438 0 0 0
221 74 1 0.5897 4.489506613813144 15.276000278074967 3.13881616707622 0 0 0
248 83 1 0.5897 1.3295803330473408 16.337892478997365 2.8472475616477397 0 0 0
890 297 1 0.5897 2.206116569017361 18.869240373613287 0.47367877120387575 0 0 1
235 79 2 -1.1794 1.0821990048676486 19.06366954547228 1.761385982292118 0 0 0
226 76 2 -1.1794 1.574169357162621 17.58892091983246 4.051696998116168 0 0 0
227 76 1 0.5897 1.4260065295375648 18.313611522446134 3.444177408727407 0 0 0
228 76 1 0.5897 0.8068793986957179 17.594873623943325 4.624124132460415 0 0 0
249 83 1 0.5897 1.4351346956298268 15.739954715589773 1.4603349397735652 0 0 0
230 77 1 0.5897 4.417933863567334 19.11927692806969 0.8419675835856595 0 0 0
232 78 2 -1.1794 4.216934668493893 17.151842853174525 3.3937991293172876 0 0 0
233 78 1 0.5897 4.390534658464391 17.84288167421703 2.7545960579468707 0 0 0
234 78 1 0.5897 3.324315519805959 17.322085073979064 3.6949459134607174 0 0 0
247 83 2 -1.1794 0.9955475078985703 15.62490615017112 2.302906405369252 0 0 0
229 77 2 -1.1794 4.734712137682106 19.335799639135846 1.7189746730564854 0 0 0
219 73 1 0.5897 3.447936503481608 15.818045911286697 0.23206533931089232 0 0 0
237 79 1 0.5897 0.16579368520070073 18.88583976909591 1.5492043741859305 0 0 0
555 185 1 0.5897 4.108657118803534 19.004666842451133 7.913088167880182 0 0 0
558 186 1 0.5897 4.2444548346929265 17.833236913424166 9.87992330452856 0 0 0
559 187 2 -1.1794 0.747071547907569 19.659381413171932 8.916729984450988 0 0 0
241 81 2 -1.1794 2.5406151121537817 18.88864680155289 6.9337701569404535 0 0 0
242 81 1 0.5897 2.4524017198541572 17.9395646584793 6.846839567272454 0 0 0
243 81 1 0.5897 1.958033125996194 19.118478567295075 7.657770676857738 0 0 0
541 181 2 -1.1794 2.322531321675129 16.21091668323018 6.9550705779291775 0 0 0
542 181 1 0.5897 1.7195048406772284 16.000598522656 7.668179975338648 0 0 0
553 185 2 -1.1794 4.629897718032895 18.980656437730328 8.715678304742784 0 0 0
543 181 1 0.5897 2.2069785598199503 15.499434559279901 6.325253322857723 0 0 0
576 192 1 0.5897 4.091293900009708 15.752422403667323 7.3900599209709545 0 0 0
572 191 1 0.5897 1.0781019356077777 16.198099848376984 9.919648067340956 0 0 0
571 191 2 -1.1794 0.7541958853924511 15.719623327362287 9.156452609110879 0 0 0
551 184 1 0.5897 1.1632488764754663 18.307191035041605 10.123216465066537 0 0 0
574 192 2 -1.1794 5.040382126330496 15.631351953596495 7.3581578173367275 0 0 0
557 186 1 0.5897 4.064040722518563 16.393939211943678 10.31294556708728 0 0 0
885 295 1 0.5897 1.6186134394463907 19.12843714465877 14.753239112950647 0 0 0
866 289 1 0.5897 3.5219126128476126 15.960366149567736 14.10067115544478 0 0 0
879 293 1 0.5897 4.165802339404576 19.012450495688444 14.603229650084609 0 0 0
867 289 1 0.5897 2.0835312909916546 15.755363878193874 14.52661212803912 0 0 0
550 184 2 -1.1794 1.3327954754684421 17.742043908967442 10.87698014371253 0 0 0
552 184 1 0.5897 2.2869183239651867 17.722552044487923 10.952589416622958 0 0 0
565 189 2 -1.1794 2.861488345669739 18.804915851780898 13.612795509414955 0 0 0
566 189 1 0.5897 2.713923083015271 17.88434451848881 13.396241128488837 0 0 0
567 189 1 0.5897 2.4984342676580136 19.287280682136966 12.869924465990724 0 0 0
865 289 2 -1.1794 2.6232161628761617 15.992790826931454 13.772449440667272 0 0 0
556 186 2 -1.1794 4.006914840437186 17.29376847456636 10.63415593158349 0 0 0
877 293 2 -1.1794 4.834234048093717 19.114486552609147 15.280882107059153 0 0 0
881 294 1 0.5897 2.953678277098371 17.456579879404558 17.25776610881419 0 0 0
897 299 1 0.5897 1.0034822657540987 16.091074002644895 16.698753474630422 0 0 0
218 73 1 0.5897 2.4795080582441105 16.945833055916765 20.25398235025354 0 0 -1
882 294 1 0.5897 4.036670208642386 16.44104466758614 16.96134041362379 0 0 0
880 294 2 -1.1794 3.9042814830418155 17.35776728327598 17.20260993076424 0 0 0
874 292 2 -1.1794 1.2222044965325711 17.719319994582904 17.624717692775373 0 0 0
875 292 1 0.5897 0.5641396766766336 17.649701092000193 18.316480942166706 0 0 0
876 292 1 0.5897 0.98989188470943 18.518582322534698 17.15206127676808 0 0 0
878 293 1 0.5897 4.599266088329116 18.470257788444005 15.948736742351015 0 0 0
891 297 1 0.5897 2.525284234359783 19.327252273322788 19.374890074110613 0 0 0
895 299 2 -1.1794 0.8897320292631736 15.405519497970117 16.040483404201574 0 0 0
889 297 2 -1.1794 2.8522796818394505 18.771864371602103 20.082656092494325 0 0 0
217 73 2 -1.1794 2.5144412598179815 16.009454527796912 20.449129770224616 0 0 -1
883 295 2 -1.1794 0.9507010522895262 19.254137121264236 15.42742106898929 0 0 0
69 23 1 0.5897 6.755876858955606 2.7227720740942543 1.7716710925677 0 0 0
58 20 2 -1.1794 8.277202057581945 0.5942278726164443 5.214209351226356 0 0 0
68 23 1 0.5897 8.218044138888228 2.690348310385906 1.3799426406557802 0 0 0
67 23 2 -1.1794 7.618920830554502 2.456583122266857 2.0890356387568776 0 0 0
46 16 2 -1.1794 8.309418782724219 4.141531113417288 4.070487415137018 0 0 0
47 16 1 0.5897 8.053633910922569 3.387159240789207 3.5397350180352234 0 0 0
48 16 1 0.5897 7.629528719408389 4.20458553534903 4.741434351453269 0 0 0
34 12 2 -1.1794 5.234622112131646 2.6285804097358145 0.6727018211194493 0 0 0
9 3 1 0.5897 5.226786076623578 4.1204137045182785 4.802055800003522 0 0 0
273 91 1 0.5897 7.570038159698444 0.6976556269744619 1.9466278055993413 0 1 0
41 14 1 0.5897 9.611434535003834 1.009170496128055 3.9023170577676876 0 0 0
35 12 1 0.5897 5.499149293821766 1.8281145108874544 0.21950476761525906 0 0 0
8 3 1 0.5897 5.856665929703099 3.6776424663266396 6.105702777133333 0 0 0
391 131 2 -1.1794 7.337607092439464 1.8905619645852318 9.008684940619125 0 0 0
393 131 1 0.5897 7.264073597206091 0.9374495902227162 9.056319665180377 0 0 0
7 3 2 -1.1794 5.962256399954953 4.30154677849738 5.3874622225336966 0 0 0
361 121 2 -1.1794 9.078253234128592 2.667256293760081 6.924674823613874 0 0 0
392 131 1 0.5897 8.0126743122646 2.0464781505467657 8.348077652281457 0 0 0
362 121 1 0.5897 9.184329597972823 3.587382507444381 6.683349758947098 0 0 0
59 20 1 0.5897 8.497478384147094 1.3449097801264478 5.765730663426507 0 0 0
359 120 1 0.5897 6.038143711579136 2.393321252940575 7.984118638205491 0 0 0
360 120 1 0.5897 5.359151435133346 1.7211014919495844 6.809679293555081 0 0 0
358 120 2 -1.1794 5.3394415151426 2.5167194527362273 7.341464940164628 0 0 0
371 124 1 0.5897 8.154071388922048 3.18345700043267 10.130256866171367 0 0 0
29 10 1 0.5897 6.423737404442827 0.5608534179430051 5.512460431535336 0 0 0
28 10 2 -1.1794 5.502197745742617 0.37771708785529884 5.695922941179174 0 0 0
363 121 1 0.5897 9.969632850295142 2.356691245319791 7.084030605955824 0 0 0
381 127 1 0.5897 7.551857941863917 5.0171621863528255 9.355195049268056 0 0 0
352 118 2 -1.1794 5.767127684667701 0.7189938512980524 12.075344091724952 0 0 0
353 118 1 0.5897 6.652998311884665 0.7351993678715781 11.712827385075407 0 0 0
331 111 2 -1.1794 6.135777812199282 4.4112659858269385 12.221729172365155 0 0 0
684 228 1 0.5897 5.80502806779538 3.264407297674194 13.509910276072304 0 0 0
372 124 1 0.5897 7.868866980287403 3.9734397335668166 11.389910319013607 0 0 0
685 229 2 -1.1794 9.109517458037189 2.482283937596363 13.60639178176237 0 0 0
382 128 2 -1.1794 8.517720984522638 0.7157124309599733 11.719307455903316 0 0 0
383 128 1 0.5897 8.638493881056398 1.402669391439342 12.37484827693448 0 0 0
384 128 1 0.5897 9.06702870562525 0.9866293443538243 10.983654879215285 0 0 0
386 129 1 0.5897 9.305034218708009 4.3046178977777805 13.160564258138194 0 0 0
686 229 1 0.5897 8.629675866226117 2.4161724468960033 14.432102707700848 0 0 0
354 118 1 0.5897 5.814340459247828 1.279887124139518 12.849600563113675 0 0 0
370 124 2 -1.1794 8.456724403296237 3.938217724782937 10.635186668404895 0 0 0
682 228 2 -1.1794 5.630188703037494 2.5396740400680815 14.110265977270338 0 0 0
332 111 1 0.5897 5.406753353414216 4.148248269169226 11.659802334326493 0 0 0
657 219 1 0.5897 6.878595759161755 4.385955506399043 18.6580377378278 0 0 0
655 219 2 -1.1794 6.032315523814875 4.512183275716913 19.087360021694174 0 0 0
38 13 1 0.5897 8.994156357766313 2.399756265412296 19.66069818659967 0 0 -1
715 239 2 -1.1794 7.655679095267125 2.1416295318675957 15.948021172998658 0 0 0
676 226 2 -1.1794 5.854940687301982 0.6637154681926509 19.158184489155495 0 0 0
710 237 1 0.5897 9.334992622939895 4.719739174201214 20.183497566135767 0 0 0
694 232 2 -1.1794 8.39865025842537 4.231530940216168 17.543098557868465 0 0 0
695 232 1 0.5897 8.1113825017156 3.4131540550286705 17.138235646565672 0 0 0
716 239 1 0.5897 7.642500409382295 1.1847796477838755 15.966000962487309 0 0 0
706 236 2 -1.1794 8.518248391407825 0.9209265569718406 18.68061656398422 0 0 0
708 236 1 0.5897 7.567715144743948 0.863403942598661 18.77864245867979 0 0 0
37 13 2 -1.1794 9.423916378717301 2.9376828316080514 20.325728429324126 0 0 -1
677 226 1 0.5897 5.288856536019816 0.8829463329837596 18.417983352482796 0 0 0
707 236 1 0.5897 8.85255983869488 0.13834476830076514 19.118799341062694 0 0 0
689 230 1 0.5897 9.824914497553188 0.9827634889846792 17.27984152083061 0 0 0
656 219 1 0.5897 5.386927992274186 4.312133790958436 18.40922891745683 0 0 0
696 232 1 0.5897 8.298399245262548 4.888201966965964 16.853895521054394 0 0 0
36 12 1 0.5897 5.556502163336903 3.3371858141035444 20.424035775727834 0 0 -1
717 239 1 0.5897 6.882727900582615 2.382701456708311 15.437292886331184 0 0 0
143 48 1 0.5897 6.322076362429763 9.131274275996464 1.288108479921371 0 0 0
176 59 1 0.5897 7.690749832228975 7.8748323161847855 2.3886515918315254 0 0 0
711 237 1 0.5897 8.749474435140035 5.877495939856711 0.6550871611716764 0 0 1
166 56 2 -1.1794 8.731290771812077 7.538562733226057 5.052639041846938 0 0 0
175 59 2 -1.1794 7.666396542649198 8.823946042875697 2.2675025983908594 0 0 0
55 19 2 -1.1794 7.6011544975698655 6.018519046960862 2.1590742983712197 0 0 0
56 19 1 0.5897 6.697011398887625 5.849348916491888 1.8938700960816772 0 0 0
177 59 1 0.5897 8.386960762697578 9.00749831909739 1.66457458785941 0 0 0
57 19 1 0.5897 7.734213911077369 5.462329070739646 2.9267038332600275 0 0 0
155 52 1 0.5897 7.995503792083034 9.896586765314545 3.668466633497881 0 0 0
142 48 2 -1.1794 5.630459722173398 9.321973268636896 0.6542903728101657 0 0 0
138 46 1 0.5897 6.850704602167702 7.330704268980943 5.258575842461516 0 0 0
167 56 1 0.5897 8.954937848576751 6.736065880440889 5.523964458938016 0 0 0
501 167 1 0.5897 6.633694348094816 8.637307390943304 8.736057400426605 0 0 0
380 127 1 0.5897 7.368037203554398 6.405126500635458 8.779475419907016 0 0 0
62 21 1 0.5897 8.579502806218745 5.485155968895906 7.471561022478792 0 0 0
499 167 2 -1.1794 7.422555281650798 8.397800769839586 9.222618069744483 0 0 0
137 46 1 0.5897 6.069971171544212 6.042920530920204 5.413072673927432 0 0 0
338 113 1 0.5897 5.561506598493365 5.614336433459544 8.29519374565748 0 0 0
467 156 1 0.5897 5.497643379402952 8.116064113852607 6.7404879981445385 0 0 0
500 167 1 0.5897 7.615398244264748 9.165821941617775 9.760356786753901 0 0 0
470 157 1 0.5897 8.5980632871704 8.974780499613022 7.899560804868423 0 0 0
379 127 2 -1.1794 7.312139538136347 5.477394400982869 8.550791252837058 0 0 0
61 21 2 -1.1794 9.264014091797456 5.427084045100852 6.80484908546356 0 0 0
469 157 2 -1.1794 9.120136811506141 9.276155319708032 7.155916071512548 0 0 0
466 156 2 -1.1794 5.423814898364837 8.770951923808726 7.4347056580135105 0 0 0
168 56 1 0.5897 8.954729374278148 8.24370179137392 5.660164495352332 0 0 0
136 46 2 -1.1794 5.959835496002766 6.991280947273012 5.345492161430221 0 0 0
790 264 2 -1.1794 5.490058317603522 9.12752415170453 13.841978871774376 0 0 0
794 265 1 0.5897 9.03118266993128 8.705464297396759 13.281681432229176 0 0 0
462 154 1 0.5897 5.108866125901243 7.3822540133270795 11.309609754644931 0 0 0
791 264 1 0.5897 5.975248334200924 8.907869284385788 14.63742574340689 0 0 0
333 111 1 0.5897 5.956354130020407 5.327007437826258 12.434605798207818 0 0 0
793 265 2 -1.1794 9.172604483925575 9.192125923209469 14.093774255827746 0 0 0
385 129 2 -1.1794 9.70084644935112 5.135288594221273 13.42418603762026 0 0 0
387 129 1 0.5897 9.382435895453003 5.767789866024807 12.780106798623988 0 0 0
460 154 2 -1.1794 5.750692986672766 7.156336911530377 11.98297782237196 0 0 0
461 154 1 0.5897 5.641335674216494 7.829700728894391 12.654439948468177 0 0 0
492 164 1 0.5897 7.7810769854594355 7.309555279877516 11.591991291799634 0 0 0
490 164 2 -1.1794 8.657179713943021 7.285135548077796 11.977082926331718 0 0 0
705 235 1 0.5897 8.554826329172974 5.657115395870706 14.694419104660653 0 0 0
491 164 1 0.5897 9.237547055635693 7.571111774544342 11.271545832543543 0 0 0
824 275 1 0.5897 7.783799914144285 9.06759269704803 15.185522337965102 0 0 0
661 221 2 -1.1794 5.316491668192372 5.96969977220302 15.256162308223574 0 0 0
704 235 1 0.5897 7.16993735017188 5.973218911850945 15.218391181349995 0 0 0
814 272 2 -1.1794 8.58520226640135 7.794333137943061 18.5738435790067 0 0 0
786 262 1 0.5897 6.677731547330329 7.430321336326655 18.567396122475643 0 0 0
815 272 1 0.5897 8.888237735076293 7.033310791912919 19.069053803319356 0 0 0
825 275 1 0.5897 7.622490753456443 7.939950119895258 16.18266500508783 0 0 0
785 262 1 0.5897 5.783659816014438 6.3215018357169175 19.08034454291764 0 0 0
823 275 2 -1.1794 7.23715489659419 8.77408762238977 15.914513506820038 0 0 0
816 272 1 0.5897 8.638622969252976 8.521113029788 19.194465106485115 0 0 0
784 262 2 -1.1794 5.781657243125169 7.251168143558517 18.852696603445377 0 0 0
703 235 2 -1.1794 8.08544348011743 5.907332418899927 15.490325334036505 0 0 0
144 48 1 0.5897 5.675092064619226 8.601107132311013 20.33468607647545 0 0 -1
709 237 2 -1.1794 9.379111872861852 5.671694902794827 20.27256025662361 0 0 0
662 221 1 0.5897 5.07104495356105 5.184117954359113 15.744857117589866 0 0 0
145 49 2 -1.1794 9.285344695936198 9.659895932679142 20.483358789580734 0 0 -1
154 52 2 -1.1794 8.199389596412892 10.555416031113971 4.332272563121863 0 0 0
276 92 1 0.5897 9.423541415146783 13.873310000499565 4.551848049532226 0 0 0
156 52 1 0.5897 9.151552268417623 10.647186804591485 4.294832885893884 0 0 0
163 55 2 -1.1794 7.781529199371339 12.84546401963611 2.5476087281158573 0 0 0
164 55 1 0.5897 6.8726137230433 12.765581828284475 2.257900317384553 0 0 0
165 55 1 0.5897 7.918078016774419 12.090861898223382 3.1204518742432907 0 0 0
285 95 1 0.5897 7.427695037426928 14.806872434715391 2.51655671042481 0 0 0
275 92 1 0.5897 7.937643727593134 13.760622000980387 4.81990371639886 0 0 0
819 273 1 0.5897 8.826491338668589 12.729897603655337 0.8166867360817595 0 0 1
121 41 2 -1.1794 5.199096387174832 12.50694118269887 1.714241649283673 0 0 0
246 82 1 0.5897 5.409624177682081 14.026844094252075 4.832949610971366 0 0 0
274 92 2 -1.1794 8.787491451415551 13.774097901850448 5.260374695937299 0 0 0
245 82 1 0.5897 5.895862819195917 12.980219453236144 5.81280032290489 0 0 0
115 39 2 -1.1794 5.902461889711475 11.028347267737665 5.826598898933315 0 0 0
171 57 1 0.5897 9.000464788878302 11.082259210124448 6.915623690070754 0 0 0
169 57 2 -1.1794 9.002778722717714 11.960181253501611 7.29692608249444 0 0 0
488 163 1 0.5897 7.9496523981550276 12.50516490377051 8.631998918151558 0 0 0
487 163 2 -1.1794 7.211534080231914 12.753748237541465 9.188588538033176 0 0 0
489 163 1 0.5897 7.330230410383001 13.691363611604483 9.33988093607526 0 0 0