#include		in.partitions
include		in.temp
variable        temperature equal 277.39
variable	tempDamp equal 100.0
include		in.pressure
variable        pressure equal 10375.0
variable        pressureDamp equal 1000.0 # This is 1 ps
include		in.seed
variable        seed equal 745823

units		real
atom_style	full
read_restart	restart.lmp.${pid}
read_restart	restart.lmp.1
Reading restart file ...
  restart file = 30 Jul 2021, LAMMPS = 30 Jul 2021
  restoring atom style full from restart
  orthogonal box = (0.66483377 1.8746176 0.81109565) to (17.542739 21.754560 21.402100)
  2 by 4 by 4 MPI processor grid
  restoring pair style lj/cut/tip4p/long/omp from restart
  restoring bond style harmonic/omp from restart
  restoring angle style harmonic/omp from restart
  864 atoms
  576 bonds
  288 angles
Finding 1-2 1-3 1-4 neighbors ...
  special bond factors lj:    0        0        0       
  special bond factors coul:  0        0        0       
     2 = max # of 1-2 neighbors
     1 = max # of 1-3 neighbors
     1 = max # of 1-4 neighbors
     2 = max # of special neighbors
  special bonds CPU = 0.002 seconds
  read_restart CPU = 0.007 seconds
include 	in.setup
variable	out_freq equal 1000
variable	out_freq2 equal 10000
variable	out_freq3 equal 1000

timestep	2.0

neigh_modify    delay 7 every 1

include		in.tip4p
# This is TIP4P/Ice

# create groups ###
group ox type 2
288 atoms in group ox
group hy type 1
576 atoms in group hy

# set charges - beside manually ###
set group ox charge -1.1794
Setting atom values ...
  288 settings made for charge
set group hy charge 0.5897
Setting atom values ...
  576 settings made for charge

# ### TIP3P Potential Parameters ###
pair_style lj/cut/tip4p/long/omp 2 1 1 1 0.1577 8.5
pair_coeff 1 1*2 0.000 0.000
pair_coeff 2 2 0.21084 3.1668
bond_style  harmonic
bond_coeff  1 450 0.9572
angle_style harmonic
angle_coeff 1 55 104.52
kspace_style pppm/tip4p/omp 1.0e-5
pair_modify tail yes

thermo          ${out_freq}
thermo          1000
thermo_style    custom step temp pe etotal epair emol press lx ly lz vol pxx pyy pzz pxy pxz pyz enthalpy

restart 	${out_freq3} restart.lmp.${pid} restart2.lmp.${pid}
restart 	1000 restart.lmp.${pid} restart2.lmp.${pid}
restart 	1000 restart.lmp.1 restart2.lmp.${pid}
restart 	1000 restart.lmp.1 restart2.lmp.1


include         in.dump
dump            myDump all atom ${out_freq2} dump.water.${pid}
dump            myDump all atom 10000 dump.water.${pid}
dump            myDump all atom 10000 dump.water.1
dump            myDump2 all dcd ${out_freq2} dump.dcd
dump            myDump2 all dcd 10000 dump.dcd
dump_modify     myDump append yes
dump_modify     myDump2 append yes


variable natoms 	equal  "count(all)"                        # NUMBER ATOMS
variable H      	equal  "enthalpy/v_natoms"                 # ENTHALPY-per-atom
variable Vol      	equal  "vol/v_natoms"                 # volume-per-atom
fix AVG all 		ave/time ${out_freq} 1 ${out_freq} v_Vol v_H file vol_enthalpy.dat
fix AVG all 		ave/time 1000 1 ${out_freq} v_Vol v_H file vol_enthalpy.dat
fix AVG all 		ave/time 1000 1 1000 v_Vol v_H file vol_enthalpy.dat


timer           timeout 23:50:00 every 1000
New timer settings: style=normal  mode=nosync  timeout=23:50:00

fix 		1 all shake 1e-6 200 0 b 1 a 1
       0 = # of size 2 clusters
       0 = # of size 3 clusters
       0 = # of size 4 clusters
     288 = # of frozen angles
  find clusters CPU = 0.001 seconds
fix             2 all nph iso ${pressure} ${pressure} ${pressureDamp}
fix             2 all nph iso 10375 ${pressure} ${pressureDamp}
fix             2 all nph iso 10375 10375 ${pressureDamp}
fix             2 all nph iso 10375 10375 1000
fix             3 all temp/csvr ${temperature} ${temperature} ${tempDamp} ${seed}
fix             3 all temp/csvr 277.39 ${temperature} ${tempDamp} ${seed}
fix             3 all temp/csvr 277.39 277.39 ${tempDamp} ${seed}
fix             3 all temp/csvr 277.39 277.39 100 ${seed}
fix             3 all temp/csvr 277.39 277.39 100 745823

run             250000
PPPM initialization ...
  extracting TIP4P info from pair style
  using 12-bit tables for long-range coulomb (../kspace.cpp:340)
  G vector (1/distance) = 0.37473408
  grid = 24 24 24
  stencil order = 5
  estimated absolute RMS force accuracy = 0.0031075119
  estimated relative force accuracy = 9.3581799e-06
  using double precision FFTW3
  3d grid and FFT values/proc = 3549 432
Last active /omp style is kspace_style pppm/tip4p/omp
Neighbor list info ...
  update every 1 steps, delay 7 steps, check yes
  max neighbors/atom: 2000, page size: 100000
  master list distance cutoff = 10.8154
  ghost atom cutoff = 10.8154
  binsize = 5.4077, bins = 4 4 4
  1 neighbor lists, perpetual/occasional/extra = 1 0 0
  (1) pair lj/cut/tip4p/long/omp, perpetual
      attributes: half, newton on, omp
      pair build: half/bin/newton/omp
      stencil: half/bin/3d
      bin: standard
Per MPI rank memory allocation (min/avg/max) = 10.20 | 10.20 | 10.20 Mbytes
Step Temp PotEng TotEng E_pair E_mol Press Lx Ly Lz Volume Pxx Pyy Pzz Pxy Pxz Pyz Enthalpy 
 1500000    287.42582   -3782.6715   -3290.0334   -3782.6715            0    10295.421    16.877905    19.879943    20.591004    6908.9364    10083.745    10029.105    10773.413    139.08129   -518.60778   -638.29963   -2252.6694 
 1501000    276.07613   -3796.9198   -3323.7348   -3796.9198            0    11051.981    16.877079     19.87897    20.589997    6907.9222    12399.747    9242.3871     11513.81    784.31988   -359.09663    736.39637   -2210.3034 
 1502000    279.39641   -3830.3413   -3351.4654   -3830.3413            0    8548.1534    16.958625     19.97502    20.689483     7008.539    7037.5999    8164.3964    10442.464   -1295.2892   -895.63985    2169.7042   -2477.7386 
 1503000     278.4742   -3822.8142    -3345.519   -3822.8142            0    8928.6921    16.866716    19.866764    20.577355    6895.2056    9181.3835    7347.9083    10256.785     2470.703    207.64907    491.99082   -2447.6542 
 1504000     263.5569   -3818.9987   -3367.2712   -3818.9987            0    9582.5022    16.906891    19.914085    20.626368    6944.5942    10142.867    9565.8353    9038.8044    250.61324    1573.3158    982.72741   -2396.7574 
 1505000    290.44613   -3806.8628    -3309.048   -3806.8628            0    10691.898    16.825178    19.817838    20.526678    6844.3878    11745.924    9628.8071    10700.964   -1345.3945   -1644.7726   -623.52833   -2241.8001 
 1506000    278.63862   -3779.1611    -3301.584   -3779.1611            0    11751.287    16.868164    19.868469     20.57912    6896.9809    11689.511    10049.728    13514.621    813.62832   -1055.5796    217.22944   -2119.5762 
 1507000    274.64206   -3812.1893   -3341.4622   -3812.1893            0     9227.687    16.832211    19.826121    20.535258    6852.9739     8515.634    10417.599    8749.8282   -536.70203   -718.16667    -1023.379    -2419.214 
 1508000    291.85676   -3806.6541   -3306.4216   -3806.6541            0    10209.383    16.853901    19.851669     20.56172    6879.5007    10697.681    10146.203    9784.2642   -1976.3302    1846.8911    228.17072   -2282.1095 
 1509000    280.65804   -3784.7348   -3303.6965   -3784.7348            0    10458.064    16.883694    19.886762    20.598067    6916.0483    9275.3785    13365.782    8733.0319     702.2934    1000.7645    72.758135   -2248.8598 
 1510000    278.21968   -3830.0098   -3353.1508   -3830.0098            0    8716.8205    16.919725    19.929201    20.642025    6960.4207    7522.1212    10183.787    8444.5536    -260.3603   -637.47168    778.82864   -2468.3012 
 1511000     275.2876   -3813.1116   -3341.2781   -3813.1116            0    10623.258    16.850301    19.847429    20.557328    6875.0933    8074.9109    12643.608    11151.256   -33.399888   -868.03443    1333.8883   -2276.1245 
 1512000    303.72455   -3805.3247   -3284.7512   -3805.3247            0    10402.732     16.86154    19.860667    20.571039    6888.8588    10777.734    8948.9585    11481.502     -1762.61    1689.2688   -634.18246   -2239.6206 
 1513000    271.10333   -3765.8228    -3301.161   -3765.8228            0    10670.719    16.871128     19.87196    20.582737    6900.6175    11096.881    10116.284    10798.993    240.40736   -828.79603    2396.2244   -2227.2766 
 1514000    266.91309   -3810.9485   -3353.4686   -3810.9485            0    9972.0532    16.902071    19.908407    20.620487    6938.6559    10693.682    8540.3456    10682.132    1343.4139     1473.492    800.07929   -2344.3648 
 1515000      277.832   -3809.1258   -3332.9313   -3809.1258            0     10934.15    16.846878    19.843397    20.553152    6870.9042    10924.337     10585.04    11293.072    695.90179    3915.0378   -865.57349   -2237.2738 
 1516000    283.73974   -3798.5842    -3312.264   -3798.5842            0    10571.401    16.832644    19.826631    20.535786    6853.5026    10247.521    11542.437     9924.244   -931.78679    976.87622    707.40143   -2255.6387 
 1517000    270.45942   -3767.7165   -3304.1583   -3767.7165            0    9954.7254     16.94432    19.958171    20.672031    6990.8182    8251.4682    10335.234    11277.474    2171.0337   -1596.0571   -888.70403   -2289.2351 
 1518000    254.43975   -3782.3227   -3346.2217   -3782.3227            0    10133.294    16.880545    19.883053    20.594226    6912.1794    9222.2805    10570.441    10607.161   -875.01679    595.11084   -1176.6875   -2324.7142 
 1519000    285.41799   -3810.3313   -3321.1347   -3810.3313            0    9189.5816    16.941609    19.954977    20.668723     6987.463    8038.3362    10144.873    9385.5352    1122.9473   -665.69789    457.30367   -2384.6705 
 1520000    276.33385   -3811.7074   -3338.0806   -3811.7074            0    11623.114    16.922344    19.932285     20.64522    6963.6529    10670.149    13132.557    11066.636   -1482.2834   -209.27411   -1088.1607   -2157.6635 
 1521000    277.99326   -3813.0666   -3336.5957   -3813.0666            0    10887.271    16.910471    19.918301    20.630735    6949.0066    11229.575    9950.0046    11482.232    1051.1969   -554.08567    754.68287   -2233.2347 
 1522000    289.85696   -3796.5589    -3299.754   -3796.5589            0    11564.316    16.884551     19.88777    20.599112    6917.1009    9365.9651    12502.048    12824.937    -352.9894   -2109.4655    563.48804   -2133.1594 
 1523000    264.14132   -3825.1854   -3372.4562   -3825.1854            0    11632.247    16.844887    19.841051    20.550722    6868.4677    9942.3356    11833.219    13121.187    986.86551   -705.70147   -345.38793   -2207.2592 
 1524000    285.86985   -3765.5337   -3275.5626   -3765.5337            0    11161.046    16.941839    19.955249    20.669004    6987.7481    12594.843    12472.697    8415.5974    53.439154   -538.50872    1264.1941     -2138.15 
 1525000    274.95097   -3787.2439   -3315.9873   -3787.2439            0    7516.6639    16.970313    19.988787    20.703742    7023.0398    6792.9173      7259.22    8497.8543   -161.69374    1655.5821   -630.60897   -2546.1018 
 1526000    287.56888   -3769.1058   -3276.2225   -3769.1058            0     9679.904    16.931933     19.94358    20.656918    6975.4974    10426.357    8846.8143    9766.5408    1495.4589    1596.3564    -1774.182   -2291.4813 
 1527000    273.52642   -3746.5405   -3277.7256   -3746.5405            0     11557.55     16.77324    19.756661    20.463314    6781.1987    12542.814    12595.411    9534.4254   -1572.1082    1494.0243   -84.631037   -2134.7206 
 1528000    268.42639   -3818.0003   -3357.9267   -3818.0003            0     10452.08    16.865618     19.86547    20.576014    6893.8582    10017.561    10198.906    11139.771   -96.994782    1020.2769    877.82499   -2307.0762 
 1529000    255.44046    -3795.658   -3357.8418    -3795.658            0     10964.28    16.834668    19.829016    20.538256    6855.9761    10294.365    9139.8695    13458.606    1517.3638   -1153.1746   -43.568357   -2261.5522 
 1530000    272.33728   -3755.4404   -3288.6637   -3755.4404            0    12099.604    16.872406    19.873465    20.584295    6902.1851    10745.578    12474.711    13078.522    1821.7934    888.90761    962.66916   -2070.7019 
 1531000    278.91198   -3774.9861   -3296.9405   -3774.9861            0    10302.426    16.917667    19.926778    20.639515    6957.8817    12801.456    9006.5827    9099.2408    269.36973     397.1567   -1157.6944   -2251.5166 
 1532000    278.19813   -3799.1657   -3322.3436   -3799.1657            0    9476.5808    16.892267    19.896859    20.608526    6926.5888     9726.967     9357.187    9345.5883    148.53369   -37.597388   -242.69363    -2365.046 
 1533000    278.16995   -3790.5375   -3313.7637   -3790.5375            0    11829.506    16.886267    19.889792    20.601207    6919.2108     11426.25     11517.94    12544.326    -235.6685    216.16712    -669.7755   -2120.0532 
 1534000    262.91086   -3787.9228   -3337.3026   -3787.9228            0    9811.4861    16.892994    19.897716    20.609413    6927.4831    8416.2675    11434.541    9583.6502    1800.4127    612.72697    21.160127   -2346.0458 
 1535000    257.31835   -3822.5758   -3381.5409   -3822.5758            0    10114.785    16.867527    19.867718    20.578343    6896.1991    9792.4591    10877.616      9674.28   -276.30806     -1339.23   -1984.7628   -2364.2566 
 1536000    280.62478   -3828.0084   -3347.0271   -3828.0084            0    10488.254     16.78965     19.77599    20.483334    6801.1211    10117.121    10292.449    11055.194    646.62179   -32.143403   -778.28191   -2306.7247 
 1537000    278.99514   -3804.7756   -3326.5875   -3804.7756            0    11501.048    16.884395    19.887587    20.598923    6916.9097    10996.606    10796.157     12710.38   -615.42966    343.67462   -712.55808   -2166.4074 
 1538000    273.52727   -3806.8167   -3338.0004   -3806.8167            0    12776.506    16.854759     19.85268    20.562767    6880.5518    12425.283    12777.021    13127.213    1569.2646    381.43102   -272.28976   -2055.9318 
 1539000    281.57404   -3814.5695   -3331.9613   -3814.5695            0    11563.866     16.87838    19.880503    20.591585    6909.5204    12572.532    11468.357    10650.708    1127.5472   -771.57135     435.7697   -2166.6905 
 1540000    273.76488   -3822.8869   -3353.6633   -3822.8869            0    10589.828     16.89341    19.898205     20.60992    6927.9943    9299.9378    10349.123    12120.422    1286.2402   -1009.7013   -119.28721   -2283.6915 
 1541000    267.75495   -3790.0483   -3331.1255   -3790.0483            0    12083.998    16.867759    19.867992    20.578627    6896.4842    12111.916    11341.352    12798.727     755.0002    1785.0571   -837.18438   -2115.7393 
 1542000    263.58073   -3789.8637   -3338.0954   -3789.8637            0     9966.267    16.896704    19.902086     20.61394    6932.0489    13621.936    7130.3791    9146.4856    51.601331   -1632.7404   -1978.1868   -2330.5374 
 1543000    279.96012   -3788.4821     -3308.64   -3788.4821            0    10703.854    16.855024    19.852992     20.56309    6880.8761    10227.656    9729.0297    12154.875   -695.43499   -1679.3491    274.85625   -2234.5027 
 1544000    271.19337   -3771.3087   -3306.4925   -3771.3087            0    10698.351    16.867521    19.867711    20.578336    6896.1918    11908.871     12110.92    8075.2626   -829.26641    1598.8172    728.39333   -2230.5178 
 1545000    272.69221   -3811.6076   -3344.2224   -3811.6076            0    12168.378    16.786628     19.77243    20.479646    6797.4489    12910.007    13053.448    10541.678    130.07154    818.00476   -394.23201   -2137.9247 
 1546000    296.93142   -3808.9727   -3300.0424   -3808.9727            0    11471.065    16.860562    19.859515    20.569846      6887.66      9643.94    11413.482    13355.772    1090.3378    488.19221   -158.85125   -2147.7802 
 1547000    274.33488   -3788.0651   -3317.8645   -3788.0651            0     11234.21    16.845696    19.842004    20.551709    6869.4574    10430.907    12603.621    10668.102   -135.19217   -605.21272    565.25646   -2192.3765 
 1548000    280.69293   -3790.6392   -3309.5411   -3790.6392            0    11039.873    16.815004    19.805853    20.514265    6831.9783    11434.501    12239.879    9445.2392   -1044.1102   -774.88155   -1324.4892   -2209.5569 
 1549000    269.86044   -3761.7197   -3299.1881   -3761.7197            0     11154.33    16.880891    19.883459    20.594647    6912.6036    12476.484    11892.687    9093.8182   -1048.4268   -84.758868    1090.4549   -2174.6841 
 1550000    261.66692   -3804.2845   -3355.7964   -3804.2845            0    10067.916     16.80333    19.792103    20.500023    6817.7588    10143.762    10310.469    9749.5157    618.92938    -716.2336     137.0486   -2354.7433 
 1551000    280.82454   -3771.9122   -3290.5886   -3771.9122            0    11204.614     16.80654    19.795884    20.503939    6821.6672    12073.198    11084.386    10456.258    1739.6554    1258.1898    418.47391   -2175.8749 
 1552000    266.49893    -3785.894   -3329.1239    -3785.894            0    10070.011    16.863011      19.8624    20.572834    6890.6626    11437.205    9280.5549    9492.2738    145.49949   -631.12893   -375.33123   -2317.1558 
 1553000    274.45849   -3815.1875   -3344.7751   -3815.1875            0    11196.683    16.816206    19.807269    20.515732    6833.4437    12081.791    10003.135    11505.123    401.68135   -686.15488     589.6413   -2228.9274 
 1554000    292.28707   -3823.0531    -3322.083   -3823.0531            0    10713.679    16.821914    19.813992    20.522696    6840.4047    10741.313    12444.029    8955.6954      1112.64    -403.9976   -34.415352   -2253.2833 
 1555000    263.85227   -3790.3673   -3338.1336   -3790.3673            0    10212.966    16.877855    19.879884    20.590944    6908.8752    11916.564    10405.546    8316.7876   -901.78714   -1363.0275   -502.30774   -2309.0868 
 1556000    288.99278   -3762.5913   -3267.2676   -3762.5913            0     10004.54    16.870765    19.871533    20.582294    6900.1721    12262.545    7369.6658    10381.407    -937.0112    827.55233   -504.74486   -2260.4915 
 1557000    288.84884   -3839.7219   -3344.6449   -3839.7219            0    11031.121    16.853419    19.851101    20.561131    6878.9099    11347.365    12168.219     9577.779    428.05903    1046.0257    18.716599   -2237.9825 
 1558000    285.71099   -3825.9743   -3336.2755   -3825.9743            0    8775.1554    16.899399     19.90526    20.617228     6935.366    8632.5948     8197.057    9495.8145    1766.2516   -930.53203   -44.809889   -2448.7106 
 1559000    277.12194   -3802.9783   -3328.0008   -3802.9783            0    11125.477    16.920706    19.930357    20.643222    6961.6315     11854.28    10254.848    11267.303    770.42809    -860.8513    498.90446   -2198.4505 
 1560000    265.36054   -3813.4439    -3358.625   -3813.4439            0    11400.368    16.835422    19.829903    20.539175    6856.8965    11695.044    11584.923    10921.139    130.32361   -1842.1444   -1327.8649    -2218.579 
 1561000    267.07423    -3795.005   -3337.2489    -3795.005            0    11745.623    16.865365    19.865172    20.575705    6893.5477    11782.539    11886.624    11567.706   -368.32346   -828.45846   -110.66912   -2156.3989 
 1562000    280.69831   -3798.0835   -3316.9762   -3798.0835            0    9526.2555    16.910014    19.917763    20.630177    6948.4425    9161.3749    10900.367    8517.0251   -944.16857    15.712296   -119.79127   -2351.6244 
 1563000    294.52523   -3777.4041   -3272.5979   -3777.4041            0     10141.94    16.862286    19.861546     20.57195     6889.774    8565.8139    10458.618    11401.389   -355.59617    444.14639    2371.7003   -2253.5329 
 1564000    276.35995   -3789.8019   -3316.1304   -3789.8019            0    9838.9867    16.886077    19.889569    20.600975    6918.9773    9252.9907     9554.336    10709.633    -734.8099   -368.68236    2145.3996   -2323.3158 
 1565000    268.80333   -3828.3944   -3367.6747   -3828.3944            0    10075.778    16.836708    19.831419    20.540745    6858.4688    7638.2197    13125.091     9464.025   -315.94609   -1289.5495    1286.8061   -2359.8577 
 1566000    285.10424   -3797.8212   -3309.1623   -3797.8212            0     9864.225    16.955134    19.970909    20.685224    7004.2121    9762.1182     10496.66    9333.8969   -1434.3366   -908.03012    206.61838   -2301.5391 
 1567000    269.52995   -3826.3138   -3364.3487   -3826.3138            0    10288.704    16.881205    19.883829     20.59503    6912.9896    8483.5866    10060.899    12321.626   -290.91044   -512.55674   -1974.7857   -2327.0533 
 1568000    280.51394   -3814.9181   -3334.1268   -3814.9181            0    9074.2814    16.935536    19.947824    20.661314    6979.9515    9539.7271    10956.231    6726.8864   -742.96457     1288.168    1177.4361   -2410.4064 
 1569000    270.54681   -3825.4139   -3361.7059   -3825.4139            0    9636.2128    16.842055    19.837716    20.547267    6865.0043    8961.1965    10554.428     9393.014   -2115.9183    548.41209   -967.69925   -2396.9375 
 1570000    260.97711   -3761.1664   -3313.8605   -3761.1664            0    9920.7901    16.919952    19.929469    20.642302    6960.7013    10374.805    8543.5384    10844.026   -2383.4401     135.6626   -281.63221   -2306.7546 
 1571000    284.91423   -3837.4159   -3349.0827   -3837.4159            0    10761.508    16.892948    19.897661    20.609357    6927.4264    10381.602    11783.103    10119.819    42.007773   -51.391825     1004.502   -2261.8539 
 1572000    302.15196   -3796.0309   -3278.1528   -3796.0309            0    10486.332    16.935404    19.947669    20.661154    6979.7889    9365.9602    10762.554    11330.482     -463.572    12.133627     -1470.19   -2210.7169 
 1573000    276.29088   -3848.2812   -3374.7281   -3848.2812            0    11109.367    16.857308    19.855682    20.565876    6883.6733    10042.062    11719.378    11566.661    2284.8031    900.92683    553.89307   -2259.4442 
 1574000    288.66879   -3845.7728   -3351.0044   -3845.7728            0    10910.423    16.907332    19.914604    20.626906    6945.1376    12320.484    10714.977    9695.8083    549.22226    1486.7648    152.38882   -2245.9127 
 1575000    275.38499   -3804.2198   -3332.2194   -3804.2198            0    9976.9213    16.884373    19.887562    20.598896     6916.883    9747.0648     8893.582    11290.117    2133.8723   -704.55352   -285.73814    -2325.791 
 1576000    266.59516   -3812.8974   -3355.9624   -3812.8974            0    10000.682    16.936539    19.949005    20.662538    6981.1918    9070.3865     10123.32    10808.341     419.9642   -539.56104    1173.1588   -2337.7577 
 1577000    273.34345   -3827.7963    -3359.295   -3827.7963            0    11274.732    16.850142    19.847242    20.557134    6874.8988    11069.003    13352.393    9402.7991    877.66519   -1520.6604   -181.94776   -2228.8526 
 1578000    295.81771   -3810.9776   -3303.9561   -3810.9776            0     11616.96     16.81399    19.804659    20.513028    6830.7427    12001.675    10992.727    11856.477   -2040.1359   -781.83205    122.52215   -2146.6818 
 1579000      272.903   -3820.6226   -3352.8762   -3820.6226            0    11323.757    16.857244    19.855606    20.565798    6883.5945    10738.601      10341.3    12891.369   -611.05743   -1988.7565   -1034.2432   -2216.0824 
 1580000    280.39061   -3776.3475   -3295.7676   -3776.3475            0     10129.05     16.90494    19.911786    20.623987    6942.1896    11120.519    8353.1662    10913.464   -388.54895   -600.17244     489.6832   -2270.2548 
 1581000    266.00174   -3796.6052   -3340.6873   -3796.6052            0    10956.669    16.890968    19.895329    20.606942     6924.991     10687.89    9987.6295    12194.489    1399.4475    406.11483   -670.60169   -2234.1306 
 1582000    274.90805   -3847.9519   -3376.7689   -3847.9519            0    10544.156    16.898358    19.904034    20.615958    6934.0844    9668.2616    11566.805    10397.402    242.31172   -1147.1105    1016.4026   -2310.4752 
 1583000    264.23578   -3824.0471    -3371.156   -3824.0471            0    8927.2845    16.882829    19.885742    20.597012    6914.9848    8254.0152     9459.641    9068.1973   -342.84366   -843.81337   -885.75408   -2470.8576 
 1584000    290.73705   -3796.1343    -3297.821   -3796.1343            0    11142.461    16.868977    19.869427    20.580112    6897.9782    13584.468    7347.4781    12495.438   -112.35755   -1746.8868    772.19338     -2176.89 
 1585000      279.755   -3821.8633   -3342.3728   -3821.8633            0    11821.478    16.867467    19.867648    20.578271    6896.1263    10989.822    13094.792    11379.819   -1323.5767   -53.408323   -933.95977   -2153.4521 
 1586000    282.36446    -3818.798    -3334.835    -3818.798            0    7786.4159    16.933981    19.945992    20.659417    6978.0289    6250.1153      10342.3    6766.8327   -2112.6539    1269.6061     1793.921   -2542.4318 
 1587000     265.6274   -3800.9969   -3345.7206   -3800.9969            0    11677.602    16.822963    19.815229    20.523976    6841.6852    14037.727    10792.075    10203.005   -836.19928    838.96404    240.57066   -2180.5416 
 1588000    278.98484   -3780.1257   -3301.9553   -3780.1257            0    10889.245    16.893363     19.89815    20.609863    6927.9365      13569.3    8209.2959     10889.14   -479.29087    219.58245    1904.8223   -2201.7402 
 1589000     258.6387   -3808.2857   -3364.9879   -3808.2857            0    12233.108    16.848632    19.845463    20.555291    6873.0499    13154.999     12046.34    11497.984   -1061.5525    120.60316   -91.454267   -2138.7854 
 1590000    274.37368   -3795.3623   -3325.0952   -3795.3623            0    11823.562    16.866912    19.866995    20.577593    6895.4457    10919.995    11440.233    13110.457    2536.8427   -1381.9088   -286.80396   -2136.0823 
 1591000    266.42051   -3827.7255   -3371.0898   -3827.7255            0     9143.911    16.850402    19.847548    20.557451    6875.2168    9378.2805    8630.6357    9422.8167   -1480.2176   -1003.9879   -431.77845   -2454.2483 
 1592000    286.63261   -3832.5132   -3341.2347   -3832.5132            0    11452.024    16.856486    19.854714    20.564874    6882.6666    12235.636    13012.785    9107.6512   -587.89705    378.19114   -245.09916   -2191.7191 
 1593000     282.4325   -3847.9443   -3363.8647   -3847.9443            0     9465.485    16.894865    19.899919    20.611696    6929.7852    11318.126    9432.2246    7646.1045    74.802717   -581.04127    65.531052   -2407.2467 
 1594000    270.30878   -3815.9968   -3352.6968   -3815.9968            0    12463.653    16.821671    19.813707      20.5224    6840.1088    12812.656    13627.979    10950.325    1069.9734    675.08367    1023.7529    -2109.373 
 1595000     277.8696   -3851.6492   -3375.3902   -3851.6492            0     10100.55    16.912978    19.921253    20.633793    6952.0967    10358.034    9921.5753    10022.039    -115.9771   -813.57841    744.24426   -2351.3036 
 1596000    281.58362   -3802.2805   -3319.6558   -3802.2805            0    9600.9686    16.876808    19.878651    20.589667    6907.5896    10368.557    9925.6151    8508.7331   -393.77019   -162.78627    943.42819   -2352.4532 
 1597000    280.00082   -3796.5035   -3316.5917   -3796.5035            0    12272.509    16.797964    19.785783    20.493477    6811.2297    10940.484    12411.565    13465.477    -866.7704   -946.82175    196.90292   -2097.5045 
 1598000    264.47919   -3800.3912    -3347.083   -3800.3912            0    11539.466    16.800222    19.788443    20.496232    6813.9771    11911.504    10118.727    12588.167     1516.471    666.18463   -1434.9686   -2200.3501 
 1599000    278.25129   -3803.4258   -3326.5127   -3803.4258            0    9442.6922    16.862096    19.861322    20.571718     6889.541    9436.8936    7521.7831      11369.4   -574.66097    951.07208    52.877182   -2377.7403 
 1600000    272.64107    -3785.521   -3318.2235    -3785.521            0    9390.1711    16.867999    19.868275    20.578919    6896.7787    10355.005    7825.3471    9990.1616     872.2656    1764.4912     366.7128   -2373.7371 
 1601000    274.75543   -3812.8042   -3341.8828   -3812.8042            0    10116.066    16.871651    19.872577    20.583375    6901.2596    9622.5481     10614.38     10111.27    840.16884    168.77668    784.95315    -2323.723 
 1602000    286.70844   -3787.3244   -3295.9159   -3787.3244            0    11793.716    16.889811    19.893966     20.60553    6923.5678    10296.774    13586.141    11498.233    301.55427   -524.20085   -700.72837   -2105.0674 
 1603000    294.84373   -3813.3801    -3308.028   -3813.3801            0    12151.887    16.833074    19.827137    20.536311    6854.0279    10547.187    12733.028    13175.447    105.06508    -282.5806    731.55935   -2093.3379 
 1604000    283.31088   -3812.7541   -3327.1689   -3812.7541            0    12051.839    16.904835    19.911663    20.623859    6942.0606      10604.8    13581.989    11968.727    712.67697     -1035.63    491.09665   -2107.0066 
 1605000    294.67829   -3813.3193   -3308.2508   -3813.3193            0    11898.929    16.881329    19.883976    20.595182     6913.142    12777.191    12737.166    10182.431   -384.17805   -1033.6498    -516.0502   -2108.5878 
 1606000    264.94945   -3796.5946   -3342.4804   -3796.5946            0      11308.3    16.810461    19.800503    20.508723    6826.4432    11326.533    12948.234    9650.1316   -290.24358    -1051.998    1403.9055   -2216.6637 
 1607000    279.44881   -3805.9827    -3327.017   -3805.9827            0    10292.123    16.874132    19.875499    20.586402    6904.3047    8953.0637    11270.711    10652.593     1947.547    776.44917   -1496.6202   -2290.6805 
 1608000    267.53499   -3761.3155   -3302.7697   -3761.3155            0    10886.799    16.921625    19.931439    20.644343    6962.7658    10430.581     11273.87    10955.945    1141.5512   -559.77332   -326.30853   -2197.2719 
 1609000    280.41611   -3805.1364   -3324.5128   -3805.1364            0    12067.115     16.86776    19.867993    20.578628    6896.4853    12560.333    11169.499    12471.514   -130.07584   -253.48315   -209.03037   -2110.8245 
 1610000    284.39572   -3820.9067   -3333.4621   -3820.9067            0    10233.421    16.921739    19.931574    20.644482    6962.9069    9124.2009    11390.219    10185.843    762.27257   -176.72059    369.56215   -2294.2904 
 1611000    270.20939   -3790.8451   -3327.7154   -3790.8451            0     10562.26    16.936813    19.949328    20.662872    6981.5304    11529.763     10520.95    9636.0683   -1805.3383   -131.36513    274.06736   -2252.2823 
 1612000    282.46017   -3812.6114   -3328.4843   -3812.6114            0    8209.8067    16.891677    19.896164    20.607806    6925.8625    8403.3471    8240.0612     7986.012   -474.86022    773.30654   -291.66854   -2499.2396 
 1613000    270.31389    -3808.653   -3345.3443    -3808.653            0    12312.195    16.841685     19.83728    20.546816    6864.5521    11936.712     12889.67    12110.203   -1768.0052    1865.0238    753.86482   -2112.7402 
 1614000    275.72463   -3780.8774   -3308.2948   -3780.8774            0    11786.379    16.914753    19.923345    20.635959    6954.2866    11864.065    12214.263    11280.809    587.75424    915.85046    1286.3029   -2112.9069 
 1615000    283.26014   -3785.0664   -3299.5682   -3785.0664            0    10546.477    16.866855    19.866928    20.577524    6895.3761    10141.102    10306.354    11191.976    423.83719    2934.5872     176.8483   -2238.9935 
 1616000    280.44222   -3812.3839   -3331.7155   -3812.3839            0    7232.1743    16.929949    19.941243    20.654498    6973.0457    8317.6393    6577.9138    6800.9698   -2534.5143   -143.73491   -544.57058   -2596.2416 
 1617000    272.55297   -3842.5373   -3375.3909   -3842.5373            0    10406.459    16.875835    19.877505    20.588479     6906.395    11331.171    10126.577    9761.6304   -363.12728    423.69584    -738.0622   -2327.2243 
 1618000    276.22553   -3803.9179   -3330.4768   -3803.9179            0    11542.731    16.899465    19.905338    20.617308     6935.447    12867.663     11337.97    10422.561   -22.679319   -975.28225   -1726.0034   -2162.9713 
 1619000    269.17344   -3791.0553   -3329.7013   -3791.0553            0    9235.1502    16.920003    19.929529    20.642364     6960.764    9041.5175    11235.282    7428.6505     831.9496     573.4385    576.74662   -2392.1894 
 1620000     263.6378    -3783.958   -3332.0918    -3783.958            0    10300.378    16.896407    19.901735    20.613577    6931.6824    10411.211    11437.346    9052.5779    1059.0193   -1471.2566   -352.07057   -2290.8114 
 1621000    269.99399   -3788.0926   -3325.3322   -3788.0926            0    8523.8056    16.874306    19.875704    20.586614    6904.5179    6673.8912    9336.8699    9560.6556    1313.9369   -1145.6425    925.36887   -2467.0249 
 1622000    277.00847   -3768.6687   -3293.8857   -3768.6687            0    10479.959    16.910944    19.918859    20.631313    6949.5899    11094.739    9014.2573     11330.88     450.2233    2429.5677   -34.268886   -2231.7142 
 1623000    288.98654   -3859.3236   -3364.0106   -3859.3236            0     8896.673    16.920156    19.929709    20.642551    6960.9527    8084.2839     8817.645    9788.0903    1558.9619    378.22105   -1061.4737    -2460.835 
 1624000    290.04938   -3812.7717    -3315.637   -3812.7717            0    11281.118    16.877558    19.879534    20.590582    6908.5109    11720.373    11698.988    10423.992    574.92666    766.27493   -598.75484   -2179.0244 
 1625000    290.44446   -3777.7387   -3279.9268   -3777.7387            0    10547.815    16.913779    19.922197    20.634771    6953.0848    9794.9946    11619.181    10229.268    227.69215    1502.2175    760.44265   -2210.3403 
 1626000    288.12433   -3818.3634   -3324.5282   -3818.3634            0    11474.139    16.897501    19.903024    20.614912    6933.0293     12469.19    11488.843    10464.384    805.18435    1500.3348     591.0899   -2164.3651 
 1627000     291.7027   -3842.0288   -3342.0603   -3842.0288            0    9338.1311    16.911847    19.919922    20.632414    6950.7024    7826.8596    9307.6262    10879.908   -728.70156    345.69752   -1141.1156   -2395.4646 
 1628000    275.02108   -3795.6298   -3324.2531   -3795.6298            0    11831.507    16.871374     19.87225    20.583037    6900.9191    12336.843    12922.674    10235.005   -1564.9637   -1200.8778    1187.5846   -2133.4968 
 1629000    289.62161   -3778.9066   -3282.5051   -3778.9066            0    10522.684    16.909172    19.916772    20.629151    6947.4054    11948.092    9391.9278    10228.033    -790.2628   -843.02433     1164.684   -2216.3385 
 1630000    274.85337   -3808.2003    -3337.111   -3808.2003            0    9824.2825      16.9246    19.934944    20.647973    6966.4395    10099.685    7979.6221     11393.54   -893.86804   -47.263626   -666.58988   -2338.9799 
 1631000    262.41867    -3785.704   -3335.9274    -3785.704            0    10459.674     16.87968    19.882033     20.59317    6911.1166    12023.499    9341.5558    10013.966   -109.93689   -130.20171    647.87267   -2281.6807 
 1632000    278.06363   -3760.4063   -3283.8148   -3760.4063            0    10046.213    16.913404    19.921755    20.634313    6952.6222     9102.314    11718.168    9318.1576   -19.299692   -1323.4782    -828.8162   -2265.1603 
 1633000    277.84144   -3814.2293   -3338.0185   -3814.2293            0     10427.18    16.868531    19.868901    20.579568    6897.4309    9821.9435    12357.058    9102.5383   -505.09882    1266.6382   -1505.9568   -2289.1281 
 1634000    271.67884   -3841.5776   -3375.9293   -3841.5776            0    6898.1168    16.963539    19.980808    20.695478    7014.6335    5194.0396    8443.1133    7057.1975     476.5394    -525.8228   -824.01554   -2670.2435 
 1635000    266.11032   -3803.7838   -3347.6798   -3803.7838            0    10909.772    16.846155    19.842546     20.55227    6870.0197    11439.611    9996.6506    11293.054    2316.9468   -444.45143   -580.70568   -2254.6059 
 1636000     275.5985   -3817.3455   -3344.9791   -3817.3455            0    7566.2814    16.887532    19.891282    20.602749    6920.7654    7958.3174    7764.2256    6976.3013    1717.9497   -1956.7967   -737.83823   -2581.2972 
 1637000    283.27911   -3844.9306   -3359.3999   -3844.9306            0    10550.501    16.852363    19.849857    20.559843    6877.6168    8849.3912    11210.777    11591.334   -291.54193    1378.1759   -428.87744   -2301.1532 
 1638000    286.16727   -3812.4581   -3321.9772   -3812.4581            0    10335.393    16.847106    19.843666     20.55343    6871.1832    12045.619    8658.6395    10301.921   -1896.7218   -1336.4863    -853.1361   -2286.2761 
 1639000    259.44684   -3830.6258   -3385.9428   -3830.6258            0    10509.248      16.8225    19.814683     20.52341    6841.1195    11768.324    11850.048    7909.3723   -588.91563   -1136.3539   -1187.5886   -2337.4277 
 1640000     277.7991   -3816.2382      -3340.1   -3816.2382            0    9953.1409    16.873777    19.875081    20.585969    6903.8687    9427.7973    9351.0059     11080.62    1562.2313   -97.972261   -1806.1374   -2337.9596 
 1641000    261.97611   -3804.6984   -3355.6803   -3804.6984            0    12487.808    16.890435    19.894701    20.606291    6924.3348    10795.439    11945.534    14722.451   -3111.7201    1544.5955   -269.77256   -2094.6075 
 1642000    275.76939   -3827.9687   -3355.3094   -3827.9687            0    11309.608    16.898417    19.904104     20.61603    6934.1573    9356.0968    12559.255    12013.472    1740.9705    404.43241   -142.97833   -2211.5963 
 1643000    277.99352   -3831.1295   -3354.6582   -3831.1295            0    10893.234    16.859283    19.858009    20.568286    6886.0935     11295.21    8927.5346    12456.958   -1732.5793    711.64609    -365.6287   -2260.6876 
 1644000    269.33103   -3821.0371   -3359.4129   -3821.0371            0    12033.674    16.881583    19.884275    20.595492    6913.4548     10603.12    13133.306    12364.595   -373.15556    9.6377056    580.05395     -2146.11 
 1645000    290.17116   -3786.8691   -3289.5256   -3786.8691            0    11989.893    16.809135     19.79894    20.507105    6824.8273    11737.154    13365.596     10866.93    887.23248   -1349.8888   -522.20626   -2096.1343 
 1646000    258.47299   -3763.5347   -3320.5209   -3763.5347            0     10077.67    16.853947    19.851723    20.561776    6879.5569    8708.0987    10806.323     10718.59    1089.7819    237.10469    1681.2678   -2309.4153 
 1647000    262.80294   -3815.1068   -3364.6715   -3815.1068            0     10900.99    16.935522    19.947807    20.661297    6979.9341    9862.7731    9631.5927    13208.606    437.17604    819.15981    1128.6439   -2255.0032 
 1648000    268.21733   -3829.2542   -3369.5389   -3829.2542            0    9933.2244    16.834492    19.828808    20.538041    6855.7602    8847.0175    11230.574    9722.0815   -709.39898    50.966328   -1688.1328   -2376.3731 
 1649000    283.54932   -3762.6381   -3276.6443   -3762.6381            0    11466.495    16.914141    19.922624    20.635213    6953.5315    9151.9413    12385.575    12861.969   -679.28201   -1425.7621   -866.86312   -2113.8256 
 1650000    280.50673   -3825.0066   -3344.2276   -3825.0066            0    9909.6849    16.871449    19.872338    20.583128    6901.0114    11633.557    8580.9368    9514.5614   -2013.5349    -68.04731   -1307.5937   -2346.8756 
 1651000    267.69001   -3776.9687   -3318.1572   -3776.9687            0    8702.8953    16.945591    19.959668    20.673581    6992.3914    9846.8746      10134.9     6126.911   -792.07923    451.87325    724.25312   -2430.6633 
 1652000    267.25695   -3831.8863    -3373.817   -3831.8863            0    11494.086    16.922224    19.932145    20.645074    6963.5052     10131.29    11371.188     12979.78   -965.49641   -1457.1472    350.98136   -2206.5284 
 1653000    287.93581   -3820.6093   -3327.0972   -3820.6093            0    12989.119    16.871072    19.871894    20.582668    6900.5487    12431.169    12109.151    14427.035   -1838.2837   -1294.9699     1086.435   -2019.9057 
 1654000     269.7981    -3814.208   -3351.7833    -3814.208            0    11469.899    16.883058    19.886012    20.597291    6915.2666    9818.6496    12416.619    12174.429   -1037.5161    398.07995    890.09193   -2195.0202 
 1655000    278.89659   -3826.7944   -3348.7752   -3826.7944            0    10184.587    16.890723    19.895041    20.606643    6924.6897    9767.1918    10185.589    10600.978   -355.69363    840.59247   -16.739075   -2320.2389 
 1656000    263.56141    -3818.174   -3366.4388    -3818.174            0    10698.864    16.904796    19.911617    20.623812    6942.0126    10651.332    10357.483    11087.776     635.3075    1865.4473     258.2946    -2283.263 
 1657000    266.41471   -3808.1095   -3351.4838   -3808.1095            0    9820.2858    16.890457    19.894727    20.606318    6924.3626    8888.5001    12028.931    8543.4261   -1097.0031   -330.25271   -1302.6614   -2359.7849 
 1658000    275.67468   -3830.7124   -3358.2154   -3830.7124            0    12322.841    16.829785    19.823264    20.532298    6850.0115    12828.006    11576.385    12564.131    350.51062    128.02545    852.30099   -2127.1588 
 1659000    285.34292   -3838.6818   -3349.6138   -3838.6818            0    11545.692    16.865969    19.865883    20.576443    6894.2888    13988.443    9669.8885    10978.744   -318.75271   -386.81316    1325.3697   -2188.7391 
 1660000    285.62915   -3789.9523   -3300.3937   -3789.9523            0    12108.903     16.82613    19.818959    20.527839    6845.5493    11432.925    11771.001    13122.784   -232.97946    283.23076   -439.96402   -2091.4976 
 1661000    256.69638   -3799.3661   -3359.3972   -3799.3661            0    10438.566    16.869747    19.870334    20.581052    6898.9234    9373.4113    11771.921    10170.366   -562.86455   -270.60174   -1865.6823   -2309.1343 
 1662000    276.00985   -3836.1179   -3363.0465   -3836.1179            0    8817.4345    16.940444    19.953605    20.667302    6986.0219    9054.2916    7814.1678    9583.8441   -829.02301   -908.61276   -759.45903   -2464.6913 
 1663000    269.85488   -3797.6908   -3335.1688   -3797.6908            0    9583.3742    16.905386    19.912312    20.624532    6942.7397    8729.5934    9312.9151    10707.614    479.98041    1485.5915   -1516.9023   -2364.8259 
 1664000     271.1965   -3803.5475   -3338.7259   -3803.5475            0    10856.071    16.909122    19.916712    20.629089    6947.3429    9221.1259     11644.99    11702.097    228.78891   -680.55798   -438.10732   -2238.7902 
 1665000    280.94819   -3810.4294   -3328.8939   -3810.4294            0    9034.8443    16.890885    19.895231     20.60684    6924.8888    8839.8134    9030.7114     9234.008    595.22716   -2195.8475    514.81279   -2416.4432 
 1666000    278.76548   -3788.2767   -3310.4822   -3788.2767            0    10719.785    16.877701    19.879702    20.590756    6908.6857    8327.6922    13007.685    10823.978    24.261889   -727.05288   -125.76174   -2230.3985 
 1667000    262.84278   -3823.6504   -3373.1468   -3823.6504            0    9041.0506    16.966324    19.984089    20.698876    7018.0888    9765.5921    9524.5479    7833.0119   -634.75302    1213.8068     2369.342   -2447.7806 
 1668000    283.11066   -3775.4343   -3290.1923   -3775.4343            0    10912.388    16.859292    19.858019    20.568297    6886.1046    9948.5287    10838.709    11949.926   -2167.3152    193.88342    812.62672   -2194.2964 
 1669000    284.93148   -3799.7124   -3311.3496   -3799.7124            0    8858.8857    16.943763    19.957515    20.671352    6990.1294    8334.7738    8591.3795    9650.5038   -1605.6152   -480.46217   -225.39316   -2408.2405 
 1670000    287.07604    -3824.158   -3332.1195    -3824.158            0    9821.8017    16.925912    19.936488    20.649573    6968.0586    9744.2513     9163.122    10558.032   -511.91382    743.73672   -725.09338   -2334.0085 
 1671000    269.38472   -3797.0115   -3335.2953   -3797.0115            0    10068.341    16.901438    19.907661    20.619715    6937.8761    10567.758    8423.8717    11213.392    2118.4686    931.50525    549.40898   -2316.5624 
 1672000    258.64016    -3781.086   -3337.7856    -3781.086            0    10731.359    16.894432    19.899409    20.611167     6929.252    11120.548    12353.496    8720.0323    1538.9485    2130.2871   -310.51468    -2253.317 
 1673000    284.66586   -3828.1066   -3340.1991   -3828.1066            0    10771.205    16.901071     19.90723    20.619268    6937.4249    10048.043    11581.826    10683.745    2025.1319    1772.0218   -1515.4645     -2250.42 
 1674000    277.62795   -3847.4761   -3371.6313   -3847.4761            0    11272.675    16.932795    19.944596     20.65797    6976.5634    11253.309    11663.332    10901.383    669.81895    -662.5119   -296.60049   -2224.6816 
 1675000    280.82047   -3784.3679   -3303.0512   -3784.3679            0    10653.882    16.886796    19.890416    20.601852    6919.8614      9789.78    11895.881    10275.986    1378.9612    117.57423   -1144.6825   -2227.8712 
 1676000    273.39265   -3815.8534   -3347.2677   -3815.8534            0     10453.52    16.877679    19.879676    20.590729    6908.6589      10370.2    10054.472    10935.888   -1104.4298     1041.455   -805.02076    -2294.016 
 1677000    286.33952   -3793.2665   -3302.4903   -3793.2665            0    11186.217    16.858708    19.857331    20.567585    6885.3888    9572.8664    12747.706     11238.08   -412.43257   -2006.9975    489.95108   -2179.2114 
 1678000    287.64964   -3800.8213   -3307.7997   -3800.8213            0    11169.404    16.833149    19.827226    20.536403      6854.12    10440.235     10166.85    12901.127   -408.93589    871.47154   -982.49255   -2191.3026 
 1679000    275.60673   -3810.7985    -3338.418   -3810.7985            0    9669.7675    16.859813    19.858633    20.568933    6886.7429    9489.6724     9078.356    10441.274   -1024.0189    621.01928   -96.196506   -2367.2245 
 1680000    270.90507   -3811.9752   -3347.6532   -3811.9752            0    8415.6844    16.926146    19.936765    20.649859    6968.3484    8525.2826    9006.4585    7715.3122   -312.77276      513.019    745.27368    -2492.399 
 1681000    285.90291   -3827.8329   -3337.8051   -3827.8329            0    11142.952    16.852667    19.850215    20.560214    6877.9891    12199.813    10446.439    10782.603    1519.2163   -1208.5384   -1030.6151   -2220.0732 
 1682000    297.00984   -3811.9667    -3302.902   -3811.9667            0    8454.2126    16.934594    19.946715    20.660165    6978.7869    7337.8257    8468.1049    9556.7071    524.98088    263.26058    59.800033   -2442.4453 
 1683000    272.27075   -3811.6053   -3344.9425   -3811.6053            0    9355.1651    16.902386    19.908778    20.620871    6939.0437    8164.0115    10935.429    8966.0545    247.46575   -982.85297    486.13079   -2398.2107 
 1684000     274.0412   -3811.5089   -3341.8116   -3811.5089            0    9083.6207    16.921096    19.930816    20.643697    6962.1127    7187.5053     10614.49    9448.8663   -1658.2674    590.98988   -471.03406   -2419.5037 
 1685000    280.60815   -3804.1338    -3323.181   -3804.1338            0    9891.2579    16.918873    19.928197    20.640985    6959.3689    8270.8996    11178.781    10224.093   -9.4715857    82.103199   -271.78159   -2319.2652 
 1686000    281.25954   -3790.0305   -3307.9613   -3790.0305            0    8484.1863    16.922362    19.932307    20.645242    6963.6754    6729.6813    7720.9731    11001.904   -451.71157   -299.39256   -316.78294   -2446.3238 
 1687000    269.99582   -3819.9057   -3357.1421   -3819.9057            0    8413.5669    16.900302    19.906323    20.618328     6936.477    9548.9788    7845.0249    7846.6971   -751.79488   -390.90619    965.83548   -2506.0139 
 1688000    292.67299    -3798.079   -3296.4475    -3798.079            0    10116.063     16.85475    19.852669    20.562755    6880.5396    9055.5724     9644.359    11648.256    1802.4405   -426.09459    814.52651    -2281.345 
 1689000    270.33294   -3835.1994    -3371.858   -3835.1994            0    9818.7163    16.839656     19.83489    20.544341    6862.0711    9444.8304    11938.429    8072.8898   -449.96834   -649.54052   -317.58272   -2389.2375 
 1690000    299.97595   -3809.3259   -3295.1773   -3809.3259            0    12170.119    16.861828    19.861006    20.571391    6889.2124    13682.457    13263.067    9564.8324    683.79833    971.01564    952.32117     -2072.42 
 1691000    285.10232   -3826.2979   -3337.6423   -3826.2979            0    10385.342    16.860575     19.85953    20.569862     6887.676    10351.043     10437.13    10367.853    292.62517    912.38738   -857.16614   -2294.4379 
 1692000    280.94225   -3828.6395   -3347.1141   -3828.6395            0    10567.772    16.873836     19.87515    20.586041    6903.9409    11317.145    10482.432    9903.7374    405.86346   -2573.9656   -187.78587    -2283.078 
 1693000    281.25745   -3778.9413   -3296.8756   -3778.9413            0    11886.773    16.813793    19.804427    20.512788    6830.5027    11847.423    11674.835     12138.06   -1017.5389   -901.62969   -844.76909   -2112.7644 
 1694000    289.34096   -3776.3354   -3280.4149   -3776.3354            0    12032.274     16.88904    19.893058    20.604589      6922.62    9499.6781    12961.925    13635.218   -4.9739665    51.203284    49.805865   -2065.6448 
 1695000    275.40443   -3798.8094   -3326.7757   -3798.8094            0    12152.224    16.861663    19.860812     20.57119    6889.0099    14910.608     9720.508    11825.556   -177.05189   -208.53534   -1368.9212   -2105.8522 
 1696000    281.08538    -3812.588   -3330.8173    -3812.588            0    10419.088    16.877579    19.879559    20.590607    6908.5366    10171.677    10556.132    10529.455   -108.47937   -2058.1352   -2478.5388   -2281.0533 
 1697000    269.23578   -3803.5471   -3342.0862   -3803.5471            0     10631.82    16.880532    19.883037     20.59421    6912.1633    10005.967    12299.633     9589.861    -1034.071   -523.35411    1229.0623   -2270.3263 
 1698000    271.91848   -3803.5653   -3337.5063   -3803.5653            0     8858.713    16.938103    19.950848    20.664446    6983.1264    8758.8407    9508.8967    8308.4016    157.30751   -151.58652    315.41147   -2435.3196 
 1699000    295.63692   -3802.9504   -3296.2388   -3802.9504            0    10807.072     16.92223    19.932152    20.645081    6963.5131    9733.8567    11087.588    11599.772   -514.90302   -831.83231    2066.7569   -2198.7191 
 1700000     282.0711   -3827.9512    -3344.491   -3827.9512            0    7671.6693    16.972909    19.991844    20.706909    7026.2632    8589.8002    7717.7168    6707.4908    204.68722   -832.39277    1016.1479   -2558.3686 
 1701000    289.35983   -3833.8421   -3337.8893   -3833.8421            0    10697.273    16.868398    19.868744    20.579406    6897.2675    11910.977    10230.435    9950.4058   -1194.3053    351.34242   -1070.6808   -2261.8552 
 1702000     268.0282   -3779.2273   -3319.8361   -3779.2273            0    9637.0127    16.910116    19.917884    20.630303    6948.5692    8647.3674    10426.853    9836.8173   -90.621613   -1948.9031    983.59074   -2343.2429 
 1703000    285.65495   -3834.5775   -3344.9747   -3834.5775            0    11108.858    16.818495    19.809966    20.518525    6836.2352    11167.277    10211.992    11947.306   -773.98981   -676.94575   -981.10579   -2237.4273 
 1704000    267.53722    -3823.958   -3365.4084    -3823.958            0    11136.191    16.849116    19.846033    20.555882    6873.6423     10664.62    11264.976    11478.976   -1000.9515    1487.3903    571.65925   -2249.0607 
 1705000    257.12844   -3813.5632   -3372.8539   -3813.5632            0     11897.88    16.851576    19.848931    20.558884    6876.6542    10190.723    12619.524    12883.393    1726.7039    317.61473    1559.1017    -2179.628 
 1706000    274.74464   -3820.0796   -3349.1767   -3820.0796            0    8892.8911    16.877891    19.879926    20.590987    6908.9191    8635.8287    8618.1231    9424.7215   -48.062337    46.175027     377.7058   -2453.1335 
 1707000    276.43279   -3821.8736   -3348.0773   -3821.8736            0    10692.591    16.912868    19.921125     20.63366    6951.9617    11821.012     10698.59    9558.1688    900.25066    -2124.338   -956.59551   -2263.9852 
 1708000      290.585   -3789.6373   -3291.5846   -3789.6373            0    10009.162    16.831217    19.824951    20.534046    6851.7605     9918.373    9828.1968    10280.916    24.820113   -400.07919    574.11605   -2291.4101 
 1709000    269.14553   -3800.1759   -3338.8697   -3800.1759            0    11957.886      16.8128    19.803257    20.511576    6829.2925    11738.006    14224.831    9910.8219   -625.72118    569.85333    2847.3488   -2147.8854 
 1710000    274.47934    -3779.038   -3308.5898    -3779.038            0    9104.1785    16.940364    19.953511    20.667204    6985.9228    9636.3957    11133.989    6542.1505   -1341.6347    1338.1438   -2212.0297   -2381.0331 
 1711000    278.45585   -3812.2084   -3334.9446   -3812.2084            0    12426.998    16.865337    19.865139    20.575672    6893.5139    12439.737     12988.89    11852.367   -1124.9512    -750.2875    2257.4705   -2085.5985 
 1712000     284.8204   -3837.3355   -3349.1631   -3837.3355            0    11532.081    16.925978    19.936566    20.649653    6968.1401    11384.858    11320.311    11891.074   -2249.4749   -1519.4622    1550.2343   -2177.2364 
 1713000    297.70132   -3822.7127   -3312.4628   -3822.7127            0    11396.595    16.856432     19.85465    20.564807    6882.5998    12852.172    10529.396    10808.216   -571.97503   -1560.6967    874.63891   -2168.5221 
 1714000    287.14812   -3838.0021     -3345.84   -3838.0021            0    9962.9463    16.937969     19.95069    20.664283    6982.9608    9113.2281    9772.3755    11003.235   -1149.2278    545.76255   -101.99532   -2331.2203 
 1715000    263.69715   -3852.5007   -3400.5328   -3852.5007            0    9873.6203    16.910842    19.918738    20.631188    6949.4637     10339.49    8856.7003    10424.671    5.6942901    559.29423    -87.96418   -2399.8335 
 1716000      276.604   -3834.6441   -3360.5543   -3834.6441            0    9178.0282    16.933358    19.945259    20.658657    6977.2591    9736.0345    8349.4384    9448.6118   -1359.7788   -899.05883     872.4034   -2426.6334 
 1717000     269.5001   -3853.1813   -3391.2674   -3853.1813            0    8464.1518    16.956511     19.97253    20.686904    7005.9188    6694.7301     7713.786    10983.939    -85.90257     50.62621    222.64581     -2526.45 
 1718000    283.02242   -3806.2926   -3321.2018   -3806.2926            0    9190.0747    16.925062    19.935488    20.648536    6967.0097    8941.9124    8389.5965    10238.715     1523.505   -1546.3781   -537.43316   -2387.4287 
 1719000     273.3766   -3792.5528   -3323.9947   -3792.5528            0    11801.879    16.942472    19.955994    20.669777    6988.5317    12750.556    10411.976    12243.106    971.47455   -375.96008    304.30683   -2121.1404 
 1720000    285.37649   -3846.3114   -3357.1859   -3846.3114            0    11378.669    16.829633    19.823085    20.532113     6849.826    13599.026    8231.8648    12305.117    979.28716    1014.5907    185.56645   -2220.4831 
 1721000    287.87314    -3823.776   -3330.3713    -3823.776            0    10483.727    16.915897    19.924693    20.637355    6955.6979    10082.355    9714.1439    11654.681    962.47001    730.04493   -1199.1302    -2266.884 
 1722000    271.68865   -3847.4151   -3381.7501   -3847.4151            0    9654.9057    16.943666    19.957401    20.671233    6990.0094     9586.388    8925.4184    10452.911    647.34489    1037.5615    -1114.268   -2397.5086 
 1723000    277.13511   -3856.2621    -3381.262   -3856.2621            0    11284.271    16.954076    19.969662    20.683933     7002.901    11318.163    10552.156    11982.494    484.81955   -1125.6414    39.810935   -2228.7979 
 1724000    267.46007   -3788.4993   -3330.0819   -3788.4993            0    11907.345    16.921729    19.931562     20.64447    6962.8943    13525.436    12389.367     9807.232    229.79776    351.39339   0.24083625   -2120.9307 
 1725000    277.18584   -3839.0021   -3363.9151   -3839.0021            0    10968.852    16.939171    19.952106    20.665749     6984.447    11556.953    10262.476    11087.127   -680.58874   -1068.1687    613.24701   -2246.6169 
 1726000    275.22542   -3805.0592   -3333.3323   -3805.0592            0    12037.444     16.89211    19.896675    20.608335     6926.396    13692.802     13905.88    8513.6495    1393.9554    117.59687   -1343.9261   -2117.3774 
 1727000    290.19262   -3770.0007   -3272.6205   -3770.0007            0    10278.672    16.905139    19.912021     20.62423     6942.435    12245.607    9572.8539     9017.555   -98.175175   -401.54938   -865.84605   -2231.9225 
 1728000    285.88522   -3803.2275     -3313.23   -3803.2275            0    10557.158    16.838999    19.834116    20.543539    6861.2679    10071.172    9963.2815    11637.021    409.81002    121.06172    1256.7616   -2256.8327 
 1729000    282.09152   -3816.1356   -3332.6404   -3816.1356            0    9256.7953    16.911824    19.919895    20.632386    6950.6746    11423.941     9458.898    6887.5471   -1163.4412    498.28632    399.02078   -2394.2933 
 1730000    285.76083   -3796.6597   -3306.8754   -3796.6597            0    9856.4576    16.923675    19.933854    20.646844    6965.2972     8513.155    10681.463    10374.755   -1440.7629   -582.99863    184.17545   -2305.6395 
 1731000    282.35262   -3832.4323   -3348.4896   -3832.4323            0    8578.3715    16.936768    19.949275    20.662817    6981.4749    8643.8259    9785.3172    7305.9714    885.30992    1615.6883    178.12254     -2475.06 
 1732000    279.02706   -3818.5823   -3340.3395   -3818.5823            0    7777.7726    16.950329    19.965249    20.679362    6998.2586    8484.9788    7037.7069    7810.6321    2333.6345       10.232    610.91797   -2546.5211 
 1733000    270.73644   -3828.5592   -3364.5262   -3828.5592            0    9804.9013    16.964664    19.982134    20.696851    7016.0296    10206.365    9080.2448    10128.094     416.1478   -605.30022    352.07643   -2361.2731 
 1734000     294.4777   -3809.9565   -3305.2318   -3809.9565            0    10917.228     16.85776    19.856214    20.566428    6884.2268    11441.852    11377.014    9932.8191     863.6115   -1941.0738    957.83238   -2209.1488 
 1735000    262.79145   -3810.7408   -3360.3252   -3810.7408            0    10955.725    16.927505    19.938365    20.651516    6970.0266    12397.238    11061.934     9408.003    1487.5816   -712.85699    1043.1792   -2246.6682 
 1736000    278.52421   -3807.5945   -3330.2135   -3807.5945            0    10354.089    16.930261    19.941612    20.654879    6973.4321    9922.0898    11903.859    9236.3183   -2025.9149   -368.14767    -1659.207    -2277.199 
 1737000    276.38335   -3801.2653   -3327.5537   -3801.2653            0    9986.8384    16.890306     19.89455    20.606134     6924.177    11029.869    9292.1574    9638.4889   -797.78659    -479.2723   -542.83037   -2319.0626 
 1738000    297.36471   -3825.3705   -3315.6975   -3825.3705            0    9750.4125    16.891497    19.895952    20.607587    6925.6415    9539.9897    11096.289    8614.9586   -300.61433    501.18319   -1379.2495   -2330.8729 
 1739000    279.36919   -3809.4988   -3330.6696   -3809.4988            0     8962.616    16.892934    19.897645     20.60934    6927.4097    7880.8577    10250.192    8756.7982   -1379.0626    939.71847    1381.3694    -2425.184 
 1740000    275.70331   -3802.1354   -3329.5894   -3802.1354            0    9828.2291    16.886852    19.890481     20.60192    6919.9298    11999.898     8099.403    9385.3865     638.6032    412.27091   -806.96481   -2337.7237 
 1741000    267.67719   -3831.2571   -3372.4675   -3831.2571            0    10087.506    16.856842    19.855134    20.565308    6883.1029    10768.269    9960.2676     9533.982   -773.64205   -374.83608    479.21593   -2359.8534 
 1742000    273.88471   -3818.8412   -3349.4122   -3818.8412            0    10801.592    16.863554    19.863039    20.573496    6891.3277    9721.3778    11897.796    10785.601    332.77351    269.15491    1590.4079   -2263.8204 
 1743000    297.08304   -3827.3612    -3318.171   -3827.3612            0    8965.1891    16.921775    19.931616    20.644526    6962.9511    7351.0809    9842.5598    9701.9266    582.00588    1144.9647   -177.13916   -2407.7785 
 1744000    284.41992   -3791.4234   -3303.9374   -3791.4234            0    10664.165    16.809373    19.799221    20.507395     6825.117    9543.6626     12538.12    9910.7118   -15.766325    185.57992    141.17807   -2242.4549 
 1745000    286.79793    -3785.781   -3294.2192    -3785.781            0    8622.3529    16.916002    19.924816    20.637483    6955.8273    6961.7967    9148.8371    9756.4248      767.629    283.28822   -3199.0651   -2419.5366 
 1746000    271.69859   -3798.5021     -3332.82   -3798.5021            0    10299.881    16.807012     19.79644    20.504515    6822.2415     10731.57    9317.5156    10850.556   -1499.3894   -1564.4598   -1598.0132   -2308.0294 
 1747000    268.16676   -3813.3472   -3353.7185   -3813.3472            0      10297.5    16.871559    19.872468    20.583263    6901.1463    10487.479    9607.9506     10797.07   -1614.0073    -1083.073    410.13335   -2317.3149 
 1748000    274.58143   -3781.2351   -3310.6119   -3781.2351            0    11173.474    16.915238    19.923917    20.636551    6954.8851    10473.316    10786.851    12260.256    -364.4817    558.91295    563.31218   -2177.2879 
 1749000    268.27671   -3812.6352   -3352.8181   -3812.6352            0      11116.7    16.866712    19.866759     20.57735    6895.2005    11755.465    10573.527    11021.108    843.60653   -601.36879   -278.61149   -2234.9291 
 1750000    293.11076   -3811.9112   -3309.5294   -3811.9112            0    9888.0471     16.89652    19.901868    20.613714    6931.8213    8094.9059    12417.322    9151.9134    1782.1549    1190.5736   -1039.8975   -2309.9121 
Loop time of 361.145 on 64 procs for 250000 steps with 864 atoms

Performance: 119.619 ns/day, 0.201 hours/ns, 692.242 timesteps/s
194.0% CPU use with 32 MPI tasks x 2 OpenMP threads

MPI task timing breakdown:
Section |  min time  |  avg time  |  max time  |%varavg| %total
---------------------------------------------------------------
Pair    | 27.156     | 34.278     | 40.909     |  58.7 |  9.49
Bond    | 0.92116    | 1.1664     | 1.5981     |  13.5 |  0.32
Kspace  | 154.45     | 163.16     | 173.41     |  32.8 | 45.18
Neigh   | 4.0916     | 4.5694     | 5.0495     |  15.3 |  1.27
Comm    | 74.502     | 78.522     | 83.251     |  23.9 | 21.74
Output  | 0.43303    | 0.43332    | 0.43488    |   0.0 |  0.12
Modify  | 68.085     | 69.6       | 72.451     |  11.0 | 19.27
Other   |            | 9.422      |            |       |  2.61

Nlocal:        27.0000 ave          33 max          20 min
Histogram: 1 1 2 4 6 3 11 2 0 2
Nghost:        2647.38 ave        2697 max        2615 min
Histogram: 4 5 6 3 3 5 0 3 2 1
Neighs:        8888.78 ave       11280 max        6320 min
Histogram: 2 2 2 3 3 8 5 5 1 1

Total # of neighbors = 284441
Ave neighs/atom = 329.21412
Ave special neighs/atom = 2.0000000
Neighbor list builds = 15647
Dangerous builds = 2

unfix		3
unfix		2
unfix		1

write_data	data.final.${pid}
write_data	data.final.1
System init for write_data ...
PPPM initialization ...
  extracting TIP4P info from pair style
  using 12-bit tables for long-range coulomb (../kspace.cpp:340)
  G vector (1/distance) = 0.37464335
  grid = 24 24 24
  stencil order = 5
  estimated absolute RMS force accuracy = 0.0031177184
  estimated relative force accuracy = 9.3889164e-06
  using double precision FFTW3
  3d grid and FFT values/proc = 3549 432
Last active /omp style is kspace_style pppm/tip4p/omp
WARNING: Not all mixed pair coeffs generated from mixing. Use write_data with 'pair ij' option to store all pair coeffs. (../write_data.cpp:312)

write_restart   restart.lmp.${pid}
write_restart   restart.lmp.1
System init for write_restart ...
PPPM initialization ...
  extracting TIP4P info from pair style
  using 12-bit tables for long-range coulomb (../kspace.cpp:340)
  G vector (1/distance) = 0.37464335
  grid = 24 24 24
  stencil order = 5
  estimated absolute RMS force accuracy = 0.0031177184
  estimated relative force accuracy = 9.3889164e-06
  using double precision FFTW3
  3d grid and FFT values/proc = 3549 432
Last active /omp style is kspace_style pppm/tip4p/omp
Total wall time: 0:06:01
