LAMMPS data file via write_data, version 30 Jul 2021, timestep = 4250000

972 atoms
2 atom types
648 bonds
1 bond types
324 angles
1 angle types

-0.05389550813174537 20.053896508129277 xlo xhi
-0.08675185982493971 20.086752859825197 ylo yhi
-0.15780265310547925 20.857800653102995 zlo zhi

Masses

1 1.008
2 15.999

Pair Coeffs # lj/cut/tip4p/long/omp

1 0 0
2 0.21084 3.1668

Bond Coeffs # harmonic/omp

1 450 0.9572

Angle Coeffs # harmonic/omp

1 55 104.52

Atoms # full

10 4 2 -1.1794 1.2403558251844138 3.9622803087879443 3.6612010000935684 0 0 0
11 4 1 0.5897 1.0586961889313047 3.175117821795644 3.1480334488191457 0 0 0
12 4 1 0.5897 2.1924003313488036 3.969770361835476 3.7603167710241374 0 0 0
16 6 2 -1.1794 4.004895485755936 4.022089412053959 3.4923297051196363 0 0 0
33 11 1 0.5897 1.5555279775403168 2.123168343724275 1.2261206305063754 0 0 0
31 11 2 -1.1794 0.8316335272353027 1.8957711684025562 1.8095634409192238 0 0 0
5 2 1 0.5897 4.06570700400524 0.7417689123301683 2.673928037923092 0 0 0
18 6 1 0.5897 4.310679399797181 3.125105411126581 3.3586691435367806 0 0 0
4 2 2 -1.1794 4.133934527194998 1.3685717157005508 3.393934624746173 0 0 0
273 91 1 0.5897 7.195462054251805 0.1361308922996688 2.129248836332053 0 1 0
23 8 1 0.5897 2.888462247324683 0.5852184810754415 4.166935533365303 0 0 0
9 3 1 0.5897 4.805602537878695 4.548026139580422 5.068389349953756 0 0 0
6 2 1 0.5897 4.808920787878036 1.0040270218337553 3.9663011910692365 0 0 0
3 1 1 0.5897 3.721608129942463 2.772089559983101 0.21341755562726988 0 0 0
47 16 1 0.5897 7.733725990214059 3.350078575460189 3.621619583261447 0 0 0
46 16 2 -1.1794 7.770489913420902 4.250439277332231 3.9439453117848364 0 0 0
34 12 2 -1.1794 5.6385908778584914 2.578560722913789 -0.06558022188505962 0 0 0
69 23 1 0.5897 6.604470976994866 2.5026711229777003 1.4629612857202434 0 0 0
68 23 1 0.5897 8.117747144933979 2.4650527621872373 1.48623025312162 0 0 0
67 23 2 -1.1794 7.349783616201593 2.3850458955716487 2.0518798768416824 0 0 0
48 16 1 0.5897 6.954290676437885 4.364549726049649 4.430751948258747 0 0 0
236 79 1 0.5897 1.0420561199909486 0.057840066219513986 1.8846460754758785 0 1 0
17 6 1 0.5897 4.312268956980713 4.4978177861171424 2.7208377106431314 0 0 0
37 13 2 -1.1794 9.317894139538698 2.4508217167753448 0.06999029628791426 0 0 0
32 11 1 0.5897 0.045158607370200915 2.0361419089982133 1.282393710088658 0 0 0
1 1 2 -1.1794 2.7652410654860287 2.7883689617802485 0.17660364119213495 0 0 0
41 14 1 0.5897 9.960095066095818 1.1169882031130616 3.627956798603883 0 0 0
53 18 1 0.5897 9.678049704333407 4.3583297319128995 3.277441839158208 0 0 0
22 8 2 -1.1794 2.186573242461756 0.23599295645267965 4.716038486380346 0 0 0
58 20 2 -1.1794 8.763296482097154 0.5243825395510977 4.820168917113325 0 0 0
2 1 1 0.5897 2.5466510339036965 3.7071636877615184 0.0217370339325047 0 0 0
29 10 1 0.5897 7.007268025731314 0.48413451995890144 4.975710927239577 0 0 0
102 34 1 0.5897 0.3286302764115679 0.5603144016725636 5.0468163173786875 1 0 0
710 237 1 0.5897 9.516416178584914 4.201284428731777 -0.060747876824237323 0 0 1
325 109 2 -1.1794 2.429664326257706 2.079033777602339 6.718744407589815 0 0 0
326 109 1 0.5897 2.363516066248435 1.4671579465728586 5.985813671562613 0 0 0
327 109 1 0.5897 3.3644040099475996 2.108937539024297 6.922775464701113 0 0 0
355 119 2 -1.1794 0.8064078302922782 1.547971716567 8.896814608134106 0 0 0
356 119 1 0.5897 1.2080183085877774 1.8765639661026918 8.092607619004282 0 0 0
329 110 1 0.5897 4.380176789783465 0.6356668992004706 9.272374923056862 0 0 0
28 10 2 -1.1794 6.062384142790635 0.5024872666305138 5.127712510745479 0 0 0
363 121 1 0.5897 9.957554675462324 2.384253245598873 7.039114981942309 0 0 0
391 131 2 -1.1794 7.330741989278663 1.449035299717956 8.993051959934602 0 0 0
27 9 1 0.5897 2.1686295956991666 4.117937340861788 6.496451045390702 0 0 0
362 121 1 0.5897 8.809786688454249 3.266718286088194 6.596908253680907 0 0 0
358 120 2 -1.1794 5.129372460213642 2.174388650974761 6.991696523853796 0 0 0
8 3 1 0.5897 5.501104248616551 3.998308522463576 6.295354168553973 0 0 0
393 131 1 0.5897 7.257892123390534 0.4991181049715705 8.901949657724208 0 0 0
342 114 1 0.5897 4.142515578078252 4.703042151170198 9.539775666163733 0 0 0
392 131 1 0.5897 7.827175449202365 1.7265599567489056 8.223273197453198 0 0 0
359 120 1 0.5897 5.541944253546355 1.8093071890998 7.7743289687297805 0 0 0
59 20 1 0.5897 8.909403881084954 1.110506582288169 5.562512222791503 0 0 0
360 120 1 0.5897 5.4898131144454725 1.6610091757194827 6.268835749874237 0 0 0
361 121 2 -1.1794 9.003492694997023 2.4044431323944595 6.964196326283108 0 0 0
330 110 1 0.5897 5.1129162302605575 1.434933888455094 10.328620343468538 0 0 0
7 3 2 -1.1794 5.44971718827695 4.775259507471301 5.738893510827231 0 0 0
371 124 1 0.5897 7.740115476696542 2.9041915466803507 10.278211668414873 0 0 0
335 112 1 0.5897 0.9677948070498534 3.2436284569574996 10.00249854265763 0 0 0
328 110 2 -1.1794 4.3384693726503984 1.4542587113539325 9.766459799774353 0 0 0
340 114 2 -1.1794 3.7197057720892133 4.15358879480499 10.199589742947825 0 0 0
341 114 1 0.5897 3.95789678452103 3.25934590844114 9.955533930845544 0 0 0
649 217 2 -1.1794 2.4988366410383094 2.6217090175409696 13.951791203209735 0 0 0
650 217 1 0.5897 2.3643983092020098 2.0148226982382127 13.224083810980368 0 0 0
651 217 1 0.5897 1.9184530032566522 2.3010265977959765 14.642006586807563 0 0 0
336 112 1 0.5897 1.9836006538551159 4.289926633255918 10.40857863835453 0 0 0
370 124 2 -1.1794 7.956819210958383 3.665626363978626 10.815995548221279 0 0 0
372 124 1 0.5897 7.132453925821161 3.9011713421723613 11.24157771126199 0 0 0
346 116 2 -1.1794 2.523452336479282 0.96200838957305 11.919393384909299 0 0 0
683 228 1 0.5897 4.199488890587739 2.481654621058454 14.184975602879437 0 0 0
332 111 1 0.5897 4.779396596470827 4.398714454231473 11.57939130920299 0 0 0
331 111 2 -1.1794 5.566675661168372 4.431854097940428 12.122775811601839 0 0 0
354 118 1 0.5897 5.953960120821986 1.3566081770635547 12.849691781450955 0 0 0
347 116 1 0.5897 1.6586557500154357 1.074145959388666 11.524716981183783 0 0 0
383 128 1 0.5897 9.293929622530532 1.4728609080442425 12.780090328870882 0 0 0
686 229 1 0.5897 9.035538368008629 2.601189080781583 14.637793233648816 0 0 0
682 228 2 -1.1794 5.1460395360407265 2.5490218213204345 14.310519413888303 0 0 0
348 116 1 0.5897 3.136411186824664 1.2285901145716784 11.234351958791823 0 0 0
382 128 2 -1.1794 9.021633461215627 0.782210308665895 12.17610816998049 0 0 0
334 112 2 -1.1794 1.0460442172387014 4.097853424943104 10.426909184770546 0 0 0
685 229 2 -1.1794 9.572345541841312 2.814071657285097 13.874520770970392 0 0 0
353 118 1 0.5897 7.137041411897912 0.8367361286294925 12.061233831146794 0 0 0
352 118 2 -1.1794 6.180873720669059 0.8798620757077162 12.051448837605347 0 0 0
684 228 1 0.5897 5.419344112334099 3.240979783909753 13.708461105272043 0 0 0
350 117 1 0.5897 2.156237084087615 4.293444738766996 13.24297747858884 0 0 0
384 128 1 0.5897 9.74222369850003 0.7132698174173419 11.54991110749907 0 0 0
717 239 1 0.5897 6.708850885932454 2.36635675387806 15.492958188941012 0 0 0
377 126 1 0.5897 9.786050547782136 3.876304418077691 10.842320681716364 0 0 0
386 129 1 0.5897 9.170728816781942 4.571161461024286 14.125539912111613 0 0 0
653 218 1 0.5897 3.7784407543893024 1.2428484401061295 17.879005949881822 0 0 0
652 218 2 -1.1794 4.6109174165813425 1.2283122798714552 17.40682729268333 0 0 0
664 222 2 -1.1794 4.4188695297615 4.1395141759944645 17.364895437121923 0 0 0
671 224 1 0.5897 2.6609541716276293 1.7021372956614969 19.81559734087729 0 0 0
658 220 2 -1.1794 1.666044963047043 3.8287986758610084 17.72829453441671 0 0 0
666 222 1 0.5897 4.4980132413952205 3.2192597157833966 17.11428176808687 0 0 0
670 224 2 -1.1794 2.4750564912453936 1.0340190951639423 19.156033964583543 0 0 0
665 222 1 0.5897 3.588642559319623 4.188645209966885 17.838713747158153 0 0 0
681 227 1 0.5897 1.2332019123022273 2.361689823948953 16.932675471784748 0 0 0
672 224 1 0.5897 1.5207711748072847 1.029414763880487 19.081369603742907 0 0 0
656 219 1 0.5897 5.737936353074489 4.435691548098053 18.863777817338054 0 0 0
676 226 2 -1.1794 6.302688989539488 0.38193702627718606 19.432508674603575 0 0 0
708 236 1 0.5897 7.983568697106117 0.6584012825662922 18.931515782253094 0 0 0
715 239 2 -1.1794 7.505365915434958 2.204510399879339 15.998477682003083 0 0 0
35 12 1 0.5897 6.016824620756987 1.8713172199133732 20.427782547298193 0 0 -1
696 232 1 0.5897 7.846873179013539 4.909928350605027 17.298406801126262 0 0 0
706 236 2 -1.1794 8.922651448241254 0.745515343870677 19.095203346464466 0 0 0
655 219 2 -1.1794 6.417041369010983 4.666885089363745 19.49740054728624 0 0 0
695 232 1 0.5897 8.052495644851213 3.42425479905313 17.094223721071245 0 0 0
660 220 1 0.5897 1.3351772587045954 4.488788787283271 17.119268857331733 0 0 0
679 227 2 -1.1794 1.0785393987362206 1.8069148520671598 16.16832723932263 0 0 0
716 239 1 0.5897 7.507911744831579 1.258901800818903 16.14600296342776 0 0 0
677 226 1 0.5897 5.577421524569858 0.540138346914012 18.82827749702345 0 0 0
659 220 1 0.5897 1.0496758623983955 3.847395256215343 18.46029353100488 0 0 0
680 227 1 0.5897 0.3791438448398711 2.2498129718977524 15.687904445205744 0 0 0
694 232 2 -1.1794 8.365138633927495 4.167802999085286 17.609367404267367 0 0 0
654 218 1 0.5897 4.487844648235343 0.569284851462958 16.7238375360009 0 0 0
38 13 1 0.5897 8.985781633059226 1.929338366942921 20.355032896977214 0 0 -1
657 219 1 0.5897 7.237320892514576 4.416893254900739 19.072203277450214 0 0 0
884 295 1 0.5897 1.1316578264469166 -0.023371287135606877 15.8566713574682 0 1 0
36 12 1 0.5897 5.97500429132644 3.379575769451991 20.548573945338966 0 0 -1
707 236 1 0.5897 9.141509443944797 -0.007551888870397566 19.643804881314793 0 0 0
662 221 1 0.5897 4.201200430617867 4.886343141984849 15.69251220015093 0 0 0
20 7 1 0.5897 0.662266991393859 5.444363992910288 2.5406319884896478 0 0 0
139 47 2 -1.1794 0.967628608741459 8.898543345321213 1.6789217512743424 0 0 0
175 59 2 -1.1794 7.618430737559702 8.262887342443735 1.731608896914301 0 0 0
149 50 1 0.5897 9.912928744090014 7.753741598209914 3.6107414808140206 0 0 0
13 5 2 -1.1794 4.885581576205403 6.002874631760255 1.5905370693757215 0 0 0
14 5 1 0.5897 4.242689516061142 5.819997829807819 0.9054504361844986 0 0 0
15 5 1 0.5897 4.5338451477383 6.763613146059633 2.052640214045536 0 0 0
111 37 1 0.5897 3.5165378326745214 9.527728528970714 -0.04041935392983774 0 0 0
140 47 1 0.5897 0.7952807679699302 9.351139416203752 2.504402730171188 0 0 0
126 42 1 0.5897 3.988670472595553 9.838227734832028 3.5575131050245354 0 0 0
19 7 2 -1.1794 0.4799532433267988 5.931641311267519 1.7373402920320205 0 0 0
114 38 1 0.5897 3.079188612528628 7.54283018405316 3.7141778485950723 0 0 0
110 37 1 0.5897 2.0830463151981133 9.329150681739982 0.4040943042076962 0 0 0
112 38 2 -1.1794 3.8054613116620617 7.96887157548557 3.259041198775791 0 0 0
176 59 1 0.5897 7.618795551723115 7.311605250332891 1.836434146188539 0 0 0
113 38 1 0.5897 4.507955297096804 8.004234388365806 3.908135295281947 0 0 0
711 237 1 0.5897 8.779220917770859 5.478279884399676 0.28159811357982734 0 0 1
56 19 1 0.5897 6.593879397713597 5.746861417034322 1.5238004513016303 0 0 0
141 47 1 0.5897 0.8682538770093916 7.970143436003072 1.8890014207852075 0 0 0
55 19 2 -1.1794 7.532660603605624 5.685141974192898 1.700252073750567 0 0 0
142 48 2 -1.1794 5.387129945855697 9.107335277162049 0.2072252968291159 0 0 0
143 48 1 0.5897 6.077849870303322 8.80458854117778 0.7966130725144315 0 0 0
177 59 1 0.5897 8.358227754947068 8.44061332750003 1.1508879368866922 0 0 0
674 225 1 0.5897 1.9055564084865333 5.737945495661234 0.3747387209670662 0 0 1
57 19 1 0.5897 7.5968088278225085 5.102331609239593 2.4566719768515486 0 0 0
166 56 2 -1.1794 8.60416812084024 7.301835589947077 4.659054746101802 0 0 0
155 52 1 0.5897 7.552274489497285 9.806102448852426 2.774374126552536 0 0 0
130 44 2 -1.1794 1.6925918046693886 7.447549383335773 5.009837286407443 0 0 0
138 46 1 0.5897 6.844550996515065 7.517619829254915 4.920727021049443 0 0 0
673 225 2 -1.1794 2.744218783456076 5.642313110646981 -0.07659249984943273 0 0 1
469 157 2 -1.1794 9.121491404033357 8.975711287018541 6.861232815740683 0 0 0
433 145 2 -1.1794 2.2918739051383734 9.137521960167243 7.315208409923674 0 0 0
61 21 2 -1.1794 9.12043834495662 5.391332467485845 6.847208361054312 0 0 0
345 115 1 0.5897 0.8781587565222506 6.789261823378195 8.865022011021779 0 0 0
468 156 1 0.5897 4.487399294214757 9.274187440212788 7.405235423700813 0 0 0
343 115 2 -1.1794 0.7874923234833462 5.959983118386372 8.395956001941583 0 0 0
381 127 1 0.5897 7.4380592508262895 5.261389562878755 9.636838976980076 0 0 0
463 155 2 -1.1794 0.562892021146317 8.473806546865719 9.303459294458452 0 0 0
435 145 1 0.5897 2.1760350491703115 8.612003391686418 6.523772554870035 0 0 0
464 155 1 0.5897 1.1410522334425108 8.643927146368378 8.559909704806634 0 0 0
437 146 1 0.5897 4.20019458029366 7.574503184392731 9.541484423415223 0 0 0
168 56 1 0.5897 8.894016770517966 7.959870467024576 5.2906874465592875 0 0 0
338 113 1 0.5897 5.468462964738565 5.825726145735021 8.182868184886795 0 0 0
62 21 1 0.5897 8.424760521978513 5.518977403012431 7.492078011142488 0 0 0
337 113 2 -1.1794 4.519492851206414 5.937831262706976 8.238868253984656 0 0 0
467 156 1 0.5897 5.5421828763704 8.58457055868752 6.566556648865959 0 0 0
466 156 2 -1.1794 5.410883173840886 9.32493543630542 7.158626940844984 0 0 0
500 167 1 0.5897 8.006702232174426 8.867965423023481 9.712532804452989 0 0 0
339 113 1 0.5897 4.176706727881213 5.464180321016169 7.481148632398584 0 0 0
344 115 1 0.5897 0.8574580036540883 5.290570562237602 9.076354381877952 0 0 0
499 167 2 -1.1794 7.599601517158703 8.354260596935667 9.015126473705513 0 0 0
470 157 1 0.5897 8.732047815559504 8.624148562905967 7.661704631570219 0 0 0
380 127 1 0.5897 7.265769179715599 6.6416821145024745 9.039936756060579 0 0 0
131 44 1 0.5897 1.776543725607192 6.511893811987971 5.192726080143971 0 0 0
501 167 1 0.5897 6.876393337506915 8.899722311091425 8.70605221217837 0 0 0
26 9 1 0.5897 1.8037276007894227 5.449885357450109 7.116072658219334 0 0 0
379 127 2 -1.1794 7.178404080665402 5.711354808481138 8.833044964567458 0 0 0
63 21 1 0.5897 9.929621910838831 5.422705904289186 7.357522245719471 0 0 0
136 46 2 -1.1794 5.9095239838013915 7.558942250379858 5.1213778150706295 0 0 0
25 9 2 -1.1794 2.432280683626311 5.037563157723447 6.523636054900571 0 0 0
137 46 1 0.5897 5.67154853392421 6.658763350341503 5.342745458661771 0 0 0
167 56 1 0.5897 8.58563198212457 6.484097623079942 5.155882327387419 0 0 0
132 44 1 0.5897 0.8283784929130418 7.681628362184368 5.348298650107677 0 0 0
387 129 1 0.5897 8.89618230899264 5.9600249837652655 13.589927167446582 0 0 0
454 152 2 -1.1794 1.997247585549771 7.619017577728555 11.888641132922912 0 0 0
759 253 1 0.5897 2.398433570650293 8.769445067822788 13.249419863924487 0 0 0
456 152 1 0.5897 1.9829065672903523 6.807954206790049 12.396491554859889 0 0 0
492 164 1 0.5897 8.076785496025996 7.296174776251925 12.059318375913358 0 0 0
333 111 1 0.5897 5.78422476656601 5.362474153916972 12.173567546346113 0 0 0
757 253 2 -1.1794 2.56543077859999 9.229342601162244 14.071965029737326 0 0 0
436 146 2 -1.1794 4.254438673722857 7.842565955656417 10.458627725655376 0 0 0
443 148 1 0.5897 1.2350318698904796 9.641531173519965 10.585313387775386 0 0 0
455 152 1 0.5897 2.7084325713542974 7.495956450235214 11.259990705521789 0 0 0
793 265 2 -1.1794 9.207855253578074 9.319495831256376 14.396593974677302 0 0 0
792 264 1 0.5897 4.636866824618477 8.808903975666405 14.448632709068676 0 0 0
351 117 1 0.5897 2.890180796988211 5.489783843908854 13.809949046462979 0 0 0
790 264 2 -1.1794 5.5464462977934685 9.005098777542042 14.224139254667973 0 0 0
668 223 1 0.5897 1.012581811871005 5.282368286131368 14.88061617672308 0 0 0
461 154 1 0.5897 6.014554464883373 7.801427557791067 12.961732365050617 0 0 0
462 154 1 0.5897 5.601048139077288 7.391506795867916 11.5645242196468 0 0 0
791 264 1 0.5897 6.020527056409882 8.925489719134639 15.051725352753262 0 0 0
794 265 1 0.5897 9.209995487989543 8.676100704853763 13.688095033253749 0 0 0
460 154 2 -1.1794 6.243961113141624 7.205599397621739 12.24876074541422 0 0 0
349 117 2 -1.1794 2.1367312597326342 5.249897747616039 13.27059290454436 0 0 0
490 164 2 -1.1794 8.9834503584328 7.319571545066499 12.365328651612648 0 0 0
491 164 1 0.5897 9.506002230858352 7.364057419414682 11.564694888037153 0 0 0
661 221 2 -1.1794 4.250535410321773 5.614207157407374 15.073053948129811 0 0 0
385 129 2 -1.1794 9.04620520646582 5.478517867139654 14.403302524420871 0 0 0
789 263 1 0.5897 1.2899684043883952 8.53144292522978 15.293469010811295 0 0 0
705 235 1 0.5897 7.728707541642513 5.740810248979404 15.555337024423281 0 0 0
438 146 1 0.5897 4.2826417963822845 8.798696641254532 10.427890123408554 0 0 0
667 223 2 -1.1794 0.6172873358804706 5.557958685349812 15.70754123061712 0 0 0
858 286 1 0.5897 0.444775532893342 7.270204080010638 19.044795970637793 1 0 0
675 225 1 0.5897 2.668366664924585 6.206578330914428 20.16971715012896 0 0 0
761 254 1 0.5897 4.1409584457139115 8.818745133400396 16.77437683341121 0 0 0
762 254 1 0.5897 4.852323958665064 7.7446642282428035 17.569134062718746 0 0 0
780 260 1 0.5897 2.6984561365500817 7.740761253532491 18.08896469229566 0 0 0
778 260 2 -1.1794 2.086956783611362 7.50422349238908 18.78622233725585 0 0 0
779 260 1 0.5897 2.1729083459439367 8.207571367975266 19.42949493166335 0 0 0
760 254 2 -1.1794 4.217081328544138 7.86895421139696 16.864080644067165 0 0 0
788 263 1 0.5897 0.6064454659864389 9.122410164324315 16.507915840241374 0 0 0
786 262 1 0.5897 6.673795429440414 7.575147202196428 18.891551282888983 0 0 0
109 37 2 -1.1794 2.618349464263672 9.501828699666898 20.64529795294306 0 0 -1
787 263 2 -1.1794 0.7620946056480791 8.29350515857381 16.05556572520844 0 0 0
784 262 2 -1.1794 5.780983492259478 7.328130294258424 19.132566121427303 0 0 0
704 235 1 0.5897 6.220217594600836 5.8587455944621185 15.605798437986916 0 0 0
785 262 1 0.5897 5.8199494642631455 6.380158391889734 19.25812304393692 0 0 0
814 272 2 -1.1794 8.827648618255434 7.459917888761526 19.102010284458295 0 0 0
816 272 1 0.5897 8.960337252283118 8.188880652166105 19.707780737219387 0 0 0
815 272 1 0.5897 8.909695222581837 6.677311114116595 19.64674328280916 0 0 0
825 275 1 0.5897 7.3288339498270965 7.745044672709805 16.143769086412817 0 0 0
144 48 1 0.5897 5.463033713143944 8.542368204514675 20.454054019701424 0 0 -1
703 235 2 -1.1794 7.016140159552936 6.124955536693625 16.066037115065605 0 0 0
823 275 2 -1.1794 7.414933290254042 8.69295181937704 16.24377039769449 0 0 0
669 223 1 0.5897 0.8742385366655802 6.474986950313568 15.802415785149641 0 0 0
824 275 1 0.5897 8.08791706189091 8.940979074754996 15.609979863451027 0 0 0
709 237 2 -1.1794 9.439431191210584 5.121429754434168 20.703156109960617 0 0 0
145 49 2 -1.1794 9.596576529535486 9.357100440393634 20.828042765796333 0 0 -1
663 221 1 0.5897 4.330812259934856 6.39287039748519 15.623679487906404 0 0 0
120 40 1 0.5897 0.6700619885746089 11.184629247267278 3.3763183779586745 0 0 0
123 41 1 0.5897 3.646851358474731 12.603838023487391 0.616120258874914 0 0 0
238 80 2 -1.1794 2.072736959088801 13.930641044843002 5.030577261903194 0 0 0
118 40 2 -1.1794 0.9981212572014455 10.539266262218767 4.002310838391712 0 0 0
127 43 2 -1.1794 0.2719608843678797 12.505157665739898 2.075681940331415 0 0 0
222 74 1 0.5897 4.020885789233611 14.562893207421727 2.328120892573983 0 0 0
124 42 2 -1.1794 3.8864133231681555 10.789759120585018 3.551916127169516 0 0 0
129 43 1 0.5897 0.28452590355460927 13.458939064900088 1.9977071740188967 0 0 0
119 40 1 0.5897 1.9503658741646914 10.582930078846415 3.9152892258096923 0 0 0
276 92 1 0.5897 9.566268110503252 13.867417254204486 4.149993356709829 0 0 0
240 80 1 0.5897 2.8247786347761394 14.099843313389126 4.463168919537625 0 0 0
165 55 1 0.5897 7.38350380100045 12.212813910144886 1.9912800809648017 0 0 0
285 95 1 0.5897 7.181490040643404 14.693561646294429 1.754779095975959 0 0 0
121 41 2 -1.1794 4.381805974940982 12.63182248485602 1.2286625827203583 0 0 0
122 41 1 0.5897 4.17699698750313 11.961069477166214 1.8798686446570874 0 0 0
125 42 1 0.5897 4.482721414246485 11.099213800484062 4.233592509862359 0 0 0
819 273 1 0.5897 8.259336211983083 12.467896964432388 -0.03324707109168841 0 0 1
275 92 1 0.5897 8.109582381835382 13.862591763486318 4.562260366881457 0 0 0
220 74 2 -1.1794 4.193227549358148 14.780511265696967 3.2440453310571873 0 0 0
154 52 2 -1.1794 7.670426276434355 10.68175653572061 3.1420906979454255 0 0 0
156 52 1 0.5897 8.615564507472724 10.762718538166723 3.2702120492058766 0 0 0
163 55 2 -1.1794 7.121811517855135 12.952374088184639 1.4431036092463718 0 0 0
164 55 1 0.5897 6.186022508606644 12.81965169334892 1.291659929169513 0 0 0
783 261 1 0.5897 1.2835233297471242 12.133371802439294 0.5177207108047324 0 0 1
246 82 1 0.5897 5.674588095132301 14.30602338680432 4.415751473004677 0 0 0
116 39 1 0.5897 6.597455383352879 10.986466166538792 4.566294579836632 0 0 0
781 261 2 -1.1794 1.994352160516029 12.112456325695453 -0.12291579093676908 0 0 1
274 92 2 -1.1794 8.96999549983755 13.530735907316789 4.818710518250186 0 0 0
133 45 2 -1.1794 2.064130601541005 11.790237359844575 6.768836802516331 0 0 0
134 45 1 0.5897 1.3736496046107864 11.899852331821362 7.422551485517358 0 0 0
135 45 1 0.5897 2.8655609161680444 12.05714979918425 7.219003014378926 0 0 0
434 145 1 0.5897 2.0283590103893547 10.020741355918966 7.057449083901821 0 0 0
446 149 1 0.5897 3.8006769738024535 13.071920943325823 8.7979430536467 0 0 0
453 151 1 0.5897 0.657027981611399 11.85344321557569 9.777134061038868 0 0 0
450 150 1 0.5897 4.2208458611104405 11.06830164120897 9.824179827718059 0 0 0
445 149 2 -1.1794 4.2017183323748855 12.352112591274524 8.31108772130878 0 0 0
169 57 2 -1.1794 8.997136843705302 11.919198674997213 6.92722949048534 0 0 0
239 80 1 0.5897 2.254916398706799 13.076490503663274 5.4219748790186415 0 0 0
447 149 1 0.5897 5.143257623400951 12.509147601539892 8.38250139514182 0 0 0
171 57 1 0.5897 8.982861625698241 11.008880902698557 6.632194552250729 0 0 0
117 39 1 0.5897 5.983287288828514 10.655774857661735 5.909699706195451 0 0 0
115 39 2 -1.1794 6.048405456873991 11.354200991420146 5.2586534258059885 0 0 0
451 151 2 -1.1794 0.40613412693299017 12.340716193507234 8.99253048314431 0 0 0
487 163 2 -1.1794 7.158117475649977 12.644715776415454 8.721512542149403 0 0 0
489 163 1 0.5897 7.408547080479131 13.553602973968857 8.886311590707239 0 0 0
488 163 1 0.5897 7.7059530869478 12.37478154231029 7.984584443249091 0 0 0
170 57 1 0.5897 8.866829478351262 12.431941063814373 6.129726868355659 0 0 0
573 191 1 0.5897 0.5224635806398955 14.236657766302597 9.188241041743034 0 0 0
244 82 2 -1.1794 6.197836219262683 14.129733107552521 5.1975367938391015 0 0 0
480 160 1 0.5897 7.566920307116255 11.469716618043595 9.935585421189469 0 0 0
245 82 1 0.5897 6.250155123156876 13.175102366622081 5.241011509518758 0 0 0
579 193 1 0.5897 8.996234662457029 14.840955887776474 6.1202105769165 0 0 0
544 182 2 -1.1794 4.086875118661367 14.416636305741765 10.053401426633046 0 0 0
543 181 1 0.5897 2.3537089396786834 15.016926418840235 6.618878603660458 0 0 0
457 153 2 -1.1794 2.6623807543856426 11.938784412094183 13.5441860707249 0 0 0
458 153 1 0.5897 1.9328642725535765 12.158243519735482 14.123569936371144 0 0 0
459 153 1 0.5897 3.436473641718186 12.27750001054361 13.99387471183094 0 0 0
562 188 2 -1.1794 1.8326583765564068 13.913988631383711 11.72192747189075 0 0 0
563 188 1 0.5897 2.1494627331197225 13.162733301591517 12.223155657528267 0 0 0
568 190 2 -1.1794 6.228782019402199 14.063728712161288 11.836112608763598 0 0 0
512 171 1 0.5897 -0.025268893208940053 11.158640185651475 12.362587343641009 1 0 0
811 271 2 -1.1794 7.400736525361586 13.247292872254285 15.33642890511435 0 0 0
441 147 1 0.5897 5.615142403504988 10.780703791905143 13.14468037514502 0 0 0
795 265 1 0.5897 9.212429804761431 10.16666652182817 13.951390176015105 0 0 0
479 160 1 0.5897 8.889684089356384 10.899764662523262 10.401655077079099 0 0 0
442 148 2 -1.1794 1.3244458020093264 10.518739409701748 10.95739729460745 0 0 0
775 259 2 -1.1794 0.6176608754705245 12.487952782303555 15.278624461789896 0 0 0
564 188 1 0.5897 2.1795097141962976 14.675638325976834 12.186216881009877 0 0 0
449 150 1 0.5897 4.766507130209357 10.989258586827697 11.233874840722919 0 0 0
493 165 2 -1.1794 9.377184496707452 12.25573397254659 13.583658223899787 0 0 0
546 182 1 0.5897 4.849644310171722 14.299134994991466 10.619545472937732 0 0 0
494 165 1 0.5897 8.548744305224025 12.506869764242959 13.992014051071381 0 0 0
570 190 1 0.5897 7.154104551892995 14.19250776411489 11.627682261685766 0 0 0
599 200 1 0.5897 9.101764372852283 13.710463384442432 12.485059557570024 0 0 0
569 190 1 0.5897 6.185583634407399 13.179632488097942 12.200022462638351 0 0 0
598 200 2 -1.1794 8.95704022915767 14.466246503027243 11.916017575201508 0 0 0
440 147 1 0.5897 6.670808015269715 10.767321820479301 12.059823548988343 0 0 0
439 147 2 -1.1794 5.997554619675632 11.321767391023329 12.454037385130922 0 0 0
444 148 1 0.5897 2.268190615530318 10.67803674699473 10.972318136411255 0 0 0
770 257 1 0.5897 5.696230027995859 12.623058508477177 15.194721483626976 0 0 0
545 182 1 0.5897 3.3362534691559205 14.33289835650127 10.641373863819783 0 0 0
478 160 2 -1.1794 7.944147921029263 10.761401432426883 10.457104440373284 0 0 0
769 257 2 -1.1794 4.783171440443639 12.500033463852963 15.454404383273289 0 0 0
448 150 2 -1.1794 4.114738510284456 10.599140434009849 10.651563246462466 0 0 0
812 271 1 0.5897 7.576062811484371 14.176736657126508 15.482411789447749 0 0 0
777 259 1 0.5897 0.6920934486126104 13.419378150372397 15.485636802129168 0 0 0
642 214 1 0.5897 -0.038580755024259616 14.005746617621577 11.782064263373586 1 0 0
758 253 1 0.5897 2.567302536729568 10.15599260392672 13.832663901688393 0 0 0
886 296 2 -1.1794 1.9945174924683178 14.072448698805049 18.903542116374965 0 0 0
768 256 1 0.5897 0.8951584571084502 11.358561856052532 16.74511482782163 0 0 0
888 296 1 0.5897 2.1422792865508518 13.211140158080513 19.293736298096576 0 0 0
766 256 2 -1.1794 0.9969227230832525 10.756086604876254 17.481736345937342 0 0 0
774 258 1 0.5897 3.9362964177414583 11.200173977269493 16.478449093136938 0 0 0
773 258 1 0.5897 2.911603217424918 10.545165749756844 17.379814245351106 0 0 0
767 256 1 0.5897 0.4246464008393295 11.110261656001226 18.162251718172307 0 0 0
813 271 1 0.5897 7.562641593623945 12.836323632347083 16.185461061730493 0 0 0
772 258 2 -1.1794 3.8544329219747393 10.611268200765961 17.228411628250598 0 0 0
804 268 1 0.5897 7.532260138435217 10.451629969810181 16.981347323012905 0 0 0
965 322 1 0.5897 0.14966500946635822 14.51230576406544 18.97342013996562 1 0 0
765 255 1 0.5897 5.519574028980292 10.441350353476581 19.89885232334214 0 0 0
764 255 1 0.5897 4.845513167408046 10.910580636639404 18.627302004306173 0 0 0
869 290 1 0.5897 3.4216829594380176 14.229715587611464 17.63021656883552 0 0 0
870 290 1 0.5897 4.897887987311039 14.312102397010083 17.95574825758972 0 0 0
887 296 1 0.5897 2.2556826052354366 14.692305950979788 19.584380817311363 0 0 0
818 273 1 0.5897 9.03600732678581 12.66669217824367 19.69836063397542 0 0 0
763 255 2 -1.1794 5.568453547694425 11.114663039122789 19.220460232286513 0 0 0
892 298 2 -1.1794 5.960120796462719 13.853139018681517 19.434870889771055 0 0 0
803 268 1 0.5897 7.018398203998435 11.336975714141914 18.096429318068786 0 0 0
893 298 1 0.5897 6.899289843314372 13.935667545980078 19.269313824539417 0 0 0
802 268 2 -1.1794 7.7051789591615965 11.277840136814026 17.432379266951344 0 0 0
924 308 1 0.5897 9.376937970894057 14.591646409123348 17.943952577298475 0 0 0
894 298 1 0.5897 5.8250233697571465 12.918454794884084 19.58998077522051 0 0 0
922 308 2 -1.1794 8.709695392864443 14.350653596997079 18.586450050564096 0 0 0
868 290 2 -1.1794 4.273587623283102 14.422593207871044 17.238723730111644 0 0 0
810 270 1 0.5897 9.381586321777803 10.813665844057292 17.312669341246632 0 0 0
782 261 1 0.5897 2.1604127190666946 11.180979840415624 20.748821877725923 0 0 0
923 308 1 0.5897 8.926923702557115 14.86641108581558 19.36283514911831 0 0 0
817 273 2 -1.1794 8.902078647288945 12.04467617290171 20.413288610957316 0 0 0
771 257 1 0.5897 4.663422502592206 13.09083792455221 16.19774901919181 0 0 0
252 84 1 0.5897 5.305667954856304 14.928317128492546 20.690972150364665 0 0 -1
146 49 1 0.5897 9.396752449710359 10.269352324977488 20.618712304445957 0 0 -1
230 77 1 0.5897 3.6832693217436514 19.083474280043134 0.83299773596893 0 0 0
233 78 1 0.5897 3.6433806069324004 18.01295551280673 2.928760722753595 0 0 0
254 85 1 0.5897 8.444373813462436 16.03302803195298 0.2958956295674556 0 0 0
271 91 2 -1.1794 6.98379116842928 19.415344790517413 1.8620779222387887 0 0 0
890 297 1 0.5897 1.8236429646061094 18.930039087805895 0.11845464653344034 0 0 1
927 309 1 0.5897 8.29037710223467 19.041756288605193 0.4721119678843264 0 0 1
229 77 2 -1.1794 4.104180782088123 19.38648954369698 1.6373863783388143 0 0 0
226 76 2 -1.1794 0.7853100365048138 17.357374825560946 3.6128443655963047 0 0 0
249 83 1 0.5897 1.5088364174112396 15.39732199163914 1.2294723264399328 0 0 0
234 78 1 0.5897 2.7740342786256402 17.254773476675627 3.908980499539564 0 0 0
248 83 1 0.5897 0.8785832797542675 15.873164951095994 2.5208625176461865 0 0 0
227 76 1 0.5897 0.7715603297479171 18.145842131130692 3.0705646202977714 0 0 0
232 78 2 -1.1794 3.6780125435977267 17.336731021165207 3.605115472414648 0 0 0
221 74 1 0.5897 3.9857797983362495 15.71229641560692 3.312395189842902 0 0 0
264 88 1 0.5897 8.717436283443835 17.489378718223392 3.9548973599733808 0 0 0
235 79 2 -1.1794 0.9521667142182488 19.32770311457697 1.5825011572466763 0 0 0
272 91 1 0.5897 7.498921759499325 18.86146491325241 2.4485120173462076 0 0 0