LAMMPS (30 Jul 2021)
Processor partition = 1
  using 2 OpenMP thread(s) per MPI task
using multi-threaded neighbor list subroutines
variable        pid world 0 1
variable        phase world IceIII Liquid

shell cd ${phase}
shell cd Liquid
include Restart.lmp
echo both
log log.lammps
#include		in.partitions
include		in.temp
variable        temperature equal 263.05
variable	tempDamp equal 100.0
include		in.pressure
variable        pressure equal 7000.0
variable        pressureDamp equal 1000.0 # This is 1 ps
include		in.seed
variable        seed equal 745823

units		real
atom_style	full
read_restart	restart.lmp.${pid}
read_restart	restart.lmp.1
Reading restart file ...
  restart file = 30 Jul 2021, LAMMPS = 30 Jul 2021
  restoring atom style full from restart
  orthogonal box = (0.49761997 1.6776619 0.60709520) to (17.709952 21.951516 21.606101)
  2 by 4 by 4 MPI processor grid
  restoring pair style lj/cut/tip4p/long/omp from restart
  restoring bond style harmonic/omp from restart
  restoring angle style harmonic/omp from restart
  864 atoms
  576 bonds
  288 angles
Finding 1-2 1-3 1-4 neighbors ...
  special bond factors lj:    0        0        0       
  special bond factors coul:  0        0        0       
     2 = max # of 1-2 neighbors
     1 = max # of 1-3 neighbors
     1 = max # of 1-4 neighbors
     2 = max # of special neighbors
  special bonds CPU = 0.002 seconds
  read_restart CPU = 0.008 seconds
include 	in.setup
variable	out_freq equal 1000
variable	out_freq2 equal 10000
variable	out_freq3 equal 1000

timestep	2.0

neigh_modify    delay 7 every 1

include		in.tip4p
# This is TIP4P/Ice

# create groups ###
group ox type 2
288 atoms in group ox
group hy type 1
576 atoms in group hy

# set charges - beside manually ###
set group ox charge -1.1794
Setting atom values ...
  288 settings made for charge
set group hy charge 0.5897
Setting atom values ...
  576 settings made for charge

# ### TIP3P Potential Parameters ###
pair_style lj/cut/tip4p/long/omp 2 1 1 1 0.1577 8.5
pair_coeff 1 1*2 0.000 0.000
pair_coeff 2 2 0.21084 3.1668
bond_style  harmonic
bond_coeff  1 450 0.9572
angle_style harmonic
angle_coeff 1 55 104.52
kspace_style pppm/tip4p/omp 1.0e-5
pair_modify tail yes

thermo          ${out_freq}
thermo          1000
thermo_style    custom step temp pe etotal epair emol press lx ly lz vol pxx pyy pzz pxy pxz pyz enthalpy

restart 	${out_freq3} restart.lmp.${pid} restart2.lmp.${pid}
restart 	1000 restart.lmp.${pid} restart2.lmp.${pid}
restart 	1000 restart.lmp.1 restart2.lmp.${pid}
restart 	1000 restart.lmp.1 restart2.lmp.1


include         in.dump
dump            myDump all atom ${out_freq2} dump.water.${pid}
dump            myDump all atom 10000 dump.water.${pid}
dump            myDump all atom 10000 dump.water.1
dump            myDump2 all dcd ${out_freq2} dump.dcd
dump            myDump2 all dcd 10000 dump.dcd
dump_modify     myDump append yes
dump_modify     myDump2 append yes


variable natoms 	equal  "count(all)"                        # NUMBER ATOMS
variable H      	equal  "enthalpy/v_natoms"                 # ENTHALPY-per-atom
variable Vol      	equal  "vol/v_natoms"                 # volume-per-atom
fix AVG all 		ave/time ${out_freq} 1 ${out_freq} v_Vol v_H file vol_enthalpy.dat
fix AVG all 		ave/time 1000 1 ${out_freq} v_Vol v_H file vol_enthalpy.dat
fix AVG all 		ave/time 1000 1 1000 v_Vol v_H file vol_enthalpy.dat


timer           timeout 23:50:00 every 1000
New timer settings: style=normal  mode=nosync  timeout=23:50:00

fix 		1 all shake 1e-6 200 0 b 1 a 1
Finding SHAKE clusters ...
       0 = # of size 2 clusters
       0 = # of size 3 clusters
       0 = # of size 4 clusters
     288 = # of frozen angles
  find clusters CPU = 0.000 seconds
fix             2 all nph iso ${pressure} ${pressure} ${pressureDamp}
fix             2 all nph iso 7000 ${pressure} ${pressureDamp}
fix             2 all nph iso 7000 7000 ${pressureDamp}
fix             2 all nph iso 7000 7000 1000
fix             3 all temp/csvr ${temperature} ${temperature} ${tempDamp} ${seed}
fix             3 all temp/csvr 263.05 ${temperature} ${tempDamp} ${seed}
fix             3 all temp/csvr 263.05 263.05 ${tempDamp} ${seed}
fix             3 all temp/csvr 263.05 263.05 100 ${seed}
fix             3 all temp/csvr 263.05 263.05 100 745823

run             250000
PPPM initialization ...
  extracting TIP4P info from pair style
  using 12-bit tables for long-range coulomb (../kspace.cpp:340)
  G vector (1/distance) = 0.37467711
  grid = 24 24 25
  stencil order = 5
  estimated absolute RMS force accuracy = 0.0030261181
  estimated relative force accuracy = 9.1130647e-06
  using double precision FFTW3
  3d grid and FFT values/proc = 3822 576
Last active /omp style is kspace_style pppm/tip4p/omp
Neighbor list info ...
  update every 1 steps, delay 7 steps, check yes
  max neighbors/atom: 2000, page size: 100000
  master list distance cutoff = 10.8154
  ghost atom cutoff = 10.8154
  binsize = 5.4077, bins = 4 4 4
  1 neighbor lists, perpetual/occasional/extra = 1 0 0
  (1) pair lj/cut/tip4p/long/omp, perpetual
      attributes: half, newton on, omp
      pair build: half/bin/newton/omp
      stencil: half/bin/3d
      bin: standard
Setting up Verlet run ...
  Unit style    : real
  Current step  : 20000000
  Time step     : 2
  Walltime left : 23:49:59.96
Per MPI rank memory allocation (min/avg/max) = 10.20 | 10.21 | 10.22 Mbytes
Step Temp PotEng TotEng E_pair E_mol Press Lx Ly Lz Volume Pxx Pyy Pzz Pxy Pxz Pyz Enthalpy 
20000000     268.7915   -3839.6881   -3378.9887   -3839.6881            0    5965.9449    17.212332    20.273854    20.999005    7327.8196     5467.117     7265.173    5165.5446    256.46406   -84.358942   -5.6817598   -2741.4157 
20001000    265.77815   -3871.0783   -3415.5436   -3871.0783            0    5467.1756    17.207432    20.268082    20.993027    7321.5626    5845.3248    6363.4053    4192.7967   -556.23425    53.033408   -1048.1493   -2831.7724 
20002000    249.00016   -3839.3671   -3412.5893   -3839.3671            0    6825.6652    17.165671    20.218893    20.942079    7268.3854    7020.0998    6723.9074    6732.9883    -436.7195    2656.5107    70.984018   -2689.0555 
20003000    268.53486   -3872.4559   -3412.1963   -3872.4559            0    6724.8225    17.103173    20.145279    20.865831    7189.2843    4955.2772    7435.7698    7783.4205   -1157.8415   -1142.0756      530.852   -2707.1099 
20004000    250.87352    -3894.759   -3464.7703    -3894.759            0     8165.209    17.059017    20.093269    20.811961    7133.7452    7973.5635    8353.8993    8168.1643   -1243.8118   -601.97612   -727.55193   -2615.2754 
20005000    268.63904   -3865.0764   -3404.6383   -3865.0764            0    8166.6292    17.109611    20.152862    20.873686    7197.4061    6813.4335    9989.0112    7697.4428   -312.08679    2029.3556   -293.92095   -2547.4135 
20006000    276.89139   -3864.9838   -3390.4015   -3864.9838            0     8048.928    17.083025    20.121547    20.841251     7163.907    8801.6642    5639.8463    9705.2735   -472.95493   -1246.0801   -109.11669   -2549.4637 
20007000    264.11665   -3872.5147   -3419.8278   -3872.5147            0    8704.4233    17.028701    20.057561    20.774976    7095.7805    7885.3394    10877.729    7350.2019   -255.95548   -1373.3044    1695.4162   -2519.0534 
20008000     266.7828    -3859.729   -3402.4724    -3859.729            0     7159.085    17.056874    20.090745    20.809347    7131.0576    8676.8326    4839.8996    7960.5229    1994.2933    312.02469    1350.2585   -2657.9336 
20009000    276.26146   -3857.4489   -3383.9462   -3857.4489            0    7205.6262    17.072228    20.108829    20.828078    7150.3317    7896.9307    7733.5011    5986.4468    1439.0994   -137.73842    602.46146   -2632.5417 
20010000    272.16317   -3889.9663   -3423.4879   -3889.9663            0    7340.7448    17.070131     20.10636     20.82552    7147.6973    7214.6536    7756.6914    7050.8893   -389.09341    52.516983    1487.3644   -2658.2752 
20011000    276.57004   -3882.3506    -3408.319   -3882.3506            0    9873.6619    16.958932    19.975382    20.689858      7008.92    9650.2744    11460.611    8510.1005   -407.75796    31.821317   -28.846614    -2399.054 
20012000    275.27449   -3849.9135   -3378.1025   -3849.9135            0    6617.7734    17.059553      20.0939    20.812614    7134.4171    7746.1235    6901.1071    5206.0897   -930.24594   -148.11429    112.26276   -2689.5353 
20013000    262.34753   -3836.2347   -3386.5801   -3836.2347            0    6141.0368    17.034005    20.063808    20.781447     7102.413    6816.5918    5421.1454    6185.3733   -129.22848   -2633.0018    1599.4214   -2750.4828 
20014000    267.31814   -3899.4617   -3441.2875   -3899.4617            0    4691.7403    17.048849    20.081292    20.799556    7120.9967    3336.3304    6706.3028    4032.5877    624.91155   -326.10501   -391.80068   -2954.0389 
20015000    268.93477    -3864.814    -3403.869    -3864.814            0    8053.3668    17.001274    20.025255    20.741514    7061.5487     7443.619    8207.8064     8508.675    -449.4013   -219.96772   -275.62765   -2574.4894 
20016000     256.6382   -3828.2983   -3388.4292   -3828.2983            0    8390.6196    17.104639    20.147006     20.86762    7191.1334     10687.43    6127.8431    8356.5853   -481.13066    73.173617    243.55221   -2508.4604 
20017000     273.5423   -3868.6766   -3399.8344   -3868.6766            0    8937.1861    17.057652    20.091661    20.810296    7132.0333    8828.8653    8512.3972    9470.2958   -126.00005    831.94192       659.76   -2470.2474 
20018000    250.54026   -3866.4065   -3436.9891   -3866.4065            0    6479.4525    17.102674    20.144691    20.865223    7188.6553    5590.6732    7282.1246    6565.5598    804.08048    236.01435   -1392.5614   -2757.6887 
20019000    255.05174   -3852.6172   -3415.4673   -3852.6172            0     5749.777    17.190993    20.248719    20.972971    7300.5987    5369.9723    4959.6304    6919.7283    622.03653   -1128.5786   -359.04649   -2803.2785 
20020000    265.86271   -3891.3914   -3435.7118   -3891.3914            0    7182.5175    17.117924    20.162654    20.883828    7207.9023    6643.1748    9562.9278    5341.4498    1261.0798    31.719786   -705.19323   -2680.6866 
20021000    264.25536   -3888.7073   -3435.7827   -3888.7073            0    7306.6757    17.129337    20.176096    20.897751    7222.3282     9810.909    5967.2439     6141.874   -1.9360211   -89.386741    58.476023   -2666.1687 
20022000    266.81811   -3841.4063   -3384.0892   -3841.4063            0    7912.6698    17.107611    20.150506    20.871246    7194.8823    8451.1853    6224.5428    9062.2814   -376.53516   -505.78003    378.99445   -2553.8129 
20023000    239.74597   -3845.3063   -3434.3899   -3845.3063            0    5626.7577    17.165135    20.218262    20.941425    7267.7046    5019.8519    5923.1502    5937.2709   -348.08138    36.136582   -92.675233   -2837.9985 
20024000    279.94567   -3821.6055   -3341.7882   -3821.6055            0    6864.6603    17.076903    20.114336    20.833782    7156.2075    6496.2181    6562.5383    7535.2246   -470.46679    697.61825    797.88806   -2625.3515 
20025000    264.27196   -3858.7063   -3405.7532   -3858.7063            0     6261.911    17.018117    20.045094    20.762063    7082.5575    6588.1858    8193.0767    4004.4705   -129.08574   -1111.3649    7.5353923   -2758.9489 
20026000    277.27034   -3858.5558   -3383.3239   -3858.5558            0    8289.8799    17.023099    20.050962    20.768141    7088.7796    9240.1566    7953.4396    7676.0433    271.13344    -590.4531    -1253.305   -2526.2947 
20027000    269.10844   -3856.6242   -3395.3815   -3856.6242            0    8102.5446    17.061601    20.096312    20.815113    7136.9872    8270.2936    8196.7301    7840.6102    245.31653    2438.5868    8.5426813    -2552.023 
20028000    269.39416   -3879.7197   -3417.9873   -3879.7197            0    6610.5614    17.071356    20.107803    20.827015    7149.2367    8168.8391    5220.4563    6442.3886    1730.4096    441.00937   -553.88614   -2728.7419 
20029000    253.54282   -3846.0343   -3411.4706   -3846.0343            0     7600.176    17.037946     20.06845    20.786255    7107.3439    6632.7851    9707.7815    6459.9614    486.31245    309.33089   -1357.5181   -2623.6871 
20030000    275.47174   -3838.9517   -3366.8026   -3838.9517            0    7405.8598    17.087637     20.12698    20.846878    7169.7109    9613.6584    5245.2421     7358.679    1068.3851   -836.29749   -1140.0581   -2592.4246 
20031000    271.94915   -3843.0401   -3376.9285   -3843.0401            0    7983.5024    17.130184    20.177094    20.898785    7223.4006    7612.2253     8254.385     8083.897    24.717222   -127.47028   -580.92825   -2535.8994 
20032000    258.59626   -3822.8483   -3379.6232   -3822.8483            0    8322.7527    17.061682    20.096408    20.815213    7137.0895    9782.2119     9640.933    5545.1132     1389.053    231.06784   -226.84169   -2513.3317 
20033000     267.1025   -3853.6221   -3395.8175   -3853.6221            0    8709.2476    17.043211    20.074651    20.792677    7113.9339    9300.6021    8324.3387    8502.8021    427.10421    64.199465   -240.88692   -2492.2381 
20034000    253.76796   -3862.7222   -3427.7726   -3862.7222            0    7016.6837    17.054196     20.08759    20.806079    7127.6986    8068.5837    5293.7348    7687.7325     735.3989   -85.308233    1423.6566   -2698.3871 
20035000    261.23446   -3880.4259    -3432.679   -3880.4259            0    8552.8405    17.053778    20.087098     20.80557    7127.1749    9571.4635    8348.7553    7738.3027    1261.2255    838.20274    -1625.682   -2543.6751 
20036000    257.08149   -3861.0198   -3420.3909   -3861.0198            0    6626.7454    17.051192    20.084052    20.802415    7123.9333    5825.0533    8244.9031    5810.2799   -1539.4119   -384.85114    439.49821   -2731.9035 
20037000     258.5935   -3818.4233   -3375.2029   -3818.4233            0    9590.7006    16.916703    19.925642    20.638339    6956.6924    8406.6883    9945.5379    10419.875    321.22088    1289.5383    1581.7352   -2402.1666 
20038000    264.36164   -3868.1955   -3415.0887   -3868.1955            0    6624.5165    17.055635    20.089285    20.807835     7129.503     7317.709    6093.5926    6462.2479    1690.4302     148.6678   -617.33511   -2726.2947 
20039000    273.14669   -3851.9419   -3383.7778   -3851.9419            0    6877.9613    17.097251    20.138303    20.858606    7181.8188    7182.6893    7598.8323    5852.3622   -203.21411    -1086.685   -773.41776   -2663.3838 
20040000    257.62529   -3844.3294   -3402.7684   -3844.3294            0    7694.7814    17.088248    20.127698    20.847622     7170.479    7375.8159    6673.2487    9035.2796    2081.2417   -388.47739    348.62478   -2598.0937 
20041000    256.02466   -3828.6866   -3389.8691   -3828.6866            0    7915.1221    17.034143    20.063971    20.781615    7102.5858    7741.2172     8699.067    7305.0821   -533.29383   -2421.2917    425.90378   -2569.9897 
20042000     251.7581   -3808.4923   -3376.9875   -3808.4923            0    8454.2143     17.05705    20.090952    20.809562    7131.2782    8517.4459    9890.6736    6954.5233   -1057.4734   -273.30367   -552.65576   -2497.7291 
20043000    256.09835   -3835.2824   -3396.3386   -3835.2824            0    6971.7152    17.305452    20.383536    21.112611    7447.3955    5330.9284    9492.0352    6092.1819    1528.0211    861.22645    275.15385   -2639.1223 
20044000    279.73814   -3877.8404   -3398.3788   -3877.8404            0    5376.2451    17.225074    20.288862     21.01455    7344.1051    4322.9971    6180.8223    5624.9158   -153.92972     363.2485    939.88331   -2822.5494 
20045000     259.0436   -3867.7193   -3423.7274   -3867.7193            0    5835.4826    17.181322    20.237328    20.961173    7288.2846    5948.1427    7056.4818    4501.8233   -207.17953   -1743.6022     898.7426   -2803.4614 
20046000    272.61144   -3832.9624   -3365.7157   -3832.9624            0    6340.5795    17.143473    20.192747    20.914997    7240.2245    5359.1955    7501.6957    6160.8474    161.71266     1184.288   -180.23028    -2696.206 
20047000     251.5443    -3855.399   -3424.2606    -3855.399            0    5933.1185    17.202715    20.262526    20.987272     7315.543    5907.1141    6107.6003    5784.6411   -446.93278    1022.6649   -1387.4956   -2791.2581 
20048000    254.56086   -3827.8856    -3391.577   -3827.8856            0    6604.9288    17.090737    20.130631     20.85066    7173.6137    5490.5636    6004.7735    8319.4494     320.0617    185.53953    822.63184   -2700.5707 
20049000    275.64896   -3873.8625   -3401.4096   -3873.8625            0    6974.5867     17.10243    20.144403    20.864924    7188.3468    8469.2689    6498.3873    5956.1041    1342.9193    157.47339    9.7819228   -2670.2311 
20050000    258.81793   -3855.9778   -3412.3727   -3855.9778            0    7242.3405     17.00031     20.02412    20.740339    7060.3482    8576.7608    6508.1429    6642.1176   -906.56903   -140.46052     579.7009   -2666.6438 
20051000    259.79916   -3836.1609    -3390.874   -3836.1609            0     7547.199    17.100906    20.142608    20.863065    7186.4253    8297.9769    6578.6674    7764.9527    453.68481   -1332.8075   -327.94266   -2599.8774 
20052000    253.69796   -3858.9362   -3424.1066   -3858.9362            0    5564.9285     17.14201    20.191024    20.913212    7238.3707    5406.3356    4426.4253    6862.0247    549.49839   -825.30374   -800.27833   -2836.6493 
20053000    263.01834   -3878.4963   -3427.6918   -3878.4963            0    6452.0814    17.062908    20.097851    20.816707    7138.6273    5516.2839    6896.5926    6943.3678   -1127.6951    114.61819     1486.105   -2755.9685 
20054000     268.4899   -3859.8729   -3399.6904   -3859.8729            0    8176.4981    17.044146    20.075753    20.793819    7115.1055     8412.706    6499.4361    9617.3522     905.7673   -930.97762   -918.45931   -2551.2437 
20055000    247.93843   -3865.4236   -3440.4656   -3865.4236            0     6837.123    17.128311    20.174888    20.896499     7221.031    7315.4521     5515.356    7680.5608   -161.26685    -1348.622    436.41566   -2720.4391 
20056000    265.20137   -3858.2661     -3403.72   -3858.2661            0    6079.5739    17.088218    20.127664    20.847587    7170.4424    6458.1692    5544.7632    6235.7894     291.4475    129.16924    1435.9037   -2767.9574 
20057000    277.55935   -3912.0043   -3436.2771   -3912.0043            0    6417.2284    17.061364    20.096033    20.814824    7136.6902    6413.2875    6024.1057    6814.2918   -898.66127   -2885.2962    593.62418   -2768.3636 
20058000    247.38882   -3855.0771   -3431.0611   -3855.0771            0    5562.2992      17.0789    20.116689    20.836219    7158.7188    5820.4303    4776.4554     6090.012    218.55401    943.85104    698.38935   -2850.3428 
20059000    272.18951    -3849.363   -3382.8395    -3849.363            0    9613.0226    17.015869    20.042447    20.759321    7079.7517    10155.237    9435.9324    9247.8986   -997.39589   -562.09709    -424.5106   -2390.2861 
20060000    255.54872   -3863.6532   -3425.6514   -3863.6532            0    6293.3558    17.089909    20.129655    20.849649    7172.5705    4154.2942    7291.9777    7433.7953     386.6972   -1563.5492   -223.28272   -2767.3376 
20061000    272.96154   -3869.8859   -3402.0392   -3869.8859            0    6583.8517    17.112479     20.15624    20.877184    7201.0256    7574.8379    5262.2777    6914.4396    -826.3332   -477.23167   -443.81554   -2710.6059 
20062000    261.81813   -3835.7915   -3387.0442   -3835.7915            0    6057.6028    17.079531    20.117432    20.836988    7159.5119       5259.1    6249.5328    6664.1756    -79.24562   -659.58527    3529.2593   -2754.5449 
20063000    259.74026   -3825.2653   -3380.0793   -3825.2653            0    6758.0118    17.123495    20.169215    20.890623    7214.9411     8344.403    6095.0311    5834.6012    479.97019   -512.35924    348.08371   -2668.9843 
20064000    264.91395   -3826.3679   -3372.3145   -3826.3679            0    9180.8805     17.05482    20.088326    20.806841    7128.4818    7073.2906    7868.5666    12600.784    836.56595   -703.47795    636.94847   -2417.8555 
20065000    258.27669    -3874.635   -3431.9576    -3874.635            0    5449.5305    17.137198    20.185355    20.907341    7232.2766     5981.473     5730.589    4636.5295    950.39032   -2746.2308    807.80274   -2857.1665 
20066000    263.38066   -3832.9585   -3381.5331   -3832.9585            0    6671.3533     17.13954    20.188114    20.910199    7235.2423    8120.3242    5951.7009    5942.0346   -373.24067    159.82297   -512.02797   -2677.5813 
20067000    264.49546   -3898.8674   -3445.5312   -3898.8674            0    7207.7575     17.04683    20.078915    20.797093    7118.4676    6151.9556     7106.386     8364.931    1192.0956   -986.89391    989.07932   -2697.2539 
20068000    251.94039   -3847.8482    -3416.031   -3847.8482            0    7251.0969    17.103101    20.145194    20.865744    7189.1941    6822.9729    8528.7673    6401.5507   -1227.4804   -1293.9625     204.7748   -2655.7751 
20069000    250.80866     -3870.52   -3440.6425     -3870.52            0     8367.147    16.945502    19.959563    20.673473    6992.2819     8471.939    8685.4164    7944.0857    95.962027    351.51794   -465.89059   -2587.4005 
20070000     250.9598   -3836.9791   -3406.8426   -3836.9791            0    6208.2699    17.121996     20.16745    20.888795     7213.047    9012.7301    6860.5617     2751.518   -1847.3295    747.17296   -20.877235   -2753.7643 
20071000    263.88096   -3870.8755   -3418.5926   -3870.8755            0    5281.4673     17.15446    20.205688    20.928401    7254.1532    5318.1456    5815.4944    4710.7619    186.01746    355.29054   -395.72999    -2859.843 
20072000    282.40212   -3826.2156    -3342.188   -3826.2156            0    4814.5326    17.161848     20.21439    20.937414      7263.53    6475.7261    3775.3074    4192.5643    422.50387    1899.9751    150.55226   -2832.1791 
20073000    257.95647   -3869.9877   -3427.8592   -3869.9877            0    7467.1779     17.09046    20.130305    20.850322     7173.265    8087.3319    7761.1346    6553.0671    235.34922    1407.1995    142.70571   -2646.6825 
20074000     266.6095   -3869.2951   -3412.3355   -3869.2951            0    5399.4413    17.168674    20.222431    20.945743    7272.2011       4638.5    5413.9512    6145.8726    126.08448   -102.17439    -2483.072   -2839.6838 
20075000    267.12241   -3845.0675   -3387.2289   -3845.0675            0    7132.9938    17.124916    20.170889    20.892358     7216.738    7736.7083    6713.1954    6949.0777    -798.8483    864.45665    98.112647   -2636.4904 
20076000    255.95579   -3844.7614    -3406.062   -3844.7614            0    6316.4269    17.140968    20.189796    20.911941    7237.0507     7438.276    4510.6204    7000.3841    650.12898    1492.2434    642.23539   -2739.3949 
20077000    256.25238   -3855.0992   -3415.8914   -3855.0992            0    7627.4027     17.06848    20.104415    20.823506    7145.6238    7886.7644    6688.7957     8306.648   -695.08604    368.70003    859.86011   -2621.0276 
20078000    283.06265   -3843.2798   -3358.1201   -3843.2798            0    7179.0532    17.133168    20.180609    20.902425    7227.1754    6572.1587    7093.2329     7871.768   -136.36867   -595.86617    1614.7539   -2601.4411 
20079000    264.53655   -3872.4232   -3419.0166   -3872.4232            0    7335.8357    17.099678    20.141162    20.861567    7184.8774    7025.7862    7816.2376    7165.4832   -1094.2661   -168.77868    91.033386   -2650.3379 
20080000    276.18964     -3841.35   -3367.9704     -3841.35            0    6666.0728    17.173124    20.227671    20.951171    7277.8566    6366.2677    6447.2847     7184.666    403.00211    200.97192   -474.32181   -2660.4329 
20081000    277.51662   -3885.5395   -3409.8855   -3885.5395            0    6461.7989    17.077758    20.115343    20.834825    7157.2827    6297.5861     5811.714    7276.0965   -368.27997   -654.05334   -400.87426   -2735.3924 
20082000    257.60431    -3868.576   -3427.0511    -3868.576            0    4919.1404    17.138498    20.186887    20.908928    7233.9228     5820.109    3582.1275    5355.1847    47.699318   -73.087883    670.59709    -2908.085 
20083000    246.29229   -3842.0813   -3419.9447   -3842.0813            0    4983.4352    17.103979    20.146228    20.866815    7190.3009    4409.2044    5035.8396    5505.2615    667.79972    1195.4482    182.46921    -2897.366 
20084000    266.15468   -3800.9914   -3344.8114   -3800.9914            0    5507.7536    17.124404    20.170286    20.891733    7216.0906    5680.9869    4805.5393    6036.7345    250.02446    490.28931    1375.1359   -2765.1794 
20085000    269.59212   -3861.2456   -3399.1739   -3861.2456            0    6872.2053     17.08919    20.128809    20.848772     7171.666    6240.8474    5292.5199    9083.2486    295.93439   -736.69028    1144.7297   -2680.4004 
20086000     264.6438   -3832.5435   -3378.9531   -3832.5435            0    6576.4544    17.089747    20.129464    20.849451    7172.3663     7039.249    7046.2368    5643.8773   -1152.2136    -88.55825    579.85595   -2691.0454 
20087000    263.29297   -3896.8678   -3445.5927   -3896.8678            0    6670.0464    17.147967     20.19804     20.92048    7245.9197     5759.448    7039.1843    7211.5068    -540.2018   -1165.8269    130.82031   -2740.7402 
20088000    279.22537    -3842.317   -3363.7343    -3842.317            0    6464.7624    17.170159    20.224179    20.947554     7274.088    8125.4598    5419.8417    5848.9856    1067.0554   -123.57689    909.20611   -2677.9193 
20089000    240.95019   -3832.4496   -3419.4692   -3832.4496            0    5219.7798     17.11783    20.162543    20.883713    7207.7831    5603.7153    4436.5913    5619.0327    244.27375    2113.4014    1759.4484   -2870.7758 
20090000    259.24828   -3829.1117    -3384.769   -3829.1117            0    5761.6864    17.106656    20.149381    20.870081    7193.6776    2917.0084     8720.174    5647.8769   -879.67141   -1033.3565   -2113.4354   -2780.2966 
20091000    244.47292   -3829.6184   -3410.6002   -3829.6184            0     8371.055    17.077165    20.114644    20.834101    7156.5363    8606.0324    8560.9855    7946.1472   -1003.1362    751.40782   -1840.1879    -2536.907 
20092000    272.91379   -3856.4948   -3388.7299   -3856.4948            0    6911.5335    17.093115    20.133431     20.85356    7176.6076    7309.9975    6069.3154    7355.2876    1580.3045   -604.90073   -503.85355   -2665.3449 
20093000    264.09281   -3870.9874   -3418.3413   -3870.9874            0    7721.2177     17.08296     20.12147    20.841171    7163.8248    8790.5844    8051.0427    6322.0259    605.08369    4.8255294     554.5595   -2611.6514 
20094000    262.80672   -3851.4897    -3401.048   -3851.4897            0     8417.798    17.063868    20.098982    20.817879    7139.8326    9853.5859    7308.4132    8091.3951     844.8381    989.60469    301.29396   -2524.5268 
20095000    243.54575   -3852.3083   -3434.8792   -3852.3083            0    8123.0966    16.982231    20.002825    20.718283    7037.8474    8804.4435    6690.4816    8874.3648   -67.841258    1118.1972     129.1658   -2601.1263 
20096000     271.3571   -3839.1136   -3374.0168   -3839.1136            0     8166.659    17.007962    20.033133    20.749674    7069.8861    8031.7871    8241.5113    8226.6787   -1499.0652   -16.076334     388.6104   -2531.9768 
20097000    258.94936   -3833.3197   -3389.4893   -3833.3197            0     7309.249    17.062632    20.097526    20.816371    7138.2809    8963.9238     7637.574    5326.2493   -1349.7976   -349.93885   -1092.8882   -2628.5636 
20098000    260.60014   -3895.4859   -3448.8262   -3895.4859            0    7154.8303    17.071066    20.107461     20.82666    7148.8717    9570.6103    6509.9727    5383.9078    450.92283     -18.9182   -216.56996    -2702.871 
20099000    264.62241   -3848.0391   -3394.4853   -3848.0391            0    7999.2299    17.117133    20.161722    20.882863    7206.9033    7410.9966    6923.2218    9663.4714    765.36505   -472.76151   -169.36282   -2553.7239 
20100000    264.73499   -3913.1729   -3459.4262   -3913.1729            0    8118.9248    17.153866    20.204988    20.927676       7253.4    7589.0661    8272.8601    8494.8482   -1166.8768    1765.9865    595.10665   -2600.5787 
20101000    255.48933   -3922.4727   -3484.5727   -3922.4727            0    4747.2947     17.20447    20.264593    20.989413    7317.7819    4484.2772    4550.2809     5207.326    370.24592    1078.4676    789.31721   -2977.9303 
20102000    261.31347   -3855.0075   -3407.1251   -3855.0075            0    7352.6538    17.102523    20.144513    20.865038    7188.4645    6288.8612    9044.3167    6724.7837   -938.18961    787.31049    330.64786   -2636.2995 
20103000    270.45477   -3885.0602     -3421.51   -3885.0602            0     7285.337    17.119317    20.164294    20.885527    7209.6619    7672.1149    6307.8845    7876.0116     -624.582    547.05448    183.66646   -2655.4894 
20104000    245.71826   -3855.4065   -3434.2538   -3855.4065            0    6064.5832    17.151658    20.202387    20.924982     7250.599    4740.7175    6240.9815    7212.0505    2212.5683    176.07451   -452.79323   -2792.9694 
20105000    283.61081   -3869.6758   -3383.5765   -3869.6758            0    6864.2126    17.093235    20.133573    20.853707    7176.7596    5579.6632    7990.2749    7022.6996    926.98352   -1849.8416   -1232.5404   -2665.1291 
20106000    249.13851   -3874.3438   -3447.3289   -3874.3438            0    4887.6894    17.167205      20.2207     20.94395     7270.334    6608.9146    3142.9378    4911.2157   -1293.8129    1264.8752   -100.49247   -2929.0855 
20107000    255.76565   -3883.6199   -3445.2463   -3883.6199            0    5283.7359    17.128501    20.175112    20.896731    7221.2713    5199.4019    6200.6794    4451.1265    551.52933   -1831.3362    244.16382   -2888.7905 
20108000    261.69931   -3846.0252   -3397.4816   -3846.0252            0    7260.0141    16.998597    20.022103    20.738249    7058.2146    6016.7411    10224.899    5538.4022    403.62768    688.69426    642.63011   -2650.1588 
20109000    274.38612   -3869.9898   -3399.7014   -3869.9898            0    7843.6509    16.996059    20.019113    20.735152    7055.0531    5760.0364       8618.5    9152.4164    1167.6079   -529.32691   -1280.3025   -2592.6625 
20110000    265.84049   -3875.0127   -3419.3712   -3875.0127            0    8900.0157    17.029862    20.058928    20.776392    7097.2317    10117.329    8905.4798    7677.2379    498.37896   -1922.3327   -1250.6105   -2498.1675 
20111000    277.28299   -3862.2577   -3387.0042   -3862.2577            0     5617.339    17.084799    20.123637    20.843415    7166.1389    5534.9518    3049.0879    8267.9773    724.46402   -1804.1971    398.72687   -2799.9317 
20112000    263.64215   -3866.3285   -3414.4549   -3866.3285            0    8347.9252    17.064389    20.099596    20.818515    7140.4868    8271.8941    7617.3894    9154.4921   -553.32234    893.14198     74.26998   -2545.1297 
20113000    265.50207   -3868.7544   -3413.6929   -3868.7544            0    5755.5487    17.096685    20.137636    20.857916    7181.1055    5289.3562    5271.0667    6706.2233    173.77756   -1136.0723    1733.3895   -2810.9197 
20114000    277.04695   -3843.4605   -3368.6115   -3843.4605            0    6066.7967    17.076327    20.113657    20.833079    7155.4831    6388.1369    7341.5691    4470.6839    1651.3485    -420.8839   -315.27874   -2735.5086 
20115000    275.74497   -3872.8092   -3400.1918   -3872.8092            0    6140.6271    17.126331    20.172556    20.894084    7218.5271    6157.2173     6603.579    5661.0849   -1175.2681    124.29733   -63.884908   -2753.7384 
20116000     256.4841   -3870.4962   -3430.8913   -3870.4962            0    8110.5695    17.051008    20.083835     20.80219    7123.7026    7514.4956    8997.3375    7819.8755    772.82256    901.62044    -89.08232   -2588.2688 
20117000    245.05734   -3861.3716   -3441.3517   -3861.3716            0    7986.9852    17.014478    20.040807    20.757623    7078.0146    7142.2683    10087.541    6731.1458   -817.38989     65.50283    567.63442   -2616.8905 
20118000    257.82517   -3863.5729   -3421.6694   -3863.5729            0    4901.1511    17.057871    20.091919    20.810563    7132.3081    4331.2615    4975.8713    5396.3206   -26.154183    409.38223    369.46719   -2911.8644 
20119000    270.80898   -3870.9217   -3406.7644   -3870.9217            0    7715.9651    17.112972    20.156821    20.877786    7201.6483    7960.9639    7939.2544    7247.6769   -155.87055    1127.2744    616.10089   -2596.3669 
20120000    266.49527   -3908.1782   -3451.4145   -3908.1782            0     6895.291    17.116867    20.161409    20.882538    7206.5674    8675.7902    6193.0555    5817.0272    1727.6392   -624.62584    176.84377   -2726.7167 
20121000    262.25904   -3895.6839   -3446.1809   -3895.6839            0    6892.6409    17.178083    20.233513    20.957221    7284.1635    6344.1923    7576.4466    6757.2839   -1273.7606   -1237.3756     1505.907   -2713.9615 
20122000    286.89693   -3882.7938   -3391.0623   -3882.7938            0    7795.3894    17.091158    20.131127    20.851173    7174.1436    7130.0577    8433.2568    7822.8536   -55.424843   -67.532184   -535.00515     -2575.45 
20123000    263.77716   -3914.1703   -3462.0653   -3914.1703            0    6608.1866    17.121658    20.167052    20.888383    7212.6203    5973.0211    6042.2543    7809.2844   -947.40581    356.66473    1362.2119   -2766.9589 
20124000    262.58351   -3850.5217   -3400.4626   -3850.5217            0    6620.5379     17.06319    20.098184    20.817052    7138.9816    6147.2013    7064.2599    6650.1527    784.31611    78.666975    571.04154   -2711.1671 
20125000    278.88782   -3854.6687   -3376.6645   -3854.6687            0    7814.3216     17.06123    20.095875     20.81466    7136.5213    8263.7772    7788.3455     7390.842    1008.3732    1809.5025     1294.106   -2563.3589 
20126000     270.7183    -3856.857   -3392.8551    -3856.857            0    8189.2463    17.046232    20.078209    20.796363    7117.7177    10697.779    5474.1113    8395.8485    355.10539    926.72427     136.3935   -2542.7736 
20127000    264.82176   -3851.5534    -3397.658   -3851.5534            0    8414.8288    17.115699    20.160032    20.881113    7205.0915    8039.2902    7793.8274    9411.3689    189.82478   -1374.2121    738.37051   -2513.4373 
20128000    272.51767   -3872.9672   -3405.8813   -3872.9672            0    8261.7958    17.048067    20.080371    20.798602     7120.017    10682.396    6848.8768    7254.1143   -563.90862   -890.92321    946.11101   -2547.9917 
20129000    265.34701   -3828.8281   -3374.0324   -3828.8281            0    7449.8424    17.049555    20.082123    20.800417     7121.881    8581.5446    7758.4909    6009.4918    37.349391    -489.6804    -170.3192   -2600.2521 
20130000    259.31762   -3900.1205   -3455.6589   -3900.1205            0    7842.0572    17.062895    20.097837    20.816692    7138.6115    7301.7282    8825.1393    7399.3042   -1923.5268     305.7613   -982.08468   -2639.2276 
20131000    257.10495    -3923.693   -3483.0239    -3923.693            0    8029.0894    17.024616    20.052749    20.769992    7090.6752    9072.9331    7558.6751    7455.6599    663.74045    127.09663   -1487.6422    -2652.734 
20132000    270.44215   -3897.9158   -3434.3872   -3897.9158            0    6106.9173    17.115709    20.160045    20.881126    7205.1049    4747.3996    6387.0421      7186.31    372.03021   -1611.9652    593.10384    -2792.678 
20133000    266.65469   -3912.0596   -3455.0226   -3912.0596            0    7202.2978    17.060176    20.094634    20.813375    7135.1999    7168.5414    9201.1863    5237.1659    933.40362    322.11196    15.253437   -2705.5545 
20134000    259.73514   -3928.7845   -3483.6073   -3928.7845            0     6370.627     17.09769    20.138821    20.859142    7182.3723    5997.2525    6403.4644    6711.1641   -591.94678     -741.032     1193.592   -2816.2999 
20135000    260.31856   -3926.6155   -3480.4384   -3926.6155            0     6900.656    17.102172    20.144099    20.864609    7188.0214    6626.7783    6298.0809    7777.1087   -358.85859    895.81687    -820.4156   -2757.0432 
20136000    266.67634   -3905.6896   -3448.6155   -3905.6896            0    7254.2288    17.098016    20.139205     20.85954    7182.7835    7119.8844    7644.2305    6998.5716   -1876.1068    -113.5286   -1019.7017   -2688.7094 
20137000    252.05978   -3875.5951   -3443.5732   -3875.5951            0    7602.3664     17.06905    20.105086    20.824201    7146.3393     7720.443    8376.9367    6709.7196    183.33845   -1176.5944   -1064.6433   -2651.2392 
20138000    270.21864   -3862.0494   -3398.9039   -3862.0494            0    7779.1856    17.064273    20.099459    20.818373    7140.3408     6745.516    8525.1849     8066.856    -457.2813   -957.43954   -256.82204   -2588.8219 
20139000    244.89164   -3875.1325   -3455.3966   -3875.1325            0    5944.1568    17.136384    20.184396    20.906348    7231.2456    6805.8913    6046.8891      4979.69   -836.27723    180.20483    423.34374   -2828.5241 
20140000    243.06176   -3839.1673   -3422.5677   -3839.1673            0    7281.8277     17.15496    20.206277    20.929012    7254.7883     8284.601    7047.4357    6513.4463   -13.107348    -513.5779   -414.21917   -2652.1238 
20141000    245.71082    -3859.037   -3437.8971    -3859.037            0    7214.5457    17.095467    20.136202    20.856429    7179.5705    7598.0945    6847.6147     7197.928   -1345.9302    689.68566    125.20591    -2682.486 
20142000    266.44847   -3858.7216   -3402.0381   -3858.7216            0    7041.2292    17.084886    20.123739    20.843521    7166.2485    5980.8249    8231.0037    6911.8591   -710.99064   -1276.7494    -123.4994   -2666.1424 
20143000    255.43925   -3855.6653   -3417.8512   -3855.6653            0    7144.7682    17.172402    20.226822    20.950291    7276.9395    6484.9478    6829.7159    8119.6408    -1146.735    1027.1906   -543.51575   -2659.6006 
20144000    258.55437   -3850.8589   -3407.7056   -3850.8589            0    6492.6755    17.152418    20.203283     20.92591    7251.5633    7685.7615    6533.4182    5258.8468    1724.3647   -1396.3059    1475.2391   -2721.0622 
20145000    267.24548   -3849.5917   -3391.5421   -3849.5917            0    7615.2494    17.111422    20.154994    20.875894    7199.6911    5785.0301    7902.8668    9157.8514   -1607.7153   -475.01693    -52.33863     -2591.94 
20146000    248.36199   -3877.8854   -3452.2014   -3877.8854            0    6592.5677    17.150157    20.200619    20.923151    7248.6957    7419.1408    5841.6655    6516.8969   -995.08119   -1352.6758    1508.6097   -2755.2695 
20147000    246.48951    -3869.391   -3446.9164    -3869.391            0    5517.2033     17.14819    20.198302    20.920752     7246.202    5236.6637    4017.3987    7297.5475   -516.30642    591.90406   -92.031628   -2863.8671 
20148000    250.19499   -3889.3685   -3460.5428   -3889.3685            0    9436.7143    17.094933    20.135572    20.855778    7178.8977    8605.5211    9359.2072    10345.415    -308.7934    -794.0323    1459.6149   -2472.5485 
20149000     272.5511   -3837.0549   -3369.9116   -3837.0549            0    7163.8183    17.070673    20.106998    20.826181    7148.3779    7346.2645    6837.7246    7307.4659   -77.806585   -885.68296    1330.5376    -2623.071 
20150000    266.99954   -3866.0355   -3408.4074   -3866.0355            0    7482.7402    17.041717    20.072892    20.790855    7112.0641    6967.5625    7383.1476    8097.5105    568.62742    588.18694   -1094.8654   -2632.2814 
20151000     250.9327   -3810.1699   -3380.0798   -3810.1699            0    7589.6248    17.105159    20.147618    20.868254    7191.7887    6366.9998     8173.429    8228.4456    87.107375   -2003.9613    1473.5293   -2584.0431 
20152000    252.75144   -3854.4874   -3421.2801   -3854.4874            0    8350.3561     17.08355    20.122166    20.841891    7164.5674    9475.9396    7767.2114    7807.9175     35.32296     393.8495    124.08145   -2548.7692 
20153000    264.91358   -3859.3875   -3405.3346   -3859.3875            0    7373.6216    17.085177    20.124081    20.843875    7166.6138    7762.1027    6603.1005    7755.6616    355.37862   -1765.2565    2328.8547   -2634.6606 
20154000    269.34724   -3880.1434   -3418.4914   -3880.1434            0    7632.9181    17.081875    20.120192    20.839847    7162.4596    8250.2032    6959.1979    7689.3531  -0.60479168     854.3482    1217.6201   -2621.1787 
20155000    262.81005   -3837.0459   -3386.5985   -3837.0459            0    8578.7877    17.056914    20.090791    20.809395     7131.107    9686.1247    8862.5672    7187.6713    175.90043   -610.56441   -752.83193   -2494.4056 
20156000    245.04413    -3860.761   -3440.7638    -3860.761            0    6056.9823      17.1093    20.152496    20.873307     7197.014    6565.9436    3764.2649    7840.7383   -1000.1148    951.87069     250.8977   -2805.0165 
20157000    243.03527   -3861.3799   -3444.8257   -3861.3799            0    4571.0227    17.148078    20.198171    20.920615    7246.0602    5058.4703      2933.51    5721.0877   -295.76741   -1245.1039   -553.75969   -2961.7767 
20158000    262.83066   -3856.1452   -3405.6624   -3856.1452            0    11071.958     16.98622    20.007524    20.723149    7042.8081    10766.561    11481.542    10967.771    970.91588   -822.73131     871.5333    -2268.438 
20159000    261.83231   -3872.1463   -3423.3747   -3872.1463            0    7115.3832    17.080786    20.118909    20.838519    7161.0898    8002.5912    6783.7289    6559.8294    536.82975    2150.9051    1158.6191   -2680.2644 
20160000    280.00271   -3837.3152   -3357.4001   -3837.3152            0    9187.2469    17.022285    20.050003    20.767148    7087.7628    10514.831    8592.6173     8454.292    964.53185    -1176.979    110.68446   -2407.7351 
20161000    250.41704   -3856.3569   -3427.1506   -3856.3569            0    6766.5347    17.078634    20.116376    20.835894    7158.3845    6952.6884    8199.5182    5147.3977   -42.545205   -1888.1883    1890.0852     -2720.74 
20162000    250.79097   -3851.8793   -3422.0322   -3851.8793            0    6642.9912     17.13152    20.178668    20.900414    7225.0903    6902.7766    6537.2949     6488.902   -824.63026   -295.43132   -47.048276   -2722.0567 
20163000     270.5195   -3859.3726   -3395.7115   -3859.3726            0    9377.0406    16.965242    19.982814    20.697555    7016.7458    9622.4696    9333.8788    9174.7734   -342.64872   -391.65434    460.58335   -2436.1398 
20164000    259.74024   -3859.7714   -3414.5855   -3859.7714            0    7914.2034    17.067656    20.103444      20.8225    7144.5885     6310.328    8945.5339    8486.7485     428.6107   -978.19189   -531.24595   -2589.9532 
20165000    261.96449   -3869.7959   -3420.7977   -3869.7959            0     8917.931    17.027776    20.056471    20.773847    7094.6237     8174.498    12010.453    6568.8419    481.98597      213.532    996.33879    -2498.079 
20166000    270.50647   -3869.2532   -3405.6144   -3869.2532            0    6079.8072    17.173327     20.22791    20.951418    7278.1145    4940.1373    5970.6579    7328.6263   -326.44031    1415.8826   -326.00451   -2760.2803 
20167000    262.66402    -3890.376   -3440.1789    -3890.376            0    6936.2196    17.095012    20.135666    20.855874    7178.9974    8815.3713    4371.9666     7621.321    59.804259   -1852.2731    784.51197   -2713.9684 
20168000    264.15566   -3834.5992   -3381.8455   -3834.5992            0    8049.0578    17.187204    20.244256    20.968349     7295.773    8056.5797    7258.1141    8832.4795    2537.9139    205.81828    694.82688   -2525.4147 
20169000    275.08125   -3848.1335   -3376.6536   -3848.1335            0    6747.6066    17.082445    20.120863    20.840543    7163.1766    8611.0721    4618.0739    7013.6737    551.62884    506.13433   -239.11788   -2671.7475 
20170000    262.47996   -3842.8323   -3392.9506   -3842.8323            0    7752.4238    17.111469     20.15505    20.875952    7199.7507    8354.6415    7991.6751    6910.9549   -392.24691   -462.52572    782.63968   -2578.9385 
20171000    256.84425   -3865.8396   -3425.6173   -3865.8396            0     7767.239    17.108402    20.151437     20.87221    7195.8797    8519.5173    7549.5889    7232.6108   -51.104284    1128.0515    1264.4168   -2610.4881 
20172000    267.80824   -3890.8116   -3431.7975   -3890.8116            0    5913.6521    17.171838    20.226157    20.949602    7276.2217    4859.8968    6002.3336     6878.726    578.99885    1264.3421    265.93653    -2804.263 
20173000    265.88708   -3887.3766   -3431.6552   -3887.3766            0    6438.4401    17.143981    20.193345    20.915616    7240.8675    6257.5114    7022.5242    6035.2848    522.40263     793.5558    398.91837   -2751.7519 
20174000    244.70934   -3870.8706   -3451.4472   -3870.8706            0    8263.7388    17.157514    20.209285    20.932127    7258.0284    7889.7106    9684.2635    7217.2424    1500.3795    1351.0511    1244.1641    -2576.723 
20175000    267.32674   -3875.2048   -3417.0159   -3875.2048            0    7294.6265    17.125084    20.171087    20.892562    7216.9501    6514.4967    7003.2547     8366.128   -106.01278   -507.65975    1409.0823   -2649.2433 
20176000    256.38128   -3863.8596   -3424.4308   -3863.8596            0    9518.5582    17.092836    20.133103     20.85322    7176.2563    7482.6951    9887.9155    11185.064     81.30568    232.12107    583.63311   -2428.2344 
20177000    268.82399   -3849.6529   -3388.8978   -3849.6529            0    6166.2191    17.101324    20.143101    20.863575    7186.9527    7603.9956     4930.266    5964.3957    374.63517   -1678.1751    178.84733   -2742.5896 
20178000    248.56047   -3814.7698   -3388.7457   -3814.7698            0     6965.831     17.09323    20.133567    20.853701    7176.7529    6296.1603    7245.3688    7355.9641    12.435064   -155.19852    791.48788   -2659.6629 
20179000    268.47075   -3866.0927    -3405.943   -3866.0927            0    6643.3106    17.083201    20.121754    20.841465     7164.128    6910.9606    6679.8925    6339.0787     1334.543    364.58521   -192.50059   -2711.8402 
20180000    272.13242   -3878.2975   -3411.8719   -3878.2975            0    6194.4075    17.163127    20.215896    20.938975    7265.1539    5141.6783    8472.1722     4969.372    803.63705     698.0083   -2172.0192   -2755.5446 
20181000    267.59436   -3867.0134   -3408.3658   -3867.0134            0    9141.4429     17.12425    20.170104    20.891545    7215.8955    8462.6404    9353.3059    9608.3824    566.53354   -1039.3126      2405.62    -2446.353 
20182000    280.36755   -3852.6525   -3372.1122   -3852.6525            0    7770.9567    17.101335    20.143114    20.863589    7186.9668    7675.5615    7932.3733    7704.9353   -1020.2623   -786.61507    843.24961   -2557.6029 
20183000     261.4294   -3893.6399   -3445.5589   -3893.6399            0    7231.6507    17.088832    20.128387    20.848335    7171.2149    8165.2809    6027.9552    7501.7161    846.35834   -150.44283   -63.562274    -2689.238 
20184000    261.03486    -3869.375   -3421.9702    -3869.375            0    7724.3932    17.085121    20.124015    20.843807    7166.5433    8618.1052    6058.3569    8496.7175     692.6914    1517.5672    1707.3831   -2614.6422 
20185000    264.85007   -3844.2413   -3390.2973   -3844.2413            0    9152.4748    17.095195    20.135882    20.856098    7179.2283    9259.4019    7781.5015    10416.521     896.5745     -677.485    1342.6538   -2432.0178 
20186000    266.44956   -3864.3616   -3407.6762   -3864.3616            0     7519.316    17.150899    20.201493    20.924057    7249.6368    8051.1823    5809.7526    8697.0132   -1603.8389   -1159.3134    459.00223     -2612.67 
20187000    253.44628   -3865.2981   -3430.8999   -3865.2981            0    6622.8869    17.116703    20.161216    20.882338    7206.3601    6355.6204    6268.7187    7244.3216   -232.93313   -538.89913   -671.04078   -2734.8519 
20188000    264.34019   -3819.1874   -3366.1173   -3819.1874            0    6396.3642    17.115933    20.160308    20.881398     7205.387    6989.0966     5574.795    6625.2011   -1562.3327   -357.16839    453.28622    -2693.967 
20189000    259.78396   -3913.5698    -3468.309   -3913.5698            0    5842.0803    17.129271    20.176019    20.897671    7222.2458    4169.1554    6837.9059    6519.1796   -82.111506   -885.34496   -1051.3491   -2852.9682 
20190000    270.97585   -3838.1186   -3373.6753   -3838.1186            0    6976.9393    17.127403    20.173818    20.895392    7219.8826    8148.9088     7474.155    5307.7541   -1373.0645    94.030156   -669.65848   -2639.0414 
20191000    270.00595   -3884.4867   -3421.7057   -3884.4867            0    7105.1394      17.1327    20.180058    20.901854    7226.5836    9325.1639    5848.4558    6141.7984   -1064.3955   -432.53835    430.12474   -2672.8787 
20192000     277.9356   -3903.7501    -3427.378   -3903.7501            0    9479.1477    17.025172    20.053404     20.77067    7091.3697    11116.195    9072.8409    8248.4071   -858.30964    558.91156    1034.6904   -2447.0412 
20193000    264.46124   -3855.6659   -3402.3884   -3855.6659            0    8866.7471    17.064158    20.099324    20.818232    7140.1962     10512.67    9104.8126    6982.7585    1355.4848    870.93542    850.36517   -2479.0724 
20194000    266.78146   -3869.8916   -3412.6373   -3869.8916            0     5691.966        17.06    20.094427     20.81316    7134.9787    5506.1702    7037.1811    4532.5466    393.68039    -400.8818    790.33227   -2820.3522 
20195000    259.43424   -3859.1394    -3414.478   -3859.1394            0     5743.538    17.130772    20.177787    20.899502    7224.1441    6399.1019    5373.1179    5458.3942   -729.57559    322.94958     918.2625   -2809.3576 
20196000    272.12632   -3879.9861   -3413.5709   -3879.9861            0    5911.6298        17.11    20.153321    20.874161    7197.8975    6776.5218    5036.9906    5921.3771   -769.98911   -159.41341   -125.30985   -2793.0038 
20197000    260.89977   -3863.0881   -3415.9148   -3863.0881            0    7286.9834    17.115799    20.160151    20.881235    7205.2183    6118.8748    9520.5418    6221.5336     527.1899    990.70595    1325.6604   -2650.1933 
20198000     266.9556   -3869.6443   -3412.0916   -3869.6443            0    6483.0716    17.114626    20.158769    20.879803    7203.7364    4960.5474    6620.9035    7867.7637   -1031.1193    358.70564   -106.36479   -2730.9858 
20199000     272.5228   -3854.0285   -3386.9338   -3854.0285            0    7289.8628    17.098346    20.139593    20.859942    7183.1989    8466.1789    7095.8694      6307.54   -836.10206    664.56589   -231.83776   -2623.2508 
20200000    271.22357   -3878.0655   -3413.1976   -3878.0655            0    7170.8812    17.063753    20.098848    20.817739     7139.689    8398.7087    7589.1562    5524.7788   -1494.6485   -4.4740455     1217.657   -2666.5293 
20201000    272.81114    -3875.841    -3408.252    -3875.841            0    8171.1723    17.015931    20.042519    20.759396    7079.8279    7494.3555    8375.7592    8643.4021   -633.81688    1382.4549   -144.01254   -2564.5619 
20202000    282.41274   -3887.8514   -3403.8056   -3887.8514            0    6713.4092    17.090391    20.130223    20.850237    7173.1775    3451.1211    8131.5867    8557.5199   -507.25682     995.7693   -670.35657   -2701.4928 
20203000    258.33274    -3890.817   -3448.0435    -3890.817            0    6480.2013    17.063799    20.098901    20.817794    7139.7456    5110.9852    8649.8595    5679.7593    858.03251   -1208.5026    321.73063    -2773.287 
20204000    261.14115   -3883.0437   -3435.4567   -3883.0437            0    7661.1738    17.048248    20.080584    20.798823    7120.2435    7592.5491    9445.4563    5945.5161    82.596751    183.95012   -1079.1458   -2639.9093 
20205000    252.98876   -3883.4969   -3449.8828   -3883.4969            0    6650.6569    17.095376    20.136095    20.856319    7179.4569    5782.6204     6682.271    7487.0793   -464.66545    839.04462   -745.26009   -2753.5256 
20206000    248.34547   -3878.3369   -3452.6812   -3878.3369            0    6087.4349    17.157287    20.209018     20.93185    7257.7409    6712.7198    4569.5244    6980.0605   -444.65446    629.84062    1392.1591   -2808.3463 
20207000    259.61581   -3868.2332   -3423.2606   -3868.2332            0    7629.4578    17.103106      20.1452    20.865749    7189.1998    9940.4715    5630.8236    7317.0782   -983.35559   -1037.9478   -495.96971    -2623.334 
20208000    263.00095   -3841.3941   -3390.6194   -3841.3941            0    8317.8831    17.059343    20.093652    20.812358    7134.1537    7713.3776    9153.2939    8086.9777   -1847.0996   -367.85619    792.31391    -2525.191 
20209000    259.52063   -3857.0759   -3412.2664   -3857.0759            0    7771.4818    17.075845     20.11309    20.832491    7154.8772    9040.5521    5128.6308    9145.2626   -948.38214    145.83853    198.16384   -2601.3391 
20210000    275.13161   -3857.3067   -3385.7405   -3857.3067            0    6286.8934    17.187429    20.244521    20.968623    7296.0586    8128.0035    6760.1794    3972.4972   -921.81967    -999.0079    146.69392   -2716.7803 
20211000    270.08913   -3887.4603   -3424.5368   -3887.4603            0    5312.3618    17.100049    20.141599     20.86202    7185.3452    5173.6636    5798.8963    4964.5254    104.50911   -729.91205    1025.5165   -2867.8497 
20212000     253.0419    -3836.608   -3402.9029    -3836.608            0    7860.7871    17.136692     20.18476    20.906724    7231.6363    6783.0304    8694.8215    8104.5095   -1902.8475    122.47951   -1348.6594   -2573.8571 
20213000    278.67699   -3840.6937   -3363.0509   -3840.6937            0     7790.498    17.070441    20.106725    20.825898    7148.0869    6806.3334    8120.5679    8444.5926   -911.96633    1447.8654    771.13347   -2550.9108 
20214000     262.7774   -3849.2158   -3398.8243   -3849.2158            0    5156.3486    17.148477    20.198641    20.921102    7246.5663    4264.5155    5027.4194    6177.1109    347.07032    416.62936    948.34052   -2853.8821 
20215000    252.59711   -3901.3628     -3468.42   -3901.3628            0    6707.6133    16.996703    20.019871    20.735938    7055.8553    7740.8097    6566.0994     5815.931   -440.81917    460.56366   -872.85903   -2778.1904 
20216000    254.99489   -3855.4436   -3418.3911   -3855.4436            0    7201.6694      17.0375    20.067924     20.78571    7106.7852    7257.6208    6164.4074    8182.9801   -889.06398    1093.5939   -567.05604   -2671.9728 
20217000    261.30234   -3868.5675   -3420.7042   -3868.5675            0    9578.5711    17.034548    20.064447    20.782108    7103.0914    8488.7533    9809.1545    10437.806   -934.19862    1.6954508   -1182.7386   -2428.4476 
20218000    251.93856   -3804.0291    -3372.215   -3804.0291            0    7333.9313    17.081954    20.120286    20.839945    7162.5599     7706.931    6391.4882    7903.3746    980.32974    -1492.896   -664.89915   -2606.1229 
20219000    272.48825   -3846.5035   -3379.4679   -3846.5035            0    7699.3498    17.004343     20.02887    20.745259    7065.3742    10118.495    5593.2831    7386.2718   -29.060759   -582.51839    1067.0659   -2586.1174 
20220000     262.1978   -3891.0988   -3441.7007   -3891.0988            0    7520.9137    17.091478    20.131504    20.851563    7174.5465    7505.2866    7426.5162    7630.9381   -291.86446     95.21149   -244.12872    -2654.762 
20221000    271.16476   -3874.5015   -3409.7344   -3874.5015            0    6477.0656    17.083766     20.12242    20.842155    7164.8395    6785.2838    7205.7138    5440.1992    643.46855    1001.7202   -736.21075   -2732.9339 
20222000    262.82399   -3879.8149   -3429.3436   -3879.8149            0     6881.214    17.041626    20.072785    20.790744    7111.9499    6228.3053     7020.198    7395.1385    517.59594    520.84501    178.86285   -2715.6206 
20223000    253.96027   -3855.7834   -3420.5041   -3855.7834            0    4440.2404    17.154382    20.205596    20.928306    7254.0546    3309.5694    5353.6576    4657.4942    1134.3279   -550.48254   -300.24139    -2950.758 
20224000    253.67036   -3832.1124   -3397.3301   -3832.1124            0    6492.2597    17.074845    20.111912    20.831271    7153.6208    5621.2866    7950.4063    5905.0861    82.350668     714.6588    -340.9582   -2720.0042 
20225000    266.84845   -3871.0632   -3413.6941   -3871.0632            0    8279.4264    17.016928    20.043693    20.760612    7081.0726    7757.4213    8567.0635    8513.7945    334.48787   -1205.6874     1336.604   -2558.6762 
20226000    267.82736   -3876.0167   -3416.9698   -3876.0167            0    7081.0635    17.100836    20.142526     20.86298    7186.3372     7171.164    6150.5184    7921.5082    367.69883   -1555.1553   -224.48989   -2674.8364 
20227000    275.05216   -3835.8619   -3364.4319   -3835.8619            0    7031.7985    17.078443     20.11615    20.835661    7158.1443     6780.124    6858.1234    7457.1482   -1354.3904   -430.18142     212.3535   -2630.3529 
20228000    267.29599   -3868.3339   -3410.1977   -3868.3339            0    6929.6748    17.093295    20.133643    20.853779    7176.8343    7592.8497    8714.5292    4481.6454   -503.28387    1448.4323    1108.6372    -2684.891 
20229000    260.48063   -3858.4007   -3411.9458   -3858.4007            0    7552.8605    17.081546    20.119804    20.839446    7162.0455    7657.8151    7444.6441    7556.1225    37.656427   -400.31051    216.03801   -2623.0413 
20230000    265.84705   -3867.5211   -3411.8683   -3867.5211            0    7042.8305    17.160912    20.213287    20.936272    7262.3416    7647.0548    5655.5055    7825.9311     650.3086   -712.32886   -23.082571   -2665.9354 
20231000    261.06151   -3865.5834   -3418.1329   -3865.5834            0    6505.8456    17.165762       20.219    20.942189    7268.5004    7738.6333    5182.5426    6596.3608    -583.9227   -706.80722   -1442.5485   -2728.4897 
20232000     260.1543   -3880.5953   -3434.6998   -3880.5953            0    7448.2116    17.094066    20.134551     20.85472    7177.8056    6396.1135    8474.7294    7473.7921   -1786.8176   -718.72465   -621.36734    -2655.014 
20233000     266.8604   -3899.4619   -3442.0723   -3899.4619            0    5934.2328    17.164789    20.217854    20.941002    7267.2648    5179.9293    4629.4041    7993.3651    -587.3245    558.65376   -512.69271   -2813.1291 
20234000    268.83918   -3862.4485   -3401.6674   -3862.4485            0    6498.5296    17.112022    20.155702    20.876627    7200.4491    5403.9916    6320.2602    7771.3369   -587.12608    875.58984    779.13302   -2719.2492 
20235000    249.19696   -3895.2631   -3468.1481   -3895.2631            0    5663.8978    17.160968    20.213353     20.93634    7262.4124    3990.0435    6239.6784    6761.9716    -1093.011    238.09259    92.068396   -2868.2573 
20236000    247.60377    -3859.821   -3435.4366    -3859.821            0    7156.0164    17.138633    20.187046    20.909092    7234.0936    8024.8393    8681.4495    4761.7605    679.16428   -596.24908    1550.3069   -2680.4637 
20237000    263.67261   -3861.7329    -3409.807   -3861.7329            0     6433.995    17.083568    20.122186    20.841913    7164.5896     5165.219    7721.4019    6415.3641   -199.08522   -773.54442    1573.4502   -2737.5306 
20238000    272.99286   -3881.5683   -3413.6679   -3881.5683            0    7320.7388    17.043748    20.075284    20.793333    7114.6071    7267.2051    7298.7763    7396.2352    724.73189    352.35067    109.59847   -2654.0736 
20239000    268.09698   -3867.2621    -3407.753   -3867.2621            0    6946.2829    17.165211    20.218351    20.941517    7267.8009    6917.4771    4977.7988    8943.5729    759.46962   -295.22682    45.199548   -2671.4928 
20240000    249.56558   -3834.8991   -3407.1522   -3834.8991            0     7786.982    17.067359    20.103095    20.822138    7144.2158     8332.223    8783.5999     6245.123   -480.67282   -1262.6628   -504.61985   -2595.8183 
20241000     272.2633   -3928.8865   -3462.2365   -3928.8865            0    6312.7097    17.117775    20.162478    20.883646    7207.7138    7109.1743    6896.3871    4932.5678    63.018811    1438.3478    75.167305   -2798.6627 
20242000    261.07791   -3890.7135   -3443.2349   -3890.7135            0    6173.3807    17.110866     20.15434    20.875217    7198.9899    5767.2251    5619.5087    7133.4082   -828.70313    383.59848    890.60857   -2795.0924 
20243000    274.44741   -3883.0806   -3412.6872   -3883.0806            0    7378.0107    17.125035    20.171029    20.892502     7216.888    8512.0454    6612.0315    7009.9554    463.58897   -84.079131   -328.34431   -2636.1448 
20244000      255.627   -3845.5602   -3407.4243   -3845.5602            0     8438.975    17.033278    20.062951    20.780559    7101.5029    7984.9197    9671.4616    7660.5436   -1943.1313    -239.3027    -181.6466   -2533.4154 
20245000    261.05516   -3842.3293   -3394.8897   -3842.3293            0    4135.3474    17.132586    20.179923    20.901715    7226.4389    3325.0553    5447.5033    3633.4836     439.8589   -496.80769   -620.06358   -2959.0646 
20246000    265.55921   -3889.8876   -3434.7282   -3889.8876            0    6704.6588    17.090646    20.130524    20.850549    7173.4991    6607.7886    6632.0278    6874.1601   -654.25918    1179.6056    267.31374   -2733.2994 
20247000    259.19743   -3892.0637   -3447.8082   -3892.0637            0    6431.4943    17.044299    20.075933    20.794005     7115.297    5370.4458    7275.2382    6648.7988   -403.78051    128.86008    712.43776   -2780.4165 
20248000    269.57331   -3875.8607   -3413.8212   -3875.8607            0    5458.1471    17.137521    20.185736    20.907735    7232.6855    5296.5506    4893.8704    6184.0202    365.33231    136.12886    1449.2208   -2838.0888 
20249000    248.49651   -3880.9986   -3455.0841   -3880.9986            0    7337.3442    17.087049    20.126286     20.84616      7168.97    6754.2025    8397.9495    6859.8807    598.60733    300.17538   -687.10438   -2687.9496 
20250000    269.97229   -3834.2867   -3371.5634   -3834.2867            0    7816.8997    17.122372    20.167892    20.889253    7213.5218    7940.7393    6818.0486    8691.9111    651.03477   -1467.6611   -1880.2935   -2549.2114 
Loop time of 338.758 on 64 procs for 250000 steps with 864 atoms

Performance: 127.525 ns/day, 0.188 hours/ns, 737.990 timesteps/s
193.6% CPU use with 32 MPI tasks x 2 OpenMP threads

MPI task timing breakdown:
Section |  min time  |  avg time  |  max time  |%varavg| %total
---------------------------------------------------------------
Pair    | 26.452     | 32.791     | 41.711     |  58.3 |  9.68
Bond    | 0.84594    | 1.1363     | 1.9498     |  20.7 |  0.34
Kspace  | 148.29     | 156.72     | 163.48     |  28.7 | 46.26
Neigh   | 3.6967     | 3.8953     | 4.3024     |   9.3 |  1.15
Comm    | 63.998     | 68.803     | 72.717     |  27.7 | 20.31
Output  | 0.51459    | 0.51498    | 0.51702    |   0.1 |  0.15
Modify  | 62.338     | 64.932     | 68.347     |  18.4 | 19.17
Other   |            | 9.964      |            |       |  2.94

Nlocal:        27.0000 ave          33 max          20 min
Histogram: 1 2 3 5 5 2 5 4 2 3
Nghost:        2566.00 ave        2610 max        2500 min
Histogram: 1 1 6 3 4 0 1 2 8 6
Neighs:        8556.09 ave       11270 max        6604 min
Histogram: 5 1 6 4 5 3 2 2 3 1

Total # of neighbors = 273795
Ave neighs/atom = 316.89236
Ave special neighs/atom = 2.0000000
Neighbor list builds = 14225
Dangerous builds = 0

unfix		3
unfix		2
unfix		1

write_data	data.final.${pid}
write_data	data.final.1
System init for write_data ...
PPPM initialization ...
  extracting TIP4P info from pair style
  using 12-bit tables for long-range coulomb (../kspace.cpp:340)
  G vector (1/distance) = 0.37354737
  grid = 24 24 24
  stencil order = 5
  estimated absolute RMS force accuracy = 0.0032434595
  estimated relative force accuracy = 9.767582e-06
  using double precision FFTW3
  3d grid and FFT values/proc = 3549 432
Last active /omp style is kspace_style pppm/tip4p/omp
WARNING: Not all mixed pair coeffs generated from mixing. Use write_data with 'pair ij' option to store all pair coeffs. (../write_data.cpp:312)

write_restart   restart.lmp.${pid}
write_restart   restart.lmp.1
System init for write_restart ...
PPPM initialization ...
  extracting TIP4P info from pair style
  using 12-bit tables for long-range coulomb (../kspace.cpp:340)
  G vector (1/distance) = 0.37354737
  grid = 24 24 24
  stencil order = 5
  estimated absolute RMS force accuracy = 0.0032434595
  estimated relative force accuracy = 9.767582e-06
  using double precision FFTW3
  3d grid and FFT values/proc = 3549 432
Last active /omp style is kspace_style pppm/tip4p/omp
Total wall time: 0:05:38
