LAMMPS data file via write_data, version 30 Jul 2021, timestep = 2000000

864 atoms
2 atom types
576 bonds
1 bond types
288 angles
1 angle types

-0.1033224546493905 18.31089485465179 xlo xhi
0.9698310663778837 22.65934673361922 ylo yhi
-0.12605315333684786 22.33924895333599 zlo zhi

Masses

1 1.00794
2 15.9994

Pair Coeffs # lj/cut/tip4p/long/omp

1 0 0
2 0.21084 3.1668

Bond Coeffs # harmonic/omp

1 450 0.9572

Angle Coeffs # harmonic/omp

1 55 104.52

Atoms # full

411 1 1 0.5897 -0.09202094063744737 1.721973745982269 0.06785275287702103 3 3 -4
285 1 1 0.5897 1.4937447623588076 2.9508482326640695 3.195353882292394 5 1 -2
336 1 1 0.5897 3.6736938925076963 3.5958526970937488 2.5238041124273654 5 1 4
334 1 2 -1.1794 4.527092248901151 3.9899298032483017 2.3429281403755913 5 1 4
335 1 1 0.5897 4.97753488775437 3.985104734704719 3.187513980388062 5 1 4
310 1 2 -1.1794 6.185242648162925 2.606141578579503 0.6102838740272251 -1 2 2
283 1 2 -1.1794 2.3316497618238716 2.5576951660474903 2.951251726922535 5 1 -2
311 1 1 0.5897 6.79788331513578 1.9718992841906458 0.9826463759607118 -1 2 2
271 1 2 -1.1794 7.359498924534327 1.6825481632554937 3.3393745099269467 -2 4 3
312 1 1 0.5897 5.723393827330125 2.9666232371350056 1.3672460651673422 -1 2 2
794 1 1 0.5897 7.700772458946388 3.4188782958885287 3.043414017929153 -5 1 5
795 1 1 0.5897 8.482930957430163 4.2250216016412505 2.028371352927886 -5 1 5
37 1 2 -1.1794 0.15482241196868973 5.359030128140754 2.0695848737462796 0 2 -3
273 1 1 0.5897 6.832740494545954 1.1495630572666844 3.934934890693917 -2 4 3
284 1 1 0.5897 2.59773947390561 2.060349924168878 3.7246172608715877 5 1 -2
51 1 1 0.5897 4.6226883679620965 1.594214160194205 0.14713062124817006 7 1 -1
113 1 1 0.5897 3.979202120913018 6.343907872474683 0.3429739182205519 -3 -1 3
38 1 1 0.5897 0.14738933338443294 4.6850530282711444 1.3899105225364277 0 2 -3
250 1 2 -1.1794 3.1314104580290394 1.166820890228046 5.086375421973516 5 -3 3
188 1 1 0.5897 5.809502386000794 5.91035441436303 4.954339080503147 -2 4 2
114 1 1 0.5897 4.491705328963814 5.675549539768129 1.600969355050372 -3 -1 3
429 1 1 0.5897 8.027265818492497 5.894879885455294 3.997332420949874 1 0 -2
272 1 1 0.5897 8.258440904752055 1.3875942483701618 3.484787374270567 -2 4 3
793 1 2 -1.1794 7.997686738383923 4.3079268820292995 2.849300593932119 -5 1 5
187 1 2 -1.1794 5.827700036390508 4.984430087055629 5.196358909281278 -2 4 2
698 1 1 0.5897 1.8042446631250457 6.589040087337166 2.634655113401959 -2 2 -4
269 1 1 0.5897 7.009986437321095 8.572392859428465 0.7988934093247593 2 5 6
427 1 2 -1.1794 8.430551760613925 6.719211588965482 4.269511868045421 1 0 -2
328 1 2 -1.1794 8.215780741805741 7.245457535215155 1.277277175078796 3 5 0
270 1 1 0.5897 5.563164036915205 8.149574560692976 0.6580525031762594 2 5 6
524 1 1 0.5897 1.38741584477568 9.627516859903565 0.7501867556110428 2 0 3
697 1 2 -1.1794 2.2932136576229327 7.328825324514189 2.995099370588386 -2 2 -4
453 1 1 0.5897 9.030350041608465 11.602616758118266 0.30543680410397234 -3 -1 5
523 1 2 -1.1794 0.9761735133749245 8.79972100874313 0.9989586620933906 2 0 3
525 1 1 0.5897 1.551585838211241 8.43908332157146 1.6735595319916567 2 0 3
268 1 2 -1.1794 6.1447365825108164 8.90321062823619 0.5577312371791487 2 5 6
455 1 1 0.5897 6.667068363740347 10.052242947738316 3.1087463910942112 1 -1 0
330 1 1 0.5897 8.062425603730032 6.608409147444917 0.5794920901596171 3 5 0
110 1 1 0.5897 8.3126005840168 11.487787195327282 4.4876499291879295 -2 -2 -5
768 1 1 0.5897 5.888985509427359 8.577933577772196 4.021181367090507 -2 -1 2
766 1 2 -1.1794 6.083408111793032 7.9441772661336625 4.711684741454282 -2 -1 2
475 1 2 -1.1794 1.0834066345320603 9.157720559738319 4.85744762440402 6 -3 -1
477 1 1 0.5897 1.632442119918716 8.520750793871457 4.400181921557103 6 -3 -1
454 1 2 -1.1794 5.728514402145541 9.972986957595756 2.9382350800820736 1 -1 0
329 1 1 0.5897 8.266324265388663 6.719576098878796 2.075492724605172 3 5 0
699 1 1 0.5897 3.1351104722999206 7.304496645255497 2.540274084068005 -2 2 -4
112 1 2 -1.1794 4.392622975164395 6.5322089625512545 1.1855211689017406 -3 -1 3
428 1 1 0.5897 7.691829005957394 7.306826459088489 4.42838609640286 1 0 -2
12 1 1 0.5897 4.179482829797191 11.117436753202373 2.3652591992533365 -2 2 4
456 1 1 0.5897 5.6752190351354095 9.56514132184468 2.073884339105342 1 -1 0
109 1 2 -1.1794 8.560486307422654 10.810429783452214 3.8583783530064593 -2 -2 -5
111 1 1 0.5897 9.089108622584616 10.193977868401007 4.365117072328537 -2 -2 -5
11 1 1 0.5897 3.272028344747597 11.447693542946244 1.199324214660538 -2 2 4
435 1 1 0.5897 0.04701139416882319 10.455481863961023 3.96381452192803 2 3 -2
10 1 2 -1.1794 3.47003462934455 11.702902884014716 2.100398676224332 -2 2 4
754 1 2 -1.1794 3.554745522947701 4.027098700579142 6.512772713514535 -3 0 -4
801 1 1 0.5897 8.470764685189403 5.809712363352901 7.951056148530766 1 0 1
756 1 1 0.5897 4.3419463187711935 4.149703907626051 5.982156342071779 -3 0 -4
755 1 1 0.5897 3.858389994049935 3.5523762074304797 7.2865224424405275 -3 0 -4
154 1 2 -1.1794 1.0347452275745175 2.7696243662794107 6.135664993388689 4 3 -5
743 1 1 0.5897 5.670013319511546 5.384202761023357 10.208628171347286 -3 0 1
155 1 1 0.5897 1.781745718999336 3.364710566165609 6.071557469816453 4 3 -5
253 1 2 -1.1794 4.291783697861059 2.213822480705571 8.841204438738988 2 8 -6
494 1 1 0.5897 3.0702154793793555 5.807510637638815 7.372237212968654 -2 -1 -1
314 1 1 0.5897 6.676647847637029 4.565696171093009 8.678006470816646 -1 -1 0
254 1 1 0.5897 4.443502534622333 2.368773094939264 9.773517909850122 2 8 -6
315 1 1 0.5897 7.149115724805797 3.539239612653999 7.6704983167543705 -1 -1 0
742 1 2 -1.1794 6.245817463738861 4.656664439107374 10.443980735560226 -3 0 1
577 1 2 -1.1794 7.970371233326722 1.7766321100347668 7.175458038984047 2 4 -3
313 1 2 -1.1794 6.959897191296802 4.4724283008655625 7.768439977908804 -1 -1 0
579 1 1 0.5897 7.684666205703355 1.8762394492703771 6.267328274804996 2 4 -3
681 1 1 0.5897 5.260497189439195 3.3191228538995277 11.04630529436575 -6 -4 2
251 1 1 0.5897 2.489068777662336 1.658483753587602 5.598143383532698 5 -3 3
189 1 1 0.5897 6.411058818642915 4.9459177841688025 5.954293657695705 -2 4 2
437 1 1 0.5897 0.9882769771614719 6.1595998243874694 8.330354307683008 -1 3 1
156 1 1 0.5897 0.2849070401249339 3.294710086670036 5.855884050961315 4 3 -5
459 1 1 0.5897 0.08543825887511933 2.453113763789469 8.041355365800799 1 1 -1
578 1 1 0.5897 8.919162354778232 1.8991726248177196 7.143357441308783 2 4 -3
255 1 1 0.5897 3.522967565780117 1.6441888511128675 8.814592136559973 2 8 -6
436 1 2 -1.1794 0.038553876350239324 6.040581699897958 8.320150223525777 -1 3 1
809 1 1 0.5897 -0.06298115366302381 5.772967465048923 10.209614428019089 4 0 -2
476 1 1 0.5897 1.6196894510572366 9.452139993928961 5.5936371332983095 6 -3 -1
767 1 1 0.5897 5.788095580866569 8.368716285892301 5.5171622536655995 -2 -1 2
799 1 2 -1.1794 8.807691382803352 6.703718043859464 8.009997797619757 1 0 1
133 1 2 -1.1794 5.295729520559061 11.234466884836667 11.044942413532956 0 -6 -3
493 1 2 -1.1794 2.731944161903904 6.4223082183633045 8.023272629839862 -2 -1 -1
854 1 1 0.5897 8.314758307905802 8.302558523724205 10.501436482869048 -2 1 1
370 1 2 -1.1794 7.102794981599615 11.75920864405815 6.899151919203184 3 7 -1
198 1 1 0.5897 0.1320089259111207 10.683061656557495 8.567950336682987 -1 -1 0
584 1 1 0.5897 8.45455718850727 11.20195664232926 10.356703282499186 4 -4 -1
569 1 1 0.5897 2.5927557992153343 11.501377030477007 9.177935312708316 2 -1 0
193 1 2 -1.1794 4.799151284969704 6.945208532849415 9.737344354708052 2 -4 0
669 1 1 0.5897 6.330497863616582 8.0562527505097 9.502676689542893 -8 -1 0
194 1 1 0.5897 4.0497400124955 6.6304643347018875 9.23180939524076 2 -4 0
668 1 1 0.5897 7.429184538051337 7.664148230873618 8.537735100987295 -8 -1 -1
218 1 1 0.5897 6.07411576064023 9.000920147363328 7.471268032343626 5 -1 -2
195 1 1 0.5897 4.412117487023392 7.464373051377469 10.442276382236583 2 -4 0
219 1 1 0.5897 6.147292714024174 10.312342194757694 6.7184479875436285 5 -1 -2
828 1 1 0.5897 2.657691671063568 9.336690441144414 7.7785563130516255 0 2 2
667 1 2 -1.1794 7.037958925562996 8.422271152326504 8.971852619437463 -8 -1 0
135 1 1 0.5897 6.137478163483375 11.151104153502617 10.596885916843771 0 -6 -3
585 1 1 0.5897 7.568190395634155 10.298425372351167 9.526047513333872 4 -4 -1
827 1 1 0.5897 3.8823020498013956 8.909575513023675 6.997620385026698 0 2 2
826 1 2 -1.1794 2.931708759482597 8.80285373773702 7.032782235005316 0 2 2
495 1 1 0.5897 2.8211435110395593 7.281571859728999 7.611022506271263 -2 -1 -1
568 1 2 -1.1794 1.9688244868844529 10.789931609980563 9.03368640180453 2 -1 0
217 1 2 -1.1794 5.597465411980708 9.538034010230927 6.83837442601027 5 -1 -2
570 1 1 0.5897 1.5502940483919085 10.661507225471397 9.884909021528745 2 -1 0
583 1 2 -1.1794 7.727314410446284 11.219007666933347 9.734539711479702 4 -4 -1
134 1 1 0.5897 4.766675140390384 11.779371529586626 10.462343558680155 0 -6 -3
647 1 1 0.5897 7.427408278254542 4.065924600553895 13.707856474369198 -6 0 1
646 1 2 -1.1794 7.43283030481176 4.831784594146516 13.133688156607228 -6 0 1
680 1 1 0.5897 4.10570846106774 3.370446960986872 12.02393315777698 -6 -4 2
752 1 1 0.5897 6.950618777191737 1.8928221061817494 14.671603466848852 3 2 0
45 1 1 0.5897 0.5354842770614238 4.111357481019118 13.375407653770102 3 5 -3
286 1 2 -1.1794 3.6435352309917115 4.830687392635936 13.30473651858291 4 1 2
43 1 2 -1.1794 1.1690681639413105 3.5410003955507046 13.810753785608167 3 5 -3
288 1 1 0.5897 3.933264111762398 4.4721620807246145 14.143637964756733 4 1 2
602 1 1 0.5897 0.6529862196272509 3.172047061292033 15.531306082508673 3 5 -3
751 1 2 -1.1794 7.617411995479486 2.556734928888492 14.495968918854745 3 2 0
44 1 1 0.5897 1.9375875001273895 4.095337180707606 13.94616665313979 3 5 -3
287 1 1 0.5897 4.110402520490339 5.662531477608671 13.225169911663453 4 1 2
648 1 1 0.5897 7.991588354486957 5.465302992090559 13.583902868725907 -6 0 1
231 1 1 0.5897 3.767208248531379 2.404919052769798 15.674185922174278 3 3 1
229 1 2 -1.1794 4.0151616888418 3.329189835197888 15.652125226422303 3 3 1
601 1 2 -1.1794 0.4165060332550041 3.2585647664160415 16.454795126050197 3 5 -2
807 1 1 0.5897 4.851620304652338 1.2315975069807412 12.518171764833001 2 -1 -4
753 1 1 0.5897 8.218016943219075 2.496048469380465 15.238822939319366 3 2 0
679 1 2 -1.1794 4.598689797612584 2.769169802367283 11.46564978856604 -6 -4 2
665 1 1 0.5897 8.853299203080384 2.0329758170477064 12.809759505773245 2 3 3
744 1 1 0.5897 6.591741550683037 4.893144559572098 11.304618249395721 -3 0 1
230 1 1 0.5897 4.811431896688547 3.3767414722571805 16.18122467320291 3 3 1
26 1 1 0.5897 1.3534741696535426 1.4418802861618876 13.374151188811345 -1 6 6
810 1 1 0.5897 0.23264641441874556 6.347174056922873 11.57885046600209 4 0 -2
729 1 1 0.5897 3.9570132486822827 11.670895675267566 12.459210744207269 -1 2 -2
521 1 1 0.5897 0.5866169388280412 9.707939259109716 11.468493637140996 -4 0 -2
825 1 1 0.5897 6.127777512649325 6.436149966902383 13.313811512966552 1 4 2
615 1 1 0.5897 0.6353095296064218 11.483487779452817 15.277070562063582 -5 1 3
560 1 1 0.5897 8.941785484840516 8.542185799882771 15.738957156253282 5 1 1
823 1 2 -1.1794 5.3985170710459425 7.055584943565528 13.340778037458577 1 4 2
94 1 2 -1.1794 6.4641023768154735 11.380804504110403 16.541700572472624 -4 1 0
549 1 1 0.5897 3.902505410680657 7.699948645819341 16.377888572732452 4 -1 6
520 1 2 -1.1794 0.8205532170028902 10.626832745026329 11.337519740782994 -4 0 -2
547 1 2 -1.1794 3.010753058744012 8.041717767945967 16.31287610639129 4 -1 6
785 1 1 0.5897 4.535913656677684 9.407689965958506 11.636154087402291 4 5 2
298 1 2 -1.1794 1.0894123304774206 7.937015544206674 11.88393608288179 -4 0 1
824 1 1 0.5897 5.453410473780903 7.453219042007286 14.209761136280882 1 4 2
818 1 1 0.5897 6.192784139243454 6.8380374237133585 16.321878866022637 2 -1 0
556 1 2 -1.1794 0.42066330213367853 8.390540742384236 14.399782955447336 4 2 0
786 1 1 0.5897 4.389928399745172 8.027963225853625 12.241942631327957 4 5 2
522 1 1 0.5897 1.438873518276921 10.819867182448734 12.042260301068675 -4 0 -2
299 1 1 0.5897 2.0068064574700126 8.171445613514006 11.743630048235536 -4 0 1
561 1 1 0.5897 8.326439130152082 9.840711593398115 16.215498166009166 5 1 1
300 1 1 0.5897 0.9030954282842412 8.22170825255084 12.778641046736082 -4 0 1
558 1 1 0.5897 1.2150264106413589 8.353634781561194 14.932580770497536 4 2 0
784 1 2 -1.1794 3.955892565611486 8.646437637848448 11.654270034322577 4 5 2
557 1 1 0.5897 0.03866269136836542 9.24571368663126 14.59737602286378 4 2 0
817 1 2 -1.1794 5.615364197587945 7.5778470965392675 16.133446037095826 2 -1 0
820 1 2 -1.1794 8.824402460614158 6.859054752772237 14.330147911056612 3 3 4
853 1 2 -1.1794 8.589814168835249 8.469998989722267 11.402853813351063 -2 1 1
95 1 1 0.5897 6.352713379178373 11.681136717198912 15.639678439444399 -3 1 0
700 1 2 -1.1794 4.180841410668956 4.920922976305642 18.85488963029257 4 1 1
702 1 1 0.5897 4.858358120637343 4.562941708349371 18.281247785888517 4 1 1
326 1 1 0.5897 7.642461756230716 6.026354482188968 18.26629017350889 0 -2 -1
701 1 1 0.5897 3.9913355809550586 4.21448218314771 19.472363669840774 4 1 1
256 1 2 -1.1794 2.660006876865782 3.266823687468502 20.692880710247657 -2 -1 0
151 1 2 -1.1794 7.60306132671086 5.045788851477441 21.91882771851348 2 1 0
258 1 1 0.5897 3.0685265725496214 2.674993128321077 21.324628574570458 -2 -1 0
60 1 1 0.5897 6.843761225509149 3.002548053326359 17.678073073225463 3 -2 -3
399 1 1 0.5897 2.409466893899365 5.33885573469348 17.807748930501898 4 4 -5
58 1 2 -1.1794 6.30760171016711 3.5962284441949626 17.15240334794488 3 -2 -3
257 1 1 0.5897 2.2100294914612437 2.6877221107463294 20.077725265101485 -2 -1 0
398 1 1 0.5897 1.9572138842666815 6.328473361953635 16.755106749320984 4 4 -5
59 1 1 0.5897 6.906846138510287 4.297194533687442 16.89587208320965 3 -2 -3
397 1 2 -1.1794 1.685858360775005 5.532140974633728 17.211697529362972 4 4 -5
153 1 1 0.5897 7.13172677294414 5.4061247526434855 21.167644009038924 2 1 0
275 1 1 0.5897 1.0740549739767162 3.2380420708245174 21.526177209129745 -1 3 -3
152 1 1 0.5897 7.100131527704098 4.270487092705469 22.16833641100134 2 1 -1
215 1 1 0.5897 1.8443648745310586 2.3987779609590296 17.751488937390285 1 1 2
325 1 2 -1.1794 7.622474301841427 6.09349626205581 17.311653609718213 0 -2 -1
49 1 2 -1.1794 3.775013029155672 1.3762821098735072 22.224885898453266 7 1 -2
214 1 2 -1.1794 2.156806390352931 1.8076664908712792 18.436480448254553 1 1 2
790 1 2 -1.1794 3.1009437612060666 6.0675190920890785 21.288582575958618 2 5 1
465 1 1 0.5897 5.374668565031336 6.0292574748752505 19.496658473876572 7 2 -2
792 1 1 0.5897 2.928399671025218 5.157890439234525 21.045594637085845 2 5 1
327 1 1 0.5897 8.523438908495587 5.918413838416593 17.03985048316722 0 -2 -1
851 1 1 0.5897 8.306204369998605 1.4298201580441905 19.073806779524485 -5 0 -3
274 1 2 -1.1794 0.270899238875535 3.4662526628907533 21.994256056798207 -1 3 -3
216 1 1 0.5897 3.0523333089994718 1.5913017844368142 18.17665924308069 1 1 2
850 1 2 -1.1794 7.916343194120534 1.274388659807998 18.21351876398527 -5 0 -3
586 1 2 -1.1794 5.0210929030800635 1.0823044273961464 18.059430912827878 -1 2 4
813 1 1 0.5897 8.445135814132039 0.9901051970269986 22.125055573231375 -5 8 -4
852 1 1 0.5897 6.992100249056774 1.1048292687483119 18.395987973668962 -5 0 -3
603 1 1 0.5897 0.8812647382409711 4.041877283020097 16.749171561126914 3 5 -2
566 1 1 0.5897 0.5759850441104062 7.7691588227220425 22.0476013505975 0 5 -6
781 1 2 -1.1794 8.348830014614425 9.714008181631463 19.650252037197088 -3 -1 0
542 1 1 0.5897 0.11218190621436855 9.002402988646043 18.482542295631177 -5 0 2
464 1 1 0.5897 6.144957276670103 7.330340335744123 19.572502072676947 7 2 -2
682 1 2 -1.1794 5.619980663021218 11.134509342318458 21.36742757884382 6 -1 -7
791 1 1 0.5897 3.544073143425769 6.4396825202519965 20.52610802602617 2 5 1
716 1 1 0.5897 2.1689971864224127 9.570443065233407 19.325325635658242 4 -7 -3
565 1 2 -1.1794 0.6521494312022184 7.213076084679134 21.27220547647969 0 5 -6
567 1 1 0.5897 1.518378982078775 6.812884243418758 21.348041678950736 0 5 -6
96 1 1 0.5897 5.627521972447563 11.575077506299811 16.964377681635437 -4 1 0
684 1 1 0.5897 4.7091182799845095 11.052333090386984 21.649963168455475 6 -1 -7
687 1 1 0.5897 5.2713153775393495 9.58918927920609 19.173161446685732 9 -6 -3
548 1 1 0.5897 2.9425551849751073 8.672259438098063 17.02982232675585 4 -1 6
541 1 2 -1.1794 0.8239631695196838 8.377843571383671 18.622358170903794 -5 0 2
819 1 1 0.5897 5.722215819650908 8.162805757883078 16.883541728928673 2 -2 0
543 1 1 0.5897 0.7166048432941112 8.090666138513672 19.529134774743557 -5 0 2
686 1 1 0.5897 6.746542032396654 9.461415509568287 18.858042998292866 9 -6 -3
715 1 2 -1.1794 2.9455134106527154 10.020340013609609 19.658297368994102 4 -7 -3
463 1 2 -1.1794 6.174700254244883 6.415612590702214 19.852913469455068 7 2 -2
685 1 2 -1.1794 5.899655770152679 9.044605099573678 18.698966492890822 9 -6 -3
717 1 1 0.5897 3.10374409753542 10.723790237382088 19.028727607757634 4 -7 -3
683 1 1 0.5897 5.999870197159024 10.27069164153369 21.527870228418177 6 -1 -7
417 1 1 0.5897 2.650110748983146 10.56370753489558 21.32209056798697 -1 -2 -2
416 1 1 0.5897 1.7009313829650041 11.42100120694293 22.132051236463514 -1 -2 -2
782 1 1 0.5897 8.4512717504338 10.179789040158408 20.48020018459052 -3 -1 0
415 1 2 -1.1794 2.50198178795789 10.902077281655375 22.20516206402545 -1 -2 -2
628 1 2 -1.1794 3.7235294761034825 11.796221283568839 17.539944513535037 0 -4 2
36 1 1 0.5897 5.288757583855686 15.131180363635924 2.055611353508158 -6 1 0
34 1 2 -1.1794 5.1597848145073515 15.927833101542515 2.5704323824706883 -6 1 0
35 1 1 0.5897 4.333846334336866 15.783989175478109 3.0323607256849003 -6 1 0
66 1 1 0.5897 2.7410941345066555 14.410856193407994 4.102112866249871 3 -2 -5
278 1 1 0.5897 1.5443509070763601 15.634616182974016 2.6645757381809783 0 0 2
506 1 1 0.5897 1.0827562938946218 13.747362870009246 3.0663821924494252 2 2 -2
517 1 2 -1.1794 8.31047968847336 13.336552706303827 4.88745144193658 -2 -2 -4
383 1 1 0.5897 0.7187262597765978 15.549658024621447 0.3258858791386446 -10 -2 0
776 1 1 0.5897 7.731406974955008 14.977114364669957 4.211065715566288 4 -3 2
777 1 1 0.5897 6.758450938740009 15.871999264834363 3.473182923249966 4 -3 2
775 1 2 -1.1794 7.593808815512931 15.884876823281571 3.940357272195323 4 -3 2
64 1 2 -1.1794 3.0113544222945787 15.32895549935385 4.119482062676298 3 -2 -5
505 1 2 -1.1794 1.315374533788594 13.002296628896287 3.6204724370440906 2 2 -2
169 1 2 -1.1794 5.563756459517399 13.757987461369217 1.1585242377164289 -2 3 -1
170 1 1 0.5897 5.02931618758661 12.97585248608076 1.2959761063135762 -2 3 -1
65 1 1 0.5897 2.895389535380335 15.596047484898644 5.031325565643097 3 -2 -5
507 1 1 0.5897 2.137991105479506 12.678123017196699 3.253795434922007 2 2 -2
171 1 1 0.5897 6.466476858537049 13.44339091455309 1.207136391288818 -2 3 -1
434 1 1 0.5897 -0.09701378346816646 11.92253747730326 3.6187877076562964 2 3 -2
277 1 2 -1.1794 0.7717449070773548 15.213519919539744 2.2877110459610357 0 0 2
519 1 1 0.5897 7.540872032077733 13.107141576585576 5.408329865721226 -2 -2 -4
166 1 2 -1.1794 8.401359896835572 12.80517265256882 1.7361402699007609 0 -1 4
168 1 1 0.5897 8.312743057796853 12.357656325845369 2.5776359339444253 0 -1 4
279 1 1 0.5897 0.0753262830439782 15.3764425485236 2.923918570674665 0 0 2
106 1 2 -1.1794 2.2109762363307746 20.24299633269424 5.3487963879678455 -1 -1 4
797 1 1 0.5897 6.919986228562394 18.521848658517726 1.0472704414059697 -1 -4 -1
616 1 2 -1.1794 2.653975559961796 18.783283528028186 0.28382107751032076 -2 2 0
811 1 2 -1.1794 8.126111654700603 22.077829958445946 0.33229475662141517 -5 7 -3
694 1 2 -1.1794 -0.06063608676416222 19.738552070279056 1.3321423779029398 3 -2 0
157 1 2 -1.1794 5.224850809853876 18.383902171787234 1.6198065546747555 3 1 -2
50 1 1 0.5897 3.2941909907759817 22.630303829126788 0.4634517235096146 7 0 -1
600 1 1 0.5897 4.977071131837748 22.525991530028215 5.107247312484344 -1 -3 -2
107 1 1 0.5897 3.0544621323943106 19.886033186946435 5.070621222057851 -1 -1 4
252 1 1 0.5897 2.8116008992198993 21.954274962869512 5.102701639011179 5 -4 3
418 1 2 -1.1794 2.5102156709108403 21.710386200983898 1.6845137739418823 -6 -3 5
158 1 1 0.5897 4.36329452762402 18.583408330249192 1.2535146902666008 3 1 -2
159 1 1 0.5897 5.118943259553453 17.524549801275924 2.027960393908918 3 1 -2
420 1 1 0.5897 2.2149285900151265 21.030117952273578 2.2897349520495363 -6 -3 5
243 1 1 0.5897 0.7063099205661152 19.542315164530706 4.5979609689096765 1 -3 3
598 1 2 -1.1794 5.756159197331756 21.97332338553406 5.169035884370669 -1 -3 -2
796 1 2 -1.1794 7.829179744053315 18.437422210136795 0.7600763463561581 -1 -4 -1
432 1 1 0.5897 7.360595459764796 17.301596707861357 5.297945451290925 -5 -1 -2
695 1 1 0.5897 0.7614169773343219 19.443704681764885 0.9402395113416873 3 -2 0
419 1 1 0.5897 2.2128013537581825 22.52950281520313 2.0805310162288446 -6 -3 5
55 1 2 -1.1794 4.78255899421809 19.378751122942894 4.351228925674199 -1 0 0
423 1 1 0.5897 8.840249793316081 21.071759428190347 1.6296339333605367 -5 0 5
242 1 1 0.5897 -0.01851355693051955 19.50808620763584 3.269278507924751 1 -3 3
599 1 1 0.5897 5.49828891263954 21.148205077056723 4.758034400803835 -1 -3 -2
57 1 1 0.5897 4.931642765293805 19.377387094053105 3.4056988140067848 -1 0 0
798 1 1 0.5897 8.317104681554053 19.031697677399208 1.3301701575640148 -1 -4 -1
422 1 1 0.5897 9.024510473274685 20.55410948594301 3.040325910938854 -5 0 5
56 1 1 0.5897 5.461474283302656 18.80235377513361 4.70205268500584 -1 0 0
181 1 2 -1.1794 8.524967004471002 20.258734558435513 5.272989514658467 -4 1 -2
405 1 1 0.5897 7.879714486174103 15.395922043009815 8.89842158385348 6 -2 1
404 1 1 0.5897 6.61422958775919 15.433167464912374 9.72854287821174 6 -2 1
403 1 2 -1.1794 6.931327124052932 15.281114347186312 8.838256505121421 6 -2 1
2 1 1 0.5897 5.972165947242673 14.338591734333015 7.829699094438914 -1 -7 4
1 1 2 -1.1794 5.362154737274109 13.816020812180554 7.309079178290548 -1 -7 4
73 1 2 -1.1794 2.064820596675217 14.866594883455798 9.35258906331869 2 0 2
339 1 1 0.5897 3.762819127321859 16.27641325880696 7.411683267833135 -3 1 3
32 1 1 0.5897 6.022040442280365 16.710668583950394 8.229835357384182 3 5 0
518 1 1 0.5897 9.006579700604897 13.465465236086509 5.53170649073926 -2 -2 -4
338 1 1 0.5897 2.3383268064077694 16.139926945383813 6.91760253621723 -3 1 3
337 1 2 -1.1794 3.1516541677650163 15.647451966386116 7.028117957893533 -3 1 3
387 1 1 0.5897 3.3160451269025706 13.377595386465282 9.563736678453585 -3 1 0
31 1 2 -1.1794 5.31448857621452 17.16197262393348 7.76938042773982 3 5 0
74 1 1 0.5897 2.3579028645176434 15.020981760023192 8.454531073510735 2 0 2
386 1 1 0.5897 4.37871908854649 13.023501640466174 8.545265623011641 -3 1 0
372 1 1 0.5897 6.352635006503606 12.352210299136742 6.942118862055236 3 7 -1
385 1 2 -1.1794 3.9012278306002983 12.669202947008953 9.295407072997738 -3 1 0
3 1 1 0.5897 4.697657199510383 14.441000464981116 7.01910858822879 -1 -7 4
512 1 1 0.5897 -0.07214506543521552 17.157342651109225 6.8452601094096535 1 2 -5
69 1 1 0.5897 0.08132062266261841 13.615601426204917 8.927455444403083 7 -3 -4
511 1 2 -1.1794 0.6523787000758762 17.18987883480296 7.4699553589579235 1 2 -5
75 1 1 0.5897 1.4275195461356176 15.560988745171795 9.519788839250433 2 0 2
371 1 1 0.5897 7.511804406069033 11.826718741582317 7.7619499719484955 3 7 -1
183 1 1 0.5897 8.188817315826457 21.011423225890745 5.759509677828253 -4 1 -2
842 1 1 0.5897 6.998107450231631 22.316040294152835 8.157713638302496 -1 0 0
141 1 1 0.5897 8.900448819547297 20.545498941806677 10.535448368135366 0 -2 0
431 1 1 0.5897 6.4209918106175925 17.827471127961424 6.362229891855279 -5 -1 -2
86 1 1 0.5897 4.824298670399706 19.267921872188914 10.04504534012528 0 6 0
108 1 1 0.5897 2.1947811300891837 20.109670246060183 6.296540868310809 -1 -1 4
638 1 1 0.5897 1.7067898345823345 21.715480467942918 10.07854175580355 -7 -1 2
140 1 1 0.5897 7.931436318905368 21.54883092329799 9.946992643261119 0 -2 0
637 1 2 -1.1794 1.9375015072970916 22.05688599869204 9.214567302566516 -7 -1 2
33 1 1 0.5897 5.106181672677911 17.91231037810394 8.326012092474393 3 5 0
365 1 1 0.5897 1.7684805070372396 20.628119311846596 8.432505161672964 2 3 2
139 1 2 -1.1794 8.494262479796095 21.39533201637999 10.705881581281488 0 -2 0
87 1 1 0.5897 5.03941108777864 20.25143538568021 8.914408352834913 0 6 0
841 1 2 -1.1794 6.419905795020047 21.826596044308687 8.742833112434425 -1 0 0
513 1 1 0.5897 0.7778469550172253 18.122837697365867 7.643560023789047 1 2 -5
85 1 2 -1.1794 4.5743198998602725 19.44529771341204 9.13823491062402 0 6 0
366 1 1 0.5897 2.3527143859901645 19.28009911465179 8.797788948308366 2 3 2
364 1 2 -1.1794 1.8201042351498655 19.71977277507471 8.135017158900617 2 3 2
843 1 1 0.5897 5.589498833068195 22.301707299091355 8.712267820679982 -1 0 0
639 1 1 0.5897 1.1666880230086147 22.552947026237852 8.938869451066926 -7 -1 2
424 1 2 -1.1794 2.3480068052346765 18.769390039944547 10.898367863665682 6 -4 1
182 1 1 0.5897 7.976609591925188 19.526513488243914 5.554760303259249 -3 1 -2
430 1 2 -1.1794 7.084602307818395 18.108729820871062 5.7323211026419 -5 -1 -2
829 1 2 -1.1794 3.513888048744346 14.623453199234461 11.911758685555052 3 3 4
24 1 1 0.5897 1.8787289860376335 13.214101934653419 15.450258817963105 -4 2 1
527 1 1 0.5897 5.552407956129871 14.983062622187822 11.864739880994778 -3 -6 1
121 1 2 -1.1794 1.300709508309848 14.824084469260468 15.23159592216947 2 -3 -1
728 1 1 0.5897 3.124844447602248 12.934693000493562 12.50632487742666 -1 2 -2
442 1 2 -1.1794 6.993234617112894 12.493846872155196 13.027524359821966 5 5 -2
444 1 1 0.5897 7.93286231389237 12.52399557861792 12.847436088764702 5 5 -2
342 1 1 0.5897 3.9402608957484535 17.13809113667738 14.022470595367736 2 4 2
340 1 2 -1.1794 3.1022795541665724 16.675593035628033 14.0100882196967 2 4 2
100 1 2 -1.1794 8.32235868173176 17.045410825845323 12.235121002690688 5 -6 -1
8 1 1 0.5897 8.37896094848017 16.823777481527554 15.789276170726273 2 -2 -1
528 1 1 0.5897 6.769272179160129 14.08329027432043 11.904545159761494 -3 -6 1
831 1 1 0.5897 3.172159845099642 15.180397099251751 12.611254416235239 3 3 4
122 1 1 0.5897 0.5407504384878775 15.378817314771767 15.055553316902067 2 -3 -1
123 1 1 0.5897 2.0487170695008947 15.338295228361796 14.927767494167872 2 -3 -1
23 1 1 0.5897 2.6264060845573414 12.315612016328986 14.4881673956276 -4 2 1
526 1 2 -1.1794 6.490187730418952 14.969240023244371 11.673346387878578 -3 -6 1
830 1 1 0.5897 2.9792649253194945 14.841744095979898 11.148359224934865 3 3 4
483 1 1 0.5897 0.2282918286170471 16.958303011577613 11.685840003423241 -1 3 -2
102 1 1 0.5897 7.615567454529509 16.42029568991608 12.39615940883733 5 -6 -1
22 1 2 -1.1794 2.2451207744132633 12.333816228336667 15.36596978810473 -4 2 1
727 1 2 -1.1794 3.119648446674466 12.014668405365768 12.770465952691271 -1 2 -2
482 1 1 0.5897 0.4956432313143918 15.471427623471968 11.58739101224516 -1 3 -2
481 1 2 -1.1794 0.9048798273331873 16.325090695330164 11.445885161982114 -1 3 -2
443 1 1 0.5897 6.622379309084472 12.012881835469042 12.287661697952197 5 5 -2
674 1 1 0.5897 0.17088019397968912 12.725771442242438 11.917828005258059 -3 -3 -3
9 1 1 0.5897 8.208734020827206 17.637876346707458 14.52428693883641 2 -2 -1
473 1 1 0.5897 6.438193532090412 17.74061502316399 14.371602077290273 1 1 -3
7 1 2 -1.1794 8.01121093485162 17.644249324043862 15.460874092595915 2 -2 -1
474 1 1 0.5897 5.3666181467088485 18.68393135443813 14.875534061640428 1 1 -3
678 1 1 0.5897 1.2033764113383232 20.041645669039944 11.160110862237934 5 1 -2
472 1 2 -1.1794 5.571825672836106 18.086223893686658 14.156567215352402 1 1 -3
856 1 2 -1.1794 8.47547665856214 20.27531772557962 15.20894845962579 1 -2 -3
805 1 2 -1.1794 4.659266273041361 22.073874060706167 12.919955065037756 2 -2 -4
662 1 1 0.5897 5.361300165855632 20.531953923179614 15.96353776288986 -2 -5 2
244 1 2 -1.1794 6.210660755166768 21.96300084581425 15.155453770728407 -4 3 -2
341 1 1 0.5897 2.445421262156244 17.36678205095223 14.093965055172989 2 4 2
806 1 1 0.5897 3.7049809245977627 22.005308718552627 12.890261208110854 2 -2 -4
25 1 2 -1.1794 1.650969645330571 22.236119342594236 13.536090988572365 -1 5 6
246 1 1 0.5897 5.710971236067015 22.195499915774782 14.37282455979592 -4 3 -2
770 1 1 0.5897 0.6692926187666236 19.140765966597534 15.075101339460893 5 -1 0
677 1 1 0.5897 0.7903724678135862 21.052906349270167 12.208295112486981 5 1 -2
771 1 1 0.5897 1.574227108559126 18.639718726814174 16.180544072887184 5 -1 0
425 1 1 0.5897 2.1184280963388553 17.898138731705075 11.221681528957362 6 -4 1
27 1 1 0.5897 0.9304817903949139 21.826803809521145 14.015266641737362 -1 5 6
623 1 1 0.5897 5.238912861306061 19.11375751593402 12.722477438280622 7 -2 1
769 1 2 -1.1794 1.2331991965319173 18.406151027765524 15.317171704835284 5 -1 0
624 1 1 0.5897 4.836338345436937 20.440485524801915 12.114487856176527 7 -2 1
245 1 1 0.5897 6.884435060968683 21.36076844710564 14.839877280182973 -4 3 -2
426 1 1 0.5897 3.2431626610282778 18.91144935034503 11.206215395650483 6 -5 1
622 1 2 -1.1794 4.842358788135537 19.499127368847127 11.941140230830564 7 -2 1
857 1 1 0.5897 8.40702254198771 19.325272184568853 15.30380498428408 1 -2 -3
539 1 1 0.5897 3.4918436324288114 21.126599177936924 15.867268618234117 -1 -5 0
676 1 2 -1.1794 0.6876113928151941 20.8389307524033 11.280963430779744 5 1 -2
540 1 1 0.5897 2.6302713870914145 22.001320478051802 14.981554049026565 -1 -5 0
538 1 2 -1.1794 3.239844099714094 22.03800615222199 15.718651711391333 -1 -5 0
661 1 2 -1.1794 4.911975111418356 19.69733748059854 16.096871876511663 -2 -5 2
663 1 1 0.5897 5.517704891925712 19.180930197569467 16.628539410763878 -2 -5 2
172 1 2 -1.1794 6.86515588267213 15.570899112823897 19.779476344252668 3 2 -2