LAMMPS data file via write_data, version 30 Jul 2021, timestep = 24750000

1008 atoms
2 atom types
672 bonds
1 bond types
336 angles
1 angle types

-3.1447219753624243 14.754720974916454 xlo xhi
-0.04494007076866424 22.62493907079711 ylo yhi
-0.13744557992161965 19.367443579926995 zlo zhi
-0.6842972622187918 -6.663441318509058 0.25786593376200434 xy xz yz

Masses

1 1.008
2 15.999

Pair Coeffs # lj/cut/tip4p/long/omp

1 0 0
2 0.21084 3.1668

Bond Coeffs # harmonic/omp

1 450 0.9572

Angle Coeffs # harmonic/omp

1 55 104.52

Atoms # full

123 41 1 0.5897 -3.2282470090031534 2.2685813763242253 2.4855578749900027 1 0 0
55 19 2 -1.1794 -0.9887675631903434 4.300945926521234 3.0549760512866726 0 0 0
56 19 1 0.5897 -1.3391220608128382 3.414297632743061 2.968938550861245 0 0 0
122 41 1 0.5897 -2.0489738333289598 1.807469318139185 1.6557754624499426 1 0 0
86 29 1 0.5897 -2.568525262440516 0.7969704158330185 4.123577786583943 1 0 0
158 53 1 0.5897 -4.398691843044238 4.473618322941466 4.317319747041248 1 0 0
121 41 2 -1.1794 -2.352486048055066 1.8893635563815165 2.559772681533147 1 0 0
57 19 1 0.5897 -0.15653660855411689 4.276837565973888 2.582763323608199 0 0 0
163 55 2 -1.1794 -1.9474788378586254 1.3105958487247023 -0.08048379717890036 1 0 0
602 201 1 0.5897 -0.46857617931474227 5.549854441056633 0.4650571623520837 1 0 1
9 3 1 0.5897 -1.1411129973123315 5.638828916873827 4.29634423629018 0 0 0
101 34 1 0.5897 -2.5372975811798706 4.4284350027250365 0.19105616264323944 1 0 0
33 11 1 0.5897 0.3547653293567157 0.4920416637381796 2.196200441385888 0 0 0
669 223 1 0.5897 -5.0271860830830954 2.5380458842578446 9.386222140294539 1 0 0
133 45 2 -1.1794 -2.5263295654212468 3.126992694274841 6.105525058176428 1 0 0
68 23 1 0.5897 -3.1053742630858054 0.3481578704254954 7.606848032161889 0 0 0
134 45 1 0.5897 -3.3610420728790893 2.876810839576236 6.501459648245537 1 0 0
67 23 2 -1.1794 -2.265776280343923 0.6123710174516452 7.982813850270288 0 0 0
87 29 1 0.5897 -2.566256395452016 1.4036506855692625 5.5105460026379935 1 0 0
69 23 1 0.5897 -2.464074330315345 1.40739471780115 8.477816150721 0 0 0
135 45 1 0.5897 -2.11816336633714 3.704276742292512 6.750747468150044 1 0 0
98 33 1 0.5897 -4.430625337080735 5.0333002704767305 8.733098566780887 1 0 0
124 42 2 -1.1794 -5.022103998268344 2.868800936147838 6.9570673825840625 1 0 0
90 30 1 0.5897 -4.464813910582096 0.7494041254229679 4.864418614709873 1 0 0
157 53 2 -1.1794 -3.920202269966133 5.059293014314401 4.904010323169924 1 0 0
125 42 1 0.5897 -5.242094772467599 2.0937810274449573 6.440140793327865 1 0 0
159 53 1 0.5897 -3.472837321687934 4.4737726667379825 5.514922262501539 1 0 0
85 29 2 -1.1794 -2.655411034511742 0.5696344574189084 5.0492208498689815 1 0 0
559 187 2 -1.1794 -4.390862796037503 4.610001395396586 13.048922505984713 0 0 0
626 209 1 0.5897 -6.102353357572111 2.2709566697665826 12.972016382429212 1 0 0
589 197 2 -1.1794 -5.844930736305363 1.129845022623226 14.339505440739705 1 0 0
662 221 1 0.5897 -7.811666895565892 4.63887532316716 14.204540812931317 1 0 0
625 209 2 -1.1794 -6.389996932022873 2.88927633398777 12.300349422934893 1 0 0
668 223 1 0.5897 -5.789462235743527 2.2146363605548745 10.653445768898665 1 0 0
560 187 1 0.5897 -4.540480559257079 5.394739363072988 13.576346696217131 0 0 0
561 187 1 0.5897 -5.268121025097866 4.277846449593855 12.858796027953863 0 0 0
524 175 1 0.5897 -2.68491268752396 3.5630364769305345 9.926596245445214 0 0 0
99 33 1 0.5897 -4.106037730472734 5.586216206171818 10.104423010612354 1 0 0
523 175 2 -1.1794 -2.2370571396302146 2.7171408669437564 9.944631789573098 0 0 0
667 223 2 -1.1794 -5.304832681958281 1.8056665513855459 9.936400425821477 1 0 0
627 209 1 0.5897 -7.2817291150072325 3.1245512240079387 12.556652990830795 1 0 0
986 329 1 0.5897 -4.3449474902591705 0.44806203052835236 10.676466755309646 1 1 0
606 202 1 0.5897 -6.1073622183000085 4.860005689173015 9.962477880989848 1 0 0
591 197 1 0.5897 -5.281487169167411 0.35851679520654856 14.402422960988144 1 0 0
97 33 2 -1.1794 -4.3696152214566855 4.7832394581005095 9.654942947954666 1 0 0
630 210 1 0.5897 -8.167647524947002 2.3131916787428644 16.776962496608355 1 0 0
571 191 2 -1.1794 -5.561918911112592 0.7088451055056187 17.59482717539141 0 0 0
637 213 2 -1.1794 -5.679063820660442 3.403476657424314 15.707525563469328 1 0 0
601 201 2 -1.1794 -7.295772437902945 5.222971750747204 19.230026403313687 1 0 0
638 213 1 0.5897 -5.959208401030366 4.05452906353206 15.064212816508588 1 0 0
639 213 1 0.5897 -6.420984537863879 3.3239194803431467 16.30697553174312 1 0 0
593 198 1 0.5897 -7.599446875516492 1.1711350356878918 14.953042039832 1 0 0
164 55 1 0.5897 -8.335310737220292 2.212022418947782 18.77172150776905 1 0 -1
628 210 2 -1.1794 -7.9633256408450706 3.178164608705143 17.132503103211917 1 0 0
20 7 1 0.5897 -5.849384651119985 2.4609339805727064 18.553969074790146 0 0 -1
590 197 1 0.5897 -5.533335679706633 1.7120356448893643 15.032438024467206 1 0 0
603 201 1 0.5897 -6.647776259597378 4.525103501376671 19.32742678735962 1 0 0
165 55 1 0.5897 -9.063857870761066 0.8931902874543549 18.919365404973107 1 0 -1
629 210 1 0.5897 -8.759187532942365 3.690580639413722 16.98988767658178 1 0 0
549 183 1 0.5897 -4.67381075554188 4.507946345471251 16.838254566024986 0 0 0
19 7 2 -1.1794 -5.490395295020259 3.0601877328188216 19.208342178931474 0 0 -1
572 191 1 0.5897 -6.146391989988436 0.26179127458543017 16.982729792164783 0 0 0
661 221 2 -1.1794 -7.254538765095702 5.321006158106894 14.579271740638552 1 0 0
331 111 2 -1.1794 -2.100830000807823 8.50628597524504 -0.019358759277178075 1 0 0
332 111 1 0.5897 -2.3103797000218673 8.895167756876699 0.8297976018919323 1 0 0
146 49 1 0.5897 -1.4477159370773323 6.519781180105382 2.2043209528978784 1 0 0
291 97 1 0.5897 -3.2339234242872115 10.307678929985071 2.5876913507659403 1 0 0
145 49 2 -1.1794 -0.6408854385168712 6.867924292636434 1.8249716722818108 1 0 0
289 97 2 -1.1794 -2.4850609089343125 9.813023799945263 2.2547228322504966 1 0 0
147 49 1 0.5897 -0.9362891586990787 7.520690632093735 1.1903049390737745 1 0 0
255 85 1 0.5897 -2.2477079256099772 8.949550733477135 3.7385504100518507 1 0 0
112 38 2 -1.1794 -3.389367043191709 6.3519330570384644 2.499305715644249 1 0 0
187 63 2 -1.1794 0.47776213455842687 10.208800597020534 0.6015485393662636 0 0 0
290 97 1 0.5897 -1.72621157775907 10.35841412871493 2.4616337104637056 1 0 0
113 38 1 0.5897 -3.600578644891825 5.8752288423506 3.3019295416221213 1 0 0
253 85 2 -1.1794 -2.314451464586008 8.681524552339782 4.65492994971618 1 0 0
254 85 1 0.5897 -1.8686610860961756 7.83508791465086 4.690479788012765 1 0 0
114 38 1 0.5897 -3.3818869505909506 5.680925333667271 1.8166708009480639 1 0 0
292 98 2 -1.1794 -5.003504962537025 10.631948945343913 7.108846933101666 1 0 0
301 101 2 -1.1794 -2.364739081910342 11.099498267803847 6.173315070286806 1 0 0
294 98 1 0.5897 -5.224957671687382 10.082794507853762 7.860824791403969 1 0 0
293 98 1 0.5897 -4.065203433224426 10.49415451553302 6.979162479359069 1 0 0
302 101 1 0.5897 -1.9916055476601477 10.3190766759372 5.763255475467458 1 0 0
236 79 1 0.5897 -3.289549319503114 7.310905894576377 7.7188349436504975 0 0 0
237 79 1 0.5897 -2.113986796583079 7.317706657135026 8.672555664618047 0 0 0
7 3 2 -1.1794 -0.8528938294929791 6.403561958269144 4.794727105510461 0 0 0
8 3 1 0.5897 -0.9880376979397045 6.158351844434811 5.709959323944863 0 0 0
109 37 2 -1.1794 -4.491213965288669 6.123575819688735 7.38067665342914 1 0 0
235 79 2 -1.1794 -2.580052436962418 7.866332197339035 8.041696542212046 0 0 0
110 37 1 0.5897 -4.584580140813063 5.9098093165217875 6.452417625925154 1 0 0
111 37 1 0.5897 -5.317777461726719 6.546269648941018 7.614015070096184 1 0 0
837 279 1 0.5897 -6.343211118801547 8.409166328430649 9.088773438460823 1 0 0
258 86 1 0.5897 -5.149153096299354 9.78222151095719 5.481582932830792 1 0 0
692 231 1 0.5897 -2.8105538565833483 9.594813797003399 8.97771474532112 0 0 0
835 279 2 -1.1794 -5.792858661173618 9.10606748880777 9.44602693629796 1 0 0
257 86 1 0.5897 -4.220420025997621 8.749024418111805 4.879658110651836 1 0 0
256 86 2 -1.1794 -5.139873749424693 9.013329581644001 4.9114446995614305 1 0 0
793 265 2 -1.1794 -6.343723147861828 9.752692851022008 12.006093926086452 1 0 0
616 206 2 -1.1794 -6.912689030226039 6.761270350486551 12.283308065846 1 0 0
650 217 1 0.5897 -3.647872626936245 7.60819688660173 11.659480296551779 1 0 0
759 253 1 0.5897 -5.92522541057504 9.006748711445889 13.632017038551362 1 0 0
649 217 2 -1.1794 -4.291287272558842 7.286101590545671 11.02830884649761 1 0 0
794 265 1 0.5897 -6.078903009501106 10.671744539523441 11.967116123470785 1 0 0
651 217 1 0.5897 -5.095927795536166 7.184340137779907 11.536578076567334 1 0 0
795 265 1 0.5897 -6.335764741100018 9.461668129348162 11.09429477533451 1 0 0
618 206 1 0.5897 -7.034192397769542 6.138532703047163 11.566587076585275 1 0 0
691 231 2 -1.1794 -2.751148351997731 10.301735660745015 9.620388860761372 0 0 0
663 221 1 0.5897 -7.091287278043401 5.923229479223891 13.853465775468027 1 0 0
836 279 1 0.5897 -5.17178834441701 8.652768362549931 10.016107982087254 1 0 0
798 266 1 0.5897 -8.85023662052312 10.050050633481266 16.64721490970993 1 0 0
797 266 1 0.5897 -7.716637341454662 10.904884900881832 17.1724401417258 1 0 0
741 247 1 0.5897 -6.50113549172382 8.807448596006523 18.85020017733177 0 0 0
333 111 1 0.5897 -8.776915081341436 9.500974162117409 18.874681078348765 1 0 -1
739 247 2 -1.1794 -5.968762706729056 8.13508379130882 18.424874200427666 0 0 0
613 205 2 -1.1794 -7.7280649907455805 6.704372970329273 16.88152895724484 1 0 0
615 205 1 0.5897 -7.768053887279978 6.129882160481452 16.116931421073147 1 0 0
740 247 1 0.5897 -6.581444619190076 7.666956249919469 17.857790953850426 0 0 0
796 266 2 -1.1794 -8.652195297452408 10.73648709035756 17.284276271170256 1 0 0
758 253 1 0.5897 -6.121215077434599 9.66182552831042 14.982677798112096 1 0 0
805 269 2 -1.1794 -6.1764798032045825 11.166973001337249 15.77742201401224 1 0 0
511 171 2 -1.1794 -4.410145735577059 6.841675523829287 14.807763198300163 0 0 0
757 253 2 -1.1794 -6.157593223634208 8.813734516142146 14.54020736239304 1 0 0
762 254 1 0.5897 -8.052267334693326 8.559559654650046 15.309437370979083 1 0 0
512 171 1 0.5897 -4.87096967256292 7.670666239907025 14.678066565222133 0 0 0
614 205 1 0.5897 -7.52048480098424 6.119580155314711 17.610269530294673 1 0 0
281 94 1 0.5897 -3.702692011767713 13.775143146182963 3.3264984738849903 1 0 0
315 105 1 0.5897 -1.1180995019547169 14.057018472975628 1.1532549778613448 1 0 0
280 94 2 -1.1794 -3.681412455347869 14.031485221514856 2.4046147418797483 1 0 0
770 257 1 0.5897 -1.8584279740197924 12.351948424413107 0.2720820913307985 1 0 1
314 105 1 0.5897 -0.450929884889097 15.020079418044629 2.111995867293188 1 0 0
282 94 1 0.5897 -2.83963776977538 14.474394321013436 2.298069577017891 1 0 0
313 105 2 -1.1794 -1.233540049157823 14.910055864099508 1.5720852747568723 1 0 0
225 75 1 0.5897 -0.792310660822289 12.398514040658453 3.6267314627987637 0 0 0
223 75 2 -1.1794 -0.48989874336894257 11.561493201555466 3.274061105991141 0 0 0
500 167 1 0.5897 -2.2666003284244756 16.003060938890112 0.4536384243991032 1 0 0
423 141 1 0.5897 -2.8934440125810355 16.487014915464968 3.8829967391510856 1 0 0
769 257 2 -1.1794 -0.9899119724044438 12.618403104176547 -0.029139195346248953 1 0 1
269 90 1 0.5897 -3.7775818559922607 12.941527363996922 1.0865796821323488 1 0 0
771 257 1 0.5897 -0.4069597051231808 11.921847165302221 0.2730003435510176 1 0 1
499 167 2 -1.1794 -2.8200197481880207 16.687463158174545 0.07737698467901777 1 0 0
421 141 2 -1.1794 -2.689223045939479 16.079122467184035 4.724426236029433 1 0 0
175 59 2 -1.1794 -1.0611013898165895 13.976277284204349 4.685320444998981 0 0 0
403 135 2 -1.1794 -2.787354136415647 15.652483059841575 7.8170526176049675 0 0 0
1004 335 1 0.5897 -5.408418749211489 16.893947733568712 9.305518633103446 1 0 0
404 135 1 0.5897 -1.983688920200278 15.797692369959487 7.317902928893178 0 0 0
279 93 1 0.5897 -5.837300074249616 14.1515542913909 7.488549526352533 1 0 0
277 93 2 -1.1794 -4.970738891326546 13.981703155490514 7.119213179680128 1 0 0
278 93 1 0.5897 -4.428354019598983 14.702878211495284 7.438479476092237 1 0 0
303 101 1 0.5897 -1.630600639672802 11.500452894361024 6.638481392445405 1 0 0
327 109 1 0.5897 -4.466164926327567 13.329927741881496 5.561953081394796 1 0 0
267 89 1 0.5897 -4.468831401814237 12.7421303489002 8.589619437426533 1 0 0
405 135 1 0.5897 -2.8352517357918097 16.39701851607005 8.416815623173262 0 0 0
325 109 2 -1.1794 -4.114972359032045 12.893606615336587 4.785721494057496 1 0 0
462 154 1 0.5897 -5.504675466261326 16.781621981607067 6.699682157299021 1 0 0
422 141 1 0.5897 -2.571607355568651 16.814871368384907 5.325362493795382 1 0 0
425 142 1 0.5897 -4.674070653868772 15.950892892880159 4.908617455154975 1 0 0
318 106 1 0.5897 -6.8059912627204335 15.085505388374923 9.394330142348458 1 0 0
326 109 1 0.5897 -3.4331888732859372 12.313206729718837 5.1242650694406535 1 0 0
265 89 2 -1.1794 -4.232133255884747 12.602046178997007 9.506347134861608 1 0 0
266 89 1 0.5897 -3.7504832895397953 11.774729384887852 9.506128083555025 1 0 0
176 59 1 0.5897 -1.6065350382559322 14.740940404488553 4.870281599845359 0 0 0
727 243 2 -1.1794 -4.434153045102556 11.921283907644355 12.739962199955626 0 0 0
772 258 2 -1.1794 -6.731672075374382 12.164103312369518 10.35632119468398 1 0 0
729 243 1 0.5897 -4.665942710308879 12.634394538746111 13.335041884541674 0 0 0
1005 335 1 0.5897 -5.276787151876152 16.039337268635613 10.54806327416536 1 0 0
819 273 1 0.5897 -4.04177865541498 14.024289088537065 10.623561518413739 1 0 0
786 262 1 0.5897 -7.176196549220211 13.880386094883917 12.963846701552715 1 0 0
818 273 1 0.5897 -5.148834506818131 14.445729874299664 11.566292687080358 1 0 0
728 243 1 0.5897 -3.60216675074492 12.192902134866674 12.352492515686274 0 0 0
817 273 2 -1.1794 -4.293040613501137 14.717103654247742 11.234499629752003 1 0 0
784 262 2 -1.1794 -6.883819351762242 14.300041734105456 12.15486771385112 1 0 0
925 309 2 -1.1794 -6.459156264630585 16.096915117768557 14.438610704507305 1 0 0
1003 335 2 -1.1794 -5.9029966267340495 16.57391017550243 10.059868217824766 1 0 0
785 262 1 0.5897 -7.637601449929931 14.814011457220861 11.865143181336068 1 0 0
774 258 1 0.5897 -5.8792694204250715 11.816938973574478 10.093368517061725 1 0 0
773 258 1 0.5897 -6.55127202739238 12.667963984616643 11.149892913867635 1 0 0
829 277 2 -1.1794 -7.884302820118824 12.964068227936107 14.344554299550522 1 0 0
926 309 1 0.5897 -6.007216422170502 15.253123571664066 14.424258187140913 1 0 0
831 277 1 0.5897 -8.305613630858637 12.152580464373418 14.061286396934257 1 0 0
830 277 1 0.5897 -8.40239059242309 13.254184786275367 15.095303812114434 1 0 0
927 309 1 0.5897 -5.843422560888298 16.69181108974786 14.866530596552321 1 0 0
966 322 1 0.5897 -8.886450173575607 16.96148264525729 16.2351254570414 1 0 0
908 303 1 0.5897 -6.9624198794897225 15.116465007954943 17.556774706259176 0 0 0
781 261 2 -1.1794 -8.48517585528748 14.083489211884627 17.11861328883161 1 0 0
782 261 1 0.5897 -8.381682369564627 13.675923839328561 17.97841419277357 1 0 0
907 303 2 -1.1794 -6.2150784317858445 15.650826048229948 17.82517791355258 0 0 0
806 269 1 0.5897 -6.692789151637107 11.867719667307755 15.379066544527667 1 0 0
783 261 1 0.5897 -9.334199725228224 14.523472622517428 17.162145210357487 1 0 0
909 303 1 0.5897 -5.540966315864858 15.466196483391466 17.171225328510268 0 0 0
930 310 1 0.5897 -8.329461624887713 15.895691112350855 14.619508730752742 1 0 0
807 269 1 0.5897 -5.419214923629322 11.612844461623373 16.156720433179764 1 0 0
357 119 1 0.5897 -6.103164385055492 17.00291808549969 18.85719443730561 0 0 -1
679 227 2 -1.1794 -4.561501404985099 13.857334545307642 14.618463319274879 0 0 0
681 227 1 0.5897 -4.4554776936433695 13.530772255432737 15.511849471799279 0 0 0
501 167 1 0.5897 -9.101422019909144 17.116624501393428 18.72159168315246 1 0 -1
938 313 1 0.5897 -1.2146816867002317 20.171050738107528 0.2905342621521202 1 0 1
449 150 1 0.5897 -4.102886968460209 20.51619444306551 1.9811943584945233 1 0 0
391 131 2 -1.1794 -1.082637548098207 19.395648684517784 3.364440256374024 0 0 0
393 131 1 0.5897 -1.2168561111579956 20.17434560157004 3.904814989540135 0 0 0
437 146 1 0.5897 -3.322300842849649 19.561858272747546 0.08299982474880907 1 0 0
459 153 1 0.5897 -2.5786112194774824 18.43384600611393 2.7223942964902212 1 0 0
495 165 1 0.5897 -3.9289159780215197 20.8442457900324 4.386253107866674 1 0 0
448 150 2 -1.1794 -3.889726367528702 21.22571644324651 2.5873388683924783 1 0 0
457 153 2 -1.1794 -3.24803967487336 17.780794789375943 2.5187111732224707 1 0 0
481 161 2 -1.1794 -1.3755015375108468 21.78747054208686 1.5619139664187551 1 0 0
483 161 1 0.5897 -2.284985496268762 21.62277408600429 1.8105902466234063 1 0 0
450 150 1 0.5897 -4.5175861977657 21.917312484608992 2.3778947511083994 1 0 0
458 153 1 0.5897 -3.0604811825524303 17.517772899432824 1.6177162581508537 1 0 0
392 131 1 0.5897 -0.3377095962218144 19.61679882083248 2.805640193368383 0 0 0
482 161 1 0.5897 -1.426907069979693 22.494702852601122 0.9190024985040353 1 0 0
355 119 2 -1.1794 0.6675107962152853 17.539057589785127 -0.12390036999926457 0 0 0
356 119 1 0.5897 0.44694768502539794 17.269891852941903 0.7676926798687126 0 0 0
471 157 1 0.5897 -3.4883635115850393 18.00003007138476 6.793526076401979 1 0 0
469 157 2 -1.1794 -2.718856924079055 18.35961308197471 6.352322125042729 1 0 0
461 154 1 0.5897 -5.8936538935951095 18.060732170030608 7.410292947542914 1 0 0
494 165 1 0.5897 -4.5421033368490065 20.675312592936265 5.759920323281057 1 0 0
445 149 2 -1.1794 -5.146909073053266 21.78649853079164 7.4173911131687404 1 0 0
446 149 1 0.5897 -4.893123780659474 21.321731310199866 8.214691611125735 1 0 0
460 154 2 -1.1794 -5.267529550038814 17.337282063682807 7.442116541598341 1 0 0
470 157 1 0.5897 -3.064658095133362 19.06099557281941 5.800336856995476 1 0 0
859 287 2 -1.1794 -2.8149429331723748 17.755262336834825 9.597946790206462 0 0 0
447 149 1 0.5897 -6.063169245538983 22.024272067840418 7.559460291551247 1 0 0
493 165 2 -1.1794 -4.0592416368256865 20.201055663676122 5.082993913624231 1 0 0
434 145 1 0.5897 -5.595330190004521 19.8127609970864 9.525846234833889 1 0 0
345 115 1 0.5897 -1.9155376824067714 22.130713714568447 5.072071817104159 0 0 0
343 115 2 -1.1794 -1.1410339224031305 21.60591659409945 4.869325302017333 0 0 0
952 318 2 -1.1794 -7.158611099755124 21.533480549857025 12.372174580615765 1 0 0
433 145 2 -1.1794 -4.658593632915475 19.78754186957985 9.720744540734398 1 0 0
985 329 2 -1.1794 -4.7915977368020215 22.27961189837196 11.072772363510841 1 0 0
953 318 1 0.5897 -7.646419279095696 22.313142740892154 12.106553953736677 1 0 0
954 318 1 0.5897 -6.2971239078147025 21.640377521826366 11.96899818625377 1 0 0
896 299 1 0.5897 -5.12079456834776 19.204599132223358 12.369121382840651 0 0 0
895 299 2 -1.1794 -4.472595422397115 19.623901939184247 12.934913512401337 0 0 0
998 333 1 0.5897 -7.344684570419174 20.353405479967588 13.732571373205912 1 0 0
961 321 2 -1.1794 -6.741848292334744 17.878048818944187 12.254531987018328 1 0 0
848 283 1 0.5897 -4.57985365438048 21.19695113451636 14.041711302465426 0 0 0
435 145 1 0.5897 -4.518798112927739 20.519534829094432 10.32149573393542 1 0 0
963 321 1 0.5897 -6.484065548230109 17.44296389515234 11.44183127623074 1 0 0
897 299 1 0.5897 -4.176267477350631 18.92564410947575 13.518743565311548 0 0 0
860 287 1 0.5897 -3.4169369508061247 18.49658338206059 9.664904787587785 0 0 0
987 329 1 0.5897 -4.130098344994082 22.502725188358465 11.727538751195466 1 0 0
962 321 1 0.5897 -6.58407926357439 17.225193990473127 12.936492512306629 1 0 0
975 325 1 0.5897 -5.138153931154086 18.94829487686113 16.502573114441795 1 0 0
974 325 1 0.5897 -6.368997662715759 18.06711830458207 16.488733017031763 1 0 0
950 317 1 0.5897 -7.851650058649678 20.77503839847134 16.07925735862125 1 0 0
999 333 1 0.5897 -6.881600918769399 19.355027336677566 14.772091667851212 1 0 0
973 325 2 -1.1794 -5.662046549755855 18.388708995999306 15.92937080722803 1 0 0
949 317 2 -1.1794 -7.9043954828420615 21.323775487564074 16.861792334594988 1 0 0
939 313 1 0.5897 -7.487290452501783 19.152932261934914 19.0802372738517 1 0 0
951 317 1 0.5897 -7.728106282675698 20.72463256617647 17.587123840674728 1 0 0
965 322 1 0.5897 -9.359794733390054 18.089812852703783 17.126811336772306 1 0 0
989 330 1 0.5897 -9.557807625631696 21.788695914131278 17.41839797679048 1 0 0
997 333 2 -1.1794 -7.5930996029317335 19.96281367489758 14.570301175907145 1 0 0
964 322 2 -1.1794 -8.630276497334421 17.484153671895534 16.994976762058904 1 0 0
847 283 2 -1.1794 -4.400643121167911 22.022623456458394 14.491616664616558 0 0 0
573 191 1 0.5897 -5.926080714732395 22.684709965986183 18.171110851242616 0 -1 0
937 313 2 -1.1794 -8.224065683223914 19.748392726269778 19.217975147536364 1 0 0
47 16 1 0.5897 1.9513971848529321 4.953669601353271 1.64159439875267 0 0 0
54 18 1 0.5897 3.1557864746500393 3.72352959297419 3.276997379663951 0 0 0
18 6 1 0.5897 5.04759320340785 4.184435584610318 0.17213503173120015 0 0 0
52 18 2 -1.1794 3.815311700354693 3.284061290877293 3.813743083839553 0 0 0
70 24 2 -1.1794 3.67570984809565 0.49884872508412714 1.1850836865776602 0 0 0
71 24 1 0.5897 3.077679469046192 0.7448439405826299 1.8907978061355357 0 0 0
32 11 1 0.5897 0.748840101128379 1.7632860121913443 2.9177822992398457 0 0 0
46 16 2 -1.1794 1.721309062574508 4.505246231642207 2.4552074441734497 0 0 0
31 11 2 -1.1794 0.8998111669564475 1.2740458720888312 2.109047369534583 0 0 0
48 16 1 0.5897 1.702444386163938 5.199000891205875 3.114485193417193 0 0 0
21 7 1 0.5897 1.1178227248581205 2.318694084653337 0.5275284649485432 0 0 0
53 18 1 0.5897 4.539633782851634 3.1129722000112388 3.2118332840269015 0 0 0
78 26 1 0.5897 -0.19068399517901158 3.0042060133709443 4.64119527839944 0 0 0
527 176 1 0.5897 4.34700074193718 2.007526628585947 0.07705064151988761 0 0 1
59 20 1 0.5897 1.5834448956584213 3.5902908776698785 5.698754307810608 0 0 0
43 15 2 -1.1794 -0.9253580958781735 5.103127940751571 7.311400068068313 0 0 0
58 20 2 -1.1794 1.954388790895428 4.168405419306813 6.365334855898883 0 0 0
34 12 2 -1.1794 0.3973924246040279 1.3115797521003583 7.131172191454102 0 0 0
35 12 1 0.5897 0.3279566703424379 1.8739192850971513 7.902665234242587 0 0 0
4 2 2 -1.1794 3.678473232960102 1.0479074384931386 5.422382504591904 0 0 0
60 20 1 0.5897 2.612357243140253 3.632538248472934 6.808266581676583 0 0 0
77 26 1 0.5897 0.6039226930685837 2.1579040854357463 5.61286707902596 0 0 0
36 12 1 0.5897 -0.4441864615003914 0.8576659474959617 7.088533366940305 0 0 0
45 15 1 0.5897 -0.0910507021999587 4.639126330031903 7.240895956260616 0 0 0
5 2 1 0.5897 3.0695731895998275 0.4190126016361474 5.0352181518385155 0 0 0
22 8 2 -1.1794 0.3481598136751014 2.813143217391375 9.389030061087242 0 0 0
44 15 1 0.5897 -0.8651090611627876 5.581160688214231 8.138477494209017 0 0 0
24 8 1 0.5897 0.9326518371062553 3.5650180261431355 9.293015838400914 0 0 0
522 174 1 0.5897 1.7125532687174196 5.578122065129553 8.88654216473356 0 0 0
402 134 1 0.5897 1.6260897646336945 0.12826214754307513 7.778034061801557 0 1 0
520 174 2 -1.1794 1.957373494860275 4.91488547692962 9.531783221928608 0 0 0
6 2 1 0.5897 3.5467177251920408 1.8510555732121612 4.918549531753388 0 0 0
11 4 1 0.5897 2.061287921725663 5.675463073062488 5.198798006015612 0 0 0
401 134 1 0.5897 2.4133908662943977 0.11008972244087167 9.070823582719441 0 1 0
76 26 2 -1.1794 0.6604697636184547 2.5817877795301682 4.7566001326397185 0 0 0
574 192 2 -1.1794 0.6539106051574359 0.8129006827889989 11.34035204880959 0 0 0
536 179 1 0.5897 -2.202583080419555 1.4150847496784786 12.975016641020034 0 0 0
535 179 2 -1.1794 -1.9886776383146412 0.9882417949935578 12.145398014503444 0 0 0
580 194 2 -1.1794 -2.841324403998059 2.729489823832408 14.295797254099453 0 0 0
576 192 1 0.5897 -0.21059307979138797 0.7548625360234361 11.7470633409392 0 0 0
556 186 2 -1.1794 0.27267740949306507 3.8036003672343632 12.71088527163754 0 0 0
550 184 2 -1.1794 -1.8514894476401809 5.672002499748775 11.990632982238607 0 0 0
557 186 1 0.5897 -0.03760766599474241 3.177086318995052 13.364570371341891 0 0 0
23 8 1 0.5897 0.6346403634591273 2.3881369587674186 10.197358975860492 0 0 0
558 186 1 0.5897 -0.5187872149797759 4.253074723107142 12.414515393513403 0 0 0
537 179 1 0.5897 -2.231506133838723 1.6285669641633245 11.476686219362163 0 0 0
582 194 1 0.5897 -3.521436457961041 3.3613984132519428 14.06239140110526 0 0 0
552 184 1 0.5897 -2.6557176466788306 5.207171027997897 12.221402454457184 0 0 0
521 174 1 0.5897 1.6551445120264514 5.270352842769763 10.36755459103924 0 0 0
575 192 1 0.5897 1.2124223571102535 0.2563635971923085 11.883091161769281 0 0 0
525 175 1 0.5897 -1.331747773611407 2.919794786863052 9.709155208639785 0 0 0
564 188 1 0.5897 -2.2515783503285913 4.529928907834855 16.618237206341313 0 0 0
852 284 1 0.5897 -0.7341936566105156 0.1779446996590253 14.68238705092259 0 1 0
563 188 1 0.5897 -1.919376141007775 3.812153322105566 15.327363888425856 0 0 0
581 194 1 0.5897 -3.2406791154695735 2.187383278847017 14.976039340151562 0 0 0
562 188 2 -1.1794 -1.539738639858931 4.382865723091113 15.995459468748722 0 0 0
538 180 2 -1.1794 -2.992708210686704 1.271298706198974 16.831823762835278 0 0 0
539 180 1 0.5897 -2.5934928657372094 1.7960897248182124 17.525631855613014 0 0 0
547 183 2 -1.1794 -4.050507594202509 5.131389490580113 17.211041463397862 0 0 0
540 180 1 0.5897 -3.8781932790128852 1.0905221695936929 17.147030544204874 0 0 0
508 170 2 -1.1794 0.34708107924561826 1.8090704253182248 14.558204738703509 0 0 0
528 176 1 0.5897 -3.150556975978577 3.3078080750394623 18.86811138858866 0 0 0
526 176 2 -1.1794 -2.2700930185314148 2.9335065113383236 18.89810761120485 0 0 0
510 170 1 0.5897 0.2775483704008108 2.0635819970899867 15.478272892232757 0 0 0
546 182 1 0.5897 -0.2546887935253803 3.4417994745802956 17.061505318956378 0 0 0
239 80 1 0.5897 3.5604703750747104 8.605410318847246 1.132959336772091 0 0 0
220 74 2 -1.1794 3.562553633179186 10.64754416267433 3.430114924838479 0 0 0
240 80 1 0.5897 3.1289120365714433 7.163931997553468 1.3000833564523508 0 0 0
238 80 2 -1.1794 3.5851992805353037 7.8745912625931735 1.7505821338361267 0 0 0
201 67 1 0.5897 2.0363784624099663 8.370933210186559 2.4691627870153794 0 0 0
245 82 1 0.5897 0.9698620763109709 9.479044777749156 4.334346799316101 0 0 0
200 67 1 0.5897 0.6128127337006073 7.872973692529991 2.5998715126642247 0 0 0
199 67 2 -1.1794 1.1629792513582684 8.641187340450418 2.752683638270938 0 0 0
12 4 1 0.5897 0.8243865099980816 6.399155956874898 4.71067142495988 0 0 0
10 4 2 -1.1794 1.763427530521657 6.31071286971554 4.547704997995203 0 0 0
188 63 1 0.5897 0.6126277498272801 9.794260099446701 1.4536349584401707 0 0 0
82 28 2 -1.1794 2.287795532141243 5.883981013185688 0.272980497882682 0 0 0
222 74 1 0.5897 4.343839099553515 10.395500385218536 2.9378643796401755 0 0 0
221 74 1 0.5897 3.072152710467206 11.21004390166442 2.830704627572945 0 0 0
189 63 1 0.5897 1.3341604516738714 10.166821099078055 0.17611469128272494 0 0 0
224 75 1 0.5897 -0.10256267151021126 11.110705762689044 4.024326997575585 0 0 0
174 58 1 0.5897 3.154751945357491 9.083498325690616 4.47289480383581 0 0 0
696 232 1 0.5897 3.860047833869653 10.55816067968075 0.01488400022605671 0 0 1
694 232 2 -1.1794 3.2944447267772308 9.790476976172533 -0.06853198378491906 0 0 1
83 28 1 0.5897 1.5303486495947354 6.451842848318988 0.13110023997835735 0 0 0
191 64 1 0.5897 0.18151583285870032 9.781381792349157 8.843730564241788 0 0 0
173 58 1 0.5897 2.852955001104922 7.651504276139997 4.8606372495417975 0 0 0
66 22 1 0.5897 2.7753862014199804 6.858160518837004 7.353021704204616 0 0 0
204 68 1 0.5897 0.5628479696438378 8.322282847757835 7.185272315305691 0 0 0
64 22 2 -1.1794 1.8812851197553249 6.981825995594725 7.671616570853415 0 0 0
246 82 1 0.5897 0.3681228756233548 9.449539731540312 5.7230837704419635 0 0 0
202 68 2 -1.1794 -0.1956686790412494 8.90415662330876 7.23447311908248 0 0 0
203 68 1 0.5897 -0.9432813998144205 8.315468005574713 7.337692523089844 0 0 0
228 76 1 0.5897 1.7703824168037308 11.050662153002653 5.8735871735198195 0 0 0
172 58 2 -1.1794 3.4870495295234765 8.35526137334675 4.997782897343683 0 0 0
244 82 2 -1.1794 0.7340178091509015 10.045178698948648 5.0693072766752225 0 0 0
65 22 1 0.5897 1.982184466673452 7.480188881258355 8.482571579290683 0 0 0
192 64 1 0.5897 0.4781236922172587 11.077334062085093 9.568072064511211 0 0 0
586 196 2 -1.1794 -0.5284164660176045 6.568803372534599 9.566394671238 0 0 0
744 248 1 0.5897 -0.6242629156176109 8.658864797862144 11.808155633442754 0 0 0
743 248 1 0.5897 0.5928526497945885 9.004032636736444 10.976864001156466 0 0 0
726 242 1 0.5897 0.5801857794912388 11.44687120263265 13.501632512103754 0 0 0
724 242 2 -1.1794 0.10464470804526371 10.84197974970242 12.932288396397869 0 0 0
693 231 1 0.5897 -1.821913501798344 10.530312562227891 9.640402332635116 0 0 0
742 248 2 -1.1794 0.20622417282400196 8.299198183617737 11.496353695363297 0 0 0
705 235 1 0.5897 -2.416490920250804 9.504801863155475 12.872150485652739 0 0 0
750 250 1 0.5897 -3.56389441100907 10.675861931435604 14.091600389468566 0 0 0
703 235 2 -1.1794 -2.3028681512008005 8.98105097398677 12.079044933986395 0 0 0
725 242 1 0.5897 -0.6313929314627043 11.355079424725478 12.598738568438227 0 0 0
704 235 1 0.5897 -2.6623044943784064 9.52547322189327 11.378659841323259 0 0 0
588 196 1 0.5897 -0.19829337885231357 7.42696807061464 9.832614677920269 0 0 0
587 196 1 0.5897 -0.9565501788279489 6.222932937659142 10.349426152045329 0 0 0
748 250 2 -1.1794 -2.7554853405135464 10.304040038418442 14.444398794021055 0 0 0
514 172 2 -1.1794 -1.5717637444532482 6.726259626383436 14.429915324615068 0 0 0
551 184 1 0.5897 -1.7286292871020343 6.304885365806176 12.698178882376627 0 0 0
534 178 1 0.5897 1.3817179453076562 7.110231881509437 11.931114446110621 0 0 0