LAMMPS data file via write_data, version 30 Jul 2021, timestep = 10000000

1296 atoms
2 atom types
864 bonds
1 bond types
432 angles
1 angle types

-10.61725421503769 12.59725421503769 xlo xhi
-9.179926949426584 12.169924949426584 ylo yhi
0.16204444472193202 21.69795455528617 zlo zhi
-9.317629570977312 2.0762961242913747 2.7906664788059916 xy xz yz

Masses

1 1.008
2 15.999

Pair Coeffs # lj/cut/tip4p/long/omp

1 0 0
2 0.21084 3.1668

Bond Coeffs # harmonic/omp

1 450 0.9572

Angle Coeffs # harmonic/omp

1 55 104.52

Atoms # full

323 108 1 0.5897 -6.263334646662006 -5.630831717272034 3.4130995843968575 1 1 0
298 100 2 -1.1794 -5.75139284984587 -7.277832155310583 3.974182254710253 1 1 0
280 94 2 -1.1794 -9.544252080525998 -4.684276932663462 1.5578440308496155 1 1 0
299 100 1 0.5897 -6.36593419800638 -8.011267684979085 3.998850954539398 1 1 0
270 90 1 0.5897 -8.490902426898883 -7.494417146641894 2.105018968156672 1 1 0
163 55 2 -1.1794 -7.1988645896353844 -7.982602360552972 1.0604091813802752 1 1 0
164 55 1 0.5897 -6.484105834837398 -8.38317392986638 1.5553355263128883 1 1 0
269 90 1 0.5897 -9.270069559139044 -6.230160818232106 2.3990322512413527 1 1 0
268 90 2 -1.1794 -9.101834135971844 -7.110848876456559 2.7341831783491353 1 1 0
259 87 2 -1.1794 -6.738049511160206 -5.321368569703186 0.3895917106073882 1 1 0
324 108 1 0.5897 -7.101628373514903 -4.373530991564018 3.5046338825734273 1 1 0
73 25 2 -1.1794 -8.400797327491155 -3.835628587886207 4.8401454259554635 1 0 0
314 105 1 0.5897 -8.491956686106239 -7.026639723785462 4.674594130203351 1 1 0
315 105 1 0.5897 -8.51216813664258 -5.637656016878468 5.276337803792335 1 1 0
261 87 1 0.5897 -6.598853354171345 -5.124603414343688 1.3159395764816824 1 1 0
282 94 1 0.5897 -10.371129903902712 -4.202304128863747 1.5426957429903958 1 1 0
260 87 1 0.5897 -7.0681441446495015 -6.219796336741053 0.382080633105058 1 1 0
165 55 1 0.5897 -7.430418556282668 -8.636801400775653 0.4011737932719186 1 1 0
275 92 1 0.5897 -10.560511819218583 -8.021424338539594 3.2881584889238606 1 1 0
313 105 2 -1.1794 -8.548655291596209 -6.564892413993244 5.5111133827913035 1 1 0
281 94 1 0.5897 -8.870171498594 -4.005460488734361 1.5258626709447103 1 1 0
74 25 1 0.5897 -8.018502362818909 -3.2167805305991735 5.462286537356628 1 0 0
1226 409 1 0.5897 -9.76724729602311 -5.795874317197233 0.17219651555668491 0 0 1
300 100 1 0.5897 -4.887189760675965 -7.68920039591999 3.9600515277562898 1 1 0
322 108 2 -1.1794 -6.322786458264617 -4.734883061310384 3.081480985731351 1 1 0
75 25 1 0.5897 -9.177798037370568 -3.388913638029493 4.503993930365668 1 0 0
633 211 1 0.5897 -5.711539465134784 -6.207722916881336 5.489639010563514 1 1 0
429 143 1 0.5897 -6.462712131748471 -7.374402084297693 8.970899189748495 1 0 0
428 143 1 0.5897 -6.526620421137585 -6.97615333542611 10.43005186131784 1 0 0
427 143 2 -1.1794 -5.942558718136733 -6.9813638150837685 9.671740006087113 1 0 0
419 140 1 0.5897 -8.775782763790794 -5.413508224498955 8.807287991791572 1 0 0
418 140 2 -1.1794 -9.488210231101602 -5.930396196451634 9.183430809039761 1 0 0
413 138 1 0.5897 -7.672036600432817 -3.6902854009927095 7.762326645806072 1 0 0
349 117 2 -1.1794 -7.070793758104113 -4.0194170685550255 10.73381643388242 0 0 0
627 209 1 0.5897 -10.29631361405488 -6.869953669574176 6.220874171473513 1 1 0
618 206 1 0.5897 -7.642897576784216 -7.423833102563128 7.144391215614526 1 1 0
350 117 1 0.5897 -7.1938457303062595 -4.326902512935207 9.835754420446222 0 0 0
414 138 1 0.5897 -6.759794343731393 -4.871291751128601 7.507464356216088 1 0 0
412 138 2 -1.1794 -7.434085911538618 -4.551132118459656 8.106667806063008 1 0 0
420 140 1 0.5897 -9.124588169007291 -6.285798661399973 9.994438810564183 1 0 0
616 206 2 -1.1794 -7.251834767537811 -8.174065564424367 7.592150134454312 1 1 0
626 209 1 0.5897 -10.453872202972203 -6.6984783610679575 7.716736866787782 1 1 0
351 117 1 0.5897 -6.961011687848273 -3.0722318919955596 10.65021818111428 0 0 0
631 211 2 -1.1794 -5.473566850045718 -5.659199319588955 6.237087349311917 1 1 0
327 109 1 0.5897 -4.4203910503244 -7.868021260991067 10.17329018977395 0 0 0
684 228 1 0.5897 -8.127133394732272 -6.4551078621924445 14.54891964148684 0 0 0
766 256 2 -1.1794 -10.178100440945721 -2.188531424721438 14.762553158798559 0 0 0
652 218 2 -1.1794 -5.502140405779546 -5.381414410399541 12.853320121412331 0 0 0
682 228 2 -1.1794 -7.445337729149136 -6.868669859755326 14.019447491339466 0 0 0
780 260 1 0.5897 -7.280936825526723 -4.104050599351265 15.394534896231608 0 0 0
779 260 1 0.5897 -7.107421385633103 -3.008170139105986 14.36456362193112 0 0 0
778 260 2 -1.1794 -7.776203109837004 -3.508812129706567 14.831787525885678 0 0 0
768 256 1 0.5897 -9.283591771936766 -2.529213180142662 14.76997810419582 0 0 0
654 218 1 0.5897 -5.971031183405566 -4.913652177659058 12.162219740494272 0 0 0
653 218 1 0.5897 -6.165636573052835 -5.9406455399524205 13.257351605257794 0 0 0
661 221 2 -1.1794 -9.196173315696882 -4.618798968555797 12.616208145663071 0 0 0
740 247 1 0.5897 -10.598677614751152 -3.5404258609432455 12.20369346059784 1 0 0
767 256 1 0.5897 -10.7321549417115 -2.969048095645576 14.759445054209326 0 0 0
663 221 1 0.5897 -8.52428394117846 -4.421006383492303 11.963787101781849 0 0 0
729 243 1 0.5897 -8.179600836886063 -7.080531458358788 12.263603491505895 1 0 0
662 221 1 0.5897 -8.826432487502323 -4.309020406795432 13.442974951897796 0 0 0
788 263 1 0.5897 -4.825276783207824 -4.380244895519121 15.680426876750904 0 0 0
727 243 2 -1.1794 -8.197141068361354 -7.27108172490862 11.32573826047064 1 0 0
758 253 1 0.5897 -9.293699899326562 -5.300907454802992 16.27101549552393 0 0 0
739 247 2 -1.1794 -11.383348215935738 -3.1714045293114363 11.798224640656512 1 0 0
757 253 2 -1.1794 -9.637439650797575 -5.907310022779196 15.615037397927606 0 0 0
1097 366 1 0.5897 -8.54896412293742 -5.8833374868560115 18.552431833838735 0 0 0
1248 416 1 0.5897 -5.68310974777954 -1.7033265242192934 20.638392989359698 0 0 0
1110 370 1 0.5897 -10.031419923213837 -3.9832728291662924 17.893604584005622 0 0 0
1131 377 1 0.5897 -6.785092806056905 -1.759978368352387 17.214015992788738 0 0 0
1152 384 1 0.5897 -6.561639214228803 -4.152053740117573 19.671963651091097 0 0 0
1225 409 2 -1.1794 -7.917789447517772 -3.522330007526403 20.935240687479986 0 0 0
1227 409 1 0.5897 -8.75208800708026 -3.1581868296568727 20.639212444330287 0 0 0
1109 370 1 0.5897 -8.601867911731516 -3.486992833442125 17.84910066075559 0 0 0
1108 370 2 -1.1794 -9.123838162971166 -4.287206761390573 17.907380097062056 0 0 0
1089 363 1 0.5897 -6.270893340939248 -4.695217393445969 17.450905478640752 0 0 0
1219 407 2 -1.1794 -10.300708122366675 -2.03752531895896 20.094976009846008 0 0 0
1141 381 2 -1.1794 -8.203883460469338 -6.282788247184522 21.4875583075836 0 0 0
1087 363 2 -1.1794 -6.361266427736423 -4.961733544757662 16.53602453496575 0 0 0
1151 384 1 0.5897 -5.6048865021647645 -5.30990426544856 19.482430978229665 0 0 0
1150 384 2 -1.1794 -5.8547052535357595 -4.465254218636151 19.107730650974478 0 0 0
1088 363 1 0.5897 -6.407257340090879 -5.917283149591424 16.56788500478877 0 0 0
1130 377 1 0.5897 -7.1950589871907615 -1.709721182726578 18.670462936432553 0 0 0
1129 377 2 -1.1794 -7.51222418449575 -1.9612359519920997 17.80307515253609 0 0 0
1143 381 1 0.5897 -8.004763240402506 -5.3555070442177986 21.358324177549573 0 0 0
1121 374 1 0.5897 -4.618658278509248 -3.2769299095744024 18.52639936274371 0 0 0
273 91 1 0.5897 -10.571498240049642 -1.6001589366683193 0.29044497697772526 1 1 0
69 23 1 0.5897 -11.052327132248003 -2.548994393174304 3.362040830394477 1 0 0
272 91 1 0.5897 -9.478064313556722 -1.1911028405573498 1.2542853068190591 1 1 0
271 91 2 -1.1794 -10.363327853409519 -0.9611236158466863 0.9719756199735705 1 1 0
107 36 1 0.5897 -9.41325848160517 1.3856961982735818 3.3259180689108203 1 0 0
301 101 2 -1.1794 -7.96675564943783 -2.193413616044954 1.5913007452836962 1 1 0
258 86 1 0.5897 -12.373610210779102 -2.978953601185438 1.1674192591838708 1 1 0
83 28 1 0.5897 -9.513194728479883 -0.7518746149931594 4.140444460197315 1 0 0
67 23 2 -1.1794 -10.692771000615423 -2.2207853246986557 4.186183903375947 1 0 0
99 33 1 0.5897 -11.500526955074251 1.6187921709503783 5.102115006894774 1 0 0
68 23 1 0.5897 -11.340712507658019 -2.467861317622978 4.845985558712624 1 0 0
52 18 2 -1.1794 -12.308437688074594 0.06876695121487764 2.68556258996408 1 0 0
98 33 1 0.5897 -11.975145477996964 0.38045200759588305 4.372033028447067 1 0 0
53 18 1 0.5897 -12.40485822018643 0.9548148655035824 2.3364832251506256 1 0 0
54 18 1 0.5897 -11.661292016192384 -0.3450735103687901 2.114464082199494 1 0 0
82 28 2 -1.1794 -8.789477714662366 -0.13690060025263584 4.259794064910347 1 0 0
44 15 1 0.5897 -9.993618893577896 0.7300498132007096 0.2685489175062403 1 0 0
59 20 1 0.5897 -13.56143254211877 -1.1246042915879642 3.367883109225977 1 0 0
256 86 2 -1.1794 -11.970457162686568 -3.3815914276877486 1.9365894407568727 1 1 0
84 28 1 0.5897 -8.006968945379903 -0.687887040642222 4.278788445667798 1 0 0
97 33 2 -1.1794 -11.75175395772301 0.7061234906234972 5.2439520852676385 1 0 0
527 176 1 0.5897 -11.926657763068583 1.6858221321353017 8.707476309765775 1 0 0
526 176 2 -1.1794 -12.65942900454357 1.2875156953465332 9.177156265185205 1 0 0
426 142 1 0.5897 -8.742087807036269 -1.7245142658931467 6.909010798007993 1 0 0
522 174 1 0.5897 -9.795364115180206 2.3678458360719556 7.504434251207967 1 0 0
424 142 2 -1.1794 -7.854900816442291 -2.0774919330572725 6.97663524471104 1 0 0
402 134 1 0.5897 -10.809770551453266 -0.33997834733307997 6.4359333715210285 1 0 0
401 134 1 0.5897 -11.090756637093357 -1.2814813626593233 7.587675555128989 1 0 0
400 134 2 -1.1794 -10.395763039389465 -0.7550526296393887 7.1926271262965935 1 0 0
537 179 1 0.5897 -9.556606575984809 -0.06422888286575379 8.49736126515061 1 0 0
536 179 1 0.5897 -9.629412185083309 -0.041571758039250284 10.009323660155944 1 0 0
535 179 2 -1.1794 -9.055381993955432 0.17884793592850023 9.27576591813179 1 0 0
528 176 1 0.5897 -12.247101889511901 0.7129705522231742 9.822261244611592 1 0 0
435 145 1 0.5897 -7.662274180518339 -0.7876515660022214 9.672442052438518 0 0 0
411 137 1 0.5897 -13.228557455915684 0.35765949379029927 6.354998885062837 1 0 0
516 172 1 0.5897 -14.132539890299771 2.1925189385740413 9.47413226960116 1 0 0
425 142 1 0.5897 -7.294725217044509 -1.3053175459523763 7.054959619725674 1 0 0
433 145 2 -1.1794 -6.911588940824902 -1.2809519571104806 10.003213206400451 0 0 0
410 137 1 0.5897 -13.617064524063414 0.5925908854479225 7.799189340883589 1 0 0
417 139 1 0.5897 -8.745594112583285 1.0740442023126615 5.675665356183408 1 0 0
790 264 2 -1.1794 -11.074755429026808 0.22849709212887248 13.759123736823858 0 0 0
896 299 1 0.5897 -8.12777540364337 2.4213853822495537 15.435902381946986 0 0 0
762 254 1 0.5897 -9.276901884415075 2.070864730213067 11.990273803080477 0 0 0
761 254 1 0.5897 -9.554632182884598 1.1115113975009336 13.127990004046994 0 0 0
760 254 2 -1.1794 -8.868313870800792 1.386180437136339 12.519931232317003 0 0 0
835 279 2 -1.1794 -11.235841631381309 -0.44765823479735545 10.966765058283963 1 0 0
792 264 1 0.5897 -11.683083217226194 0.6678770198741635 14.353341875804102 0 0 0
836 279 1 0.5897 -11.300873726697969 -1.3831180807483179 11.158855535968852 1 0 0
837 279 1 0.5897 -11.041113833744243 -0.04217560761426853 11.811671017018071 1 0 0
791 264 1 0.5897 -10.92687184976251 -0.6289963806399008 14.157972734924641 0 0 0
770 257 1 0.5897 -11.89367934525899 3.038125540245611 13.342823398633817 0 0 0
888 296 1 0.5897 -10.594552718699394 3.0428374640078264 15.404536351942056 0 0 0
769 257 2 -1.1794 -12.28901900696506 2.7983189197648723 12.50471780231961 0 0 0
786 262 1 0.5897 -7.277932468618893 0.48093382599803647 12.288945261966578 0 0 0
897 299 1 0.5897 -7.794181244368099 2.406242334246171 13.959310274496671 0 0 0
771 257 1 0.5897 -11.57091944902212 2.858509680264895 11.874702756678525 0 0 0
1009 337 2 -1.1794 -11.065647854825396 3.5171977861845622 20.898565671603322 0 -1 0
1260 420 1 0.5897 -9.823605770226273 2.8670243475374377 19.750043301122254 0 0 0
1205 402 1 0.5897 -11.797413783464128 1.1568754053081385 18.36701774879704 0 0 0
1259 420 1 0.5897 -8.939400707189359 1.6557345280320437 19.542975677271418 0 0 0
1258 420 2 -1.1794 -9.200324809098888 2.4811732163071696 19.134534031431993 0 0 0
1195 399 2 -1.1794 -9.572265202119382 2.0492430200837557 16.51354318038482 0 0 0
1217 406 1 0.5897 -11.891058691595473 3.638418880549125 17.549013764001288 0 0 0
1101 367 1 0.5897 -9.982178237100284 -1.1098473323082203 16.349704172813087 0 0 0
1236 412 1 0.5897 -7.556612279286899 -0.1445064586610858 20.33057127320895 0 0 0
1216 406 2 -1.1794 -12.366445748939196 2.829359098284611 17.73776622437011 0 0 0
1235 412 1 0.5897 -8.972118242611312 -0.6734662676805776 20.23873780390072 0 0 0
1234 412 2 -1.1794 -8.47201333819481 0.1340890564654984 20.35680345280931 0 0 0
1099 367 2 -1.1794 -9.713522754635708 -0.5396939291340157 17.07007803600897 0 0 0
1204 402 2 -1.1794 -11.75905391150807 0.2839858399368218 18.757943875015762 0 0 0
1206 402 1 0.5897 -11.084686751963151 -0.1741719755166411 18.256405028421444 0 0 0
1249 417 2 -1.1794 -11.34727068846539 0.7226746648074815 21.51551844058033 0 0 0
1197 399 1 0.5897 -9.533187632291737 2.3444746399867515 17.42322111618908 0 0 0
1100 367 1 0.5897 -8.884384218975036 -0.9100082696062941 17.37286616105578 0 0 0
1246 416 2 -1.1794 -6.098402321223268 -1.127028888170214 19.99676423267161 0 0 0
1196 399 1 0.5897 -9.59609501589959 1.0941422919572616 16.572055856143848 0 0 0
1251 417 1 0.5897 -11.391911053594884 1.6778093883579324 21.55946064614243 0 0 0
1229 410 1 0.5897 -7.889828361960198 3.6978825460062765 18.667566504633097 0 0 0
1250 417 1 0.5897 -11.515928462885274 0.516627547528909 20.596112078191815 0 0 0
1010 337 1 0.5897 -10.695616006430633 4.201519399201059 21.45621092775573 0 -1 0
1011 337 1 0.5897 -11.842785413925345 3.9186009826869395 20.509693123903567 0 -1 0
866 289 1 0.5897 -12.659017593119597 1.618466620143268 16.381880531834916 0 0 0
40 14 2 -1.1794 -15.230603327275745 3.8089120113317065 2.0119391606652774 1 0 0
177 59 1 0.5897 -14.225580387819495 4.470043106323631 3.3827422402821736 1 0 0
42 14 1 0.5897 -15.62228797631883 4.374191412994138 1.3461193906964306 1 0 0
108 36 1 0.5897 -10.151004605137445 2.6981992950764315 3.4839145179481568 1 0 0
175 59 2 -1.1794 -13.715055599715736 4.60882963802994 4.180449687036816 1 0 0
55 19 2 -1.1794 -13.290749336095445 6.278596731288506 0.5974182640101074 1 0 0
56 19 1 0.5897 -12.452704339189122 6.003317569707484 0.9691510271114698 1 0 0
66 22 1 0.5897 -13.441086377421433 2.9070769154809675 1.6239201413942346 1 0 0
65 22 1 0.5897 -11.982407676418791 3.295290119938734 1.5079425310078938 1 0 0
64 22 2 -1.1794 -12.567307966443309 2.537696944289154 1.496133682965839 1 0 0
85 29 2 -1.1794 -11.054986227535997 5.072810099807301 1.618197080205879 1 0 0
190 64 2 -1.1794 -12.132021438218814 6.978181628769473 4.055369141132086 1 0 0
191 64 1 0.5897 -12.726763174027521 6.230570146544796 4.114919528311379 1 0 0
45 15 1 0.5897 -10.017049533708807 1.9432058433626054 1.1737986284986393 1 0 0
183 61 1 0.5897 -12.071695953762799 3.7429291884916545 4.45702275553586 1 0 0
181 61 2 -1.1794 -11.25906534273849 3.3342271351363415 4.755110721030624 1 0 0
176 59 1 0.5897 -14.3358409054879 4.45462056458056 4.892527185919247 1 0 0
162 54 1 0.5897 -14.568615421145834 6.8829299185589505 1.882381879721364 1 0 0
86 29 1 0.5897 -10.784459502867158 5.2526019409562945 2.5185927734328133 1 0 0
192 64 1 0.5897 -11.257094519160901 6.593841732106842 4.110666453283791 1 0 0
167 56 1 0.5897 -16.467102822735406 6.256463707003382 3.3540608109617724 1 0 0
106 36 2 -1.1794 -9.530811129702293 2.2421950623533853 2.915028742902628 1 0 0
43 15 2 -1.1794 -9.980591605245666 1.6870093558528616 0.2522591191076021 1 0 0
182 61 1 0.5897 -10.939382622777151 3.912710911519861 5.447463096639869 1 0 0
508 170 2 -1.1794 -13.50244306325991 6.504949884549067 7.0873824864135795 1 0 0
645 215 1 0.5897 -12.311712672394737 7.233783252163171 8.524385364763003 1 0 0
644 215 1 0.5897 -12.684351186704253 7.184895575325545 9.990876225305703 1 0 0
643 215 2 -1.1794 -11.946570137276412 7.344373723097281 9.402266022843635 1 0 0
509 170 1 0.5897 -14.18210403080766 6.036441637963595 7.571915248497416 1 0 0
457 153 2 -1.1794 -10.093726262927332 3.2161414067258782 10.872353064781931 0 0 0
532 178 2 -1.1794 -11.07869561087782 5.068866442948295 6.842478597443346 1 0 0
543 181 1 0.5897 -10.600211398795118 6.354947529073083 9.992887191403206 0 0 0
510 170 1 0.5897 -13.98116897914882 7.009788280707632 6.42993331159556 1 0 0
534 178 1 0.5897 -12.003596420957876 5.307998266089946 6.9027674975307125 1 0 0
521 174 1 0.5897 -10.644310034780041 3.615253270621654 7.627658074271118 1 0 0
636 212 1 0.5897 -15.164346754533565 7.814524868816644 9.70330095656041 1 0 0
459 153 1 0.5897 -9.833222692682671 4.126666610959068 10.733489861266065 0 0 0
520 174 2 -1.1794 -10.519732656486848 2.744145804568749 8.004343027788444 1 0 0
458 153 1 0.5897 -10.237958612410976 2.8707948805065886 9.99136698441375 0 0 0
519 173 1 0.5897 -16.353788789128718 7.384372749439525 6.316438503136845 1 0 0
533 178 1 0.5897 -10.612148735955103 5.903901797286666 6.877602989735146 1 0 0
538 180 2 -1.1794 -15.339216571957847 4.891597576707458 8.378656576141834 1 0 0
887 296 1 0.5897 -10.334321560330164 4.103999157446699 14.35663277750391 0 0 0
944 315 1 0.5897 -14.387502283566374 5.987531853081418 11.024706203360711 1 0 0
876 292 1 0.5897 -12.647835460456335 4.389792442404142 14.799800708403497 0 0 0
848 283 1 0.5897 -13.76058020556259 3.853381861190549 12.10743038580326 1 0 0
945 315 1 0.5897 -14.221427478705571 7.177601803016842 11.945531185605008 1 0 0
886 296 2 -1.1794 -11.036527116673787 3.589976962966384 14.755253467938296 0 0 0
900 300 1 0.5897 -14.484571334720926 7.881855416448477 14.339467386824303 0 0 0
899 300 1 0.5897 -13.776330230272407 6.5631244699994955 14.113127584644646 0 0 0
898 300 2 -1.1794 -13.842753466733118 7.454988625388982 13.771957264801227 0 0 0
874 292 2 -1.1794 -13.495998485596377 4.8327055112971244 14.82650427406505 0 0 0
875 292 1 0.5897 -14.138132608248485 4.123455980609442 14.7977769406554 0 0 0
869 290 1 0.5897 -12.457357356319978 8.360011637555978 13.115310967042712 0 0 0
943 315 2 -1.1794 -14.184794468170118 6.923001589345617 11.023556546568122 1 0 0
880 294 2 -1.1794 -9.088232929268626 5.035012281670589 13.495932530145632 0 0 0
649 217 2 -1.1794 -15.7147602708022 8.325843560057827 15.7090304956087 0 -1 0
847 283 2 -1.1794 -14.589387432423921 4.156470481944217 11.736622421324888 1 0 0
1209 403 1 0.5897 -13.300320804334245 6.20964563423275 16.179305206966458 0 0 0
1018 340 2 -1.1794 -11.872092240635808 7.236114494003154 20.249784950672723 0 -1 0
1019 340 1 0.5897 -12.401761364628586 6.438943917654054 20.26256034789275 0 -1 0
1020 340 1 0.5897 -10.967929700164877 6.923077030124013 20.222120988876902 0 -1 0
1034 345 1 0.5897 -14.674390712843028 7.771492731748637 20.70228273957948 0 -1 0
1237 413 2 -1.1794 -10.793855709284536 5.296798336922102 17.72819037531425 0 0 0
980 327 1 0.5897 -12.703045381231899 8.417678061569912 16.406641830601163 0 -1 0
1030 344 2 -1.1794 -9.331399882051425 6.0977752400956895 19.997151653506847 0 -1 0
1032 344 1 0.5897 -8.893502788337434 5.581109052325495 20.673595637551863 0 -1 0
989 330 1 0.5897 -15.063754294187895 8.40740684559735 18.69360777090173 0 -1 0
1207 403 2 -1.1794 -13.011332454699724 6.700237505639819 16.94872212146893 0 0 0
1208 403 1 0.5897 -12.289061023571447 6.183310945096878 17.30563682183949 0 0 0
1239 413 1 0.5897 -10.034234478936446 5.423066499558171 17.159640318927654 0 0 0
1238 413 1 0.5897 -10.442643040207995 5.36310026893549 18.61615963939597 0 0 0
990 330 1 0.5897 -14.256349389071644 7.165799688745512 18.379925314705968 0 -1 0
1003 335 2 -1.1794 -13.366431473439036 4.836420896848338 20.201148428208903 0 -1 0
1035 345 1 0.5897 -14.397786785211245 8.972816558233664 21.5809637958717 0 -1 0
1043 348 1 0.5897 -12.111749250242095 8.703637372239303 19.363582627539113 0 -1 0
988 330 2 -1.1794 -14.937319819524578 7.4981626001038 18.96475759905429 0 -1 0
1033 345 2 -1.1794 -14.70550261634325 8.066984933033293 21.612180974627474 0 -1 0
57 19 1 0.5897 -11.4430464926865 8.374322337797686 21.516089792396055 1 0 -1
650 217 1 0.5897 -15.391493283793697 8.765138043795346 16.495619805308706 0 -1 0
291 97 1 0.5897 -15.457664277741426 10.898187412670286 4.514411889758631 1 0 0
174 58 1 0.5897 -16.636440511085766 10.045499396719752 1.5399339094020446 1 0 0
173 58 1 0.5897 -15.169849192112512 10.41153966670948 1.6238583584463426 1 0 0
172 58 2 -1.1794 -15.763049873993562 9.660430490825895 1.6119286414770249 1 0 0
283 95 2 -1.1794 -16.87396980780024 11.931096198245317 4.147237325560144 1 0 0
161 54 1 0.5897 -15.46787611590962 8.025824675454015 2.303084313471032 1 0 0
152 51 1 0.5897 -12.974076188657122 7.928188170629294 0.28063733296639803 1 0 0
160 54 2 -1.1794 -15.146560454690388 7.170706908193296 2.589041813743861 1 0 0
285 95 1 0.5897 -17.34851387648755 11.63685231551397 3.369773443580725 1 0 0
148 50 2 -1.1794 -18.3390627469101 10.787566182110563 1.9809631834817114 1 0 0
289 97 2 -1.1794 -14.648302026395672 10.513580367445613 4.851008112226645 1 0 0
150 50 1 0.5897 -18.67572116684885 11.419148043048704 1.3453275801804887 1 0 0
284 95 1 0.5897 -17.517241333922218 11.8810116582132 4.854275345003791 1 0 0
193 65 2 -1.1794 -14.173645709705262 12.035170742689246 1.740655280678673 1 0 0
216 72 1 0.5897 -13.321420521652762 9.860375545695327 3.692933365539271 1 0 0
215 72 1 0.5897 -12.490932181137145 8.653113370616882 3.312577530222239 1 0 0
207 69 1 0.5897 -14.88350510046416 8.774395484409286 5.2508781766619705 1 0 0
205 69 2 -1.1794 -14.90538201078937 7.817734835945281 5.273705929006997 1 0 0
290 97 1 0.5897 -14.367027152129902 11.113054343506555 5.542169959913079 1 0 0
151 51 2 -1.1794 -12.833566069323737 8.873356085746146 0.22490767835204836 1 0 0
206 69 1 0.5897 -14.923080755403564 7.556090939747815 4.353146053012068 1 0 0
153 51 1 0.5897 -12.888404143207906 9.17793180079061 1.1306751727964557 1 0 0
214 72 2 -1.1794 -12.707656499803775 9.54193921213513 3.0310484317675606 1 0 0
640 214 2 -1.1794 -14.051028431776166 12.131435684640326 6.883072322893532 1 0 0
630 210 1 0.5897 -12.77434435405841 9.407862031562821 7.565576081902005 1 0 0
629 210 1 0.5897 -13.59161250179546 10.677351854467098 7.676863070405478 1 0 0
628 210 2 -1.1794 -13.521678168664899 9.789030358844634 8.026474608886428 1 0 0
566 189 1 0.5897 -13.347371405879958 10.0148322947149 9.749032329110886 0 0 0
634 212 2 -1.1794 -15.597338220018774 8.2365462489687 8.961215679533916 1 0 0
565 189 2 -1.1794 -13.19595454553609 10.238853777032105 10.667233986553715 0 0 0
642 214 1 0.5897 -14.907226884044288 12.47429415662586 7.139239215230047 1 0 0
635 212 1 0.5897 -14.891996966940322 8.686023821828503 8.495740677094606 1 0 0
567 189 1 0.5897 -13.224650660873035 11.195368290444083 10.68873077977003 0 0 0
624 208 1 0.5897 -17.15630114474923 9.084496291216638 9.389657352001896 1 0 0
525 175 1 0.5897 -11.94476725073003 8.143253568771605 5.551146185321854 1 0 0
617 206 1 0.5897 -17.314949774928632 12.698086853314578 7.955832904433559 1 0 0
641 214 1 0.5897 -13.496452055930742 12.907309750154777 6.801460338011691 1 0 0
658 220 2 -1.1794 -16.632424296506247 11.98649262416685 15.037710813536204 0 -1 0
870 290 1 0.5897 -12.23133446150097 9.421821665583142 12.060148775497877 0 0 0
868 290 2 -1.1794 -11.803331094567683 8.980630486320486 12.79393274322449 0 0 0
671 224 1 0.5897 -13.366453370265086 11.511276824195217 14.293780293289428 0 -1 0
670 224 2 -1.1794 -14.080898086248839 11.064762259392872 14.74809602031517 0 -1 0
672 224 1 0.5897 -13.647907160766048 10.39124249167697 15.272650969258601 0 -1 0
956 319 1 0.5897 -17.007834155574216 10.804873430200498 12.027240838562484 1 0 0
660 220 1 0.5897 -15.771620065971394 11.601438390754772 14.873378821368071 0 -1 0
879 293 1 0.5897 -14.729531889868877 10.048313567965437 11.73763071445575 0 0 0
878 293 1 0.5897 -14.962573559946915 10.214913961051241 13.22415907087787 0 0 0
877 293 2 -1.1794 -15.39821871646977 9.94714160913336 12.415004754727871 0 0 0
683 228 1 0.5897 -16.735846482654665 13.57546448067826 14.327938651312497 0 -1 0
680 227 1 0.5897 -11.085197769334542 9.90408044782232 15.504805363126495 0 -1 0
728 243 1 0.5897 -17.560696650406896 13.123999775155305 11.27568494089804 1 -1 0
659 220 1 0.5897 -17.244304875626945 11.256952689293975 14.939933155311326 0 -1 0
955 319 2 -1.1794 -17.7377606291241 11.275520618696873 11.624769733193682 1 0 0
1140 380 1 0.5897 -11.792973028705163 12.484335392793742 20.558480198907827 0 -1 0
1138 380 2 -1.1794 -12.295449538423437 13.076762235683521 19.999171078376815 0 -1 0
1128 376 1 0.5897 -13.785427119788316 14.02617112026537 20.318485678522734 0 -1 0
1127 376 1 0.5897 -15.26673221105813 13.714783024135777 20.292398677158562 0 -1 0
1022 341 1 0.5897 -13.201204816794807 12.288531651020637 18.626299159294703 0 -1 0
1119 373 1 0.5897 -15.014419685513186 11.144164768841033 20.455894212181125 0 -1 0
1117 373 2 -1.1794 -14.272967873329621 10.730936757707248 20.89836265358371 0 -1 0
1044 348 1 0.5897 -12.779482459126985 9.994069019885945 19.788765736777222 0 -1 0
1042 348 2 -1.1794 -12.195929502426193 9.626761738643609 19.124869424122352 0 -1 0
981 327 1 0.5897 -12.653858867527536 9.637427586332443 17.30193836194622 0 -1 0
1111 371 2 -1.1794 -16.490364770447137 12.295630964545705 20.19772512553685 0 -1 0
1118 373 1 0.5897 -14.035664589775685 11.344894932432158 21.593293428003943 0 -1 0
991 331 2 -1.1794 -15.780250813645551 13.604544629349906 17.01260599066271 0 -1 0
992 331 1 0.5897 -15.015601570188098 13.125408723237772 17.332025552026447 0 -1 0
1098 366 1 0.5897 -17.117101422042907 14.203234076296408 18.18601345092464 0 -1 0
1023 341 1 0.5897 -12.982587413769217 12.258768374532558 17.128580531672988 0 -1 0
1021 341 2 -1.1794 -13.625285159375215 12.042601648640161 17.804172428108274 0 -1 0
1001 334 1 0.5897 -14.683220152505083 10.74279059416359 18.071477627670983 0 -1 0
1000 334 2 -1.1794 -15.28250864106204 9.997953339956908 18.023871331062416 0 -1 0
1126 376 2 -1.1794 -14.646961062956265 14.439737896423253 20.37311590712894 0 -1 0
1002 334 1 0.5897 -16.15413779530895 10.385859270545325 18.10167931211739 0 -1 0
1113 371 1 0.5897 -16.961287083258526 12.114554947321224 19.384289028357667 0 -1 0
979 327 2 -1.1794 -12.653350405704339 9.37325338082577 16.38193244947326 0 -1 0
1013 338 1 0.5897 -10.816269623578142 10.527629964646923 18.501672097923553 0 -1 0
1142 381 1 0.5897 -17.43355919475701 14.679141744870268 20.61694080290366 0 -1 0
1096 366 2 -1.1794 -17.834237202070824 14.52672964985329 18.7312540984567 0 -1 0
993 331 1 0.5897 -16.201453511952266 13.002729325319514 16.398928468921834 0 -1 0
305 102 1 0.5897 -1.5442627717914483 -6.092012495553387 2.5074441148729374 1 1 0
311 104 1 0.5897 -2.616409268863743 -8.125163737895512 3.5738372191292136 1 1 0
243 81 1 0.5897 -0.7717204368350448 -5.295766271816618 5.514875686944551 0 1 0
318 106 1 0.5897 -2.6731039824555847 -4.089978011390769 1.7333110019183875 1 1 0
201 67 1 0.5897 0.32677450492159466 -8.662277567666987 0.3430290921820215 1 1 0
304 102 2 -1.1794 -1.221771833082455 -6.88086145299735 2.943307911660321 1 1 0
316 106 2 -1.1794 -1.8141335305908388 -4.5098683257319685 1.6872045594468743 1 1 0
242 81 1 0.5897 -1.0446484566741763 -6.509118004533585 4.651713375045005 0 1 0
306 102 1 0.5897 -0.769403742581142 -7.367743698926178 2.2544613156318616 1 1 0
310 104 2 -1.1794 -3.305537119709901 -8.675485940742172 3.945929434106066 1 1 0
293 98 1 0.5897 -4.91347000727033 -3.8541505588079934 2.367554574298607 1 1 0
3 1 1 0.5897 -1.484127412950489 -3.2777789262708277 4.610746547779639 0 0 0
317 106 1 0.5897 -1.1940384766218326 -3.782629164627205 1.6342582609462 1 1 0
1262 421 1 0.5897 -1.8574447868307224 -5.6807032244325715 0.24631221076989518 0 0 1
199 67 2 -1.1794 0.5490353093129894 -7.921629521265963 0.907141935935263 1 1 0
632 211 1 0.5897 -4.662831825448854 -6.044755543827682 6.569265260634772 1 1 0
555 185 1 0.5897 -2.455203332595916 -6.627735851112808 6.50958278268215 0 1 0
554 185 1 0.5897 -2.9690274139480017 -6.6428999279328185 7.933518114948679 0 1 0
553 185 2 -1.1794 -3.2132680596557233 -6.877106580452392 7.038135777663865 0 1 0
546 182 1 0.5897 0.09449424332372303 -7.361717027599914 6.666681809119455 0 1 0
359 120 1 0.5897 -4.80544347495585 -3.1142346715259315 8.816668062432877 0 0 0
335 112 1 0.5897 -4.99613731480568 -5.199484820145059 9.732729366417175 0 0 0
348 116 1 0.5897 -1.556618936131665 -6.370811669713448 9.947323880400004 0 0 0
347 116 1 0.5897 -1.2381374940012861 -5.5452450970444405 8.71895207749897 0 0 0
346 116 2 -1.1794 -1.9698415665871583 -5.905410212018824 9.220052288949809 0 0 0
336 112 1 0.5897 -3.5226761893095366 -4.96209607476986 9.478839602728875 0 0 0
334 112 2 -1.1794 -4.342524902596386 -4.503682603245595 9.663106011322805 0 0 0
356 119 1 0.5897 1.2433614999301543 -6.969112357100492 10.1333777858195 0 0 0
544 182 2 -1.1794 0.4136279046960549 -7.92303366083377 7.373325220870889 0 1 0
404 135 1 0.5897 -5.18186892981939 -3.8901651599523257 5.956004972537237 1 0 0
241 81 2 -1.1794 -0.9761934746260312 -6.229531510808977 5.564589873384924 0 1 0
787 263 2 -1.1794 -4.149289043037822 -4.290143487397552 15.008761960961314 0 0 0
793 265 2 -1.1794 -1.823201121919201 -5.891597981282389 15.482524929018238 0 0 0
795 265 1 0.5897 -2.6178376015261344 -5.550242543469747 15.072263835102401 0 0 0
803 268 1 0.5897 -3.090781875299303 -2.803932814441679 14.95552933950941 0 0 0
802 268 2 -1.1794 -2.504399634321043 -2.055002898494309 14.848496663473727 0 0 0
657 219 1 0.5897 -0.2656039606732854 -6.650123889515854 12.060266282290812 0 0 0
718 240 2 -1.1794 0.25916862640205096 -6.852105814013017 13.860339437493918 0 0 0
699 233 1 0.5897 -0.8616641661006845 -4.216706559315948 11.890071975451146 0 0 0