LAMMPS (30 Jul 2021)
Processor partition = 1
  using 2 OpenMP thread(s) per MPI task
using multi-threaded neighbor list subroutines
variable        pid world 0 1
variable        phase world IceVI Liquid

shell cd ${phase}
shell cd Liquid
include Restart.lmp
echo both
log log.lammps
#include		in.partitions
include		in.temp
variable        temperature equal 257.39
variable	tempDamp equal 100.0
include		in.pressure
variable        pressure equal 7625.0
variable        pressureDamp equal 1000.0 # This is 1 ps
include		in.seed
variable        seed equal 745823

units		real
atom_style	full
read_restart	restart.lmp.${pid}
read_restart	restart.lmp.1
Reading restart file ...
  restart file = 30 Jul 2021, LAMMPS = 30 Jul 2021
  restoring atom style full from restart
  orthogonal box = (0.57800511 1.7723449 0.70516488) to (17.629567 21.856833 21.508031)
  2 by 4 by 4 MPI processor grid
  restoring pair style lj/cut/tip4p/long/omp from restart
  restoring bond style harmonic/omp from restart
  restoring angle style harmonic/omp from restart
  864 atoms
  576 bonds
  288 angles
Finding 1-2 1-3 1-4 neighbors ...
  special bond factors lj:    0        0        0       
  special bond factors coul:  0        0        0       
     2 = max # of 1-2 neighbors
     1 = max # of 1-3 neighbors
     1 = max # of 1-4 neighbors
     2 = max # of special neighbors
  special bonds CPU = 0.002 seconds
  read_restart CPU = 0.008 seconds
include 	in.setup
variable	out_freq equal 1000
variable	out_freq2 equal 10000
variable	out_freq3 equal 1000

timestep	2.0

neigh_modify    delay 7 every 1

include		in.tip4p
# This is TIP4P/Ice

# create groups ###
group ox type 2
288 atoms in group ox
group hy type 1
576 atoms in group hy

# set charges - beside manually ###
set group ox charge -1.1794
Setting atom values ...
  288 settings made for charge
set group hy charge 0.5897
Setting atom values ...
  576 settings made for charge

# ### TIP3P Potential Parameters ###
pair_style lj/cut/tip4p/long/omp 2 1 1 1 0.1577 8.5
pair_coeff 1 1*2 0.000 0.000
pair_coeff 2 2 0.21084 3.1668
bond_style  harmonic
bond_coeff  1 450 0.9572
angle_style harmonic
angle_coeff 1 55 104.52
kspace_style pppm/tip4p/omp 1.0e-5
pair_modify tail yes

thermo          ${out_freq}
thermo          1000
thermo_style    custom step temp pe etotal epair emol press lx ly lz vol pxx pyy pzz pxy pxz pyz enthalpy

restart 	${out_freq3} restart.lmp.${pid} restart2.lmp.${pid}
restart 	1000 restart.lmp.${pid} restart2.lmp.${pid}
restart 	1000 restart.lmp.1 restart2.lmp.${pid}
restart 	1000 restart.lmp.1 restart2.lmp.1


include         in.dump
dump            myDump all atom ${out_freq2} dump.water.${pid}
dump            myDump all atom 10000 dump.water.${pid}
dump            myDump all atom 10000 dump.water.1
dump            myDump2 all dcd ${out_freq2} dump.dcd
dump            myDump2 all dcd 10000 dump.dcd
dump_modify     myDump append yes
dump_modify     myDump2 append yes


variable natoms 	equal  "count(all)"                        # NUMBER ATOMS
variable H      	equal  "enthalpy/v_natoms"                 # ENTHALPY-per-atom
variable Vol      	equal  "vol/v_natoms"                 # volume-per-atom
fix AVG all 		ave/time ${out_freq} 1 ${out_freq} v_Vol v_H file vol_enthalpy.dat
fix AVG all 		ave/time 1000 1 ${out_freq} v_Vol v_H file vol_enthalpy.dat
fix AVG all 		ave/time 1000 1 1000 v_Vol v_H file vol_enthalpy.dat


timer           timeout 23:50:00 every 1000
New timer settings: style=normal  mode=nosync  timeout=23:50:00

fix 		1 all shake 1e-6 200 0 b 1 a 1
Finding SHAKE clusters ...
       0 = # of size 2 clusters
       0 = # of size 3 clusters
       0 = # of size 4 clusters
     288 = # of frozen angles
  find clusters CPU = 0.001 seconds
fix             2 all nph iso ${pressure} ${pressure} ${pressureDamp}
fix             2 all nph iso 7625 ${pressure} ${pressureDamp}
fix             2 all nph iso 7625 7625 ${pressureDamp}
fix             2 all nph iso 7625 7625 1000
fix             3 all temp/csvr ${temperature} ${temperature} ${tempDamp} ${seed}
fix             3 all temp/csvr 257.39 ${temperature} ${tempDamp} ${seed}
fix             3 all temp/csvr 257.39 257.39 ${tempDamp} ${seed}
fix             3 all temp/csvr 257.39 257.39 100 ${seed}
fix             3 all temp/csvr 257.39 257.39 100 745823

run             250000
PPPM initialization ...
  extracting TIP4P info from pair style
  using 12-bit tables for long-range coulomb (../kspace.cpp:340)
  G vector (1/distance) = 0.37389004
  grid = 24 24 24
  stencil order = 5
  estimated absolute RMS force accuracy = 0.003203657
  estimated relative force accuracy = 9.6477179e-06
  using double precision FFTW3
  3d grid and FFT values/proc = 3549 432
Last active /omp style is kspace_style pppm/tip4p/omp
Neighbor list info ...
  update every 1 steps, delay 7 steps, check yes
  max neighbors/atom: 2000, page size: 100000
  master list distance cutoff = 10.8154
  ghost atom cutoff = 10.8154
  binsize = 5.4077, bins = 4 4 4
  1 neighbor lists, perpetual/occasional/extra = 1 0 0
  (1) pair lj/cut/tip4p/long/omp, perpetual
      attributes: half, newton on, omp
      pair build: half/bin/newton/omp
      stencil: half/bin/3d
      bin: standard
Setting up Verlet run ...
  Unit style    : real
  Current step  : 9750000
  Time step     : 2
  Walltime left : 23:49:59.95
Per MPI rank memory allocation (min/avg/max) = 10.19 | 10.20 | 10.20 Mbytes
Step Temp PotEng TotEng E_pair E_mol Press Lx Ly Lz Volume Pxx Pyy Pzz Pxy Pxz Pyz Enthalpy 
 9750000    261.38653   -3854.4712   -3406.4636   -3854.4712            0    6829.6817    17.051562    20.084488    20.802866    7124.3969    7311.1012    8289.3344    4888.6094    228.94713   -877.24059    -703.1055   -2696.8459 
 9751000     263.3316   -3895.6672   -3444.3259   -3895.6672            0    7602.2883    17.045637    20.077509    20.795637    7116.9725    8147.9411    6962.9873    7695.9365   -916.52992    1103.3427    -143.7177   -2655.2559 
 9752000    259.75958   -3894.6351   -3449.4161   -3894.6351            0    7507.2305    17.073631    20.110482    20.829789    7152.0943    7140.1303    7107.2232     8274.338   -401.37341    238.64054   -479.79803   -2666.3672 
 9753000    253.76545   -3888.9708   -3454.0255   -3888.9708            0    6655.3308    17.048243    20.080579    20.798817    7120.2378    6934.5431    6004.6824    7026.7669    -336.3453    740.68325    150.89784   -2762.9269 
 9754000    254.59693   -3919.9825    -3483.612   -3919.9825            0    6465.2169    17.033125    20.062772    20.780373    7101.3123    7285.9066     5387.262     6722.482   -400.19177    396.77222    112.91284   -2814.0396 
 9755000     259.6675   -3854.2845   -3409.2232   -3854.2845            0    9245.9827    16.956189    19.972151    20.686511    7005.5189    10577.169    9408.4937    7752.2854   -874.45335    919.55874      1925.13   -2464.5768 
 9756000    263.96158   -3861.3621    -3408.941   -3861.3621            0    4872.6672    17.088819    20.128371    20.848319    7171.1979     5104.396    4956.9286    4556.6771    182.23428    406.54037   -187.78776   -2899.3352 
 9757000    271.03846   -3885.9416    -3421.391   -3885.9416            0    8629.4095    17.014665    20.041028    20.757852    7078.2488    9176.9238    8170.7228     8540.582   -757.11709    500.44601    1401.1051   -2530.5857 
 9758000    260.73932   -3869.8654   -3422.9672   -3869.8654            0    7398.8103    16.982731    20.003414    20.718892    7038.4687     6881.421    6303.3628    9011.6472    219.28483    451.52173   -102.65892   -2663.4878 
 9759000    255.97087   -3865.4526   -3426.7272   -3865.4526            0    7181.8044     17.06954    20.105663    20.824799    7146.9548    8057.3233    7563.5571    5924.5329   -232.39889   -257.25081    828.12345   -2678.1605 
 9760000    262.20773   -3884.4867   -3435.0716   -3884.4867            0     8287.345     17.04726    20.079421    20.797618    7119.0059    8089.2454    10201.627    6571.1623   -765.95027   -495.51706    847.72841   -2574.6513 
 9761000      256.825   -3872.9014   -3432.7122   -3872.9014            0    8850.3401    17.017318    20.044153    20.761088    7081.5599    9335.4044    6661.8926    10553.723   -474.27353   -1204.7848   -112.07301    -2518.673 
 9762000    258.81174   -3848.0928   -3404.4983   -3848.0928            0    8269.4098    17.040804    20.071816    20.789741    7110.9209    7642.9424    9975.5292    7189.7579    1899.2998     841.6546   -959.60942   -2546.9151 
 9763000    268.88162   -3887.2341   -3426.3802   -3887.2341            0    8355.6691    17.028733    20.057599    20.775015    7095.8207    7457.2053     10450.29    7159.5121   -450.01538   -898.55843    1080.5964   -2561.6916 
 9764000    260.41012   -3925.5718   -3479.2378   -3925.5718            0    6286.1041    17.034155    20.063985    20.781629    7102.6004    7647.0339     5995.369    5215.9093    509.96521    35.881315   -313.74713   -2828.0971 
 9765000    256.73896   -3901.2974   -3461.2556   -3901.2974            0    6958.2447    17.056268    20.090031    20.808607    7130.2972    6966.7727    6494.1719    7413.7896   -93.046158   -670.44317    94.320792   -2737.6811 
 9766000    257.18316    -3885.544   -3444.7409    -3885.544            0    9326.6017    17.021998    20.049665    20.766798    7087.4044    8152.9581    9912.4308    9914.4164   -109.58858    794.58452   -111.25394   -2480.7198 
 9767000    262.35892   -3892.2105   -3442.5363   -3892.2105            0    6507.5318    17.063674    20.098754    20.817643    7139.5896    5514.6367    7262.1249    6745.8338    1701.0341     712.0319   -1246.5269   -2764.9487 
 9768000    260.38347   -3937.7021   -3491.4138   -3937.7021            0     7435.148    17.020091    20.047419    20.764471    7085.0225    6162.6755    8663.3411    7479.4275   -235.38603   -372.52268   -1103.8127   -2723.1564 
 9769000    251.99926   -3903.3639   -3471.4458   -3903.3639            0    7074.1091    17.019689    20.046946    20.763981    7084.5207    6667.0717    7014.0195    7541.2362   -955.24023    232.10181    538.50676   -2740.5455 
 9770000    252.89154   -3930.3096   -3496.8622   -3930.3096            0     6679.278    17.014247    20.040536    20.757342    7077.7267    7534.8647    6929.9791    5572.9903   -176.35483    853.10639   -205.62497   -2807.4179 
 9771000    257.51366   -3920.9252   -3479.5556   -3920.9252            0     9326.855    16.975694    19.995125    20.710307    7029.7229    10877.822    8273.2307    8829.5119   -389.01792    678.22301    419.15434   -2523.3543 
 9772000    258.84293   -3888.2281   -3444.5802   -3888.2281            0    5982.6955    17.102599    20.144603    20.865131    7188.5604     5573.174    5693.3292    6681.5832   -197.83037   -222.93096   -981.06471   -2817.3676 
 9773000    247.60224   -3897.5982   -3473.2165   -3897.5982            0    6296.3869    17.157809    20.209633    20.932487    7258.4033    6563.3081    5641.6094    6684.2432     1415.178   -190.09758    10.202965   -2806.7038 
 9774000    279.31833   -3857.8141    -3379.072   -3857.8141            0    7168.3567    17.110078    20.153412    20.874255    7197.9952    5712.3458     7042.756    8749.9683   -857.51403    39.408984    -561.7454   -2626.5711 
 9775000    240.71347   -3855.5326    -3442.958   -3855.5326            0    6595.2538    17.097375     20.13845    20.858758    7181.9755    5249.9304    8522.2832     6013.548    -621.2202   -973.90174    746.37537   -2752.1596 
 9776000    273.63688   -3863.7317   -3394.7275   -3863.7317            0    6027.9324    17.121565    20.166942    20.888269     7212.502    6634.2182    5943.3596    5506.2192    -670.5826    381.95256   -925.26858   -2760.6677 
 9777000    258.06885   -3830.9029   -3388.5817   -3830.9029            0    8119.4843    17.029254    20.058212    20.775651     7096.472     10463.66     6899.257    6995.5364    -1001.871   -208.96329    203.06867   -2548.2576 
 9778000     239.5735   -3869.4823   -3458.8616   -3869.4823            0     7657.175    17.033859    20.063636    20.781268    7102.2299    10075.846    7514.8146    5380.8644    1638.1202   -1264.6448   -537.09748    -2665.741 
 9779000     242.3747   -3859.6439    -3444.222   -3859.6439            0    7829.2668    17.028192    20.056961    20.774354    7095.1438     7591.207    9185.0616    6711.5316   -790.56927    1006.8878   -2187.1479   -2634.0855 
 9780000    249.51301   -3807.9161   -3380.2594   -3807.9161            0    7127.5962    16.975008    19.994318    20.709471    7028.8711    8999.2671    5023.6712    7359.8502   -42.386118   -664.58737    -720.4576   -2649.6175 
 9781000     261.5152   -3853.0146   -3404.7865   -3853.0146            0    8054.0613    17.111401     20.15497    20.875869    7199.6648    8473.4576    6915.4344     8773.292   -268.65366   -240.47998    548.79535   -2559.1123 
 9782000    259.03025    -3860.573    -3416.604    -3860.573            0     5691.479     17.11055    20.153968    20.874831    7198.5908    6559.7443    6659.2001    3855.4925   -808.88235   -56.457259    411.28209   -2819.0894 
 9783000    260.40748   -3876.2763   -3429.9467   -3876.2763            0    7241.0882    17.100877    20.142574     20.86303    7186.3888    8085.2032    7694.0263    5944.0351    1203.9785   -566.67389    938.93667   -2671.0365 
 9784000    251.35855   -3897.0442   -3466.2242   -3897.0442            0    8754.1488    17.068428    20.104354    20.823443    7145.5589    8053.3429    9869.5243    8339.5792   -2834.5212    292.63033   -366.43844   -2553.9487 
 9785000    239.18828   -3894.5821   -3484.6216   -3894.5821            0    6908.2391    17.076946    20.114387    20.833834    7156.2615    5455.1757    6952.8821    8316.6596   -1008.7465    457.58528   -974.80007   -2763.6312 
 9786000    247.54057   -3883.7283   -3459.4522   -3883.7283            0    9662.7741    17.053676    20.086978    20.805445    7127.0468    9241.8746    11095.254    8651.1938    864.26063   -1441.3451    321.19082    -2455.097 
 9787000    267.17858   -3876.6855   -3418.7506   -3876.6855            0    8924.0286    17.001181    20.025146    20.741402    7061.4339    9147.3483    9044.3386    8580.3989   -47.327768   -735.57598    -838.9586   -2499.7205 
 9788000    261.14331   -3889.1012   -3441.5105   -3889.1012            0    5690.3131     17.11303    20.156889    20.877857    7201.7214    6353.4797    5721.6893    4995.7704    466.02475    84.547223   -237.62678   -2843.8585 
 9789000    263.02301   -3878.0951   -3427.2827   -3878.0951            0    7449.6455     17.10285    20.144899    20.865438    7188.8775    8670.9378    7563.3932    6114.6055    -589.3168    939.95173    1180.4047   -2646.2439 
 9790000    244.64093   -3850.6015   -3431.2953   -3850.6015            0    8325.2916    17.006048    20.030878    20.747339    7067.4997     9901.379    7709.2315    7365.2642    528.85196    1034.0018   -33.674809   -2573.1889 
 9791000    265.10666   -3891.5605   -3437.1767   -3891.5605            0    8006.0116    16.932056    19.943726    20.657069    6975.6503    8091.0901    8541.1033    7385.8414   -1681.7242    -297.5953    -107.0443   -2622.7035 
 9792000    262.51609    -3887.288   -3437.3444    -3887.288            0    8647.7657    16.921025    19.930733    20.643612    6962.0258    8378.6282    9121.5206    8443.1483    720.05729    532.90241   -1758.9541   -2559.3021 
 9793000    260.84115   -3864.8989   -3417.8261   -3864.8989            0    8360.4413    16.981301    20.001729    20.717147    7036.6906    7824.3604    9178.3997    8078.5637   -1471.1574    382.33733   -1159.8625   -2559.8532 
 9794000     258.8838   -3877.2146   -3433.4966   -3877.2146            0    8747.2137     16.98811     20.00975    20.725455    7045.1592    9853.1927    8797.8006    7590.6479    81.861085    1415.7658   -330.00911   -2534.7517 
 9795000     252.2093   -3924.6836   -3492.4055   -3924.6836            0     7396.254     16.94837    19.962941    20.676972    6995.8327     6658.017    7811.7182     7719.027   -230.44599    854.97467    -1817.172   -2737.7876 
 9796000    273.32756   -3897.8106   -3429.3365   -3897.8106            0    7200.0378    16.996682    20.019846    20.735912    7055.8284    6658.3577    9935.4835    5006.2721    216.84125    1945.2753    599.03748   -2688.4381 
 9797000    250.49086   -3868.9714   -3439.6386   -3868.9714            0    9445.3932    16.985486    20.006659    20.722253    7041.8944    8972.4927    11473.338    7890.3486    340.08605   -491.19242    1582.7239    -2469.608 
 9798000    264.01379   -3853.3859   -3400.8753   -3853.3859            0    7388.9219    16.954353    19.969988    20.684271     7003.244    7521.3738    8395.1158     6250.276    757.70342   -791.76914   -786.55897   -2646.2068 
 9799000    242.97358   -3826.2057   -3409.7573   -3826.2057            0    7416.7296    17.000259     20.02406    20.740277    7060.2848    7060.3048    6957.2453    8232.6387    1458.3908    695.75961   -636.99112   -2646.0789 
 9800000    259.14172   -3879.6099   -3435.4499   -3879.6099            0    8315.5469    17.008751    20.034062    20.750637    7070.8701    9952.1801    8077.9275     6916.533   -429.49273   -1649.6355   -747.70633   -2577.9391 
 9801000    261.86561   -3875.6796   -3426.8509   -3875.6796            0    7818.7241    17.059953    20.094371    20.813103    7134.9193    8252.1637     7360.339    7843.6697    3084.4204   -41.730175   -135.17352   -2613.2698 
 9802000    257.35812   -3893.1546   -3452.0516   -3893.1546            0    9024.2823    17.009081    20.034451     20.75104    7071.2821    9452.3358    9315.7554    8304.7557   -629.22438    1111.0193    779.94571   -2521.4008 
 9803000    249.43479   -3903.5183   -3475.9956   -3903.5183            0     7617.973    17.064593    20.099836    20.818763    7140.7425    6999.7829    8866.4638    6987.6723   -144.35835    -403.3453    118.65393   -2682.6568 
 9804000    270.87554   -3894.7162   -3430.4448   -3894.7162            0    8927.7666    17.016625    20.043337    20.760243    7080.6953    7902.3103    9603.1387    9277.8508   -1229.3761    923.68568   -563.87767   -2508.5219 
 9805000    263.52521   -3903.1094   -3451.4362   -3903.1094            0    7337.5066    17.006187    20.031042    20.747509    7067.6731    7107.3355    8209.0739    6696.1104   -745.04302   -625.75672   -344.67529   -2695.1245 
 9806000    258.84376   -3866.7211   -3423.0717   -3866.7211            0    7917.6363     16.99653    20.019667    20.735726     7055.639    9180.3203     8674.872    5897.7166    1015.6144    -1199.838    -830.6109   -2608.3528 
 9807000    261.96885   -3891.7291   -3442.7234   -3891.7291            0    8631.7199    16.939032    19.951942    20.665579     6984.275    12353.773    6956.7381    6584.6484   0.57576997   -551.43366    126.62742   -2563.5095 
 9808000    258.75105   -3877.9039   -3434.4135   -3877.9039            0    7655.7418    16.972039     19.99082    20.705848    7025.1829    10059.761    6135.2767    6772.1878   -960.59458    201.24378   -68.703801   -2650.0438 
 9809000    261.07051   -3885.6465   -3438.1806   -3885.6465            0    9014.8659    17.018263    20.045266    20.762241    7082.7397    8689.2587    8388.9076    9966.4313    310.47679   -63.351913   -1415.2794   -2506.9945 
 9810000    247.43748    -3916.624   -3492.5246    -3916.624            0    6436.1544    17.081463    20.119707    20.839345    7161.9418    7895.2889    6586.9342    4826.2401    303.46108   -184.50086   -1047.5652    -2820.271 
 9811000    247.81782   -3885.1772    -3460.426   -3885.1772            0    6502.5978    17.043761    20.075299    20.793348    7114.6229    9348.5217    4970.1886    5189.0832    243.54001   -1039.1395    580.44834   -2785.7198 
 9812000    247.86165     -3863.27   -3438.4436     -3863.27            0    6413.9509    17.100702    20.142369    20.862817    7186.1692    5804.0462    6448.2457    6989.5609   -721.50557   -980.02147    619.11618   -2766.2429 
 9813000    267.56618   -3856.5715   -3397.9723   -3856.5715            0    7550.6589    17.062094    20.096893    20.815715    7137.6064    9240.3205    6476.5509    6935.1054     848.4893    -255.7102    593.58121   -2611.9889 
 9814000    265.93574   -3885.4702   -3429.6654   -3885.4702            0    8564.1211    17.004594    20.029166    20.745566    7065.6875    9265.3591    9906.1902     6520.814    273.91995   -1678.9563   -277.78048   -2547.1687 
 9815000    245.60557   -3897.8203   -3476.8608   -3897.8203            0     7701.529    17.038414    20.069001    20.786825     7107.929    7354.5526    7080.9403    8669.0941    258.40989   -576.17279     950.6834    -2678.506 
 9816000    268.63561   -3852.4358   -3392.0035   -3852.4358            0    8250.6648    17.016995    20.043773    20.760694    7081.1569    6904.4086    7994.0805    9853.5053    1695.1539   -140.30153    1518.4095   -2539.9458 
 9817000    256.29633   -3894.6647   -3455.3815   -3894.6647            0     8942.134    17.015206    20.041665    20.758512    7078.9237    6553.3607    10759.884    9513.1578    691.92077    1100.7908   -1008.5084    -2532.206 
 9818000    254.16338   -3865.2612   -3429.6338   -3865.2612            0     9445.663    17.086709    20.125886    20.845745    7168.5422    9581.5163    7645.8166    11109.656   -298.77551    323.48611   -566.31977   -2442.1291 
 9819000    240.90467   -3897.4195   -3484.5172   -3897.4195            0    6986.3349    17.108827    20.151938    20.872729    7196.4168    5088.8433    8351.1048    7519.0566    210.98513    114.44014     -417.903   -2751.2849 
 9820000    250.29408   -3860.5406   -3431.5451   -3860.5406            0    7253.4917    17.124024    20.169839    20.891269    7215.6105    8077.7716    7672.7085     6009.995    328.84246    1646.8695    107.56777   -2668.2436 
 9821000    249.96528   -3860.4508   -3432.0188   -3860.4508            0    7897.9296     17.05556    20.089197    20.807743    7129.4089    8539.5282    8488.9258    6665.3349    379.78809    1334.1975    -163.2278   -2610.8307 
 9822000    276.83648   -3831.7335   -3357.2453   -3831.7335            0    10214.786    16.982508    20.003152     20.71862    7038.1918    8941.6832    12678.823    9023.8534    1022.3846   -110.91978   -1484.2703   -2308.7505 
 9823000    249.93336   -3906.8441   -3478.4668   -3906.8441            0    7613.4153    17.051365    20.084256    20.802626    7124.1499    5964.0367    9230.2781    7645.9311   -655.13561   -566.04909   -239.87735    -2687.445 
 9824000    259.86935   -3897.0368   -3451.6296   -3897.0368            0     6587.556    17.037834    20.068318    20.786118    7107.2037     6519.251    5723.6507    7519.7665    108.29643   -73.679501   -738.78837    -2768.821 
 9825000    260.38215   -3906.5932   -3460.3071   -3906.5932            0    7654.8132    17.060662    20.095206    20.813967    7135.8087    8224.3141    9075.6691    5664.4563   -236.71464   -149.68623   -3.3478602   -2663.6826 
 9826000    260.17473   -3918.0985   -3472.1679   -3918.0985            0    7456.0871    17.045236    20.077037    20.795148    7116.4708    7248.1153    5324.0411    9796.1049    572.81979   -906.21317    35.304557   -2698.3273 
 9827000    257.63933    -3923.738    -3482.153    -3923.738            0    7307.2728    17.075539     20.11273    20.832118    7154.4934    7164.7011     8958.078    5799.0393    728.20041   -570.42124    378.71934   -2719.7053 
 9828000    262.65241    -3866.182   -3416.0047    -3866.182            0    7352.2838     17.00039    20.024214    20.740437    7060.4482     6381.807    7575.8729    8099.1715     1260.725    284.03158    953.02454   -2658.9445 
 9829000    257.14838   -3909.9875   -3469.2439   -3909.9875            0    8177.9019    16.956356    19.972347    20.686714    7005.7258    9210.5309    7402.0203    7921.1546    424.77516   -301.99091    44.761897   -2633.6968 
 9830000    270.80429   -3872.9575   -3408.8082   -3872.9575            0    8673.9508    16.968851    19.987065    20.701959    7021.2251    9623.3763    7725.2033     8673.273     1172.352    280.68029     658.6107   -2520.6185 
 9831000    248.07866   -3861.7296   -3436.5312   -3861.7296            0    8939.2542    17.008777    20.034092    20.750668    7070.9021    8838.4435    9646.0405    8333.2787   -1035.2932   -184.49611    1371.3928   -2514.6988 
 9832000    264.02753   -3920.8941     -3468.36   -3920.8941            0    5847.1935    17.044685    20.076387    20.794476      7115.78    4906.6771    6191.8789    6443.0243    1084.4167   -446.47726    760.34096   -2861.5596 
 9833000    253.20681   -3898.9189   -3464.9311   -3898.9189            0     7440.079    17.026285    20.054715    20.772028    7092.7606    6785.1382    8798.8682    6736.2306    1249.0457   -184.73756    1514.2862   -2695.3246 
 9834000    264.19577   -3873.5401   -3420.7176   -3873.5401            0    6986.3353    17.036867    20.067178    20.784937    7105.9927    7595.5287    8922.4141    4441.0632     850.8879    474.27944   -379.47284   -2696.6984 
 9835000    258.49908   -3910.7321   -3467.6735   -3910.7321            0    7447.6959    17.050617    20.083374    20.801713    7123.2119    7051.1257    7617.1114    7674.8506   -655.02043    78.822264   -153.24841   -2693.9715 
 9836000    262.90615   -3909.4538   -3458.8417   -3909.4538            0    7826.2493    17.064582    20.099824    20.818751    7140.7295    6396.9238    10323.118    6758.7063    683.25651   -93.398448    1617.0302   -2643.8144 
 9837000    252.99888   -3897.8592   -3464.2278   -3897.8592            0    8621.8111    16.974946    19.994244    20.709395    7028.7939    8167.2016    9250.6741    8447.5576   -735.28413    866.98013   -449.19244   -2580.4254 
 9838000    270.52113   -3873.8426   -3410.1787   -3873.8426            0    9001.0839    17.021463    20.049035    20.766145    7086.7357    9110.7677    10086.872    7805.6119    615.77914   -1284.0814    446.24328   -2479.8917 
 9839000    240.08917   -3913.9532   -3502.4486   -3913.9532            0    6308.3137      17.0728    20.109503    20.828776    7151.0501    5406.2637    8113.3544    5405.3231    644.98036   -44.982974   -164.57251     -2844.55 
 9840000    267.74841   -3918.2987   -3459.3871   -3918.2987            0     7814.708    17.035565    20.065646     20.78335    7104.3646    6493.0735    6965.4947    9985.5559     756.9439   -751.00981   -91.076859   -2649.7062 
 9841000    247.15967   -3930.5241   -3506.9009   -3930.5241            0    7478.6218    17.054808    20.088311    20.806826    7128.4665    5580.5791    9523.8698    7331.4164    89.243557   -225.26786   -662.90439   -2729.4131 
 9842000    255.96323   -3897.5971   -3458.8849   -3897.5971            0    9373.3234    17.006617    20.031548    20.748033     7068.209    10120.042    10137.484    7862.4439    1201.0998   -2345.0273    107.33559   -2492.6586 
 9843000    254.14381   -3950.6869   -3515.0931   -3950.6869            0    5068.1219     17.08494    20.123803    20.843587    7166.3163    6042.3008    6600.2009    2561.8639   -187.36389    533.79895   -96.290883   -2985.4066 
 9844000    247.67308   -3896.3745   -3471.8713   -3896.3745            0      7513.89    16.990822    20.012945    20.728764     7048.534    7472.6408    6630.8124    8438.2167   -244.25602   -483.11598   -904.17147   -2699.4762 
 9845000    241.22878   -3907.3418   -3493.8839   -3907.3418            0    8462.4326    16.983853    20.004735    20.720261    7039.8634     7082.167    10175.038    8130.0926     1483.909    524.04751   -2143.9403   -2625.0528 
 9846000    273.09593   -3916.2869   -3448.2098   -3916.2869            0    8322.3685    16.924681    19.935039    20.648072    6966.5392    9032.9033    7325.5344    8608.6679   -1336.5885   -194.73865   -928.57904   -2602.6586 
 9847000     258.6291   -3914.2703   -3470.9888   -3914.2703            0    7339.8849    16.956354    19.972345    20.686712    7005.7238    6249.8424     8512.459    7257.3534    327.80864    406.70505   -1585.8517   -2721.0633 
 9848000     253.7739   -3955.2634   -3520.3037   -3955.2634            0    9585.9965    16.937235    19.949826    20.663388    6982.0533    10011.009    9738.5921    9008.3888    885.89231    86.613323    973.29745   -2544.1992 
 9849000    257.15674   -3917.3165   -3476.5587   -3917.3165            0    7825.9485    16.976559    19.996144    20.711362    7030.7976    9761.1929    6547.7546    7168.8981   -886.01359    -1548.367   -739.08449   -2674.1096 
 9850000    246.72935   -3899.0169   -3476.1312   -3899.0169            0    8184.5227    16.933215     19.94509    20.658483    6977.0823     9567.109    7866.1476    7120.3115   -185.40855    294.60402     1619.166   -2643.3267 
 9851000    252.10951   -3942.7091    -3510.602   -3942.7091            0    8534.4714    16.994114    20.016821    20.732779    7052.6308    7030.5324    9005.5212    9567.3605    938.30658   -323.32797    631.62223   -2632.7856 
 9852000    280.94463   -3922.4458   -3440.9163   -3922.4458            0    8018.1617    16.998366     20.02183    20.737967    7057.9266    7452.8537    9062.7367    7538.8946   -267.93981    599.24497   -83.394317    -2615.586 
 9853000    257.98939   -3891.1653   -3448.9804   -3891.1653            0    6279.9682    16.987193     20.00867    20.724336     7044.018    5473.2446    7544.3118    5822.3483    343.36134   -667.75614    1832.3998   -2803.8406 
 9854000    264.06343   -3898.2604   -3445.6648   -3898.2604            0    7345.1859    16.903729     19.91036     20.62251    6940.6981    9328.3207     5283.213    7424.0241   -190.70329    470.28074   -378.11519   -2702.1633 
 9855000     259.3355   -3852.7431   -3408.2509   -3852.7431            0    7327.7161    16.946533    19.960777     20.67473    6993.5573    6086.2393     8815.652    7081.2568   -1610.6084      25.1621    908.72569   -2660.8688 
 9856000    237.66393   -3873.9453   -3466.5974   -3873.9453            0    7143.2197    17.010548    20.036179    20.752829    7073.1114    5643.3675    8146.3073    7639.9843    528.19471   -593.48211    1093.9868   -2729.7452 
 9857000    256.58793   -3913.0407   -3473.2578   -3913.0407            0    7084.9305    16.987318    20.008816    20.724488    7044.1728    7698.2812    5978.4125    7578.0978   -432.46436   -848.01805     1687.239   -2745.4085 
 9858000    257.07292   -3873.7387   -3433.1246   -3873.7387            0    9129.2101    16.983195    20.003961    20.719458    7039.0458    9186.9722    10300.248    7900.4103   -236.55008    45.999717    185.47932   -2495.9448 
 9859000    254.61706   -3902.3702   -3465.9653   -3902.3702            0     7825.494    17.039615    20.070415     20.78829    7109.4321    8119.7239    8507.3788    6849.3791   -445.80745    728.75495   -505.56209   -2654.5886 
 9860000    254.40747   -3895.6705   -3459.6248   -3895.6705            0    8304.8867    17.063757    20.098852    20.817744    7139.6934    8698.6978    7540.8848    8675.0775    614.75421   -340.78311   -192.72032   -2594.8776 
 9861000     254.6027   -3903.8413    -3467.461   -3903.8413            0    6569.7555    17.107034    20.149826    20.870541    7194.1538    5710.9946    9407.4918      4590.78    412.94738   -298.35865   -509.60136   -2778.1665 
 9862000    257.15744     -3914.51   -3473.7509     -3914.51            0    7854.6385    17.032991    20.062613    20.780209    7101.1443    6878.7161    6231.4694     10453.73   0.41743224    774.94119      -229.31   -2660.3017 
 9863000    249.83351   -3911.6959   -3483.4898   -3911.6959            0    8654.1278    17.000871     20.02478    20.741023    7061.0468    7633.9451    8560.8073     9767.631    1598.0721   -1059.7701   -758.66205    -2592.304 
 9864000    265.70942   -3894.2222   -3438.8053   -3894.2222            0    7572.6928     16.99683    20.020021    20.736093    7056.0131    6020.3959    6092.4629     10605.22   -69.757744   -133.31437   -341.39783   -2659.5395 
 9865000     272.4835   -3912.1332   -3445.1058   -3912.1332            0    6897.0305    17.031189    20.060491    20.778011    7098.8911    7310.4969    6692.8206    6687.7741   -365.86672   -1350.0109    271.87224   -2731.0559 
 9866000    253.87252     -3928.57   -3493.4412     -3928.57            0    6658.2235    17.038974     20.06966    20.787508    7108.6295    9435.4681    5457.6297    5081.5727    809.62539    314.42603    413.81376   -2803.1693 
 9867000    247.15547    -3925.771   -3502.1549    -3925.771            0    7050.6463      17.0445    20.076169     20.79425    7115.5481    6832.7041    7098.2102    7221.0245   -470.43159   -493.28894   -1405.3965   -2770.4884 
 9868000    247.95921   -3918.0115   -3493.0179   -3918.0115            0    6441.8931    17.062371    20.097219    20.816052    7137.9532    5138.8536    7110.1268    7076.6989    117.09808    571.14169     357.4831   -2822.4186 
 9869000    272.20967   -3926.0574   -3459.4993   -3926.0574            0    6506.2849    17.066134    20.101652    20.820644    7142.6776    5413.7952    5732.1095      8372.95    1014.2113   -1937.2158   -694.49844   -2781.7485 
 9870000    260.84599   -3921.6297   -3474.5486   -3921.6297            0    7434.4213    17.032028    20.061479    20.779035    7099.9402    8989.6452    6449.4531    6864.1655    828.34304   -309.25362   -1547.4908   -2704.7489 
 9871000    265.00643   -3924.6228   -3470.4108   -3924.6228            0    5636.6673    17.043496    20.074987    20.793025    7114.2908    5288.7465    6219.3801    5401.8755    260.35364    -1040.505   -212.08649   -2885.5805 
 9872000    267.68235   -3885.9818   -3427.1834   -3885.9818            0     7985.072    16.997048    20.020277    20.736359    7056.2845    6532.6985    8499.4106    8923.1069   -433.82497    830.41468    590.35697   -2605.4502 
 9873000    252.68504   -3911.3757   -3478.2821   -3911.3757            0      6130.06    17.123041     20.16868     20.89007    7214.3676    4888.6914    7783.9871    5717.5014   -1579.3783   -1217.5554    843.18893   -2833.3131 
 9874000    246.29993   -3850.0658   -3427.9161   -3850.0658            0    8423.6499    17.051102    20.083946    20.802305    7123.8204    9600.2955    8816.0207    6854.6335   -2114.9302   -1048.7697    465.55214   -2552.7527 
 9875000    264.41056   -3860.2092   -3407.0186   -3860.2092            0    6471.1737    17.038082     20.06861     20.78642    7107.5133    7087.1561    8642.6358    3683.7294   -1097.7871   -255.95795    879.07755    -2736.244 
 9876000    264.64569   -3897.7057   -3444.1121   -3897.7057            0    7927.1374     16.98476    20.005803    20.721367    7040.9911    7803.5654    7900.8434    8077.0035    586.23822    1286.9144   -276.30414    -2630.109 
 9877000    259.43053   -3893.1016   -3448.4466   -3893.1016            0    8932.6418    17.031896    20.061323    20.778873    7099.7744    9151.4224    9101.0425    8545.4606   -623.97965   -1394.8493    969.88373   -2523.5347 
 9878000    252.81276   -3904.0617   -3470.7493   -3904.0617            0    8893.6755    17.077449     20.11498    20.834448    7156.8945    11059.301    8330.3897    7291.3358    876.87636    556.30042    -117.1509   -2542.4633 
 9879000     254.5852   -3888.9925   -3452.6421   -3888.9925            0    8459.1968    17.070296    20.106554    20.825721    7147.9042    8805.6267    8530.7828    8041.1807    1447.6179     1278.071    313.83216   -2570.8144 
 9880000    256.72155   -3945.3261   -3505.3141   -3945.3261            0    7798.4156    17.068401    20.104322     20.82341    7145.5246    7436.1212    8345.1231    7614.0025   -1522.3529   -68.644155     301.6974   -2692.6401 
 9881000    246.23638   -3914.5776   -3492.5369   -3914.5776            0    7763.2591    17.080559    20.118642    20.838242    7160.8043       8162.9    8749.4946    6377.3826    729.25381    150.04767    565.65699   -2681.7966 
 9882000      262.094   -3899.5334   -3450.3132   -3899.5334            0    4507.3718    17.106909    20.149679    20.870389    7193.9963    4145.4003    4643.3292     4733.386   -403.30393    723.24554    1312.8032    -2977.413 
 9883000    252.96471   -3920.7186   -3487.1458   -3920.7186            0    5840.1939    17.053791    20.087113    20.805585    7127.1906    3922.5984    5990.1038    7607.8794      717.805    641.68551    -131.8999   -2880.0999 
 9884000    243.31714   -3894.2691   -3477.2319   -3894.2691            0    6397.6341    17.069197     20.10526    20.824381    7146.5244    5257.6629    6276.8523    7658.3871    1072.5508    751.08745     122.4355   -2810.4402 
 9885000    241.03022   -3907.0895    -3493.972   -3907.0895            0    7236.2635    17.040587     20.07156    20.789476    7110.6489    5637.1189     8068.371    8003.3006    204.60618    244.61456    -65.10632   -2743.5604 
 9886000    253.85711    -3887.346   -3452.2436    -3887.346            0     5309.813    17.054805    20.088307    20.806822    7128.4621     4353.194    6058.0784    5518.1666   -41.417913    565.18237    953.53441   -2900.2285 
 9887000    252.83979   -3922.7971   -3489.4384   -3922.7971            0    8550.6181    17.011896    20.037767    20.754474    7074.7933    9100.6123     8875.108    7676.1339    297.02892    799.10338   -1141.8818   -2607.1975 
 9888000    254.71675   -3879.6796   -3443.1038   -3879.6796            0    6848.8501    17.057837    20.091879    20.810521    7132.2652    6449.3622    6606.4054    7490.7828    282.64834    634.27918   -253.67557   -2730.7086 
 9889000    237.07673   -3912.2677   -3505.9263   -3912.2677            0    6349.8797    17.063868    20.098982    20.817879    7139.8324    5748.5469    6624.9426    6676.1494    1735.6339   -561.48463   -587.31225   -2844.7315 
 9890000     255.7556   -3904.1409   -3465.7846   -3904.1409            0    6768.2236    17.092589    20.132812    20.852918    7175.9455    5481.8026    4383.3509    10439.517    69.399896    903.24945    1422.8615   -2757.4642 
 9891000    259.65164    -3929.183    -3484.149    -3929.183            0    7372.1078    17.039475    20.070251     20.78812    7109.2577    7930.1535    7474.3382    6711.8317    -876.5205    422.13933    171.62298   -2719.7998 
 9892000    244.97824   -3915.1135   -3495.2292   -3915.1135            0    5192.6391    17.169988    20.223978    20.947345    7273.8701    4023.0905    6279.7947     5275.032   -2143.2688   -522.07674    682.37212    -2944.384 
 9893000     244.8619   -3880.1391   -3460.4542   -3880.1391            0    5524.8214    17.075935    20.113195      20.8326    7154.9902    7152.9009     4684.379    4737.1842   -101.63931   -917.74205    175.45074   -2883.9491 
 9894000    255.96926    -3894.106   -3455.3835    -3894.106            0    7438.3192    16.988049    20.009677     20.72538    7045.0825    5600.8177    9014.1549     7699.985      778.409    859.20404   -1248.4501   -2691.1311 
 9895000    259.32919   -3870.3423   -3425.8609   -3870.3423            0    7398.9392    17.067244    20.102959    20.821997     7144.071     7486.868    6981.8602    7728.0894    -1710.185    1583.7702   -623.39805   -2654.9732 
 9896000    245.91233   -3898.0618   -3476.5765   -3898.0618            0    6792.6946      17.0613    20.095957    20.814746    7136.6094    6709.7254    6818.3044    6850.0538   -626.62496   -792.65349   -410.65568   -2769.5919 
 9897000    243.67063   -3896.4682    -3478.825   -3896.4682            0    7606.2031    17.035039    20.065025    20.782707    7103.7058    7489.5445    8241.4409    7087.6239   -80.548798   -1201.6317   -804.65449   -2690.8204 
 9898000    253.35206    -3914.575   -3480.3382    -3914.575            0    8112.6972    16.989305    20.011157    20.726913    7046.6458    7405.0593    9010.8204     7922.212    39.226009   -232.18639   -705.14144   -2646.6118 
 9899000    260.54456   -3861.2307   -3414.6663   -3861.2307            0    7548.6024     16.99742    20.020715    20.736812    7056.7477    8569.0508    7041.3625     7035.394     352.7745   -898.05272   -1974.4686   -2637.7986 
 9900000    244.74628   -3886.2752   -3466.7884   -3886.2752            0    8595.7679    17.002201    20.026347    20.742645    7062.7043    9223.6606    8071.6365    8492.0066    -507.7054   -1207.2865   -98.632509   -2581.4046 
 9901000    277.97872   -3899.1791   -3422.7331   -3899.1791            0    6663.1765    17.007282    20.032332    20.748845    7069.0385    7783.3374    6392.6763    5813.5159    772.65683    299.16995   -1398.0611   -2735.7951 
 9902000    239.39351   -3911.7053    -3501.393   -3911.7053            0    7294.6237    17.077301    20.114805    20.834267    7156.7075    5578.6532     9171.661    7133.5569   -84.749623    286.35758    486.17677   -2740.0295 
 9903000    254.89274   -3878.6862   -3441.8087   -3878.6862            0    6670.4096    17.011545    20.037353    20.754045    7074.3549    4694.6804    9358.8678    5957.6805   -693.77011   -1088.7356     958.7555   -2753.6078 
 9904000    249.02073   -3890.8404   -3464.0274   -3890.8404            0    6847.6441    17.005328     20.03003    20.746461    7066.6021    6853.7285    5608.8777    8080.3262   -553.26944   -3.4297561    1150.6584   -2758.3151 
 9905000    263.85841   -3912.5962   -3460.3519   -3912.5962            0    7817.7413    17.068878    20.104884    20.823991    7146.1235    7347.5028    8694.4926    7411.2285   -461.81738    -440.8089   -1388.3005   -2645.5956 
 9906000    250.81179   -3916.4142   -3486.5313   -3916.4142            0    7044.9812    17.016108    20.042728    20.759612    7080.0499    8081.8102    7017.5166    6035.6169    440.13335    322.54522    335.57866   -2759.0999 
 9907000    242.18463   -3857.7538   -3442.6577   -3857.7538            0    7162.8791    16.950523    19.965477    20.679599    6998.4991    7323.4192    7536.7209    6628.4972    904.12883    585.01509   -1079.7073   -2711.5717 
 9908000    249.36339   -3899.8537   -3472.4534   -3899.8537            0    7491.1601    16.993731     20.01637    20.732312    7052.1537    8782.1414    6729.2013    6962.1377   -81.995756    8.1749831   -685.78344   -2701.9993 
 9909000    251.41706   -3900.2884   -3469.3682   -3900.2884            0    5873.3678     17.04476    20.076476    20.794568    7115.8747    6040.8184    5197.5891    6381.6959    170.72758    858.85145    -151.9729   -2859.8434 
 9910000    260.90858   -3875.2101   -3428.0217   -3875.2101            0     8638.703    17.045088    20.076863    20.794968    7116.2854    9795.5098    8792.9535    7327.6458   -225.96901    944.18488   -140.65841   -2531.4649 
 9911000    237.90022   -3898.5433   -3490.7904   -3898.5433            0     9034.094    16.935218     19.94745    20.660927    6979.5591    9011.7102    8542.3548     9548.217    1033.9296    1412.2278   -1374.7964   -2571.2126 
 9912000    255.75325   -3912.3424   -3473.9901   -3912.3424            0    6503.3274    17.021157    20.048674    20.765772    7086.3534    4882.6989    8649.6795    5977.6038   -583.54073    821.32174    -1384.956   -2801.8894 
 9913000    243.53555   -3876.9526    -3459.541   -3876.9526            0    7061.0561     17.00666    20.031599    20.748085    7068.2622    6896.2475    6807.0407      7479.88   -414.76228   -638.62025   -1501.8304   -2731.6637 
 9914000    253.36391   -3890.4875   -3456.2304   -3890.4875            0     8063.046    17.015146    20.041594    20.758438    7078.8484    6666.7042    7771.2855    9751.1482    865.00801    514.33563    291.00569   -2623.8198 
 9915000    262.25497   -3895.8488   -3446.3527   -3895.8488            0    10224.374    16.907649    19.914977    20.627292     6945.528    10521.342    10588.021    9563.7596    1917.8507   -1145.9075    -1000.573   -2410.6911 
 9916000    259.19749   -3889.9765   -3445.7209   -3889.9765            0    7999.8346    17.035939    20.066085    20.783805    7104.8317    8936.3328    7175.7374    7887.4335   -382.65735    404.59081   -769.20302   -2616.8046 
 9917000    252.05578    -3927.605     -3495.59    -3927.605            0    7153.8395    17.044569     20.07625    20.794334    7115.6345    6071.2141    7930.9103    7459.3942   -55.730397    209.60804    421.07386   -2753.2058 
 9918000    265.21932   -3880.0818    -3425.505   -3880.0818            0    7278.4325     17.06652    20.102107    20.821115    7143.1627     5815.168    9129.2523    6890.8771    1422.1129   -1686.6592    -316.8282   -2667.2692 
 9919000    272.67563   -3905.3561   -3437.9994   -3905.3561            0    7595.4908    17.069121     20.10517    20.824288    7146.4286    7972.1894    7502.4792    7311.8039   -1494.4673   -344.55467   -335.16402    -2646.372 
 9920000    258.10859   -3882.0384   -3439.6491   -3882.0384            0    9686.0199    16.991614    20.013877     20.72973    7049.5194    11210.424    9853.0858    7994.5504   -1059.8016    348.33654   -1370.9363   -2443.8293 
 9921000    251.68189   -3892.9614   -3461.5872   -3892.9614            0    7614.3261    17.019792    20.047067    20.764107     7084.649    9145.6296    6670.0923    7027.2563    864.24689   -1725.2946    1075.4491   -2674.8572 
 9922000     264.9377   -3930.1532   -3476.0591   -3930.1532            0    7440.9379    17.014716    20.041088    20.757914    7078.3119     7693.572    7340.9828    7288.2589   -764.85308   -1020.2268     687.8115   -2707.9317 
 9923000    260.83956   -3933.8489   -3486.7788   -3933.8489            0    9039.8541    16.992795    20.015268    20.731171    7050.9895    7901.2341    9665.8226    9552.5055   -1016.4246   -564.50778   -885.92614   -2557.1975 
 9924000    245.10734   -3923.6607   -3503.5551   -3923.6607            0    7188.1134    17.005169    20.029842    20.746266    7066.4033    6744.5108    8775.9519    6043.8776    -1299.781   -904.66457    -327.9937   -2762.7752 
 9925000    249.79838   -3888.2301   -3460.0842   -3888.2301            0    8192.2207    17.016152    20.042779    20.759665    7080.1039    9879.6378    7256.6373     7440.387    795.33464   -1328.4248     454.8608   -2614.1878 
 9926000    260.01043   -3905.3106   -3459.6616   -3905.3106            0    7638.2031    16.972088    19.990878    20.705908    7025.2444    5776.9671    8456.3635    8681.2788    262.44993    455.99738    1382.1314    -2677.082 
 9927000    258.71874    -3882.447   -3439.0119    -3882.447            0    6845.7858    17.041434    20.072558    20.790509    7111.7091    6695.4303    7195.0999    6646.8273   -751.37383   -1092.7998    1425.7009   -2728.9877 
 9928000    261.65674   -3902.5743   -3454.1036   -3902.5743            0     6575.531    17.042342    20.073627    20.791617    7112.8459    7126.0837    6814.7383    5785.7709   -71.541172    286.02028   -973.34596   -2772.0003 
 9929000    253.44133   -3899.9546   -3465.5648   -3899.9546            0    8099.7251    17.026697    20.055201    20.772531    7093.2759    9572.2355    8952.9279     5774.012   -1103.0385   -358.58409    -581.3832   -2627.6632 
 9930000    248.49299   -3911.5117   -3485.6032   -3911.5117            0    6691.6719    16.999946    20.023691    20.739895    7059.8948    6719.7932     6695.702    6659.5205    1559.7185    276.60237   -97.374999   -2796.6198 
 9931000    259.00599   -3887.3637   -3443.4363   -3887.3637            0     9360.113    16.929569    19.940796    20.654035    6972.5765    10561.964    8314.0835    9204.2913   -2089.1898    1176.8479    -940.0638   -2491.6263 
 9932000    261.37677   -3859.4994   -3411.5086   -3859.4994            0    8802.0759    16.981664    20.002157     20.71759    7037.1419      8555.18    9220.1375    8630.9101    18.480921    1092.4145   -221.19635    -2508.156 
 9933000    252.41883   -3900.4511   -3467.8139   -3900.4511            0    6837.0129    16.967237    19.985165     20.69999    7019.2224    4882.4329    8277.7917    7350.8141     27.28678   -1926.8046   -379.83694   -2767.9215 
 9934000    247.65457    -3890.117   -3465.6455    -3890.117            0    8446.3022    16.975931    19.995405    20.710597    7030.0178    10133.749    6067.1361    9138.0211   -53.202251   -358.04337   -258.16666   -2599.6833 
 9935000    265.30937   -3879.9547   -3425.2236   -3879.9547            0    5322.4557    17.077021    20.114475    20.833926    7156.3557    4272.4132    7040.8097    4654.1443    1410.5248    794.08886   -453.46226   -2869.7289 
 9936000    258.10801   -3847.5329   -3405.1446   -3847.5329            0    6384.6557    17.144455    20.193904    20.916196    7241.4689    7920.7956    6030.5864    5202.5851    1489.8637    839.91685   -217.28947    -2730.865 
 9937000    246.78884   -3859.0884   -3436.1008   -3859.0884            0    6531.7464    17.030788    20.060018    20.777521     7098.389    7120.9934    5610.1545    6864.0912    408.49096    301.35026    452.07215   -2759.9166 
 9938000    259.43548     -3833.07   -3388.4065     -3833.07            0    7963.0892    17.034822    20.064771    20.782444    7103.4352    8414.2955    7127.8453     8347.127   -593.73234    760.83564    -1045.953   -2563.4598 
 9939000    248.38681    -3911.456   -3485.7295    -3911.456            0     6699.095    17.123726    20.169488    20.890906     7215.234    8370.1211    6017.1566    5710.0071   -1093.7243    815.32389    161.11756   -2780.8052 
 9940000    267.77601   -3876.5982   -3417.6393   -3876.5982            0    7176.1435    17.140976    20.189806    20.911951    7237.0614    6253.0259    7424.2624    7851.1422    996.24874    308.18234    1141.3268   -2660.2324 
 9941000    259.07366   -3861.6028   -3417.5594   -3861.6028            0    8584.9408    17.003527    20.027909    20.744263    7064.3568    9435.5651    9967.0075    6352.2499    1312.9866    506.72902    890.79264   -2533.0839 
 9942000    261.24894   -3885.1806   -3437.4089   -3885.1806            0    7573.6875    17.100379    20.141988    20.862422    7185.7614    7009.6912    7994.8162    7716.5551   -355.74218   -1015.9684     1489.374   -2643.7095 
 9943000    259.89599   -3850.2145   -3404.7617   -3850.2145            0    7703.6189    17.045507    20.077356    20.795479    7116.8101    6573.0347    8608.7781     7929.044   -235.55543   -834.48002    1750.0297   -2605.1925 
 9944000    255.19102   -3844.7344   -3407.3457   -3844.7344            0    8123.7712    16.966147     19.98388    20.698659    7017.8689    6689.9668    7421.5475    10259.799    580.34222    1396.7874    392.54293   -2575.8906 
 9945000    263.15689   -3895.7363   -3444.6944   -3895.7363            0    6476.3905    17.028192    20.056961    20.774355    7095.1442    5586.5619    7992.2116    5850.3979   -969.28291   -100.43718     783.1532   -2774.5473 
 9946000     258.8003    -3851.412   -3407.8372    -3851.412            0    7307.5925     16.99704    20.020267    20.736349    7056.2741    6651.8083    9401.7615    5869.2076    -868.6959   -506.71459   -547.16107   -2655.8236 
 9947000    267.58721   -3880.4173    -3421.782   -3880.4173            0     8772.751     16.98929    20.011139    20.726894    7046.6263    6781.9687     7713.527    11822.757    571.42763   -1670.6202    -1416.003   -2520.2255 
 9948000    267.50082   -3882.8105   -3424.3233   -3882.8105            0    6869.6175    17.181546    20.237592    20.961446    7288.5698    6222.8018    7847.0688    6538.9819   -82.753222    -257.5611   -354.24561   -2694.1082 
 9949000    270.48595   -3844.3689   -3380.7653   -3844.3689            0    8800.6201    17.011934    20.037811     20.75452    7074.8407    8295.9811    10813.642    7292.2372     1253.799    187.03091   -1441.3688   -2472.7235 
 9950000    249.69877   -3868.5737   -3440.5986   -3868.5737            0    7748.1998      17.1005     20.14213     20.86257    7185.9137    7893.2079    8210.5721    7140.8193    1456.2094   -123.53732   -625.80811   -2628.5936 
 9951000    256.83885   -3868.4858   -3428.2728   -3868.4858            0    6313.0977     17.06158    20.096288    20.815088    7136.9611    6391.1772    5102.7165    7445.3996     -197.884   -62.815494   -1164.4802   -2771.1724 
 9952000    256.16913   -3863.7567   -3424.6916   -3863.7567            0    5580.3987    17.087862    20.127245    20.847152    7169.9943    5997.5429    4856.6392     5887.014   -1054.4258   -146.14943   -802.45113    -2841.166 
 9953000    254.70384   -3896.2465   -3459.6929   -3896.2465            0    6045.4937    17.093123    20.133441     20.85357    7176.6183     7179.831    6725.9809    4230.6693    627.96943   -189.96989   -635.06452   -2826.9496 
 9954000    261.92892   -3900.9937   -3452.0565   -3900.9937            0    7929.6909    17.040328    20.071255     20.78916    7110.3245    8996.3492    8607.2841    6185.4393   -743.22086    607.89363    598.54668    -2629.773 
 9955000    248.74533   -3881.7512   -3455.4103   -3881.7512            0    5052.2594    17.130673     20.17767    20.899381    7224.0184    5776.7171    2718.9704    6661.0908    321.21757    1362.7551    961.43959     -2923.13 
 9956000    251.05185   -3867.9181   -3437.6239   -3867.9181            0    9800.6217    16.988829    20.010597    20.726332    7046.0538     10410.51     9672.573    9318.7822    1620.7298   -1371.3827    1641.6891   -2430.5172 
 9957000     238.1058   -3834.3064   -3426.2012   -3834.3064            0    8227.4322    16.996048      20.0191    20.735139    7055.0398     8204.172    7557.3847      8920.74    76.263509    598.35329   -377.17102   -2579.6764 
 9958000     256.9309   -3853.1842   -3412.8135   -3853.1842            0    7485.7822    17.035654    20.065751    20.783458    7104.4759    6904.4217     7402.119     8150.806   -868.48933    58.611442   -236.05819   -2637.2004 
 9959000    245.95575    -3848.335   -3426.7753    -3848.335            0    7916.5508    16.985311    20.006452    20.722039    7041.6764    7363.1916    8208.1784    8178.2823    349.16503    941.39206   -176.56704   -2613.7801 
 9960000    263.09334   -3863.3053   -3412.3723   -3863.3053            0    8113.2564    17.005526    20.030263    20.746701    7066.8482    8904.0027    5882.6283    9553.1383   -864.33517    234.00476    -642.1562    -2576.198 
 9961000    250.22723   -3900.8603   -3471.9794   -3900.8603            0    9037.3153     17.02517    20.053401    20.770667    7091.3668    9632.7164    7628.7219    9850.5076   -19.498392   -1848.9124   -1935.0864   -2537.3375 
 9962000     259.7176   -3890.3294   -3445.1823   -3890.3294            0    5624.6979    17.073197    20.109971    20.829261    7151.5497    6385.2341     5342.724    5146.1356    152.00866    437.80845   -19.238588   -2858.5375 
 9963000    260.13208   -3883.6265    -3437.769   -3883.6265            0    7435.7986     17.07522    20.112354    20.831729     7154.092     7639.657    7392.5326    7275.2062    375.94309    1978.3192   -1859.9735   -2661.9543 
 9964000    251.66257    -3890.242    -3458.901    -3890.242            0    7090.4323    17.086601    20.125759    20.845614     7168.407    7649.6671    8129.3051    5492.3248     37.82736   -218.44694    501.00079   -2717.6398 
 9965000    231.34844   -3910.1064   -3513.5831   -3910.1064            0    6789.8497    17.030547    20.059735    20.777228    7098.0882     7165.746    6933.3661     6270.437   -1103.7843   -1260.6242    1664.1077   -2810.7091 
 9966000    242.49785   -3897.3513   -3481.7183   -3897.3513            0    5592.5497    17.096834    20.137812    20.858097     7181.293    5042.5756     6187.289    5547.7844    34.884313   -248.10346    1300.0502   -2896.0005 
 9967000    242.93114   -3904.0839   -3487.7082   -3904.0839            0    6249.8176    17.117219    20.161823    20.882967    7207.0114    6158.0546    5152.1308    7439.2674   -335.12969    567.54279   -207.35767   -2830.8094 
 9968000    257.53999   -3868.8066   -3427.3918   -3868.8066            0    8485.3155    17.047364    20.079543    20.797744    7119.1357    7617.2927    9156.0369    8682.6169    1318.0329    491.91382   -488.78581   -2546.4015 
 9969000    258.53232   -3852.3995    -3409.284   -3852.3995            0    8087.0951    17.055042    20.088587    20.807112    7128.7601     8311.394    7187.8999    8761.9915   -715.91509    365.01231    938.58438   -2568.5039 
 9970000    249.26897   -3872.9148   -3445.6764   -3872.9148            0      8506.22    16.957335    19.973501    20.687909      7006.94    8609.5876    8984.2908    7924.7817   -1023.0811    1008.6777   -1429.5417    -2576.434 
 9971000    249.40315   -3881.9431   -3454.4746   -3881.9431            0    5479.2329    17.066332    20.101884    20.820885    7142.9256    5369.1181    5404.2812    5664.2995   -432.44121    436.18443    -57.04663   -2883.6906 
 9972000    260.25631   -3911.7947   -3465.7243   -3911.7947            0    5613.0028    17.059039    20.093295    20.811988    7133.7733    6343.8905     4661.595    5833.5228   -255.90827    1090.3315   -80.886253   -2881.7544 
 9973000    258.07012   -3920.1937   -3477.8704   -3920.1937            0    5942.3662    17.080288    20.118323    20.837911    7160.4636     6969.143    4068.4032    6789.5525   -1261.1241   -572.27368    662.82578   -2857.3209 
 9974000    256.26713     -3888.11   -3448.8769     -3888.11            0    8518.8793    17.013499    20.039654    20.756429    7076.7929    8338.7128    10330.509    6887.4157    -193.9321    485.31637   -1353.0989   -2569.6624 
 9975000    257.24563   -3887.5689   -3446.6587   -3887.5689            0    8866.7228    16.940839    19.954071    20.667784    6986.5112    6873.1137    8859.5508    10867.504   -637.84536    1544.7319    -5.637824   -2543.2186 
 9976000    251.91752   -3874.0729   -3442.2949   -3874.0729            0    6185.8102    17.059427    20.093751    20.812461    7134.2591    5243.3476     6804.036    6510.0468    1206.5797    988.34061    132.67399    -2798.687 
 9977000    270.23979   -3844.5545   -3381.3727   -3844.5545            0    6682.4891    17.030669    20.059878    20.777376    7098.2404    4551.3932    9810.4334    5685.6406   -1439.5268   -388.53727    560.31802   -2689.5978 
 9978000    256.62145   -3876.5075   -3436.6671   -3876.5075            0    6529.9061    17.064649    20.099903    20.818832    7140.8133    6634.1291    6366.7458    6588.8435    1413.5833    608.32661    568.88681   -2756.6333 
 9979000    261.60948   -3899.2301   -3450.8404   -3899.2301            0    6639.8948    17.065397    20.100783    20.819744    7141.7517    7520.1757    5756.5491    6642.9597     1808.123     522.7272   -1580.6151   -2759.2613 
 9980000    258.57812   -3868.1156   -3424.9215   -3868.1156            0    6446.8662    17.045636    20.077508    20.795636    7116.9713    6431.2887    6957.3983    5951.9116   -912.66368    885.97958    2725.9894   -2755.7773 
 9981000    265.17508   -3903.4829   -3448.9819   -3903.4829            0    4846.3089    17.106564    20.149273    20.869968    7193.5612    6189.4497    3256.6693    5092.8076   -1171.2102    144.95504    281.38171   -2940.5521 
 9982000    260.40831   -3897.2635   -3450.9326   -3897.2635            0    7763.8501    17.083126    20.121665    20.841373    7164.0332    8724.0377    8724.6328    5842.8799   -206.11816   -949.13327    1825.4247   -2639.7649 
 9983000    252.46876   -3892.5099   -3459.7871   -3892.5099            0    9521.7748    16.932249    19.943952    20.657304    6975.8882    8680.9991    10186.425    9697.9005    -59.20727   -10.794198    1573.9203   -2491.0781 
 9984000    260.07559   -3866.4183   -3420.6576   -3866.4183            0    8509.9513    16.955396    19.971217    20.685544    7004.5367    9428.0292    6451.6261    9650.1985     48.33891   -2043.9588    1903.6639   -2551.3322 
 9985000    252.95974   -3908.2474    -3474.683   -3908.2474            0    6775.7972    17.005985    20.030804    20.747262    7067.4209    4035.0671    6947.1695    9345.1552   -582.69676   -819.91379    1315.8379   -2776.2942 
 9986000    243.08577   -3868.9338   -3452.2932   -3868.9338            0    6615.1056    17.043487    20.074977    20.793015    7114.2802    7569.1305    6629.1161    5647.0702    461.83067   -1251.7675    1288.6409   -2765.9463 
 9987000     257.6499   -3880.7411    -3439.138   -3880.7411            0    7912.9512    17.043921    20.075488    20.793544    7114.8236    8526.6652    7595.6766    7616.5118   -1303.4445    1231.9314   -831.31329   -2618.0712 
 9988000    244.30589     -3848.65   -3429.9181     -3848.65            0    8422.1093    17.001094    20.025043    20.741295    7061.3253    9335.4785    7628.8764     8301.973    16.354238    1008.5972    15.859256   -2562.5908 
 9989000    255.54668   -3875.7207   -3437.7225   -3875.7207            0    8183.7345    17.046827    20.078911     20.79709    7118.4637    6242.5523    9571.7772     8736.874   -1315.8761    676.91911   -581.52611   -2588.1241 
 9990000    255.05543   -3868.9851   -3431.8288   -3868.9851            0    6238.3805    17.072231    20.108833    20.828082    7150.3359    5184.4895    7666.9636    5863.6884   -333.73628   -1327.8025   -87.681713   -2781.2885 
 9991000    253.82099   -3893.6373   -3458.5968   -3893.6373            0    6592.4786    16.995146    20.018037    20.734039    7053.9162    6890.2933    5661.5424    7225.6003    1624.5923   -472.00896   -978.02081   -2780.4012 
 9992000    266.90694   -3892.2887   -3434.8193   -3892.2887            0    7395.0576    17.092085    20.132219    20.852304    7175.3114    7116.3197    8902.3923    6166.4607    690.55043   -237.51407   -903.27636   -2660.9668 
 9993000    271.66278   -3892.3522   -3426.7315   -3892.3522            0    5875.6277    17.113599    20.157559    20.878551    7202.4398    5980.0086    4720.6179    6926.2566   -31.568479    554.23411   -1602.9252   -2809.5544 
 9994000    249.97793   -3870.8528   -3442.3992   -3870.8528            0    7469.7991    17.014209     20.04049    20.757295    7077.6789    8203.0584    6520.3979    7685.9409   -1040.7131   -1686.3187   -574.52605   -2671.3614 
 9995000     260.4976   -3873.0315   -3426.5475   -3873.0315            0    6102.3852    17.087981    20.127385    20.847297    7170.1439    7041.7295    5039.5215    6225.9046   -165.63403   -517.80981   -982.74752    -2788.426 
 9996000    258.10549   -3856.7576   -3414.3736   -3856.7576            0    7895.1218    16.943499    19.957203    20.671029    6989.8018    10479.364    5185.0594    8020.9419    630.44766    142.04942   -428.62792   -2609.5521 
 9997000    252.57093   -3872.7425   -3439.8446   -3872.7425            0    6956.3922    17.035236    20.065258    20.782948    7103.9526    9156.4003    5319.9854    6392.7909   -1734.2107    -108.1855   -119.16716   -2719.1355 
 9998000    255.38258   -3862.6772   -3424.9602   -3862.6772            0    6274.2935    17.063286    20.098297    20.817169    7139.1021     7235.305    4911.1409    6676.4345   -93.138469    699.23723    55.870082   -2771.7028 
 9999000    243.26841   -3887.0573   -3470.1036   -3887.0573            0    7313.6875    17.022176    20.049875    20.767015     7087.627    5163.7836    8890.4843    7886.7946    307.70534   -936.08368    177.17899   -2714.1186 
10000000    264.21999   -3864.9241     -3412.06   -3864.9241            0     8057.139    17.029046    20.057967    20.775397     7096.212    7989.2997    7733.5511    8448.5662   -185.21056   -911.56011   -764.52893   -2578.2189 
Loop time of 439.16 on 64 procs for 250000 steps with 864 atoms

Performance: 98.370 ns/day, 0.244 hours/ns, 569.268 timesteps/s
191.2% CPU use with 32 MPI tasks x 2 OpenMP threads

MPI task timing breakdown:
Section |  min time  |  avg time  |  max time  |%varavg| %total
---------------------------------------------------------------
Pair    | 26.117     | 33.605     | 41.85      |  60.5 |  7.65
Bond    | 0.68063    | 0.93745    | 1.3613     |  17.5 |  0.21
Kspace  | 198.1      | 205.05     | 215.85     |  31.1 | 46.69
Neigh   | 4.1388     | 4.6859     | 5.1073     |  12.5 |  1.07
Comm    | 85.534     | 91.572     | 99.946     |  32.4 | 20.85
Output  | 0.47943    | 0.47988    | 0.48152    |   0.0 |  0.11
Modify  | 79.916     | 84.111     | 87.128     |  17.9 | 19.15
Other   |            | 18.72      |            |       |  4.26

Nlocal:        27.0000 ave          32 max          21 min
Histogram: 4 0 3 5 2 1 5 2 8 2
Nghost:        2607.19 ave        2630 max        2583 min
Histogram: 2 3 2 2 5 6 3 4 2 3
Neighs:        8685.50 ave       11085 max        6155 min
Histogram: 2 2 3 5 1 6 5 4 3 1

Total # of neighbors = 277936
Ave neighs/atom = 321.68519
Ave special neighs/atom = 2.0000000
Neighbor list builds = 13582
Dangerous builds = 0

unfix		3
unfix		2
unfix		1

write_data	data.final.${pid}
write_data	data.final.1
System init for write_data ...
PPPM initialization ...
  extracting TIP4P info from pair style
  using 12-bit tables for long-range coulomb (../kspace.cpp:340)
  G vector (1/distance) = 0.37399918
  grid = 24 24 24
  stencil order = 5
  estimated absolute RMS force accuracy = 0.0031910736
  estimated relative force accuracy = 9.6098234e-06
  using double precision FFTW3
  3d grid and FFT values/proc = 3549 432
Last active /omp style is kspace_style pppm/tip4p/omp
WARNING: Not all mixed pair coeffs generated from mixing. Use write_data with 'pair ij' option to store all pair coeffs. (../write_data.cpp:312)

write_restart   restart.lmp.${pid}
write_restart   restart.lmp.1
System init for write_restart ...
PPPM initialization ...
  extracting TIP4P info from pair style
  using 12-bit tables for long-range coulomb (../kspace.cpp:340)
  G vector (1/distance) = 0.37399918
  grid = 24 24 24
  stencil order = 5
  estimated absolute RMS force accuracy = 0.0031910736
  estimated relative force accuracy = 9.6098234e-06
  using double precision FFTW3
  3d grid and FFT values/proc = 3549 432
Last active /omp style is kspace_style pppm/tip4p/omp
Total wall time: 0:07:19
