LAMMPS data file via write_data, version 30 Jul 2021, timestep = 16250000

972 atoms
2 atom types
648 bonds
1 bond types
324 angles
1 angle types

-0.05570481064242827 20.055705810635295 xlo xhi
-0.09849204140622625 20.098493041398527 ylo yhi
-0.41636948846027444 21.116367488463904 zlo zhi

Masses

1 1.008
2 15.999

Pair Coeffs # lj/cut/tip4p/long/omp

1 0 0
2 0.21084 3.1668

Bond Coeffs # harmonic/omp

1 450 0.9572

Angle Coeffs # harmonic/omp

1 55 104.52

Atoms # full

31 11 2 -1.1794 0.6643947072942005 1.729187873918022 1.9794122815133397 0 0 0
16 6 2 -1.1794 3.7891786249945913 3.745398976768667 3.2670381746804344 0 0 0
33 11 1 0.5897 1.3600530685896235 2.003506589276391 1.381915185449416 0 0 0
3 1 1 0.5897 3.315302728614132 2.504840884670336 -0.14512609946245114 0 0 0
4 2 2 -1.1794 4.132942237442163 1.0756334237325373 3.1659282835512865 0 0 0
5 2 1 0.5897 4.301862606490915 0.5560322949568085 2.380009089655753 0 0 0
10 4 2 -1.1794 0.9935847355773542 3.974598631960002 3.6331121582819703 0 0 0
11 4 1 0.5897 0.8150715999915037 3.1217506726956628 3.2368705640312996 0 0 0
23 8 1 0.5897 2.468725705789592 0.6346044599809257 4.062894403006059 0 0 0
18 6 1 0.5897 3.786051345114142 2.8065981950142422 3.080200102252281 0 0 0
12 4 1 0.5897 1.9484367604565702 4.041122230456859 3.639481746569281 0 0 0
1 1 2 -1.1794 2.3765400760365654 2.6201870261103903 0.001886851374277243 0 0 0
17 6 1 0.5897 3.9336528778438193 4.159010164770287 2.4160267221680107 0 0 0
236 79 1 0.5897 0.8700514317158322 -0.06576323692612515 1.6600102355411912 0 1 0
6 2 1 0.5897 4.880495237949008 0.8975705735699233 3.736567378937984 0 0 0
22 8 2 -1.1794 1.841327314605515 0.47449566710457847 4.76780169962661 0 0 0
2 1 1 0.5897 2.2239753267276314 3.5540699916467435 -0.14246900279177166 0 0 0
9 3 1 0.5897 4.962940106320121 4.153438650768111 4.387953235508085 0 0 0
27 9 1 0.5897 2.407069137186805 4.104465307993153 6.524863000233868 0 0 0
356 119 1 0.5897 1.3407944312710984 1.9833659845186222 8.293158490756605 0 0 0
355 119 2 -1.1794 0.5800088748694946 1.903858474308667 8.868532737250643 0 0 0
325 109 2 -1.1794 2.7223462490435733 2.1021366042488445 7.0403793345992955 0 0 0
326 109 1 0.5897 2.5212358592820867 1.5228430089539366 6.305438644492052 0 0 0
327 109 1 0.5897 3.6711151246167573 2.2217499533245766 6.999051770516881 0 0 0
330 110 1 0.5897 4.151177962143309 0.7142470259074488 9.83842951294842 0 0 0
342 114 1 0.5897 3.7497385382059742 4.700772629866546 9.594234656919308 0 0 0
344 115 1 0.5897 0.576146789430855 4.883898895743528 9.409214916637845 0 0 0
341 114 1 0.5897 3.8301124767956267 3.3403654795761653 10.253594966103911 0 0 0
102 34 1 0.5897 0.1216986317197189 0.5807289167646899 4.977265602863849 1 0 0
346 116 2 -1.1794 1.845718084439806 0.6717704246606169 12.22465974126368 0 0 0
651 217 1 0.5897 2.24655183745878 2.475001493847363 14.645906889510606 0 0 0
650 217 1 0.5897 2.3812614727966475 1.9283811223923744 13.240633976944189 0 0 0
348 116 1 0.5897 2.3432516072124168 0.9689719294108077 11.462880228447272 0 0 0
334 112 2 -1.1794 0.8271309609572227 3.8409973576998766 10.878729282469395 0 0 0
649 217 2 -1.1794 2.7010607285564916 2.622755751152208 13.816600591222109 0 0 0
347 116 1 0.5897 0.9306032414230861 0.8200835491095771 11.986399992298455 0 0 0
350 117 1 0.5897 2.161821344773789 4.364898058641842 13.664752030812995 0 0 0
683 228 1 0.5897 4.579167217421337 2.615536271827097 14.163156564189611 0 0 0
336 112 1 0.5897 1.7595826843067965 4.056850948569043 10.89100750149149 0 0 0
340 114 2 -1.1794 3.695939015201428 4.268303783965382 10.446439373795283 0 0 0
329 110 1 0.5897 4.557562794843497 1.362465176011692 11.144735608693878 0 0 0
680 227 1 0.5897 0.12988200131353533 2.138282278353934 15.536533835210015 0 0 0
328 110 2 -1.1794 3.9009991454824817 1.4070274620883738 10.449699158041248 0 0 0
335 112 1 0.5897 0.7765105535234548 3.0236151796406765 10.383196369717732 0 0 0
672 224 1 0.5897 1.0149899799560598 0.8282005113087906 19.079202763012773 0 0 0
653 218 1 0.5897 3.1375131936232434 0.8499526736030331 17.82508541308561 0 0 0
652 218 2 -1.1794 3.993450491459659 0.987038699694128 17.41919803842117 0 0 0
665 222 1 0.5897 3.0918195968386466 3.8486430100856284 17.790704624822176 0 0 0
658 220 2 -1.1794 1.1991377553554876 4.263103809437209 17.694405410184345 0 0 0
666 222 1 0.5897 4.06081131451781 2.715882112067382 17.5265405850596 0 0 0
664 222 2 -1.1794 4.022343966542225 3.6620751676570107 17.666169206686213 0 0 0
681 227 1 0.5897 1.0558365820281685 2.7684972694792878 16.554983807189203 0 0 0
659 220 1 0.5897 0.47987033266210755 4.4473011029496305 18.298485604027952 0 0 0
670 224 2 -1.1794 1.938634583174814 0.9410364986248718 19.303514086236518 0 0 0
671 224 1 0.5897 1.9338094624799709 1.5529283206757563 20.039559718872127 0 0 0
654 218 1 0.5897 4.038016943403795 0.3293963565611899 16.725136703145317 0 0 0
884 295 1 0.5897 0.5090700862851701 0.30214217069323496 16.235916989760582 0 1 0
660 220 1 0.5897 1.0435793309536907 4.845955331386335 16.95124632943061 0 0 0
679 227 2 -1.1794 0.9665019428608743 2.0065620419310037 15.982535473094094 0 0 0
662 221 1 0.5897 4.444191744878248 4.92660710287573 16.411736288208367 0 0 0
141 47 1 0.5897 0.5026212782522768 7.764524204563186 1.9130595961277561 0 0 0
14 5 1 0.5897 3.797799758715812 5.948937768285747 0.6459268577820825 0 0 0
140 47 1 0.5897 0.7529196670476341 9.108185532089372 2.5640999235069497 0 0 0
139 47 2 -1.1794 0.5468354306890599 8.701530732613849 1.722487212579241 0 0 0
674 225 1 0.5897 1.5741102142362042 5.6047112335557 0.36155743718301536 0 0 1
114 38 1 0.5897 3.0097523726487845 7.982709882967656 3.5835079141841395 0 0 0
13 5 2 -1.1794 4.509666475885836 5.935403805027297 1.2856498837993011 0 0 0
126 42 1 0.5897 4.371187068542072 9.92174378225194 2.783732340674043 0 0 0
20 7 1 0.5897 0.3525624533056794 5.169583802548152 2.385018413277065 0 0 0
113 38 1 0.5897 4.495401198343521 7.700561838900974 3.6546400157393473 0 0 0
112 38 2 -1.1794 3.799009423959788 7.941037998445903 3.0435830101633106 0 0 0
15 5 1 0.5897 4.3305010798715236 6.680014507183828 1.8598169327470289 0 0 0
19 7 2 -1.1794 0.3364121426424468 5.818339945080897 1.6814248187895835 0 0 0
110 37 1 0.5897 1.827636938086769 9.17805668607199 0.5036437434457808 0 0 0
673 225 2 -1.1794 2.3544160672797068 5.431008998709193 -0.16487981777832222 0 0 1
111 37 1 0.5897 3.3232286509324767 9.172172946177765 0.2691361545084301 0 0 0
109 37 2 -1.1794 2.490273583680764 9.3644160675343 -0.16146387974813525 0 0 0
437 146 1 0.5897 4.399601661771525 7.704543773371423 9.72982971089791 0 0 0
337 113 2 -1.1794 4.421342769184025 6.454923318414858 8.237049942413513 0 0 0
343 115 2 -1.1794 0.6347534607775602 5.491528135059336 8.671955398080373 0 0 0
443 148 1 0.5897 0.6520363110195553 9.97971835860416 9.973049129558149 0 0 0
345 115 1 0.5897 0.9152578872549519 6.318429763223647 9.064123331226934 0 0 0
463 155 2 -1.1794 0.6683001199976191 8.560464115043452 9.035326939314894 0 0 0
435 145 1 0.5897 2.045517903043225 8.713449189257098 6.194378524339663 0 0 0
433 145 2 -1.1794 2.3991081742015328 9.267442733779406 6.890254643227116 0 0 0
464 155 1 0.5897 1.262976654457045 8.959522530856445 8.400260880291485 0 0 0
25 9 2 -1.1794 2.395429614323988 5.058831101751746 6.597705089012655 0 0 0
468 156 1 0.5897 4.2833962221657345 8.995306411457937 7.0052964526774275 0 0 0
339 113 1 0.5897 3.8655847776646786 5.969712376099503 7.627218890976302 0 0 0
26 9 1 0.5897 1.6855228324612126 5.243947514483365 7.2124825087570965 0 0 0
131 44 1 0.5897 1.8879199621423037 6.574654845040797 5.3890762550399485 0 0 0
130 44 2 -1.1794 1.4156348411168929 7.360682338259058 5.114610225433698 0 0 0
132 44 1 0.5897 0.4914209909839218 7.120309690994179 5.179570081835111 0 0 0
349 117 2 -1.1794 2.329043613884611 5.303745370025474 13.747346458007263 0 0 0
792 264 1 0.5897 4.842495776361923 8.975619586018203 14.546538505604408 0 0 0
454 152 2 -1.1794 1.8781862030163392 7.537322743534958 11.96910036833213 0 0 0
455 152 1 0.5897 2.6477224259695658 7.846383973157777 11.491119621305684 0 0 0
456 152 1 0.5897 2.1685483450519176 6.731289746537854 12.395982307358802 0 0 0
759 253 1 0.5897 2.717445971175215 8.406704842133532 13.827815366686755 0 0 0
757 253 2 -1.1794 3.061659099269063 9.003894131440132 14.49195356065775 0 0 0
668 223 1 0.5897 1.1663474718131208 5.74893998881568 14.948674948060193 0 0 0
436 146 2 -1.1794 4.289623592528204 8.057988524775855 10.612509033939315 0 0 0
351 117 1 0.5897 3.088553677629975 5.362123661891877 14.326927869164285 0 0 0
533 178 1 0.5897 0.17709232548323525 7.579842809166356 12.170332984792966 1 0 0
758 253 1 0.5897 2.905994264489177 9.877500076436242 14.133031468926989 0 0 0
667 223 2 -1.1794 0.5309864148694531 5.926777249285515 15.642118205626788 0 0 0
438 146 1 0.5897 4.023277185955184 8.967143133469692 10.475558937915693 0 0 0
762 254 1 0.5897 4.817671404612183 7.40580240876935 18.494125002676 0 0 0
780 260 1 0.5897 2.6633234876632463 7.570468016521708 18.788275379546093 0 0 0
778 260 2 -1.1794 2.108539660293602 7.357513586059556 19.538639681403268 0 0 0
761 254 1 0.5897 4.331313806610747 8.544241146117184 17.622780537093426 0 0 0
779 260 1 0.5897 2.3086592726534167 8.03467517584748 20.184859288026317 0 0 0
663 221 1 0.5897 4.13767409459418 6.407178778035482 16.334825041826406 0 0 0
675 225 1 0.5897 2.252515722740859 5.988545401175911 20.596551327073144 0 0 0
788 263 1 0.5897 1.0682288046134554 9.287424647126455 16.93703616011515 0 0 0
760 254 2 -1.1794 4.16885723499111 7.622780556201091 17.82470680638547 0 0 0
787 263 2 -1.1794 1.0638982183731487 8.49116263085257 16.405851520955096 0 0 0
858 286 1 0.5897 0.41665825827243747 7.3898949339077635 19.260923966767407 1 0 0
669 223 1 0.5897 0.7627125740215046 6.79865399872858 15.962091744751111 0 0 0
661 221 2 -1.1794 4.337643632534412 5.646242558794573 15.789652719464781 0 0 0
789 263 1 0.5897 1.883207735466075 8.527484659689028 15.912308677634583 0 0 0
122 41 1 0.5897 4.011355600756522 12.531024924691824 0.20786503688152724 0 0 0
127 43 2 -1.1794 0.6145396502984276 12.856356471329544 1.2188149121061544 0 0 0
120 40 1 0.5897 0.862729752341946 11.523003739997531 2.6565846353866305 0 0 0
118 40 2 -1.1794 1.2396130517158988 10.95378731992943 3.3275165493545087 0 0 0
119 40 1 0.5897 2.1437597549923124 10.816002177546014 3.0451327117835914 0 0 0
125 42 1 0.5897 4.142335452013239 11.000746534663449 3.820629975794229 0 0 0
222 74 1 0.5897 4.1079810625130095 13.879337743446735 2.2011625107928334 0 0 0
123 41 1 0.5897 4.399281207014872 11.908661420406569 1.5321981605066715 0 0 0
220 74 2 -1.1794 3.980446777580447 14.2395013432967 3.0787497649786126 0 0 0
240 80 1 0.5897 2.6070442025204437 14.209619030746 4.327635777138575 0 0 0
129 43 1 0.5897 0.8352299408023481 13.752169823255358 1.4738834091177635 0 0 0
124 42 2 -1.1794 3.9914353227786634 10.792848606349967 2.8985892899504906 0 0 0
783 261 1 0.5897 1.9887992173644955 12.563948535893152 -0.05942459974424785 0 0 1
121 41 2 -1.1794 4.688424577023549 12.550964516433579 0.8841061534136923 0 0 0
188 63 1 0.5897 0.015623536647759936 11.045171075485328 4.544881891527372 1 0 0
133 45 2 -1.1794 2.479313788697514 11.982762080473517 6.7877390024157975 0 0 0
134 45 1 0.5897 1.7440245790461075 12.231947202681207 7.347598936945671 0 0 0
135 45 1 0.5897 3.2334136124286577 12.434151820518332 7.166933173576376 0 0 0
446 149 1 0.5897 4.2252432812682175 13.763637407229913 9.004007398053243 0 0 0
239 80 1 0.5897 2.211457612502751 13.47767238332829 5.592364654529977 0 0 0
450 150 1 0.5897 3.825018008703804 11.50444701199192 9.985517805051613 0 0 0
453 151 1 0.5897 0.600453411018887 12.158344356494437 9.487960061006916 0 0 0
451 151 2 -1.1794 0.7619360409390383 12.796932651334023 8.793458135509734 0 0 0
238 80 2 -1.1794 1.9370471951350494 14.186712217535387 5.010836571433273 0 0 0
572 191 1 0.5897 0.9657084933356033 14.869434014529407 9.20860781574145 0 0 0
445 149 2 -1.1794 4.283668740170243 13.049125195417924 8.369763427331344 0 0 0
434 145 1 0.5897 2.2048575976342555 10.161110890125764 6.607650994233688 0 0 0
317 106 1 0.5897 0.13289488962716883 14.255201467899496 5.252464478382114 1 0 0
544 182 2 -1.1794 4.117964105575164 14.87342809633081 10.293158605644289 0 0 0
563 188 1 0.5897 2.4921613069821267 13.001919202333571 12.513348456883246 0 0 0
562 188 2 -1.1794 2.1268472173841233 13.74408173183969 12.03172597081869 0 0 0
449 150 1 0.5897 4.231220392810132 10.966620100269871 11.34105729679946 0 0 0
442 148 2 -1.1794 0.6498351985941639 10.702358432868623 10.60074260149175 0 0 0
457 153 2 -1.1794 2.693514667946667 11.682612032486114 13.80629702955033 0 0 0
458 153 1 0.5897 1.9209321070669136 12.001188389105177 14.27299626641753 0 0 0
459 153 1 0.5897 3.3979100730192506 11.72227720054897 14.453125133275691 0 0 0
546 182 1 0.5897 4.800034909693177 14.57545521329876 10.894969097278254 0 0 0
564 188 1 0.5897 2.29571594639819 14.500934503846127 12.59287195746561 0 0 0
769 257 2 -1.1794 4.821716585431217 12.386660263501113 15.395670882893233 0 0 0
642 214 1 0.5897 0.10750051294634783 13.961489939521334 11.874726755156486 1 0 0
444 148 1 0.5897 1.5598278905774396 10.772437633061713 10.889188635062519 0 0 0
545 182 1 0.5897 3.33459163615597 14.393360188400067 10.561628117166228 0 0 0
776 259 1 0.5897 0.04612522173057455 12.415795974562434 15.728028213680782 0 0 0
448 150 2 -1.1794 3.5697642119010324 10.870715430151192 10.655913592654747 0 0 0
766 256 2 -1.1794 1.3373655274727034 10.864722608545668 17.93201286482956 0 0 0
771 257 1 0.5897 4.617790049869485 13.17166142424453 15.904020325765769 0 0 0
768 256 1 0.5897 1.0594678352323994 11.513643572314015 17.285573360784234 0 0 0
886 296 2 -1.1794 2.0820533068002565 14.38548201498768 19.074189903856038 0 0 0
869 290 1 0.5897 3.4518153971725294 14.0620234993946 17.88481394139159 0 0 0
782 261 1 0.5897 2.3521596259179107 11.319921737247812 20.690866541114495 0 0 0
774 258 1 0.5897 4.540450218581728 11.112078686214707 16.888819545038167 0 0 0
888 296 1 0.5897 2.2125768443175127 13.575041322264825 19.566491672283405 0 0 0
775 259 2 -1.1794 0.9727102245095269 12.645119401632728 15.799153318362164 0 0 0
773 258 1 0.5897 3.335197101131745 10.899620925589343 17.77988479034144 0 0 0
772 258 2 -1.1794 4.225012919392995 10.58405629645665 17.622221500017865 0 0 0
767 256 1 0.5897 0.6986633149653803 10.943115409021749 18.6405902290686 0 0 0
965 322 1 0.5897 0.32279493421638533 14.360768585531844 19.44179982074371 1 0 0
868 290 2 -1.1794 4.148898430361279 14.238330375072747 17.253007001185097 0 0 0
870 290 1 0.5897 4.958125174390962 14.13862019084019 17.754411754657227 0 0 0
777 259 1 0.5897 0.9790324160812831 13.599767631772337 15.86881989715952 0 0 0
781 261 2 -1.1794 2.5526081159165694 12.252954160379485 20.765095306417614 0 0 0
227 76 1 0.5897 1.1386496327433764 18.290323347377083 2.7059843072327636 0 0 0
234 78 1 0.5897 3.1382376433446133 17.356802777944253 3.083620327609073 0 0 0
228 76 1 0.5897 0.6490431666854974 17.601737578055477 3.962133413508446 0 0 0
247 83 2 -1.1794 1.0587212990359887 15.551440085946297 1.4728374965943216 0 0 0
226 76 2 -1.1794 1.3351049462018298 17.56251996087388 3.2958369226816058 0 0 0
248 83 1 0.5897 1.2035886063431391 16.32708674585394 2.0146862685740516 0 0 0
232 78 2 -1.1794 3.9528330315218474 16.905211666570224 2.86292348941121 0 0 0
233 78 1 0.5897 4.332758456850064 17.427261599894912 2.15630164982421 0 0 0
230 77 1 0.5897 4.19376764209589 18.86581152326724 0.37146548371717236 0 0 0
249 83 1 0.5897 1.5119858331681266 15.744042308711876 0.6521168084182185 0 0 0
229 77 2 -1.1794 4.664452581116537 18.97320487842409 1.1979565529300638 0 0 0
890 297 1 0.5897 1.8373913058435436 19.201386316418507 -0.18182055398899402 0 0 1
235 79 2 -1.1794 0.6998229867457524 19.257117256741722 1.3090010953035742 0 0 0
221 74 1 0.5897 4.081651339383011 15.184790002387675 2.967290157288107 0 0 0
219 73 1 0.5897 3.5680139504432637 16.205837347211805 -0.33257044879886877 0 0 0
241 81 2 -1.1794 2.676413652158878 18.937669317621655 6.859287524104061 0 0 0
555 185 1 0.5897 4.285492616530048 19.23144571393965 8.032562279740734 0 0 0
243 81 1 0.5897 2.0571472094961516 19.022519547693925 7.584185849465509 0 0 0
573 191 1 0.5897 0.900386045618398 16.240224177556378 9.847790399406936 0 0 0
542 181 1 0.5897 1.8689064014951329 16.138277928385904 7.513152578474923 0 0 0
558 186 1 0.5897 4.229621109073909 18.07937861026624 10.255635051401034 0 0 0
553 185 2 -1.1794 4.59154662181269 19.49714609820854 8.899681126127867 0 0 0
559 187 2 -1.1794 0.5856244313300305 19.184672697208846 8.629076445534452 0 0 0
242 81 1 0.5897 2.7320095050640836 17.995407910786113 6.700208532575985 0 0 0
541 181 2 -1.1794 2.5153822058937294 16.243775698166274 6.815214109314554 0 0 0
543 181 1 0.5897 2.2657298323382338 15.595344069056683 6.156886204708888 0 0 0
571 191 2 -1.1794 0.874394817935026 15.798899237870279 8.998835598040726 0 0 0
576 192 1 0.5897 4.324949397077882 16.25800262571928 6.827342961095203 0 0 0
24 8 1 0.5897 2.1518087948190576 19.869340986460855 5.187806902416678 0 -1 0
561 187 1 0.5897 0.7217014766514099 20.093441922755463 8.89706742132797 0 0 0
551 184 1 0.5897 1.1601350511944142 18.240774335917266 10.043540991439501 0 0 0
865 289 2 -1.1794 2.7245096071098773 16.02560685975652 13.867852063380376 0 0 0
567 189 1 0.5897 2.008474269541082 19.3594471385535 13.324292817275168 0 0 0
867 289 1 0.5897 2.202236639357176 15.94904923095651 14.66630788927676 0 0 0
565 189 2 -1.1794 2.179792686093528 18.819073713482872 14.09554003485497 0 0 0
566 189 1 0.5897 2.462640159667611 17.976459987146498 13.740252018245602 0 0 0
866 289 1 0.5897 3.6121486657713757 15.790746004577935 14.13824829962597 0 0 0
879 293 1 0.5897 3.7557210941739227 19.141469384065907 15.136119160639282 0 0 0
550 184 2 -1.1794 1.1611909696240414 17.782499366306176 10.883876625835576 0 0 0
557 186 1 0.5897 4.062552693304824 16.64499340223817 10.710063312548018 0 0 0
885 295 1 0.5897 0.9262828328252111 19.283529967531734 15.435841241653263 0 0 0
552 184 1 0.5897 2.0872571418678976 17.634062937279964 11.075107761128844 0 0 0
556 186 2 -1.1794 3.9548344038428773 17.54957717397827 11.003946857682898 0 0 0
877 293 2 -1.1794 4.530736790932515 19.130680398134416 15.697733186959242 0 0 0
875 292 1 0.5897 0.5348296061298211 17.62965985597107 18.616963950130696 0 0 0
876 292 1 0.5897 1.0029463175287603 18.205051584086704 17.297285836494794 0 0 0
874 292 2 -1.1794 1.1667144628123631 17.489648646541788 17.911770033505995 0 0 0
882 294 1 0.5897 3.8738766211915534 16.038538233984802 17.369957631039547 0 0 0
880 294 2 -1.1794 3.833898105055719 16.958680729334667 17.63072208112476 0 0 0
881 294 1 0.5897 2.9020355023868647 17.128934715182247 17.76803624115695 0 0 0
897 299 1 0.5897 0.696768593336138 15.99392287589288 16.693887275269297 0 0 0
891 297 1 0.5897 2.487691285942218 19.766056611507693 20.10593134084891 0 0 0
878 293 1 0.5897 4.406595326672625 18.368566094500395 16.263386653952843 0 0 0
887 296 1 0.5897 2.4158145633708967 15.072897941864955 19.650628785939233 0 0 0
895 299 2 -1.1794 0.7206445267591425 15.402440747758103 15.9417046590619 0 0 0
217 73 2 -1.1794 2.655689642277324 16.331124292118155 20.93906905883724 0 0 -1
218 73 1 0.5897 2.6053090831705896 17.250192523832382 20.67633028120907 0 0 -1
889 297 2 -1.1794 2.5760706405112095 19.06965117307559 20.756642429571578 0 0 0
883 295 2 -1.1794 0.5270598491725017 19.542570475800055 16.26630591561895 0 0 0
68 23 1 0.5897 8.090093556950098 2.383964629024279 1.0730088242181928 0 0 0
69 23 1 0.5897 6.593401246628506 2.1980530757016643 0.9419143924369549 0 0 0
67 23 2 -1.1794 7.3169893136710495 2.100108841576377 1.5607958658005403 0 0 0
48 16 1 0.5897 7.257638331671032 3.9899748277409 4.028958593339021 0 0 0
47 16 1 0.5897 7.642802101284516 3.259657927349198 2.760079224584173 0 0 0
53 18 1 0.5897 9.609687313919338 3.9844531565554533 3.6737251608760646 0 0 0
59 20 1 0.5897 9.680870171303821 0.8556219366272635 4.28272781791978 0 0 0
46 16 2 -1.1794 7.928765971015972 3.9594928716741373 3.3471708243112377 0 0 0
273 91 1 0.5897 7.449956480819836 0.09984534240086476 1.7239173596512543 0 1 0
34 12 2 -1.1794 5.138803576274804 2.0972396897702428 -0.2958469937515436 0 0 0
58 20 2 -1.1794 8.924546789581386 0.7415533142234232 4.858134099526179 0 0 0
28 10 2 -1.1794 6.218724412908405 0.5067574433079125 4.8316380983853175 0 0 0
29 10 1 0.5897 7.127181440736013 0.7085483454066239 4.607608293941305 0 0 0
37 13 2 -1.1794 9.350396921210042 2.513064699216935 -0.09157036161132653 0 0 0
391 131 2 -1.1794 7.2989531042571105 2.02505194982509 8.566559920213717 0 0 0
8 3 1 0.5897 5.493813038334111 3.5449855737561284 5.668449528385823 0 0 0
360 120 1 0.5897 5.950178270717948 2.0509820057914996 7.502554655013894 0 0 0
392 131 1 0.5897 7.972741032317526 2.297616736112639 7.9437377407142495 0 0 0
358 120 2 -1.1794 5.358256350231683 2.158486054628516 6.758075354194856 0 0 0
361 121 2 -1.1794 9.47962618422349 2.695849166197896 6.920779513333767 0 0 0
393 131 1 0.5897 7.529756947151484 1.1234859283939178 8.790531846513616 0 0 0
359 120 1 0.5897 5.581541071727702 1.4385741500317766 6.168080760535537 0 0 0
362 121 1 0.5897 9.37795190393621 3.6441031479911463 6.838672546753998 0 0 0
60 20 1 0.5897 9.088343515014406 1.335767713535035 5.590425138082624 0 0 0
7 3 2 -1.1794 5.703705645873352 4.189917755457172 4.9930293149696245 0 0 0
371 124 1 0.5897 7.757608231949742 3.2608392667672206 9.832632713081415 0 0 0
370 124 2 -1.1794 8.038212788585877 4.080878307154804 10.238882490612335 0 0 0
382 128 2 -1.1794 8.690791311775348 0.6181658260102465 11.73477922517528 0 0 0
686 229 1 0.5897 8.921588041563929 2.186111997552324 14.384121638489049 0 0 0
353 118 1 0.5897 6.836814907167513 0.6454954805101889 11.999851139738935 0 0 0
377 126 1 0.5897 9.996251271786518 4.088306012011298 10.370363397004166 0 0 0
331 111 2 -1.1794 5.871958363625182 4.678502600695033 12.238732843804906 0 0 0
372 124 1 0.5897 7.403408162658099 4.2312345132969735 10.939294918084638 0 0 0
682 228 2 -1.1794 5.535530150054034 2.619807848615385 14.123677499510055 0 0 0
384 128 1 0.5897 9.199139873109896 0.6909687531865826 10.927032718307833 0 0 0
352 118 2 -1.1794 5.9067572010359015 0.6779475125917285 12.223690008161267 0 0 0
383 128 1 0.5897 9.090252167232057 1.254430090373424 12.327867498977811 0 0 0
684 228 1 0.5897 5.758997879194285 3.4973656319087763 13.813504168512099 0 0 0
685 229 2 -1.1794 9.443673964712396 2.451183239184284 13.626950892952669 0 0 0
354 118 1 0.5897 5.860759800180743 1.2722284630564715 12.972632504286256 0 0 0
386 129 1 0.5897 8.84553410831602 4.182770862907895 13.769178646928172 0 0 0
332 111 1 0.5897 5.091597872118313 4.587120858911182 11.692033756843385 0 0 0
717 239 1 0.5897 6.863638620278704 2.1634359191791117 15.366162605301898 0 0 0
676 226 2 -1.1794 6.10057167352053 0.5883630674975453 19.264756724768915 0 0 0
657 219 1 0.5897 6.754076678083605 4.0405345467937925 19.302070434981914 0 0 0
707 236 1 0.5897 9.143833874502166 0.05816696444388417 19.840366123513604 0 0 0
715 239 2 -1.1794 7.643249576423824 1.900541988523296 15.855319814742233 0 0 0
696 232 1 0.5897 7.540073485287877 4.376299534432589 17.359093327795513 0 0 0
38 13 1 0.5897 9.043258167357152 2.1339398860227954 20.617724652558415 0 0 -1
708 236 1 0.5897 7.948227272155627 0.799353091391361 19.280893775750855 0 0 0
706 236 2 -1.1794 8.904710212247496 0.8194166146920326 19.311647924421067 0 0 0
716 239 1 0.5897 7.5199403591965766 0.965525271939857 16.018939384943963 0 0 0
695 232 1 0.5897 7.82245310605638 2.8892205330561183 17.330734627848173 0 0 0
694 232 2 -1.1794 7.994536392044083 3.6828573105968703 17.83743989166947 0 0 0
655 219 2 -1.1794 5.94803357382686 4.162251987782814 19.803742136099125 0 0 0
677 226 1 0.5897 5.561142596628875 0.8298785692489905 18.511857556591252 0 0 0
702 234 1 0.5897 9.816927421952073 4.07751581863896 17.826253562465702 0 0 0
710 237 1 0.5897 9.31346900129265 4.244149447485498 21.049957941415308 0 0 0
656 219 1 0.5897 5.246247362166788 4.021782381776462 19.16818871829227 0 0 0
35 12 1 0.5897 5.449342761933057 1.4394676180112482 20.6147093453623 0 0 -1
36 12 1 0.5897 5.505139796811356 2.921799430469401 20.917297635037876 0 0 -1
55 19 2 -1.1794 7.406115379432389 5.899482876423772 1.389650547040144 0 0 0
143 48 1 0.5897 5.924957793152706 8.897909423279321 0.6391034817688819 0 0 0
177 59 1 0.5897 8.035170306160403 9.051336231739537 0.8602799934283716 0 0 0
175 59 2 -1.1794 7.4031390856940975 8.850476686963534 1.5504296461243217 0 0 0
142 48 2 -1.1794 5.2547232105371355 8.930263712033344 -0.043479621528143164 0 0 0
176 59 1 0.5897 7.341044793596752 7.895302033277094 1.5484186763219965 0 0 0
56 19 1 0.5897 6.505346263486321 5.683931863471442 1.148075817523603 0 0 0
138 46 1 0.5897 6.931910101878111 7.297862106912032 4.2048712935673915 0 0 0
711 237 1 0.5897 8.537584801362746 5.3464197331276875 0.20631575256417778 0 0 1
57 19 1 0.5897 7.561029838726827 5.411408643433592 2.1983355974033554 0 0 0
136 46 2 -1.1794 6.039006849237376 7.049619257021472 4.444241802712704 0 0 0
166 56 2 -1.1794 8.695951347465765 7.534367721871963 4.744403019013848 0 0 0
137 46 1 0.5897 6.123290654237412 6.165691905559755 4.801601992389279 0 0 0
145 49 2 -1.1794 9.297490742481424 9.411789868615003 -0.3691534882067202 0 0 0
501 167 1 0.5897 6.4961550831771415 8.998795827637972 8.089276642901266 0 0 0
471 157 1 0.5897 8.842168841172372 9.059707419649827 7.7896116488578855 0 0 0
380 127 1 0.5897 7.341712506927603 6.829733046333993 8.613656490370957 0 0 0
62 21 1 0.5897 8.21436873861319 5.522294471033873 7.214342805632706 0 0 0
499 167 2 -1.1794 7.221158258333194 8.697259387510904 8.63665695429226 0 0 0
467 156 1 0.5897 5.417435665106321 8.412589684585893 6.1891095315545535 0 0 0
379 127 2 -1.1794 7.151736122710305 5.899848709496199 8.48920962853805 0 0 0
381 127 1 0.5897 7.391818996699379 5.492366088959321 9.32137398506851 0 0 0
61 21 2 -1.1794 8.906385380170391 5.4384034081356925 6.558408736007956 0 0 0
338 113 1 0.5897 5.308020330056292 6.145575566280062 8.051807969087262 0 0 0
469 157 2 -1.1794 9.293752634076204 9.241928046372001 6.965577503370017 0 0 0
500 167 1 0.5897 7.382491474084977 9.42140811559985 9.241469734351263 0 0 0
466 156 2 -1.1794 5.220387307951575 9.091107988270997 6.834862485917648 0 0 0
168 56 1 0.5897 8.66273278257916 8.173893404241317 5.455813768533649 0 0 0
63 21 1 0.5897 9.685038291052605 5.797476471668353 6.983772594912442 0 0 0
167 56 1 0.5897 8.790991143311569 6.6899236508633235 5.184990978947625 0 0 0
387 129 1 0.5897 8.347868661937909 5.545619115782179 13.336873098841046 0 0 0
460 154 2 -1.1794 6.07347956405112 7.323255680372052 12.506905617058907 0 0 0
462 154 1 0.5897 6.040588457907249 8.055264754397074 13.122762831355887 0 0 0
491 164 1 0.5897 9.237057920417186 7.90113353705669 11.477614828424635 0 0 0
794 265 1 0.5897 8.98811047662265 8.815062530245445 13.779708176897392 0 0 0
461 154 1 0.5897 5.4375992293173825 7.551407748367478 11.828832758198928 0 0 0
490 164 2 -1.1794 8.76353924215506 7.5938471393129765 12.250617080549492 0 0 0
793 265 2 -1.1794 9.364239392982826 9.358033153198123 14.4724562428879 0 0 0
492 164 1 0.5897 7.84953793562209 7.548692546004744 11.96996093929047 0 0 0
791 264 1 0.5897 6.26008166099264 8.967750848448697 15.077767394018487 0 0 0
385 129 2 -1.1794 8.645776104030098 5.056943999402176 14.104090331260718 0 0 0
333 111 1 0.5897 5.906403524123395 5.61055711403505 12.453957451071044 0 0 0
790 264 2 -1.1794 5.734106698844983 9.247005755099782 14.328403533340664 0 0 0
705 235 1 0.5897 7.384139457328914 5.350955178390018 15.33502972560715 0 0 0
815 272 1 0.5897 9.059807413198127 6.627049327160492 19.94509341083205 0 0 0
785 262 1 0.5897 6.065517176642836 5.908061229760815 19.890870313144042 0 0 0
816 272 1 0.5897 8.993857153959585 8.126926072209708 19.75014427600115 0 0 0
784 262 2 -1.1794 6.100990921511493 6.858236753534858 19.780541731625995 0 0 0
703 235 2 -1.1794 6.949377113055236 5.61137530891958 16.147025963962747 0 0 0
786 262 1 0.5897 6.990021862914258 7.030824704608793 19.47063460258685 0 0 0
814 272 2 -1.1794 8.83566414214944 7.29734118518479 19.299582588415532 0 0 0
824 275 1 0.5897 7.286724170097077 7.446840255558334 16.268339961794602 0 0 0
823 275 2 -1.1794 7.3052514983409695 8.39884399121011 16.366273820236223 0 0 0
144 48 1 0.5897 5.390147957200817 8.129994208858234 20.981850660702044 0 0 -1
825 275 1 0.5897 8.140357749380444 8.663554817472226 15.980650961265832 0 0 0
709 237 2 -1.1794 9.215834111195118 5.195873387750559 21.080658379806053 0 0 0
704 235 1 0.5897 6.015859063435969 5.5917641213533935 15.93639781186702 0 0 0
804 268 1 0.5897 7.722237157651317 9.853121329926372 17.680628401768104 0 0 0
164 55 1 0.5897 6.431886483386983 12.583284596397323 1.5335643609474394 0 0 0
154 52 2 -1.1794 7.974255738619624 10.768858904827825 3.76106822389002 0 0 0
285 95 1 0.5897 7.468922050048935 14.756898207520976 1.8072997019660524 0 0 0
165 55 1 0.5897 7.525629886480282 12.38099474415505 2.5604908920402862 0 0 0
156 52 1 0.5897 8.931132150657481 10.777022362156801 3.738408793227694 0 0 0
163 55 2 -1.1794 7.250740326867246 12.963057041198972 1.8520846579821315 0 0 0
819 273 1 0.5897 8.339875122566301 12.38904999435202 0.5017305890012805 0 0 1
246 82 1 0.5897 5.463765184648067 14.260797708411223 4.306982754822734 0 0 0
116 39 1 0.5897 6.462764993727096 10.934814201177492 4.675231481568127 0 0 0
274 92 2 -1.1794 8.636135273032993 13.762275175668071 4.891581268335393 0 0 0
258 86 1 0.5897 9.65193705926758 14.349735538843033 3.4841426489374263 0 0 0
275 92 1 0.5897 7.679431658177311 13.776373822250072 4.864722257866214 0 0 0
817 273 2 -1.1794 8.954392977996987 12.273775067919578 -0.22297625391981551 0 0 1
155 52 1 0.5897 7.725726759589525 10.072373913774607 3.1533269802225323 0 0 0
276 92 1 0.5897 8.848279887015284 13.081973886803384 5.530639115007143 0 0 0
487 163 2 -1.1794 7.227534023474818 12.987909750848905 8.627992886701799 0 0 0
447 149 1 0.5897 5.214176766443755 12.997524035595532 8.151414793797226 0 0 0