LAMMPS data file via write_data, version 30 Jul 2021, timestep = 1500000

1296 atoms
2 atom types
864 bonds
1 bond types
432 angles
1 angle types

-10.615712078528508 12.595712078528509 xlo xhi
-9.110619559081858 12.100617559081858 ylo yhi
0.169444995973711 21.69055400402535 zlo zhi
-9.101585391720889 1.9983193121032945 2.8655633255464026 xy xz yz

Masses

1 1.008
2 15.999

Pair Coeffs # lj/cut/tip4p/long/omp

1 0 0
2 0.21084 3.1668

Bond Coeffs # harmonic/omp

1 450 0.9572

Angle Coeffs # harmonic/omp

1 55 104.52

Atoms # full

282 94 1 0.5897 -10.420868480339495 -4.038456516580693 1.6741389706000966 1 1 0
280 94 2 -1.1794 -9.57394835572635 -4.4393755325906765 1.4785340366745645 1 1 0
270 90 1 0.5897 -8.288880919450916 -7.269839304519365 1.9423402396795695 1 1 0
163 55 2 -1.1794 -6.999184328918321 -7.8916340303196355 0.8049418492309125 1 1 0
164 55 1 0.5897 -6.166246540106723 -8.301003286143402 1.039237069762053 1 1 0
310 104 2 -1.1794 -3.4066665640451266 -8.345665288260554 3.6953708369637512 1 1 0
269 90 1 0.5897 -9.276888981344383 -6.154059077447171 2.2084675114352588 1 1 0
268 90 2 -1.1794 -8.976818606419224 -6.9966603253278254 2.549273469347513 1 1 0
299 100 1 0.5897 -6.412782926702979 -7.878865788351294 4.052221200414468 1 1 0
324 108 1 0.5897 -7.2494747837682825 -4.3998709445085105 3.5462182640582944 1 1 0
73 25 2 -1.1794 -8.725490316342785 -3.8979633790517 4.592266769716343 1 0 0
241 81 2 -1.1794 -1.02422720065222 -6.332931247126505 5.27698119585907 0 1 0
314 105 1 0.5897 -8.628432421142737 -6.8283189281501375 4.3969187559393506 1 1 0
298 100 2 -1.1794 -5.81711351385603 -7.144708194602214 4.201684695658546 1 1 0
259 87 2 -1.1794 -6.714741274399118 -5.195598391285428 0.5098390342295634 1 1 0
300 100 1 0.5897 -4.9496122763491055 -7.494152704873069 3.997730703466523 1 1 0
317 106 1 0.5897 -1.374438661123392 -3.7652279017255674 1.5734004920385583 1 1 0
313 105 2 -1.1794 -8.685325675434525 -6.470632509655172 5.282949995216579 1 1 0
322 108 2 -1.1794 -6.421072307803715 -4.691047944707836 3.1651324003183747 1 1 0
75 25 1 0.5897 -9.600555420662703 -3.597431760111787 4.346898598091009 1 0 0
323 108 1 0.5897 -6.280330486211259 -5.562847645713953 3.5343066832422125 1 1 0
316 106 2 -1.1794 -2.0022678760711425 -4.476555982997787 1.446950668319655 1 1 0
261 87 1 0.5897 -6.640510773208579 -4.9980180878942555 1.4434705918494595 1 1 0
305 102 1 0.5897 -1.6938359284980535 -5.9842670177844735 2.287733650124714 1 1 0
243 81 1 0.5897 -0.9429941787588056 -5.379420552000788 5.258146101069097 0 1 0
242 81 1 0.5897 -1.163058978590886 -6.580093491753673 4.36272778922674 0 1 0
306 102 1 0.5897 -0.8293659052432929 -7.200390008261186 2.0314983760272725 1 1 0
304 102 2 -1.1794 -1.4906416794152495 -6.854392504331129 2.6308771824928954 1 1 0
318 106 1 0.5897 -2.8587116122718808 -4.062585642291534 1.5537000269614454 1 1 0
311 104 1 0.5897 -2.754438100517384 -7.834143258359916 3.2167478217468046 1 1 0
293 98 1 0.5897 -5.127919685154764 -3.698355922815593 2.373117405972136 1 1 0
281 94 1 0.5897 -8.935715715304962 -3.7461619860432815 1.646669388184199 1 1 0
74 25 1 0.5897 -8.402406905799307 -3.2288917112427837 5.195723658306873 1 0 0
260 87 1 0.5897 -6.84792026774776 -6.142787026541965 0.4748127136723158 1 1 0
275 92 1 0.5897 -10.261046486610836 -8.133102091039367 3.1949088860446073 1 1 0
1 1 2 -1.1794 -0.7722841330016088 -3.6029132079698494 4.844159333708314 0 0 0
201 67 1 0.5897 0.3143445587895215 -8.448331100417567 0.20316193557295786 1 1 0
199 67 2 -1.1794 0.5095219626755387 -7.815335086006925 0.8941260256443101 1 1 0
315 105 1 0.5897 -8.73952095350586 -5.52343408903015 5.156372038682869 1 1 0
1262 421 1 0.5897 -1.932384500528899 -5.62157457135236 0.19019061437119508 0 0 1
429 143 1 0.5897 -6.1858633252623925 -7.094073638718575 8.565724144332219 1 0 0
428 143 1 0.5897 -6.541935892333826 -7.06170858017264 10.03677475743431 1 0 0
427 143 2 -1.1794 -5.882380407048038 -6.762679949043337 9.410883772334186 1 0 0
618 206 1 0.5897 -7.680797743545902 -7.319159022414653 6.594018812620033 1 1 0
420 140 1 0.5897 -8.695720016931563 -6.390771634762762 9.783709356655294 1 0 0
414 138 1 0.5897 -6.558621722737396 -4.6413095140741945 7.57774268487097 1 0 0
413 138 1 0.5897 -7.493130908279897 -3.4528293762500715 7.656002385191541 1 0 0
412 138 2 -1.1794 -7.13563971673089 -4.170359454195176 8.179001035729987 1 0 0
350 117 1 0.5897 -6.935082261692107 -4.304780153343906 10.116648167606629 0 0 0
419 140 1 0.5897 -8.454365381153703 -5.3064187605999615 8.755342960835947 1 0 0
418 140 2 -1.1794 -9.152767772284658 -5.8002193869681005 9.184920796468138 1 0 0
631 211 2 -1.1794 -5.467650018045399 -5.48055976526418 6.360869286407685 1 1 0
553 185 2 -1.1794 -3.1869425133451914 -6.89572821177096 6.834875889979826 0 1 0
627 209 1 0.5897 -10.03696762936814 -6.804995663218738 6.270947326419157 1 1 0
633 211 1 0.5897 -5.814875181783796 -6.036561950941653 5.663371662989294 1 1 0
404 135 1 0.5897 -5.1570919287946735 -3.815430794333748 5.768640259080749 1 0 0
335 112 1 0.5897 -4.782390113562074 -5.208336620951885 9.535257665745322 0 0 0
616 206 2 -1.1794 -7.27332576562328 -7.8341291015148 7.290410755264909 1 1 0
359 120 1 0.5897 -4.5010372885299335 -2.9826967538895373 8.827649130186316 0 0 0
546 182 1 0.5897 0.015767480730199068 -7.348922121881273 6.6023257050451924 0 1 0
334 112 2 -1.1794 -4.087398197477555 -4.552824127370867 9.593916246984131 0 0 0
348 116 1 0.5897 -1.3348420346875685 -6.6607514009062605 9.738128106292054 0 0 0
347 116 1 0.5897 -1.0169369268221065 -5.489369087964562 8.833482316360541 0 0 0
346 116 2 -1.1794 -1.744221610493108 -6.023187699694424 9.153232976132973 0 0 0
336 112 1 0.5897 -3.2776836044043742 -5.050745578897722 9.481185257705981 0 0 0
632 211 1 0.5897 -4.578862270561795 -5.804873950521962 6.506277102073646 1 1 0
555 185 1 0.5897 -2.409604745978424 -6.729834529883757 6.30156526934386 0 1 0
554 185 1 0.5897 -2.902636091971652 -6.72560103933937 7.7329008923996705 0 1 0
356 119 1 0.5897 1.120261629032134 -6.686163486328269 10.204860291201053 0 0 0
544 182 2 -1.1794 0.41642417417821953 -7.816612653694451 7.33508327116065 0 1 0
626 209 1 0.5897 -10.218322893680904 -6.62211102079204 7.762759199702677 1 1 0
408 136 1 0.5897 -10.830841103731707 -5.020802870722313 9.572517357392393 1 0 0
351 117 1 0.5897 -6.9206841155022385 -2.951294862104133 10.794640140045196 0 0 0
652 218 2 -1.1794 -5.593630141965899 -5.4894188150660135 12.843492608664148 0 0 0
780 260 1 0.5897 -7.553270134825334 -4.05020646009414 15.310884747621246 0 0 0
779 260 1 0.5897 -7.028810901695901 -3.0453343110736526 14.30749896515437 0 0 0
778 260 2 -1.1794 -7.82746028189811 -3.4977087172024754 14.578942617998841 0 0 0
768 256 1 0.5897 -9.349019383367029 -2.8082391462144463 15.009588459115157 0 0 0
654 218 1 0.5897 -6.019966459003973 -4.867608147333475 12.253763291048996 0 0 0
653 218 1 0.5897 -6.316166142738996 -5.929847369773437 13.290838977068036 0 0 0
661 221 2 -1.1794 -9.176762848651954 -4.5068951086952715 12.376238798021243 0 0 0
682 228 2 -1.1794 -7.735780839317906 -6.895993102332107 13.824162595415748 0 0 0
787 263 2 -1.1794 -4.259698818747676 -4.449422788029997 14.91585835811328 0 0 0
684 228 1 0.5897 -8.40980955087118 -6.4789832857458105 14.360866255372704 0 0 0
729 243 1 0.5897 -7.819113355957387 -7.097079955072951 12.015378334410254 1 0 0
662 221 1 0.5897 -8.753538880933647 -4.2440471598296785 13.193562037415312 0 0 0
766 256 2 -1.1794 -10.206784891305354 -2.384593725481947 15.041764492805962 0 0 0
663 221 1 0.5897 -8.52444146392035 -4.3265046025658505 11.69938966556104 0 0 0
740 247 1 0.5897 -10.594348386017838 -3.390318040493219 12.049179401770052 1 0 0
727 243 2 -1.1794 -7.817811328387929 -7.405271657710155 11.109153615983317 1 0 0
788 263 1 0.5897 -4.891720279775837 -4.617607714471608 15.614750526080469 0 0 0
789 263 1 0.5897 -4.663740729884973 -4.821925283810038 14.132139944363015 0 0 0
678 226 1 0.5897 -3.9916305783580537 -6.236403548852833 12.461425946464212 0 0 0
655 219 2 -1.1794 -0.3712197872158587 -7.506202900502334 11.018796328265838 0 0 0
657 219 1 0.5897 -0.41540968805136025 -7.133677646835084 11.899422642556976 0 0 0
677 226 1 0.5897 -2.5239442219440527 -5.940540535797569 12.23735143418297 0 0 0
697 233 2 -1.1794 -1.4766626783860524 -4.4624428338469455 12.321007102851363 0 0 0
802 268 2 -1.1794 -2.7339614100115908 -2.1136435469614767 14.874647829469927 0 0 0
669 223 1 0.5897 -4.126316409093193 -3.3375725700627603 11.107271261597232 0 0 0
699 233 1 0.5897 -0.7324589054873556 -4.379290840282023 11.724812496389136 0 0 0
816 272 1 0.5897 0.34682576832582157 -3.9601195214327554 15.33183253437297 0 0 0
814 272 2 -1.1794 -0.1344114886562373 -3.467907034589353 14.666745093662957 0 0 0
804 268 1 0.5897 -1.7916662562159171 -2.2729395452477874 14.820164348067083 0 0 0
803 268 1 0.5897 -3.129568931906091 -2.980293005377347 14.782195794857723 0 0 0
676 226 2 -1.1794 -3.1469504891458273 -6.662825373116657 12.316680769200419 0 0 0
795 265 1 0.5897 -2.8559904503950193 -5.4537632128223485 15.135709581109198 0 0 0
667 223 2 -1.1794 -3.7155877440198717 -2.799678252012697 11.784160878010496 0 0 0
793 265 2 -1.1794 -2.056444033508006 -5.823328042593278 15.510413608050815 0 0 0
720 240 1 0.5897 -0.7840963799080374 -6.579880315907537 14.461222501390932 0 0 0
718 240 2 -1.1794 -0.09268805229864796 -6.86172866586519 13.862248874815291 0 0 0
698 233 1 0.5897 -1.0948121982166779 -4.378156523841875 13.194682258260507 0 0 0
668 223 1 0.5897 -2.889407849804657 -3.2437760802594955 11.975126991228429 0 0 0
774 258 1 0.5897 -4.940514798913609 -2.295348654134509 13.070175843834472 0 0 0
689 230 1 0.5897 1.3928385697419028 -6.051925412829927 13.227503545805916 0 0 0
749 250 1 0.5897 -10.06788462807896 -6.0353615163452305 12.384483185480484 1 0 0
767 256 1 0.5897 -10.833108495427805 -3.1062438818525555 14.986296739642896 0 0 0
739 247 2 -1.1794 -11.44016400119569 -3.0561181629672163 11.750570334388225 1 0 0
757 253 2 -1.1794 -9.587650431749218 -5.804926843323818 15.628659445350527 0 0 0
794 265 1 0.5897 -1.8486938074740777 -5.2485343445991095 16.247074983656752 0 0 0
349 117 2 -1.1794 -6.9412346986088185 -3.8902172303774334 10.97939388694836 0 0 0
1151 384 1 0.5897 -5.942045545042696 -5.177563313189852 19.45936278016299 0 0 0
1152 384 1 0.5897 -6.7365960914470495 -3.8917978814285323 19.54529623177988 0 0 0
1225 409 2 -1.1794 -7.956229676684622 -3.356319947135421 20.82486475546459 0 0 0
1227 409 1 0.5897 -8.724324109529944 -2.8897127683657775 20.495382401416805 0 0 0
1109 370 1 0.5897 -8.59596602093361 -3.347120923494823 17.7897132390366 0 0 0
1108 370 2 -1.1794 -9.213450083470123 -4.078436876860998 17.785161618758053 0 0 0
1089 363 1 0.5897 -6.252702083762408 -4.656171138977475 17.35221017201637 0 0 0
1087 363 2 -1.1794 -6.388850256585952 -5.032787060519455 16.482815870857266 0 0 0
1150 384 2 -1.1794 -5.982208564693586 -4.287762682189075 19.108973663730083 0 0 0
1248 416 1 0.5897 -5.568613923732849 -1.3547527843740959 20.676543693100484 0 0 0
1141 381 2 -1.1794 -8.464455660262388 -6.033325904386219 21.409046579963302 0 0 0
1186 396 2 -1.1794 1.6230594172501753 -4.332551033426313 18.971162387360096 0 0 0
1125 375 1 0.5897 1.1955626866459763 -4.747731501539965 17.32886821287692 0 0 0
1219 407 2 -1.1794 -10.129742404893754 -1.7971586378435784 20.399583634900708 0 0 0
1177 393 2 -1.1794 -0.5457655523447507 -6.036336353357534 21.4506413896518 0 0 0
1143 381 1 0.5897 -8.402788481448535 -5.083343203332182 21.309774038343328 0 0 0
1131 377 1 0.5897 -6.849315654612581 -1.6275940578594348 17.12608332983804 0 0 0
1110 370 1 0.5897 -10.070297242752265 -3.669857852527187 17.908247522991758 0 0 0
1121 374 1 0.5897 -4.677215326823 -3.2554718116237336 18.497222307734177 0 0 0
1097 366 1 0.5897 -9.00347892477749 -5.840968505354075 18.384054589396975 0 0 0
1187 396 1 0.5897 1.8267730361947923 -5.180371761747281 19.36594254219851 0 0 0
1123 375 2 -1.1794 1.2636137075966989 -5.029485398123245 16.416612302707584 0 0 0
1129 377 2 -1.1794 -7.497002321095363 -1.8441995934995825 17.79672985988087 0 0 0
1122 374 1 0.5897 -4.21651175715445 -2.3665632036155078 17.36178214391036 0 0 0
1146 382 1 0.5897 -2.2960947823685576 -3.792728778228918 17.876248797593895 0 0 0
1144 382 2 -1.1794 -1.4070920745916293 -4.098098717568702 17.695443273019876 0 0 0
1145 382 1 0.5897 -0.886853018348015 -3.297315491142289 17.63048142375635 0 0 0
1120 374 2 -1.1794 -3.8912114034084313 -2.877325932273889 18.103051703194268 0 0 0
1088 363 1 0.5897 -6.495854742872027 -5.970580702725497 16.641597417202384 0 0 0
1188 396 1 0.5897 1.0122258297517739 -3.9230292257654913 19.583886193726187 0 0 0
1255 419 2 -1.1794 -2.533236931328064 -1.8935641508049397 20.355573426618903 0 0 0
1256 419 1 0.5897 -3.1317479566666346 -2.0121393987791727 21.09308008853386 0 0 0
1261 421 2 -1.1794 -0.15591669988881485 -3.3176340126429356 20.968617283451124 0 0 0
1257 419 1 0.5897 -3.007278237883048 -2.2465478691815086 19.602638896765228 0 0 0
1263 421 1 0.5897 -0.98483004600204 -2.9675073940980017 20.64215886994159 0 0 0
1133 378 1 0.5897 -0.9673168492882258 -5.684033901833031 18.435957270167243 0 0 0
1165 389 2 -1.1794 0.008599645206418316 -1.6487631446928095 17.83375657274926 0 0 0
1166 389 1 0.5897 0.4516649881022978 -1.4580403927772831 18.660516429247586 0 0 0
1142 381 1 0.5897 -8.483605188136792 -6.367610826950672 20.512322114754163 0 0 0
1124 375 1 0.5897 1.162788818048119 -5.980683514219798 16.451037166576114 0 0 0
1130 377 1 0.5897 -7.084775276965541 -1.5854339599481229 18.620944637852432 0 0 0
1178 393 1 0.5897 -0.5992426946606049 -6.376513804217928 20.557532203248364 0 0 0
1179 393 1 0.5897 -0.25831171136588615 -5.129486177697125 21.34523598553784 0 0 0
1221 407 1 0.5897 -10.60077343484301 -1.8304858270333462 19.566975260346624 0 0 0
1132 378 2 -1.1794 -0.963579920727307 -6.572564572536201 18.79179316916438 0 0 0
1226 409 1 0.5897 -7.606401836424366 -2.7881711044813997 21.511176149706188 0 0 0
165 55 1 0.5897 -5.3563755105734625 -5.584130863349577 21.634392321791317 1 1 -1
758 253 1 0.5897 -9.473050861013412 -5.171088530520226 16.33670796199192 0 0 0
301 101 2 -1.1794 -7.83083858541058 -2.315635210013358 1.6963788206352435 1 1 0
84 28 1 0.5897 -8.102747894201501 -0.6694901774792079 4.13085206282816 1 0 0
96 32 1 0.5897 -5.9263839490060946 -2.051128951274465 4.340521236435576 1 0 0
53 18 1 0.5897 -12.438900862824429 0.9627809362223818 2.216867944565499 1 0 0
54 18 1 0.5897 -11.588670270573871 -0.28079250970836966 2.06677259320987 1 0 0
68 23 1 0.5897 -11.57414109602446 -2.423513509248968 4.872947686304344 1 0 0
67 23 2 -1.1794 -10.933730485294864 -2.1507848967442253 4.215937086699584 1 0 0
69 23 1 0.5897 -11.322001412935194 -2.4099076253485006 3.3802797692298947 1 0 0
272 91 1 0.5897 -9.454824949915835 -1.2327086431966245 1.4864595036393695 1 1 0
271 91 2 -1.1794 -10.231710113816906 -0.8974283843989941 1.0389239852934131 1 1 0
258 86 1 0.5897 -12.457050099109527 -2.7766127049038563 1.3627196038178522 1 1 0
292 98 2 -1.1794 -4.443861833380065 -3.282313091360143 1.8485983580480316 1 1 0
82 28 2 -1.1794 -8.901672075948069 -0.14235433470438963 4.120042088679699 1 0 0
83 28 1 0.5897 -9.60587248623619 -0.7705026216459956 4.280247074936315 1 0 0
98 33 1 0.5897 -11.627762945376423 0.51808462470132 4.418308322277628 1 0 0
52 18 2 -1.1794 -12.222036064258624 0.1373088051646043 2.6501248457334166 1 0 0
107 36 1 0.5897 -9.381333556294168 1.588199006337362 3.4858911546753286 1 0 0
294 98 1 0.5897 -4.905709578930288 -2.6215701716634037 1.3325547796791608 1 1 0
97 33 2 -1.1794 -11.712813819392093 0.8391836772741819 5.316017624139394 1 0 0
302 101 1 0.5897 -7.4347326724360885 -2.0420153025204044 2.52369707712976 1 1 0
105 35 1 0.5897 -3.363842463770075 -2.4992340068795897 3.181382118429909 1 0 0
99 33 1 0.5897 -11.666089904522401 1.7918016695837995 5.2356122270912735 1 0 0
94 32 2 -1.1794 -6.4654904087628 -1.4172352109612936 3.8674938850914207 1 0 0
104 35 1 0.5897 -3.54906978836782 -2.4834644076429786 4.683801653761889 1 0 0
88 30 2 -1.1794 -4.663157130708472 0.1853375875677301 2.6144265013064008 1 0 0
103 35 2 -1.1794 -2.9693147239828015 -2.1708598066635245 3.9893068665081537 1 0 0
89 30 1 0.5897 -4.750270260209348 1.051081839118261 2.2156375276027984 1 0 0
256 86 2 -1.1794 -12.070235585555341 -3.308785551068545 2.057955845807947 1 1 0
59 20 1 0.5897 -13.45560692034195 -0.7994323518645139 3.6770455828347233 1 0 0
95 32 1 0.5897 -5.838123718402245 -0.892125356500836 3.370706143299307 1 0 0
26 9 1 0.5897 -4.185712925415969 0.3662858760397292 4.269831146998053 0 0 0
90 30 1 0.5897 -3.903177451392132 -0.20316620647573025 2.1811129889577554 1 0 0
303 101 1 0.5897 -7.157277472588825 -2.1420749463200597 1.0388300419258267 1 1 0
307 103 2 -1.1794 -2.6605455490790657 -0.8705092820824856 1.0818830936546764 1 1 0
27 9 1 0.5897 -3.760056837902635 1.5918786173401536 5.0499105816851575 0 0 0
25 9 2 -1.1794 -4.020312568969826 0.6773820142843441 5.159823801164571 0 0 0
3 1 1 0.5897 -1.5040042501021489 -3.141663766566195 4.434182716021316 0 0 0
309 103 1 0.5897 -2.915615528371416 -1.303737486320136 0.26734319384403726 1 1 0
273 91 1 0.5897 -10.406407135793009 -1.5377287947415414 0.34920690357312817 1 1 0
44 15 1 0.5897 -9.913892322491108 0.8573837952748331 0.4030412007643527 1 0 0
417 139 1 0.5897 -8.673872238141328 1.0771732985244427 5.4360775156802115 1 0 0
411 137 1 0.5897 -13.282037307775221 0.35099692275909433 6.1943590941238496 1 0 0
329 110 1 0.5897 -3.346106872016457 -1.215811193061894 7.590813080047311 0 0 0
330 110 1 0.5897 -3.020418348992516 -0.23548063593426072 6.484246537315676 0 0 0
400 134 2 -1.1794 -10.44222252587585 -0.6825079937205647 7.217357351105895 1 0 0
537 179 1 0.5897 -9.416982235904731 -0.14720503916875138 8.64335313839205 1 0 0
536 179 1 0.5897 -9.574120582172721 0.018388727612022038 10.139928926042286 1 0 0
535 179 2 -1.1794 -8.914867241002906 -0.009104643055753314 9.446495171703221 1 0 0
528 176 1 0.5897 -12.217994458003787 0.6597626901467439 9.825725434333311 1 0 0
424 142 2 -1.1794 -8.072851903018119 -2.0939789304286984 6.615289229302127 1 0 0
527 176 1 0.5897 -11.946447092912353 1.5197617877569414 8.609868093727556 1 0 0
526 176 2 -1.1794 -12.656902402539096 1.187050344757317 9.15825230183297 1 0 0
426 142 1 0.5897 -8.90572475120004 -1.6421267583601766 6.7510290339355 1 0 0
435 145 1 0.5897 -7.496405931047011 -0.8553387568621638 9.974612929877816 0 0 0
402 134 1 0.5897 -10.823730294323639 -0.19459424684870363 6.48757352709049 1 0 0
401 134 1 0.5897 -11.196171381700722 -1.0288788817111705 7.694596675628133 1 0 0
464 155 1 0.5897 -1.769551367830351 0.24398203245842964 10.248660652505572 0 0 0
425 142 1 0.5897 -7.43493972138044 -1.390548235308021 6.495362424167699 1 0 0
358 120 2 -1.1794 -4.646084075500594 -2.083289429794517 8.534094314670618 0 0 0
415 139 2 -1.1794 -8.487317750418182 1.5413041352680334 6.252164806688047 1 0 0
433 145 2 -1.1794 -6.686483047341397 -1.2572449938473298 10.288859726672985 0 0 0
443 148 1 0.5897 -7.85140557674003 1.5557139649916927 9.698422515651838 0 0 0
448 150 2 -1.1794 -2.8451098192060247 2.486333901361151 8.036045832399104 0 0 0
416 139 1 0.5897 -7.641838970527234 1.1948239311255957 6.53742471962179 1 0 0
339 113 1 0.5897 -5.50539582672464 0.12935724538124127 6.1955084461515275 0 0 0
360 120 1 0.5897 -5.4081361339855984 -1.7880640365053608 9.032470128667972 0 0 0
405 135 1 0.5897 -4.892394740249888 -2.6324318927713106 6.6754239885346465 1 0 0
337 113 2 -1.1794 -6.200468185086625 0.01364246842250516 6.8433403157017265 0 0 0
338 113 1 0.5897 -5.767949916033274 0.14989749300765354 7.686304236540946 0 0 0
328 110 2 -1.1794 -2.634723256820288 -0.681105634832349 7.238466456942294 0 0 0
456 152 1 0.5897 -4.415717073415189 0.7556909331854023 9.935239141915721 0 0 0
455 152 1 0.5897 -4.231935564768612 1.5160952600780586 8.639213073786554 0 0 0
454 152 2 -1.1794 -4.8897484803239255 1.0545788637921696 9.159241966098904 0 0 0
444 148 1 0.5897 -6.411153008517466 1.95286014206423 9.453961958765921 0 0 0
442 148 2 -1.1794 -7.280258280238287 2.3194299597829566 9.616921295058066 0 0 0
403 135 2 -1.1794 -4.983507129640195 -2.8742760962806475 5.753782317787612 1 0 0
522 174 1 0.5897 -9.71833169061887 2.126368237932571 7.486302929030492 1 0 0
410 137 1 0.5897 -13.549015785597948 0.4549094797821702 7.680887453722288 1 0 0
520 174 2 -1.1794 -10.479817301992494 2.431171773048936 7.979754307077975 1 0 0
465 155 1 0.5897 -1.6845899974607086 -0.007193230133237805 8.758174348571552 0 0 0
896 299 1 0.5897 -7.773970430094173 2.640605972569473 15.382275180837759 0 0 0
763 255 2 -1.1794 -3.3185271146869004 -0.09389400736286291 11.13695921012322 0 0 0
897 299 1 0.5897 -7.532945817389939 2.243985871745007 13.941276583457672 0 0 0
769 257 2 -1.1794 -12.308955524335898 2.5001002949628024 12.237516479042823 0 0 0
792 264 1 0.5897 -11.296868387200044 0.5890849295495642 14.358482340099131 0 0 0
817 273 2 -1.1794 -5.288854200948809 -1.312618358089379 16.26460865693629 0 0 0
765 255 1 0.5897 -3.5243321663116856 0.15705705518499968 12.037456289047036 0 0 0
762 254 1 0.5897 -9.170942870291976 2.2447057534959374 11.929850601418794 0 0 0
761 254 1 0.5897 -9.284665761160827 1.2061608230111993 13.025348471050814 0 0 0
760 254 2 -1.1794 -8.64433795876134 1.6733989397914115 12.488866506540395 0 0 0
837 279 1 0.5897 -11.11269172002032 -0.053393304880144044 12.095854942440653 1 0 0
791 264 1 0.5897 -10.421089207385638 -0.6231983644695607 14.123335369377944 0 0 0
790 264 2 -1.1794 -10.552058704363528 0.2820945097850718 13.841496597614618 0 0 0
807 269 1 0.5897 -3.8824223157596958 2.9263900655816766 11.560566795514479 0 0 0
865 289 2 -1.1794 -12.617779772136817 1.077312366969208 15.514783524045338 0 0 0
888 296 1 0.5897 -10.468943618271114 2.929836659948899 14.917773111610275 0 0 0
806 269 1 0.5897 -4.139594329579434 3.047421855271864 13.047529064283257 0 0 0
805 269 2 -1.1794 -4.534737418448509 2.7338250841429534 12.234055514419026 0 0 0
773 258 1 0.5897 -5.8123085527422536 -1.067867712856934 13.228855638144209 0 0 0
895 299 2 -1.1794 -7.075393671795738 2.4866724040046027 14.746244618332856 0 0 0
764 255 1 0.5897 -3.4593700452636336 -1.040329497873465 11.113394657646836 0 0 0
924 308 1 0.5897 -2.6901533120360845 3.1209279463595454 15.184373972806421 0 0 0
786 262 1 0.5897 -7.1578663847826665 0.9106275869885021 12.303332808192586 0 0 0
903 301 1 0.5897 -5.648080998046765 1.7209901976160111 15.273241076750313 0 0 0
901 301 2 -1.1794 -4.837537352516085 1.3730890818144772 15.645045784609431 0 0 0
828 276 1 0.5897 -3.683987296403613 0.7387372217161232 14.42292221318941 0 0 0
827 276 1 0.5897 -2.7868103444048256 -0.4581148394714347 14.189372573870706 0 0 0
826 276 2 -1.1794 -3.023786653525696 0.39337409389965217 13.821994310639887 0 0 0
784 262 2 -1.1794 -6.285901355726543 0.5217046684571987 12.371802295890424 0 0 0
770 257 1 0.5897 -11.81170176914251 2.7449101380909404 13.01792204907107 0 0 0
785 262 1 0.5897 -5.685506799025435 1.2624876817915105 12.288809793241244 0 0 0
836 279 1 0.5897 -11.364516841897633 -1.3251964999011117 11.314257466689694 1 0 0
771 257 1 0.5897 -11.751327380511484 2.7630965728865178 11.505359410503306 0 0 0
819 273 1 0.5897 -5.092136140250242 -0.3827718439609509 16.151433600225097 0 0 0
835 279 2 -1.1794 -11.120889946456387 -0.40593627939214194 11.205984420292545 1 0 0
818 273 1 0.5897 -5.228617532729695 -1.6797636993741838 15.382675143367052 0 0 0
772 258 2 -1.1794 -5.616898110333659 -1.9145168007632423 13.630292700767665 0 0 0
866 289 1 0.5897 -12.360819790965309 1.701013879839877 16.193882784220314 0 0 0
434 145 1 0.5897 -6.450144987593603 -0.7469142395539006 11.06340838166776 0 0 0
1195 399 2 -1.1794 -9.42722709624365 2.288678404889888 16.39091569507329 0 0 0
1242 414 1 0.5897 -3.5106980425045773 0.1271326536619135 18.316755274424672 0 0 0
1217 406 1 0.5897 -11.63307825139009 3.7449781672122313 17.69872026649641 0 0 0
1272 424 1 0.5897 -0.14550502169735502 0.05090854298487102 20.291379004611436 0 0 0
1286 429 1 0.5897 -3.6932740284856473 0.6780285643688018 20.732669842065405 0 0 0
1253 418 1 0.5897 -3.8929661207348882 3.8054809970926815 17.587451538934886 0 0 0
1250 417 1 0.5897 -11.3328055854977 0.5868570927343768 20.69098034940893 0 0 0
1009 337 2 -1.1794 -11.011139783004793 3.6400094334036694 20.82238937820408 0 -1 0
1205 402 1 0.5897 -11.871875441511495 1.417507657226043 18.3307312075355 0 0 0
1260 420 1 0.5897 -9.613099009274746 3.1294233350041942 19.793663899788925 0 0 0
1259 420 1 0.5897 -8.760525182271603 1.9180961801652288 19.481062974373536 0 0 0
1258 420 2 -1.1794 -8.979661802615858 2.7927339707096905 19.159905183493827 0 0 0
1099 367 2 -1.1794 -9.860758071099703 -0.4741181240602277 17.089233302253845 0 0 0
1218 406 1 0.5897 -13.067584713566367 3.294612345674709 17.52209133706169 0 0 0
1236 412 1 0.5897 -7.583736172638904 -0.052766016933617266 20.370823871020235 0 0 0
1235 412 1 0.5897 -9.031973074055667 -0.4806829903486811 20.47728055929222 0 0 0
1234 412 2 -1.1794 -8.476131671007877 0.29316815758803294 20.38607701571304 0 0 0
1206 402 1 0.5897 -11.094515139570664 0.11887999843007435 18.296762522370138 0 0 0
1249 417 2 -1.1794 -11.29369738329085 1.051996491527575 21.52664904995052 0 0 0
1100 367 1 0.5897 -8.970243567984017 -0.7080244149821073 17.351021010840185 0 0 0
1197 399 1 0.5897 -9.59525916809318 2.577638022105104 17.287853515008926 0 0 0
1216 406 2 -1.1794 -12.165837084077523 2.97399936231923 17.50402550406016 0 0 0
1204 402 2 -1.1794 -11.764352942385207 0.5873566328259017 18.794871231474026 0 0 0
1011 337 1 0.5897 -11.846795443007464 3.92947035144552 20.456127120339495 0 -1 0
1254 418 1 0.5897 -5.3619853325764115 3.4806948707927354 17.75584595590221 0 0 0
1295 432 1 0.5897 -1.2161719380164655 2.0449247659987364 19.473534064193444 0 0 0
1247 416 1 0.5897 -5.439001760883509 -0.34553731763550033 19.555688029685214 0 0 0
1287 429 1 0.5897 -3.6565104593714715 2.0166831203426057 21.43868357157642 0 0 0
1233 411 1 0.5897 -1.5387263597721859 2.5936262553377922 17.296549214149316 0 0 0
1294 432 2 -1.1794 -1.3738833198701386 2.925566170731816 19.133320346274985 0 0 0
1252 418 2 -1.1794 -4.495526818890942 3.0749130778193887 17.726436717959245 0 0 0
1270 424 2 -1.1794 -1.0026632794269617 0.47699454405023545 20.292300082821335 0 0 0
1229 410 1 0.5897 -7.633702856108879 3.728233907255209 18.43923613286657 0 0 0
1241 414 1 0.5897 -4.354251119468179 1.3706778429637367 18.50093660796439 0 0 0
1271 424 1 0.5897 -1.6207466322215165 -0.22764614281227935 20.486153222958066 0 0 0
1136 379 1 0.5897 -1.4826557645111382 -0.7929719405000739 17.24861600398515 0 0 0
1240 414 2 -1.1794 -4.159663998601218 0.5222395765540249 18.89897818744513 0 0 0
1296 432 1 0.5897 -2.108610379601137 3.2548761625551883 19.650998613334075 0 0 0
1045 349 2 -1.1794 -3.3317011924683184 3.850085405918545 20.751503153421915 0 -1 0
1135 379 2 -1.1794 -2.342177093937721 -0.42604666317463824 17.041611236931004 0 0 0
1251 417 1 0.5897 -11.20583042650421 1.9737800057230093 21.284346441363446 0 0 0
1246 416 2 -1.1794 -6.0875430456024855 -0.8173136261227398 20.07814956648526 0 0 0
1196 399 1 0.5897 -9.624813204632138 1.3521903132853854 16.399465427748297 0 0 0
1232 411 1 0.5897 -1.8334450735773817 1.3138108616780855 16.543555343935395 0 0 0
1285 429 2 -1.1794 -3.8295866630659443 1.0871163554478969 21.587242776586578 0 0 0
1231 411 2 -1.1794 -1.6519761725612483 2.2444164504948745 16.412550733675708 0 0 0
1101 367 1 0.5897 -10.096130076215179 -1.1264948469803393 16.429528192512613 0 0 0
1010 337 1 0.5897 -10.875321245853502 4.202931257664947 21.584552071394455 0 -1 0
1137 379 1 0.5897 -2.7152853096453926 -1.0340501994769564 16.403390518240812 0 0 0
902 301 1 0.5897 -4.63829599884626 1.9581397846570834 16.375957647979185 0 0 0
40 14 2 -1.1794 -15.250530251901786 3.6804928545886533 1.855846752722579 1 0 0
177 59 1 0.5897 -14.259389237309907 4.525926761006049 3.3304413290150037 1 0 0
42 14 1 0.5897 -15.77469759428228 4.248225374421532 1.2909235192717103 1 0 0
55 19 2 -1.1794 -13.35252409486981 6.414362602135082 0.9084603834117412 1 0 0
56 19 1 0.5897 -12.563539230385151 6.126017939982729 1.36738700740802 1 0 0
66 22 1 0.5897 -13.668925107474905 2.9490441399667997 1.4697424588291725 1 0 0
65 22 1 0.5897 -12.202559261818879 3.3250717899165725 1.4851399498312998 1 0 0
64 22 2 -1.1794 -12.79154206204708 2.5792559644133544 1.3711069220678067 1 0 0
191 64 1 0.5897 -12.583930822135617 6.29963686420442 4.053648582829389 1 0 0
183 61 1 0.5897 -12.1369225338836 3.9500472780545497 4.4534966790047 1 0 0
181 61 2 -1.1794 -11.382026455705304 3.458131187933695 4.776608144675966 1 0 0
176 59 1 0.5897 -14.414992117525035 4.714017158285223 4.824515816277812 1 0 0
175 59 2 -1.1794 -13.797307886414764 4.845800319872788 4.105286685710949 1 0 0
108 36 1 0.5897 -10.141772733289761 2.8949534229480793 3.563359177765064 1 0 0
192 64 1 0.5897 -11.099158242038493 6.581082064047605 3.9636528121306087 1 0 0
85 29 2 -1.1794 -11.06227830362187 4.738993759481881 1.657714534823117 1 0 0
106 36 2 -1.1794 -9.479565145348852 2.43385521416182 3.048453254086427 1 0 0
109 37 2 -1.1794 -3.7790297456588267 3.279801052277149 4.585539660910812 0 0 0
93 31 1 0.5897 -5.605496624831649 5.758835806796833 0.24654273828647638 1 0 0
45 15 1 0.5897 -9.628162296902048 2.1318904838960293 1.1684014353620498 1 0 0
190 64 2 -1.1794 -11.947560959873256 7.01459367501776 4.0561244703990464 1 0 0
86 29 1 0.5897 -10.549476461864904 5.009181819250767 2.419459837210596 1 0 0
204 68 1 0.5897 -8.994205601109083 5.220953863261549 4.43976528697102 1 0 0
87 29 1 0.5897 -10.4843166831786 4.896571780998364 0.9111781789716141 1 0 0
76 26 2 -1.1794 -7.444380033493721 3.85384497574349 1.9901977131265245 1 0 0
77 26 1 0.5897 -8.16450692861912 3.3078855160075555 2.305609994488125 1 0 0
78 26 1 0.5897 -7.805545648688154 4.312684399782681 1.2317670938767078 1 0 0
203 68 1 0.5897 -8.738841960465235 6.2822164527734135 3.390917646864685 1 0 0
202 68 2 -1.1794 -9.442101230651415 5.855184003536648 3.880016301094786 1 0 0