LAMMPS (30 Jul 2021)
Processor partition = 1
  using 4 OpenMP thread(s) per MPI task
using multi-threaded neighbor list subroutines
variable        pid world 0 1
variable        phase world IceVI IceV

shell cd ${phase}
shell cd IceV
include Restart.lmp
echo both
log log.lammps
#include		in.partitions
include		in.temp
variable        temperature equal 65.77
variable	tempDamp equal 100.0
include		in.pressure
variable        pressure equal 8197.2
variable        pressureDamp equal 1000.0 # This is 1 ps
include		in.seed
variable        seed equal 745823

units		real
atom_style	full
read_restart    restart.lmp.${pid}
read_restart    restart.lmp.1
Reading restart file ...
  restart file = 30 Jul 2021, LAMMPS = 30 Jul 2021
  restoring atom style full from restart
  triclinic box = (-3.1080145 0.042344039 0.047311839) to (14.718014 22.537655 19.182686) with tilt (-0.27744540 -6.7238896 0.16588999)
  2 by 4 by 2 MPI processor grid
  restoring pair style lj/cut/tip4p/long/omp from restart
  restoring bond style harmonic/omp from restart
  restoring angle style harmonic/omp from restart
  1008 atoms
  672 bonds
  336 angles
Finding 1-2 1-3 1-4 neighbors ...
  special bond factors lj:    0        0        0       
  special bond factors coul:  0        0        0       
     2 = max # of 1-2 neighbors
     1 = max # of 1-3 neighbors
     1 = max # of 1-4 neighbors
     2 = max # of special neighbors
  special bonds CPU = 0.001 seconds
  read_restart CPU = 0.005 seconds

include 	in.setup
variable	out_freq equal 1000
variable	out_freq2 equal 10000
variable	out_freq3 equal 1000

timestep	2.0

neigh_modify    delay 7 every 1

include		in.tip4p
# This is TIP4P/Ice

# create groups ###
group ox type 2
336 atoms in group ox
group hy type 1
672 atoms in group hy

# set charges - beside manually ###
set group ox charge -1.1794
Setting atom values ...
  336 settings made for charge
set group hy charge 0.5897
Setting atom values ...
  672 settings made for charge

# ### TIP3P Potential Parameters ###
pair_style lj/cut/tip4p/long/omp 2 1 1 1 0.1577 8.5
pair_coeff 1 1*2 0.000 0.000
pair_coeff 2 2 0.21084 3.1668
bond_style  harmonic
bond_coeff  1 450 0.9572
angle_style harmonic
angle_coeff 1 55 104.52
kspace_style pppm/tip4p/omp 1.0e-5
pair_modify tail yes

thermo          ${out_freq}
thermo          1000
thermo_style    custom step temp pe etotal epair emol press lx ly lz vol pxx pyy pzz pxy pxz pyz enthalpy

restart 	${out_freq3} restart.lmp.${pid} restart2.lmp.${pid}
restart 	1000 restart.lmp.${pid} restart2.lmp.${pid}
restart 	1000 restart.lmp.1 restart2.lmp.${pid}
restart 	1000 restart.lmp.1 restart2.lmp.1


include         in.dump
dump            myDump all atom ${out_freq2} dump.water.${pid}
dump            myDump all atom 10000 dump.water.${pid}
dump            myDump all atom 10000 dump.water.1
dump            myDump2 all dcd ${out_freq2} dump.dcd
dump            myDump2 all dcd 10000 dump.dcd
dump_modify     myDump append yes
dump_modify     myDump2 append yes


variable natoms 	equal  "count(all)"                        # NUMBER ATOMS
variable H      	equal  "enthalpy/v_natoms"                 # ENTHALPY-per-atom
variable Vol      	equal  "vol/v_natoms"                 # volume-per-atom
fix AVG all 		ave/time ${out_freq} 1 ${out_freq} v_Vol v_H file vol_enthalpy.dat
fix AVG all 		ave/time 1000 1 ${out_freq} v_Vol v_H file vol_enthalpy.dat
fix AVG all 		ave/time 1000 1 1000 v_Vol v_H file vol_enthalpy.dat



fix 		1 all shake 1e-6 200 0 b 1 a 1
Finding SHAKE clusters ...
       0 = # of size 2 clusters
       0 = # of size 3 clusters
       0 = # of size 4 clusters
     336 = # of frozen angles
  find clusters CPU = 0.000 seconds
fix             2 all nph tri ${pressure} ${pressure} ${pressureDamp}
fix             2 all nph tri 8197.2 ${pressure} ${pressureDamp}
fix             2 all nph tri 8197.2 8197.2 ${pressureDamp}
fix             2 all nph tri 8197.2 8197.2 1000
fix             3 all temp/csvr ${temperature} ${temperature} ${tempDamp} ${seed}
fix             3 all temp/csvr 65.77 ${temperature} ${tempDamp} ${seed}
fix             3 all temp/csvr 65.77 65.77 ${tempDamp} ${seed}
fix             3 all temp/csvr 65.77 65.77 100 ${seed}
fix             3 all temp/csvr 65.77 65.77 100 745823


run             250000
PPPM initialization ...
  extracting TIP4P info from pair style
  using 12-bit tables for long-range coulomb (../kspace.cpp:340)
  G vector (1/distance) = 0.3805983
  grid = 24 27 32
  stencil order = 5
  estimated absolute RMS force accuracy = 0.0023144812
  estimated relative force accuracy = 6.9699915e-06
  using double precision FFTW3
  3d grid and FFT values/proc = 7875 1344
Last active /omp style is kspace_style pppm/tip4p/omp
Neighbor list info ...
  update every 1 steps, delay 7 steps, check yes
  max neighbors/atom: 2000, page size: 100000
  master list distance cutoff = 10.8154
  ghost atom cutoff = 10.8154
  binsize = 5.4077, bins = 5 5 4
  1 neighbor lists, perpetual/occasional/extra = 1 0 0
  (1) pair lj/cut/tip4p/long/omp, perpetual
      attributes: half, newton on, omp
      pair build: half/bin/newton/tri/omp
      stencil: half/bin/3d/tri
      bin: standard
Setting up Verlet run ...
  Unit style    : real
  Current step  : 39750000
  Time step     : 2
Per MPI rank memory allocation (min/avg/max) = 12.46 | 12.47 | 12.48 Mbytes
Step Temp PotEng TotEng E_pair E_mol Press Lx Ly Lz Volume Pxx Pyy Pzz Pxy Pxz Pyz Enthalpy 
39750000    67.755668   -5246.2327    -5110.713   -5246.2327            0    8479.8551    17.826028    22.495311    19.135374    7673.3242    7884.1976    8907.5437    8647.8241    465.93229    -399.8441    449.60342    -4161.753 
39751000    64.624998     -5251.11    -5121.852     -5251.11            0    7787.3792    17.707478    22.693017    19.145769    7693.4611    8285.3733    7355.8048    7720.9595    516.25803   -753.23917    1166.4293   -4248.0984 
39752000    64.838993   -5251.6101   -5121.9241   -5251.6101            0    7851.4854    17.787149     22.66879    19.083129    7694.5682    8369.3494    7328.9184    7856.1883    819.42033    450.66624    84.660731    -4240.851 
39753000    63.865641   -5252.1715   -5124.4323   -5252.1715            0    7470.8652    17.805364    22.613135    19.146098    7708.8911    7579.3673     7601.808    7231.4203    70.037921   -256.76798     214.0073   -4284.5108 
39754000    64.930758   -5258.0574   -5128.1879   -5258.0574            0    8858.8048    17.751152    22.706687    19.047568    7677.5005    9640.5832    8499.9239    8435.9072    659.12157   -165.27812    495.56628   -4136.2811 
39755000    64.175084   -5246.7919   -5118.4338   -5246.7919            0    7902.4759      17.7672    22.724872    19.022543    7680.4913    7665.5225    7760.3432    8281.5619    362.25615    646.37169    218.67632   -4233.2609 
39756000    67.113608    -5245.331   -5111.0955    -5245.331            0     8910.115    17.692481    22.766755    19.028986    7664.8827    9874.7245    8300.2629    8555.3575    417.62167    86.449038     480.9407   -4115.0832 
39757000    67.556699   -5255.3352   -5120.2135   -5255.3352            0    7966.3255    17.800762    22.481974    19.192366    7680.7132    7560.0374    8964.5618    7374.3774    190.90673   -32.397587   -341.62887    -4227.863 
39758000    66.038184   -5249.8566   -5117.7721   -5249.8566            0     8334.929    17.738075    22.665262    19.089378    7674.6575    9351.0458    7725.6325    7928.1086    1392.7899       135.86   -220.67948   -4184.8684 
39759000    69.455789   -5250.4298   -5111.5096   -5250.4298            0    8098.4401    17.801376    22.634529    19.071725     7684.489    9157.4475    7987.1914    7150.6815    217.27274   -453.57663   -719.42942   -4203.9143 
39760000    68.206299   -5251.6264   -5115.2053   -5251.6264            0    7831.8343    17.789203    22.600333    19.098205    7678.2789     7673.387    7653.5758    8168.5402    49.168459   -555.52402   -365.15943   -4238.1979 
39761000    63.413692   -5249.1122    -5122.277   -5249.1122            0    7988.9463    17.706412    22.737468    19.129835    7701.6517    8218.3112    7680.4965    8068.0311   -244.78356     -226.806      376.525   -4224.9531 
39762000     67.42651   -5241.6854   -5106.8241   -5241.6854            0    8186.3715    17.725574     22.71726    19.077849    7682.2009    8397.1188    8373.6744    7788.3213    179.61117    197.19048   -19.651717   -4189.6474 
39763000    63.925597   -5233.0473   -5105.1882   -5233.0473            0    9104.6895    17.689816    22.681553    19.092062    7660.3557    10443.756    8025.8504    8844.4615    616.59658   -40.042557   -613.69699   -4088.0266 
39764000    67.552482   -5253.9605   -5118.8471   -5253.9605            0     8804.477     17.71782    22.761928    18.984967    7656.4802    8938.9701    8739.3031    8735.1577      -120.19    303.49302   -56.552274   -4135.7224 
39765000    65.417128   -5251.1376   -5120.2952   -5251.1376            0    7380.7738    17.710037    22.762615    19.081496    7692.2615    7478.1127    7264.5471    7399.6617    217.91334     540.8699    16.115137   -4292.2924 
39766000    63.709367   -5239.7114   -5112.2848   -5239.7114            0    8986.0056    17.718122    22.823756    18.935272    7657.3123    8586.7388    8547.5418    9823.7364   -272.42805    543.48778    124.68171   -4108.7812 
39767000    63.414268   -5243.8569   -5117.0205   -5243.8569            0    9339.4593    17.766454    22.671775    19.012332    7658.1111     8497.195    9777.5348    9743.6479   -190.12369    -128.7482    552.54073   -4073.9365 
39768000    67.698195   -5261.6213   -5126.2166   -5261.6213            0     8324.568    17.782528    22.633035    19.084946    7681.1676    8234.2076    8831.6109    7907.8854    688.63484    454.62646     667.6606   -4193.6822 
39769000    66.092382   -5254.0184   -5121.8255   -5254.0184            0    7396.3788    17.817939    22.645804    19.059919    7690.7069    6824.9934    7647.5867    7716.5564    282.53712   -236.08058    154.81929   -4292.2397 
39770000    67.264912   -5255.0506   -5120.5125   -5255.0506            0    7481.9422    17.844363    22.619491    19.059526    7693.0045     7366.269     7366.108    7713.4497    509.15761   -157.33699   -143.56708   -4281.0791 
39771000     64.11117   -5255.1113   -5126.8811   -5255.1113            0    7842.2744    17.847478    22.484116    19.170144    7692.6871    7055.7843    8530.7256    7940.3132     -36.4639    427.61998    509.85429   -4247.0567 
39772000    63.305768    -5246.302   -5119.6827    -5246.302            0    7724.0189    17.851791    22.484733    19.177055    7697.5311    7181.6748    8771.1318      7219.25   -468.45192    416.20584   -320.86482   -4252.5797 
39773000    62.554611   -5251.8034   -5126.6864   -5251.8034            0     7829.939    17.817946    22.564032    19.133552    7692.5434    8741.1712    7369.5762    7379.0696   -655.01427   -93.351228    45.244801   -4248.2624 
39774000    67.544869    -5244.916   -5109.8179    -5244.916            0    6920.2856    17.811855    22.698051    19.085597    7716.1994    6989.2877    6527.9235    7243.6456     46.97376   -489.98173   -148.33611   -4331.0585 
39775000    69.717774   -5251.1792    -5111.735   -5251.1792            0    8055.7725    17.787282    22.654656    19.069766    7684.4434    7415.2985    7880.3386    8871.6804   -483.35091   -582.24461   -487.37575   -4208.9268 
39776000    68.714746   -5251.5982   -5114.1602   -5251.5982            0     7641.493    17.756172    22.701347    19.072308    7687.8378    7563.8602    7913.2297    7447.3892    462.96723      103.569   -548.81185   -4257.4019 
39777000    68.220598    -5249.098   -5112.6484    -5249.098            0    8183.4199    17.787219    22.710592    19.039145    7691.0198    7910.8325    8015.8946    8623.5326    347.40826   -129.42523     532.4623   -4194.7499 
39778000    66.837318    -5256.798   -5123.1151    -5256.798            0    8280.2752    17.812027    22.579566    19.103987    7683.3914    8101.6288    8253.6371    8485.5597   -285.47632    541.96926    366.62109    -4195.274 
39779000    65.481028   -5250.0563   -5119.0862   -5250.0563            0    7667.4503    17.759996    22.663791    19.111025    7692.3566    7979.7533    7961.3592    7061.2385    130.44805     148.2879   -346.10206   -4258.9123 
39780000    67.555167     -5246.89   -5111.7714     -5246.89            0    8339.0874    17.782639    22.587849    19.127386     7682.927    8463.5764    8413.7846    8139.9011   -273.27859    340.18487    320.62854   -4177.3966 
39781000    68.051564    -5247.318   -5111.2064    -5247.318            0    8216.6063    17.847152    22.563909    19.100752    7691.9017    8386.8831    8238.6974    8024.2383   -349.55456   -298.08618    -1112.085   -4189.4799 
39782000    64.572266   -5244.6496    -5115.497   -5244.6496            0     8456.359    17.816051    22.617382    19.065783     7682.604    8106.6732    8885.9822    8376.4217    617.09836   -114.26303   -204.90673   -4168.0221 
39783000    65.210133   -5248.3815   -5117.9531   -5248.3815            0    8058.9173    17.877271    22.462003    19.136106    7684.2816    7240.0279    8520.8172    8415.9067    554.47401    -206.5002   -830.12501   -4214.8115 
39784000    62.235645   -5251.9791   -5127.5001   -5251.9791            0    7166.8476     17.87772    22.524111    19.120615    7699.4846    6447.1826    7520.9864    7532.3739    2.9430168   -195.63161    -92.80516   -4322.7414 
39785000    65.327714   -5256.6907   -5126.0272   -5256.6907            0    8148.8674    17.817138    22.550488    19.117564    7681.1535    7096.1918     8733.831    8616.5793    203.41787    112.46394    870.16637   -4213.1768 
39786000    63.689562    -5253.535    -5126.148    -5253.535            0     8068.344     17.82595    22.571208    19.119421    7692.7608    7609.3912    8354.6056    8241.0352    310.91289     -164.973     567.4256   -4220.9522 
39787000    66.584928   -5246.8456   -5113.6675   -5246.8456            0     8612.514    17.769736    22.582112    19.094449    7662.1857    8245.5345    8922.7722    8669.2353    872.77748   -449.01577    444.95679   -4151.2611 
39788000    63.853087   -5245.8772   -5118.1631   -5245.8772            0    8117.4199    17.921495    22.486775     19.05608    7679.5361    8097.4079    8345.7281    7909.1237   -773.43298   -69.820639    154.92949   -4209.0271 
39789000    64.270852   -5246.5365   -5117.9869   -5246.5365            0    8642.7159    17.778339    22.510945    19.169774    7671.8818    7953.2169    9517.4266    8457.5043     -24.7954    818.76349   -513.67954   -4150.9834 
39790000    65.718979   -5249.2612   -5117.8151   -5249.2612            0    7468.7243    17.759216    22.685351    19.096912    7693.6502    6983.0785      7446.62    7976.4744   -349.05202   -424.62203    380.52216   -4279.7944 
39791000    66.024523   -5251.8861   -5119.8289   -5251.8861            0    7718.6472    17.865381    22.635795    19.040549    7699.9433    6921.4096    7911.7527    8322.7794   -425.03957   -319.99909   -91.632105   -4253.0574 
39792000    63.596547   -5245.1064   -5117.9054   -5245.1064            0    7953.2447    17.809472     22.69086    19.025947    7688.6181    8117.2737    8091.7184    7650.7421   -533.98148     295.1361   -152.25391   -4226.1032 
39793000    66.528285   -5249.5124   -5116.4476   -5249.5124            0    7734.5199    17.775255    22.708268    19.079517    7701.3565    8674.7565    6959.6401    7569.1629    161.48424   -351.62008   -278.95962   -4247.7343 
39794000    65.232992    -5256.176    -5125.702    -5256.176            0    8512.7904    17.733253    22.720442    19.046137    7673.8285    9314.2706    7802.7613    8421.3395   -5.1005039    313.78173    -831.0425   -4172.9937 
39795000    63.115048   -5248.1744   -5121.9365   -5248.1744            0     9339.096    17.728529    22.726695    18.975824    7645.5655    9578.4482    8984.8815    9453.9584    703.13534   -280.71138   -534.55989   -4080.6017 
39796000    64.724446   -5258.3378   -5128.8809   -5258.3378            0     6618.883    17.793596    22.826435     19.00866    7720.6405    6930.6076    6231.7195    6694.3218   -102.18879    507.69065   -696.12184   -4383.6104 
39797000    65.257075   -5248.3616   -5117.8394   -5248.3616            0    8056.9389    17.748252    22.769681    18.999794    7678.2355    7907.8938    7671.4797    8591.4432   -760.54086    91.066048   -91.263103   -4215.6299 
39798000    64.613336   -5254.0654   -5124.8308   -5254.0654            0     7609.504    17.708042    22.681431    19.159899    7695.4532    8492.1345    7451.0033    6885.3741   -722.80272    -628.2604    723.96722   -4270.8139 
39799000    67.329385   -5246.8724   -5112.2053   -5246.8724            0     8456.391    17.809773    22.595987    19.053714    7667.7746    8183.3986    8866.7889    8318.9855    175.96483    20.286112   -2.0788254   -4166.5556 
39800000    63.322014   -5252.3898    -5125.738   -5252.3898            0    8225.2375    17.809823    22.668555    19.026572    7681.4637    8674.2917    7797.0877     8204.333    49.658534   -333.25952   -441.58733   -4204.2953 
39801000    72.713759   -5245.3046   -5099.8681   -5245.3046            0    8447.4751    17.759978    22.540468    19.139376    7661.8408    9257.4484    8035.9542    8049.0228    128.74642    -716.0916    616.80331   -4155.9464 
39802000    65.160025   -5256.1325   -5125.8044   -5256.1325            0    7887.5187    17.864373    22.494952    19.134824    7689.4859    8288.1696    7801.3935    7572.9929   -174.28324   -440.67327   -533.85788   -4241.2723 
39803000    61.234103   -5249.2313   -5126.7555   -5249.2313            0    8130.6323    17.821112    22.568331    19.073427    7671.1945    7557.0215    8267.4622    8567.4132     32.66635   -58.799262    222.32537   -4217.1288 
39804000    70.057777   -5250.3749   -5110.2507   -5250.3749            0    8569.0081    17.934801    22.388423    19.123936    7678.8705    7580.8854    9373.5275    8752.6115    399.11724    255.77211   -101.41333   -4150.6208 
39805000    69.581252   -5257.6875   -5118.5164   -5257.6875            0    7769.6936    17.859415    22.483305    19.209572    7713.3858    7181.5075    8417.3195    7710.2538   -221.26943   -86.291843    721.61113   -4244.4894 
39806000    66.674064   -5239.0024    -5105.646   -5239.0024            0    8638.8727    17.748597    22.602939     19.13382    7675.9236    8826.0442     8775.521     8315.053   -50.281684   -768.62042   -213.97972   -4138.5633 
39807000    63.604768   -5257.7482   -5130.5309   -5257.7482            0    7535.3585    17.824046    22.586407    19.132333    7702.3167    8035.1069    7521.1135    7049.8551    1313.0289    44.874872    712.46335   -4284.0811 
39808000    63.613858   -5246.0229   -5118.7873   -5246.0229            0    7953.8631    17.774127    22.638198    19.105899     7687.721    6673.5423    8639.8768    8548.1702   -1.0424475    555.44862    533.98887   -4227.0199 
39809000    65.726771   -5252.1002   -5120.6386   -5252.1002            0     7979.515    17.777559    22.705941    19.062831      7694.83    7475.3171    7868.8894    8594.3385   -384.98954   -59.634882   -264.21418   -4225.1678 
39810000    66.843086   -5252.2969   -5118.6025   -5252.2969            0    8332.9837    17.760721    22.672306    19.033949    7664.5237    8063.7486    8472.8611    8462.3413   -196.71554     213.2257   -687.77428   -4187.1481 
39811000    65.560207   -5244.8666   -5113.7381   -5244.8666            0    8393.3983    17.790385    22.639976    19.069315    7680.6221    8977.5198    7760.8014    8441.8736    228.37485   -201.57452   -1144.3224     -4173.56 
39812000    71.747357   -5252.7366    -5109.233   -5252.7366            0    7391.5492    17.797425    22.571811    19.185507    7707.2042     8525.962    7371.8536     6276.832    520.34018   -496.79718    331.80293   -4278.4106 
39813000    66.167972   -5243.4206   -5111.0765   -5243.4206            0    8336.9978    17.764325    22.629924    19.103237    7679.6034    8992.2477    7547.9532    8470.7926    313.90161   -971.59258   -288.05091   -4177.3399 
39814000    67.221113   -5255.0327   -5120.5821   -5255.0327            0    8822.7718    17.816842    22.568955    19.060133    7664.2228    8068.5926    9041.7754    9357.9473    960.88713    74.999071   -154.60719   -4134.4184 
39815000    65.250957   -5255.1149   -5124.6049   -5255.1149            0    8186.7046    17.760629    22.609092    19.141564    7686.3271    7836.5531    8264.9068    8458.6537    502.92123    290.97013    1257.2067   -4206.8983 
39816000    65.481013   -5243.2249   -5112.2548   -5243.2249            0    7781.8444     17.80196    22.683054    19.071826    7701.2571    7816.3459    7982.9534    7546.2338   -111.46683    257.47527    372.73726   -4238.2374 
39817000    69.047098   -5258.8379   -5120.7352   -5258.8379            0    7956.3147    17.697546    22.721572    19.102565    7681.4485    7821.0095    7851.2477     8196.687   -517.98247   -507.20901    343.08639   -4229.4207 
39818000    67.968009   -5253.4558   -5117.5114   -5253.4558            0    7993.6696    17.820104    22.794471    18.923298    7686.6408    7049.8687    7877.5819    9053.5581    864.52455    77.695502    108.16717   -4221.4069 
39819000    67.534594   -5263.0448   -5127.9673   -5263.0448            0    8200.5476    17.745633    22.700404    19.049133      7673.62    9029.9931    7735.4512    7836.1985   -52.935983   -679.98475   -39.344028   -4210.2286 
39820000    65.274157   -5245.2402   -5114.6838   -5245.2402            0    8802.7273    17.730447    22.684882    19.066982    7668.9899    8675.6986    8654.7431      9077.74    279.65123   -305.63106    286.16602   -4130.1485 
39821000    67.048714   -5255.8671   -5121.7614   -5255.8671            0    7252.0282    17.870288    22.620689    19.101308     7721.479    6261.9992    7587.6809    7906.4044     52.14312     633.1033   -701.25113   -4305.1116 
39822000    70.210889   -5244.6101   -5104.1796   -5244.6101            0    8050.7526    17.811943     22.64828    19.026247     7675.376    7450.9485    7610.7661    9090.5431   -188.65475   -301.76041   -433.30104   -4202.9986 
39823000    63.084022   -5255.2317   -5129.0559   -5255.2317            0    7994.0477     17.84252    22.442613    19.204698    7690.1907    7999.3688    8789.9769    7192.7973   -530.82049    159.70187    945.53859   -4232.4951 
39824000    63.813836   -5256.4309   -5128.7953   -5256.4309            0     7073.467    17.805504    22.697668    19.066258    7705.5024    7304.1652     6828.372    7087.8637   -32.633688   -306.11262     139.8943   -4333.9014 
39825000    67.874151   -5258.1805   -5122.4238   -5258.1805            0    8219.6498    17.742248    22.672826     19.09082     7679.605    8257.4575    8618.8416    7782.6503    179.30388   -356.99507    447.23027   -4201.8299 
39826000    66.810882   -5251.3389   -5117.7088   -5251.3389            0    8280.4369    17.766682     22.76138    19.001221    7683.9839     8021.957    8377.0507     8442.303   -498.10297    1178.7923      232.486    -4189.778 
39827000     62.68517   -5254.0458   -5128.6677   -5254.0458            0    8356.5094     17.61237    22.842898    19.059512    7667.9767    8725.8414    8229.3686    8114.3183   -243.32406   -258.42861   -335.68547   -4194.1628 
39828000    68.057586   -5244.3931   -5108.2695   -5244.3931            0    8056.3967     17.77035    22.779662    18.993813    7688.7446    9643.8134     7066.504    7458.8728   -299.69042   -298.54249   -316.15919    -4204.886 
39829000    65.805427   -5253.2268   -5121.6079   -5253.2268            0     8425.672    17.718077    22.739972      19.0349    7669.3246    9263.4196    7649.7459    8363.8505    284.91836    61.077715    329.54038   -4179.2029 
39830000    66.356408    -5242.872   -5110.1509    -5242.872            0    8632.4022     17.71277    22.669364    19.120813    7677.7187    8617.2918    8107.0348      9172.88    443.47184   -234.15383    435.41939   -4143.5666 
39831000    67.302735   -5250.4942   -5115.8804   -5250.4942            0    9515.8443    17.758594     22.53053    19.134823    7656.0443    10039.726    9845.6279    8662.1792   -264.67617     605.8706    170.35093   -4053.3836 
39832000    64.305616   -5254.8472    -5126.228   -5254.8472            0    8715.6451    17.826427     22.63898    19.006674    7670.5643    7564.0168    8357.5164    10225.402   -348.71616   -69.500472   -215.44907   -4151.2322 
39833000    65.521004   -5247.4908   -5116.4407   -5247.4908            0    8104.3359     17.91017    22.638793    18.987465    7698.7452    8012.1816    7504.6156    8796.2105   -267.30446   -780.10546   -522.27263   -4206.4997 
39834000    70.147401   -5250.6575   -5110.3541   -5250.6575            0    7994.6774    17.760448    22.620849    19.155575    7695.8751    9041.8936    7553.7779    7388.3607   -562.80759    101.21333   -115.42794   -4213.0599 
39835000    66.720806   -5255.0019    -5121.552   -5255.0019            0    8087.7388    17.813602    22.620364    19.048521    7675.6045    7948.8555    8296.0652    8018.2956    341.83299    60.289568    212.94276   -4216.2039 
39836000    64.975331   -5247.8651   -5117.9064   -5247.8651            0    9540.4015    17.755826    22.614916    19.045151    7647.5138    9400.9317    9902.9747     9317.298    290.70637     272.0031     52.78583   -4053.8545 
39837000    65.650879   -5250.3761   -5119.0663   -5250.3761            0    8638.4579    17.859759    22.619441    18.975497    7665.6789    7764.9546    8890.6261    9259.7931   -77.843576   -39.263044   -256.58299   -4153.3207 
39838000    64.919928   -5249.0945   -5119.2467   -5249.0945            0    8245.3802    17.868538    22.663935    18.963913    7679.8418    6951.8164    8333.3791    9450.9449   -323.39294   -48.278999   -363.11096   -4195.7425 
39839000    64.883444   -5264.5094   -5134.7345   -5264.5094            0    7853.2426    17.833078    22.616001    19.064845    7689.0981    7086.9574    8075.2565    8397.5139    130.25638   -416.95139    210.35452   -4254.0907 
39840000    66.130685   -5254.6678   -5122.3982   -5254.6678            0    7504.2058    17.756643    22.767388    19.036021    7695.7376    7856.6156    6935.9219    7720.0798   -108.23893   -629.31328     576.6904   -4280.1679 
39841000    62.981274   -5254.1519   -5128.1815   -5254.1519            0    7040.0497    17.797214    22.767881    19.054901    7721.1384    7356.7787    6849.3527    6914.0177   -1274.3866    333.82757    16.770127   -4335.4376 
39842000    65.980441   -5253.2526   -5121.2836   -5253.2526            0    8039.0425     17.77969    22.647057    19.099769    7690.6681    8189.1238    8051.2113    7876.7923   -665.80402   -26.440792    504.46854   -4219.6205 
39843000    70.080554   -5253.6578    -5113.488   -5253.6578            0    8363.3749    17.758275    22.608456    19.090963     7664.777    8704.5553    7917.6021    8467.9674    555.62458    -841.0436    1343.9478   -4178.6056 
39844000    68.498611   -5259.4806   -5122.4749   -5259.4806            0    7151.4216    17.889705    22.537105    19.118731    7708.3313    6423.8039    7618.5829     7411.878   -684.58664   -124.98346    216.03444   -4318.5256 
39845000    63.123757   -5255.1596   -5128.9043   -5255.1596            0    7831.5572    17.832173    22.664402    19.011973    7683.7944    6786.2782    7564.5852    9143.8082    -27.00704   -406.35515     974.4147   -4251.2979 
39846000    68.698912   -5252.7517   -5115.3454   -5252.7517            0    8326.8787    17.776011    22.572225    19.127508    7674.8001    8436.2875      8492.37    8051.9787    599.88414     291.8005   -414.63993   -4183.3255 
39847000    66.478251   -5253.3634   -5120.3987   -5253.3634            0    8525.9278    17.773593    22.647555    19.079972    7680.2309    9165.4349    7911.8537    8500.4949    644.82503   -124.78306    189.67671   -4165.4241 
39848000    62.338405    -5243.845   -5119.1605    -5243.845            0     8005.002     17.76232    22.802545    18.942707    7672.2906    7738.2321    7367.0997    8909.6742   -275.86554    26.121606   -829.65731   -4223.4609 
39849000    66.569266   -5256.1837   -5123.0369   -5256.1837            0     7125.782     17.81095    22.741787    19.027118    7706.9883    6391.2714    6763.2967    8222.7778    635.44089   -168.24775    -893.5768   -4322.1096 
39850000    66.668051   -5252.0758   -5118.7314   -5252.0758            0    8804.8056    17.674647    22.668232    19.135439    7666.6711    8588.4122    8742.9803    9083.0243    182.96809   -60.510055     490.8325   -4134.2614 
39851000    63.371549   -5260.7591   -5134.0082   -5260.7591            0    7475.5969    17.873868    22.575488    19.084442    7700.7878    6483.2131    7329.9821    8613.5954    33.654474   -594.80377   -364.56321   -4294.4381 
39852000    65.717163    -5252.714   -5121.2715    -5252.714            0    7732.4545    17.874738    22.517659    19.115675    7694.0064    6448.1904    8079.1328    8670.0401    209.21755   -609.34721    307.29023   -4253.6191 
39853000    67.788071   -5252.4767   -5116.8922   -5252.4767            0    7448.6642    17.777271    22.691947    19.078522    7696.2926    7348.0239    7420.2587    7577.7099    24.247847     161.3339   -606.90842   -4280.8352 
39854000    65.539596   -5244.4714   -5113.3841   -5244.4714            0    8787.1894    17.790923    22.663122    19.030065    7672.8819    8969.7287    8553.6386    8838.2008   -394.83451    -393.3359    271.02088   -4130.0878 
39855000    70.767188   -5247.8873   -5106.3441   -5247.8873            0    8729.3025    17.706174    22.626401    19.144882    7669.9567    9131.2773    8736.4636    8320.1667   -159.45672   -116.84595     245.1836   -4129.8979 
39856000     64.26743   -5256.8327   -5128.2899   -5256.8327            0     8263.213    17.735438    22.651583    19.123984    7682.7877    8452.3584    8464.2018    7873.0789   -103.86615    554.63786   -163.60168   -4202.4335 
39857000    66.675127   -5248.0551   -5114.6966   -5248.0551            0    8614.0861     17.74826    22.640302    19.096154    7673.3302     8593.839    8844.0828    8404.3366   -412.55184    365.06564   -464.00063   -4150.7145 
39858000    67.894585   -5245.9128   -5110.1152   -5245.9128            0    9667.8713    17.760313    22.609426     19.04722    7648.4202    9392.1319    9729.3297    9882.1523    657.50174    649.40779    320.86224   -4031.7187 
39859000     63.40826   -5250.3468   -5123.5224   -5250.3468            0    7935.5407    17.783186    22.670232    19.087198    7694.9837    8945.1111    7621.7327    7239.7783   -70.175348    17.339683    890.54052   -4232.9687 
39860000    65.155586    -5245.236   -5114.9167    -5245.236            0    7809.0337    17.822631    22.735348     18.98875    7694.3123    6830.2826    7835.5266     8761.292    721.98339    488.91086   -101.53567   -4238.6365 
39861000     71.47174   -5250.3548   -5107.4024   -5250.3548            0    9182.4294    17.724919    22.671779    19.078755    7666.9017    9986.2782    8689.4803    8871.5297    2.1612143   -334.60561     508.4178   -4080.6792 
39862000    64.930312   -5247.5238   -5117.6552   -5247.5238            0    8310.2811    17.807034     22.55515    19.118669     7678.828    7670.7381    8351.1136    8908.9918   -385.09078    493.41907    102.33163   -4187.0048 
39863000    65.794698   -5255.7192   -5124.1217   -5255.7192            0    7694.0545    17.795658      22.5398    19.188439    7696.6855     7998.838    7877.6853    7205.6402    637.60398   -214.67606    633.42512   -4260.4775 
39864000    68.009928   -5250.2738   -5114.2456   -5250.2738            0    8012.4473    17.788326    22.618474    19.097428    7683.7508    8677.6572     8251.854    7107.8309   -266.11124   -420.33326    248.39909   -4216.3738 
39865000    66.805809    -5252.923   -5119.3032    -5252.923            0    8500.0705    17.794994     22.65792    19.048173    7680.1768    8399.4891     7979.625    9121.0975    236.64308    133.43175    165.45741   -4167.2315 
39866000    63.850331   -5255.0166    -5127.308   -5255.0166            0     8337.176     17.79823    22.662829      19.0433    7681.2719    7466.9286    8563.3831    8981.2165    -324.5622   -344.29539    1500.6866   -4193.3486 
39867000    63.990363   -5254.1647    -5126.176   -5254.1647            0    8244.4753    17.853589    22.403094    19.189827     7675.463    7926.3942    8790.7538     8016.278    515.53504     231.8349   -131.52305   -4203.2997 
39868000    65.779606   -5254.5751   -5123.0078   -5254.5751            0    8785.3562    17.804145    22.501046    19.134888    7665.6638    9637.2765    8413.7867    8305.0054    -117.0361   -621.00527    68.225487   -4140.8414 
39869000    66.319584   -5256.8926   -5124.2452   -5256.8926            0    8292.1529    17.854979    22.535729    19.050712    7665.5297     7208.315    8722.1281    8946.0157    187.61293    163.96191    672.70099   -4197.2332 
39870000       67.243   -5255.8469   -5121.3526   -5255.8469            0    7209.5146    17.870041    22.470349    19.152438    7690.5862    7137.1101    7662.7019    6828.7316    -500.0605   -989.19257    510.34855   -4312.7384 
39871000    66.449674   -5255.4292   -5122.5216   -5255.4292            0    8577.6542    17.828629    22.621345    19.000001    7662.8438    6872.0673    9220.6262     9640.269   -946.26734    842.60454   -65.427256   -4163.9283 
39872000    69.375539   -5250.6563   -5111.8967   -5250.6563            0    8629.8777     17.76402    22.557564    19.153276    7674.9669    8122.8592    9303.5101    8463.2639    162.39837   -75.858963    1113.5517   -4145.9414 
39873000    65.511262    -5251.444   -5120.4134    -5251.444            0    8362.9216    17.811757    22.590628    19.100493    7685.6333    9167.1933    7549.9518    8371.6195    396.16892   -444.67361    282.74118    -4183.038 
39874000    64.846006   -5246.5432   -5116.8432   -5246.5432            0     8374.471    17.744627    22.654516    19.106226    7680.6255    8838.9597    8304.5031    7979.9502    46.092109    133.31098    139.40191   -4178.7848 
39875000    67.330428   -5251.1697   -5116.5005   -5251.1697            0    7713.1639    17.830459    22.659505    19.045456    7694.9239    7637.4271     8090.355    7411.7097   -396.45386    351.02628   -12.494067   -4250.9094 
39876000    64.078282   -5247.1446   -5118.9802   -5247.1446            0    8444.6421    17.806958    22.661761    18.981065    7659.5625    7133.7659    8646.7325    9553.4278    125.31785    15.943324   -467.35313   -4175.6557 
39877000    65.410279   -5253.3543   -5122.5257   -5253.3543            0    8417.6332    17.758239    22.687958    19.048623    7674.6552    8330.5354    8265.9417    8656.4226    386.75831   -138.97643    314.00936   -4180.3654 
39878000    64.898792   -5250.3847   -5120.5791   -5250.3847            0    9307.1237    17.719105    22.697963    19.018553    7649.0259    10146.254    8944.3622    8830.7554    509.48091   -218.98585    198.08972   -4082.3396 
39879000    68.177807   -5240.0004   -5103.6364   -5240.0004            0    8537.9458    17.712475    22.643287    19.111787    7665.1384    9162.7156    8348.4174    8102.7044   -196.24024   -989.27411   -429.73786   -4149.1949 
39880000    65.437393   -5262.5086   -5131.6257   -5262.5086            0    7917.1269    17.827844    22.634951    19.089874    7703.3825    7950.0701    7917.1365    7884.1742   -261.91335   -127.08333   -378.19535   -4242.1687 
39881000    62.652311   -5255.0828   -5129.7704   -5255.0828            0    7886.9527    17.824475     22.60843    19.080112    7688.9684    7763.1531    8272.2134    7625.4915   -976.64428    625.93381   -1171.4229   -4245.3613 
39882000    67.685868   -5249.9779   -5114.5978   -5249.9779            0    7443.5754    17.757819    22.730584    19.071959    7698.3124    6713.5971    7839.8636    7777.2656   -155.49504   -175.05333   -102.67191   -4278.8928 
39883000    64.896181   -5243.0392   -5113.2388   -5243.0392            0     8657.169    17.819575    22.531038    19.110584    7672.7756    8213.3566    9209.1523    8548.9981   -225.30844    230.47286     639.8951   -4144.5054 
39884000    62.523062   -5241.2465   -5116.1926   -5241.2465            0     10366.59    17.738689    22.560852    19.038786     7619.321    10225.145    10274.656    10599.968   -142.23977   -111.09504   -187.18854   -3964.2574 
39885000    66.218907    -5254.532    -5122.086    -5254.532            0    8444.9352    17.847492    22.464545    19.131513    7670.5081    7709.8154    9274.7349    8350.2553   -1323.0382    79.263676   -784.91766   -4177.3807 
39886000    69.193322   -5250.4334   -5112.0382   -5250.4334            0    8180.8409    17.827138    22.576358    19.076569     7677.782    7389.3882    8796.4075     8356.727    -241.7651    210.91999    442.61539   -4196.0084 
39887000    64.538564   -5252.7865   -5123.7014   -5252.7865            0    7463.1473    17.848958    22.585792    19.086199    7694.2736    7700.2652     7904.132    6785.0445   -538.52571   -76.657566   -698.94314   -4286.2386 
39888000    66.189616   -5248.6313   -5116.2439   -5248.6313            0    9440.9755    17.785888    22.588365    19.037158    7648.2568    9614.6021    9817.2873    8891.0371   -11.087836   -453.06734    48.612072   -4063.1788 
39889000    66.534706   -5261.6353   -5128.5576   -5261.6353            0    8077.6738    17.761813    22.681158    19.072847    7683.6584     7758.934    8283.7794    8190.3081    39.931975    240.12891     101.3236   -4223.3874 
39890000    66.635167   -5251.1059   -5117.8274   -5251.1059            0    7765.3129    17.694085    22.825162    19.058976    7697.3553    7414.7033     8237.184    7644.0513    46.386421    795.60664    600.82099   -4246.1086 
39891000    64.060765   -5246.3458   -5118.2164   -5246.3458            0     9111.142    17.629456    22.728351    19.117758    7660.2653    10372.872    8583.9727     8376.581    365.66294    695.89754    1153.2898   -4100.3459 
39892000    67.280004   -5251.5149   -5116.9466   -5251.5149            0    9042.7191    17.667214    22.729188    19.074668    7659.6511    9528.7521    9139.8132    8459.5922   -803.22739    561.70495    -60.29842   -4106.8012 
39893000    65.432885   -5252.9957   -5122.1218   -5252.9957            0    8208.7533    17.610582    22.813169    19.099857    7673.4282    7983.2585    8490.5008    8152.5005    445.31847    54.321318   -80.933676   -4203.4878 
39894000     67.71353   -5254.3448   -5118.9094   -5254.3448            0     8587.399    17.742289    22.665269    19.078435    7672.0829    9614.6208     8176.706    7970.8702   -107.36224     223.3824   -1107.9842     -4158.07 
39895000     65.34117   -5251.1927   -5120.5023   -5251.1927            0    7973.3487    17.759805    22.673974    19.068286    7678.5191    8740.0338    7485.7716    7694.2408    54.123022   -524.03395    283.74577   -4227.6202 
39896000     63.65179   -5249.1499   -5121.8384   -5249.1499            0    8259.5328    17.719466    22.773303    19.022058    7675.9853    7206.2064    8334.4564    9237.9357    475.64911    404.51814     549.5371   -4197.2137 
39897000     61.33943   -5252.9307   -5130.2442   -5252.9307            0    8356.8357    17.738728     22.81157    18.999867    7688.2624    7919.8151    8239.0547    8911.6373    -16.96912    539.97043   -107.66704   -4193.2305 
39898000    63.951791   -5250.9012   -5122.9898   -5250.9012            0    7888.7065      17.7601    22.740945    19.033827    7687.4098    8378.6481    7564.4055     7723.066   -260.65912    153.61806   -552.56692   -4238.5633 
39899000    68.551189   -5249.5858   -5112.4749   -5249.5858            0    7472.9039    17.744988    22.760636     19.07098    7702.5251    7645.9277     7056.296    7716.4881   -230.94347    295.87724   -879.58433    -4273.018 
39900000    64.955567   -5252.3871   -5122.4679   -5252.3871            0    8172.3138    17.743503    22.718482    19.049459    7678.9407    9110.1961     7469.176    7937.5692    152.03068   -961.10563    90.307237   -4207.2548 
39901000    68.767853   -5245.4175   -5107.8733   -5245.4175            0    8415.7465    17.841071    22.567575    19.060797    7674.4432    7936.0431    8455.3683    8855.8281    1247.7722   -52.013837    531.47386   -4165.9502 
39902000    66.007272   -5250.7604   -5118.7377   -5250.7604            0    8052.4702    17.866506       22.508    19.117046     7687.716    7073.0812    8637.9656    8446.3637    802.19915    424.18786    84.925257   -4215.9153 
39903000     67.39896   -5250.4176   -5115.6113   -5250.4176            0    8487.6084     17.84404    22.501698    19.113833    7674.6088    7858.1079    8822.5349    8782.1823    392.02025    78.337336    994.66778   -4165.6248 
39904000    66.260212    -5251.915   -5119.3864    -5251.915            0     8895.479    17.772226    22.648235     19.01804    7654.9422     8408.819    9054.5774    9223.0407   -484.25868    246.08315    -87.45388   -4126.2997 
39905000    67.407492   -5256.2136   -5121.3903   -5256.2136            0    8263.5057     17.74086    22.767039     18.99103    7670.6073    8346.4738    7772.4614     8671.582    -1069.563    243.06937   -432.94726   -4196.9689 
39906000    62.984449   -5256.5617    -5130.585   -5256.5617            0    7486.6168    17.765679    22.752933    19.059448     7704.235    7514.6944    7397.1109     7548.045   -421.18892    -215.6753   -87.543486    -4289.401 
39907000    63.654535    -5247.489   -5120.1721    -5247.489            0    8865.4357     17.73237    22.694096    19.045366    7664.2382    8796.8821      9153.46     8645.965     205.4304    39.842573    414.15357   -4129.2375 
39908000    64.422609   -5251.0904   -5122.2372   -5251.0904            0    9083.3087    17.794221    22.657985    18.983858    7653.9343    8946.6311     8850.348     9452.947    46.119215    36.398072   -671.32995   -4108.3149 
39909000    65.366953   -5252.3061   -5121.5641   -5252.3061            0    8628.6746    17.800626    22.565988    19.074622    7662.0603    8555.3943     8711.844    8618.7856    679.05243    67.090412    1070.8647   -4157.3676 
39910000    66.204583   -5248.2651   -5115.8478   -5248.2651            0    9261.8398    17.804085    22.529606    19.095984    7659.7626    9899.9775    9380.6186    8504.9235      459.515   -572.96527    944.14361   -4081.2097 
39911000    64.753303   -5255.9158   -5126.4012   -5255.9158            0    8514.3234    17.918108    22.434083    19.114823    7683.7062    7506.2949    9016.5807    9020.0946   -35.814716   -166.21604    98.508273   -4172.2948 
39912000    65.183188   -5248.2087   -5117.8343   -5248.2087            0    8544.9621    17.823726    22.439805    19.164752     7665.152    8656.8246    8928.4342    8049.6276   -576.79305    -141.5853   -1037.2932   -4162.6068 
39913000    66.146129     -5255.47   -5123.1696     -5255.47            0    8115.2451    17.825616    22.683252    19.018109    7689.8378    7597.0563    8454.1368    8294.5423   -656.58543    572.91821    237.52246   -4213.0579 
39914000    63.621608   -5249.3361    -5122.085   -5249.3361            0    8422.1489    17.691983    22.711594    19.072299    7663.5003    7488.0524    8728.0605    9050.3339    201.54082    466.58519    939.34956   -4180.7895 
39915000      65.7537   -5253.1314   -5121.6159   -5253.1314            0    8224.9293    17.770985    22.645455    19.068351    7673.7157    8322.4956    8446.3379    7905.9543     140.8546   -22.982776    153.12063   -4201.1371 
39916000    67.383806   -5243.0881   -5108.3122   -5243.0881            0    7959.4858    17.726089    22.720053    19.079406     7683.996    8836.0116    7561.2102    7481.2356   -299.07593   -485.27822    -483.5819   -4216.3467 
39917000     65.93882   -5251.8991   -5120.0134   -5251.8991            0    9246.0121    17.736356    22.646147    19.082213    7664.5645    9679.1454    9155.2584    8903.6326    -120.8033    886.71667    540.35724   -4086.4959 
39918000    67.044431   -5249.4204   -5115.3233   -5249.4204            0    7364.4963    17.804142    22.635773    19.110253    7701.6329    7294.2927    6876.4422    7922.7539    357.67154    5.2070392   -639.69309     -4288.14 
39919000    66.371675   -5242.7346    -5109.983   -5242.7346            0    7588.9316    17.811037    22.607571    19.096518    7689.4857    7394.7811    7584.9875    7787.0263    359.83315   -425.07763    939.26037   -4258.9355 
39920000     63.25106   -5245.0782   -5118.5683   -5245.0782            0    8396.1005    17.888434    22.556698     19.00212    7667.4317    8878.2319     8216.816    8093.2535   -556.53222    -370.3701   -135.86519   -4179.7027 
39921000    68.726898   -5253.0186   -5115.5563   -5253.0186            0    8040.2279    17.835278    22.522995    19.114518     7678.376    7564.4027    8407.1537    8149.1273    673.81873   -460.61591    808.24588   -4215.2016 
39922000    63.375995   -5254.8429   -5128.0831   -5254.8429            0    7575.6117    17.901542     22.46415    19.146949    7699.8103    7283.8774    8086.4394    7356.5183    143.67039     383.3266    678.68291   -4277.3886 
39923000    63.631752   -5256.7444    -5129.473   -5256.7444            0    7268.4537    17.754714    22.656684    19.140855    7699.6566    7784.9304    7341.4923    6678.9384    -460.1761   -476.43667    252.44368   -4313.2867 
39924000    65.304786   -5256.6944   -5126.0768   -5256.6944            0    7357.0237    17.762411    22.689587    19.096989    7696.5026    6719.5493    8007.9765    7343.5453   -214.88327    687.11293   -54.012327   -4300.2833 
39925000    63.677348   -5248.3861   -5121.0235   -5248.3861            0    8196.0201    17.792514    22.663819      19.0313    7674.3016    6863.2269    7777.5079    9947.3254    650.30832   -172.89066    236.07657   -4203.7101 
39926000    63.626723   -5250.1042   -5122.8429   -5250.1042            0    7620.1075    17.825761    22.571526    19.123003    7694.2289    7390.6177    7952.6618     7517.043    972.02527   -361.94971    355.82316   -4267.7721 
39927000    64.252477   -5239.5196   -5111.0067   -5239.5196            0    9621.1936    17.840247    22.510403    19.055746    7652.6191    8565.2371    10046.693     10251.65    829.65108    278.59571    563.66732   -4037.2277 
39928000    66.454735   -5249.2044   -5116.2867   -5249.2044            0    8534.5311    17.743105    22.616696    19.127449    7675.6619    9038.0452    9027.0458    7538.5024   -925.34124    380.15835   -592.69817   -4160.9172 
39929000    67.451963   -5248.1523   -5113.2401   -5248.1523            0    8582.2398    17.717412    22.587541      19.1465    7662.2912    8754.9383    9123.3121    7868.4688   -1249.0367    887.02955   -808.98503   -4154.2035 
39930000    67.375407   -5250.7932   -5116.0341   -5250.7932            0    9082.4569    17.740188    22.704921    19.020882     7661.413      9127.58    8804.0754    9315.7154   -356.12917     134.6454    760.68067   -4101.2162 
39931000    65.928033   -5254.9147   -5123.0505   -5254.9147            0    8866.8996    17.806925    22.657657    19.002172     7666.677    7816.9942    9204.7284    9578.9762    146.76187    573.76579   -438.92531    -4131.637 
39932000     66.98104   -5251.6432   -5117.6728   -5251.6432            0    8080.9459    17.830168    22.713247    18.965128    7680.5169    7174.6695    8450.1565    8618.0118    254.62722    543.49011    444.73733   -4212.5062 
39933000    63.432896   -5254.8319   -5127.9583   -5254.8319            0    7862.3367    17.664149    22.736583    19.152406    7692.0351    8461.6498    7541.6889    7583.6714    251.26372    -263.3659    659.64012   -4245.9579 
39934000     66.05378   -5256.4289   -5124.3131   -5256.4289            0    9045.1751    17.785915    22.660101    19.004692    7659.4729    8664.3352    9326.8841    9144.3059    442.56618    346.32049   -387.46798   -4113.9168 
39935000    69.872597   -5252.0517   -5112.2979   -5252.0517            0    8396.4792    17.756117    22.702461    19.045457    7677.3674    7797.8291     8373.442    9018.1667    720.11996    239.70484   -157.90901   -4172.1732 
39936000    68.851868    -5249.327   -5111.6148    -5249.327            0    8617.8146    17.695048    22.770858    18.999135    7655.3486    8986.2234    8244.4268    8622.7936    -18.14915   -484.45695   -871.93557   -4149.4754 
39937000     66.15935   -5253.8132   -5121.4863   -5253.8132            0    9250.5417    17.754028     22.72019    18.972783    7653.1443    8727.4136    8939.6348    10084.577   -437.30279    271.06955   -686.76833   -4089.0032 
39938000    66.777931   -5247.6151    -5114.051   -5247.6151            0    8671.5977    17.751599    22.646207    19.077985    7669.4718    8333.3667    9219.9408    8461.4855    541.37706   -261.39179   -259.37919   -4144.1209 
39939000    65.942353   -5260.3792   -5128.4863   -5260.3792            0    8106.9254    17.846392    22.591802    19.050278    7680.7319    7012.7981    8652.6603    8655.3177   -143.72042    783.73326   -370.96659   -4220.3842 
39940000    68.030996   -5243.5779   -5107.5075   -5243.5779            0    7821.9711     17.73795    22.692964    19.074231    7677.8864    7533.4453    7495.8705    8436.5974    347.75828   -1115.6114    -943.1946   -4231.6493 
39941000    67.250769   -5257.1241   -5122.6142   -5257.1241            0    7027.4733    17.774396    22.656767    19.169381    7719.7079    8152.8513    6983.7689    5945.7998     551.5074    385.65367    36.029151    -4331.433 
39942000    66.209798   -5246.7184   -5114.2906   -5246.7184            0    9620.7266    17.792403    22.643436    19.012762    7659.8832    9189.1065    9450.8254    10222.248   -596.19001    700.24765    23.377069   -4039.5445 
39943000    67.678472   -5255.1621   -5119.7968   -5255.1621            0     8633.013    17.743256    22.840294    18.900376    7659.5889    8690.0747    8340.2188    8868.7455   -398.52342    113.60336   -363.31922   -4155.4267 
39944000    64.203508    -5246.872   -5118.4571    -5246.872            0    8412.7937    17.795596    22.681711    19.037677    7684.2644    8116.6144    8759.9601    8361.8065    721.13654    325.43564     1294.809   -4175.6596 
39945000    66.280322   -5250.2126   -5117.6438   -5250.2126            0    8435.9559    17.711385    22.678745    19.101924    7672.7076    8162.4379    8599.6792    8545.7506    586.27204   -85.729665    1005.2969   -4173.6724 
39946000    66.976781   -5255.1636   -5121.2018   -5255.1636            0    9404.6021    17.708409    22.661086    19.081141    7657.1053    9599.7916    9370.3693    9243.6455    127.53896    451.36286    264.08432   -4070.9802 
39947000    64.615581   -5250.9622   -5121.7231   -5250.9622            0    7540.5784    17.742657    22.754184    19.109315    7714.8064    8259.3589    7516.1969    6846.1793    249.29573    583.37543   -593.86763   -4273.3134 
39948000    63.038286   -5247.4769   -5121.3926   -5247.4769            0     7505.637     17.74826    22.769279    19.063031    7703.6586    7395.3043    7126.8898    7994.7169   -426.57244   -870.69288   -46.029217   -4278.1346 
39949000    66.964763   -5250.3771   -5116.4394   -5250.3771            0    6991.4773    17.810427    22.572906     19.18699    7713.8052    7827.7369    6906.2334    6240.4617    264.24839    373.17774    257.59388   -4329.9126 
39950000    66.800334   -5255.3092   -5121.7003   -5255.3092            0    8214.0524    17.796179    22.585781    19.111758    7681.7915    9088.1643     7822.262    7731.7308   -283.48382   -231.14745    80.068838   -4201.4714 
39951000    66.985881   -5253.2559   -5119.2759   -5253.2559            0    8152.1161    17.850263    22.513376    19.114427    7681.5084    8609.6948    8219.1981    7627.4555    105.76685   -509.11951     505.9443   -4206.0194 
39952000    63.991256   -5252.6846   -5124.6942   -5252.6846            0    7323.0765    17.889354     22.64309    19.034039     7710.123    6976.5301     6901.261    8091.4385    82.101153   -199.85475    144.07685   -4301.2564 
39953000    60.446041    -5243.832   -5122.9325    -5243.832            0    9278.8946    17.671436    22.690931     19.09538     7656.891    10582.766    9304.1517    7949.7657   -376.61375    -59.32618     128.1718   -4086.7778 
39954000    63.895574   -5255.6938   -5127.8948   -5255.6938            0    8368.2168    17.837326    22.583885    19.023292    7663.2691      6863.83    8752.4934    9488.3271   -390.54148    43.895054    -854.5617   -4192.6552 
39955000    63.789603   -5254.8474   -5127.2603   -5254.8474            0    8115.4797    17.788832    22.669833    19.063008    7687.5363     6924.244    8588.3392    8833.8558    855.98809    389.75155    189.09927   -4217.3947 
39956000     65.37448   -5253.5118   -5122.7548   -5253.5118            0    8451.2552    17.775347    22.658187    19.040629    7668.7491    8078.8449    8227.6971    9047.2235    134.44766   -695.78621   -624.30455   -4177.5593 
39957000    64.337334   -5249.7257   -5121.0431   -5249.7257            0    7618.5455    17.783052    22.687845     19.07322    7695.2646    8080.3466    7130.1015    7645.1884    626.21525    262.30344    220.18112   -4266.0325 
39958000    62.879309   -5241.5569   -5115.7905   -5241.5569            0    7209.6077    17.756207    22.796808    19.031217     7703.548    6938.2988    6800.2101    7890.3141   -978.92523    -239.0123   -229.62418    -4305.803 
39959000    67.854495   -5256.0485   -5120.3311   -5256.0485            0    7522.9829    17.819742    22.661055    19.072116    7701.5903    8124.6727    7020.9989     7423.277   -763.39837   -311.88415   -601.83586   -4275.3512 
39960000    68.431913   -5251.5712   -5114.6989   -5251.5712            0    8699.6304     17.76686    22.502395    19.197565    7675.1269    8911.5445    9336.4315    7850.9153   -527.93646    170.22599   -311.17036   -4140.9158 
39961000     67.92545   -5256.4719   -5120.6126   -5256.4719            0    7108.6423    17.779715    22.681809    19.103997    7704.1856    6876.4763    6910.1546     7539.296   -449.33161   -279.95184   -1128.6084   -4321.9023 
39962000    65.188788   -5252.4999   -5122.1143   -5252.4999            0    7731.0306      17.8714    22.623881    19.055012    7704.3305    6836.8856     7636.804    8719.4021   -350.18035    498.69326    96.568397   -4253.4575 
39963000    66.735809   -5255.4744   -5121.9945   -5255.4744            0    7846.4323    17.772115    22.655187     19.10267    7691.3191    7747.8444    7959.0809    7832.3716    404.20278     25.11762    571.44999   -4241.8602 
39964000    66.252267    -5255.789   -5123.2762    -5255.789            0    7859.7756    17.789322     22.59928    19.146023    7697.1965    7485.6323    8430.0532    7663.6414    1616.5161    1052.6135     234.5512   -4240.9715 
39965000     59.29033   -5251.9649   -5133.3769   -5251.9649            0    7994.8746    17.802876    22.685138    19.043496    7690.9196     6698.659     8454.938     8831.027    954.32843    618.53975     107.7194   -4236.6384 
39966000    67.591039   -5258.2007   -5123.0103   -5258.2007            0    7076.2548    17.769539    22.781267    19.026263    7702.0714    7184.0601    6703.3033     7341.401    395.61651   -683.42169   -159.68488   -4328.1572 
39967000    64.440175   -5260.1479   -5131.2596   -5260.1479            0    8276.2265    17.819372    22.688334    19.009756    7685.4901    7729.0386    8055.3002    9044.3405    475.44371    86.909884   -80.338246   -4203.6188 
39968000    67.399705    -5251.104   -5116.2963    -5251.104            0    7382.5738    17.788273    22.692218    19.070136    7697.7629     7142.823    7414.7167    7590.1817   -696.38098   -275.93326   -311.02976   -4287.4992 
39969000      65.8317   -5254.0711   -5122.3996   -5254.0711            0    7939.3622    17.839944    22.634829     19.07602    7702.9748    7181.0649    8193.5618    8443.4599    129.07397   -147.51448   -679.41568   -4230.4917 
39970000     61.96608   -5247.5809   -5123.6411   -5247.5809            0    9335.2517    17.854975    22.504209    19.061933    7659.3154    8693.4341    9323.5332    9988.7879    293.74865    75.860543    110.94776   -4080.8631 
39971000     62.87373   -5247.9754   -5122.2202   -5247.9754            0     8458.439    17.732739    22.623351    19.128986    7674.0512     8706.126    8773.3622    7895.8288   -253.17003   -10.576093    312.64385   -4175.5672 
39972000    60.980998   -5255.6031   -5133.6335   -5255.6031            0    7759.9403    17.855487    22.600639    19.069112    7695.2529    8624.9371    7260.8609     7394.023    171.08156   -534.61506    353.55349   -4262.7558 
39973000    59.272975   -5249.1021   -5130.5488   -5249.1021            0    7147.0429    17.741548    22.726547     19.12229    7710.1864    8035.3955    6889.3126    6516.4205   -74.770627    29.339308   -687.83922   -4326.8984 
39974000    66.377806   -5251.4981   -5118.7343   -5251.4981            0    8540.9292    17.836257    22.629779    19.038415     7684.486    8520.2789      8363.12    8739.3886    844.77656    159.60798    238.84587   -4161.5494 
39975000    65.223915    -5255.156   -5124.7001    -5255.156            0    8116.8853      17.7521    22.611391    19.128532    7678.1865    8814.4656    8601.4268    6934.7634   -416.87853    515.38737     542.3309   -4215.7837 
39976000    64.668055   -5250.8619   -5121.5178   -5250.8619            0    8022.1773    17.675089    22.700048    19.150064    7683.4913    8521.7448    7787.1052    7757.6818   -113.08794   -367.07087    500.29791    -4222.586 
39977000     68.52784   -5244.5898   -5107.5256   -5244.5898            0    7417.5676    17.763628    22.739416    19.092372    7712.0681     8233.823    7160.7551    6858.1248   -43.302649    248.16029   -356.30068   -4273.2525 
39978000    67.727726   -5246.1948    -5110.731   -5246.1948            0    8777.5815    17.739248    22.731178     19.01046    7665.6641    9381.3086    7935.4453    9015.9907   -102.06089   -686.23049   -1674.8995   -4129.4338 
39979000    67.637486   -5252.9008   -5117.6174   -5252.9008            0     8101.157    17.809417    22.588865    19.118879    7691.4203    7506.4054    8248.9336    8548.1318    256.66198    429.03691   -28.226922   -4208.8987 
39980000    67.609207   -5243.9611   -5108.7343   -5243.9611            0    8633.0937    17.810886    22.477409    19.167811    7673.6907    9057.8276    9216.2726     7625.181   -349.21046    237.16066   -1103.0809   -4142.5797 
39981000    66.602924   -5247.6113   -5114.3972   -5247.6113            0     7976.505    17.867447    22.578547    19.087399    7700.2576    7398.8774    8253.7968    8276.8408    607.34837    183.35631   -1534.8415   -4218.6329 
39982000    63.491626   -5244.0344   -5117.0433   -5244.0344            0    8683.6043     17.80282     22.55408    19.107165    7672.0281    8401.2117    8832.9642    8816.6369   -444.68475   -4.3493411   -545.24489   -4145.4464 
39983000    63.500035   -5252.8651   -5125.8572   -5252.8651            0    7993.7741    17.934121    22.485405     19.05836    7685.3975    6123.3132    8660.4444    9197.5649   -469.02564   -346.84461   -712.41021   -4229.8859 
39984000    68.693669   -5254.2476   -5116.8518   -5254.2476            0    7681.1579    17.833957    22.581379    19.140815    7708.2998    7913.7014    7261.3113    7868.4609   -474.78662    45.041895   -1081.5953   -4253.3541 
39985000    63.905799    -5252.929   -5125.1095    -5252.929            0    9048.8207    17.785619    22.636575    19.057343    7672.5914    9169.4765    9126.7975    8850.1882    592.40699    587.19076    899.25948   -4112.5748 
39986000    67.576928   -5259.1262    -5123.964   -5259.1262            0    8176.3521    17.795078    22.654163    19.075287    7689.8696    8458.6062    7927.1274    8143.3228   -611.96312   -63.819815   -596.27649   -4206.9954 
39987000    63.834552   -5252.1904   -5124.5134   -5252.1904            0     8809.021    17.765138    22.599481    19.122949    7677.5369    8891.3792    8748.5716    8787.1123   -467.70355   -515.12275   -846.70225   -4138.1761 
39988000    67.761372   -5245.1345   -5109.6033   -5245.1345            0    9275.7945     17.75843    22.646631    19.001788    7641.9227    9429.7503    9494.3979    8903.2353    763.48361    435.88946    449.17872   -4075.8197 
39989000    65.105338   -5249.7678   -5119.5491   -5249.7678            0    7261.1012    17.681681    22.739631    19.116921    7686.4344    8623.7452    7237.9266    5921.6318    448.38994   -788.03212    463.16554   -4305.5886 
39990000    66.468617   -5246.9511   -5114.0056   -5246.9511            0    8301.2134    17.771783    22.557229    19.136518    7671.4891    9077.9783    8296.9355    7528.7265   -147.44098   -443.47443     1268.996   -4185.2592 
39991000    64.605763   -5251.4319   -5122.2124   -5251.4319            0    9114.3647    17.813081    22.506639    19.113467    7662.8294    9271.0625    9371.4558    8700.5758   -957.36769    275.60746   -1022.4306    -4103.641 
39992000    64.939848    -5251.347   -5121.4592    -5251.347            0    8614.2665    17.803351    22.605911    19.049769    7666.7884    8085.3976    8690.3665    9067.0354   -681.88218   -488.97273   -46.399435   -4158.2788 
39993000    69.292896   -5253.2693    -5114.675   -5253.2693            0    7825.2721    17.797905    22.548142    19.147126    7683.9273    8836.1567    7876.3707     6763.289    19.456514    141.41844     603.8742   -4237.7578 
39994000    66.179594   -5248.1141   -5115.7467   -5248.1141            0    7547.2136    17.803692    22.582855    19.159792    7703.3515    6903.7529    8311.7023    7426.1856    247.03006   -232.40711   -1227.0743   -4267.8514 
39995000    68.353881   -5251.6402    -5114.924   -5251.6402            0     7748.948    17.804459    22.604249    19.129527    7698.8008    7373.0643    7973.1578    7900.6219    102.49274   -554.06662   -23.779208    -4244.879 
39996000    65.933788   -5252.2555   -5120.3798   -5252.2555            0    8750.8976     17.78763     22.57864    19.090714     7667.222    9389.7334    8695.2464    8167.7128   -577.96524   -266.90872   -941.97103    -4141.867 
39997000    66.232902   -5251.5689   -5119.0949   -5251.5689            0    7733.1252    17.797775    22.697315    19.011467    7679.9049     7878.391    7675.4963    7645.4884    1126.5914    25.370134    467.72362   -4252.9575 
39998000    65.963677   -5246.9625    -5115.027   -5246.9625            0    8386.5988    17.846731     22.63997    19.022595     7686.069    7367.6802    8896.5506    8895.5656     513.0773    869.51258    21.682727   -4174.9444 
39999000    67.269152   -5254.7858   -5120.2391   -5254.7858            0     8620.197    17.760301    22.612994    19.070174    7658.8411     9700.173    8391.9309    7768.4873    1635.2696    223.12599    170.61638   -4157.3947 
40000000    67.126231    -5244.975   -5110.7142    -5244.975            0    8171.3355     17.74019    22.734118    19.032431    7675.9239    9070.2681    8213.9082      7229.83    260.32151    267.89396     923.5173   -4195.9702 
Loop time of 505.073 on 64 procs for 250000 steps with 1008 atoms

Performance: 85.532 ns/day, 0.281 hours/ns, 494.978 timesteps/s
380.6% CPU use with 16 MPI tasks x 4 OpenMP threads

MPI task timing breakdown:
Section |  min time  |  avg time  |  max time  |%varavg| %total
---------------------------------------------------------------
Pair    | 42.18      | 45.141     | 52.981     |  36.0 |  8.94
Bond    | 1.6155     | 1.9338     | 2.8127     |  19.9 |  0.38
Kspace  | 241.34     | 251.68     | 258.64     |  26.6 | 49.83
Neigh   | 0.60457    | 0.63802    | 0.67211    |   2.4 |  0.13
Comm    | 65.097     | 71.329     | 75.602     |  30.1 | 14.12
Output  | 0.47191    | 0.47226    | 0.47449    |   0.1 |  0.09
Modify  | 105.91     | 110.81     | 114.24     |  24.5 | 21.94
Other   |            | 23.06      |            |       |  4.57

Nlocal:        63.0000 ave          68 max          59 min
Histogram: 1 2 1 4 1 2 3 1 0 1
Nghost:        3493.56 ave        3503 max        3481 min
Histogram: 1 2 0 1 1 5 0 1 2 3
Neighs:        21743.9 ave       23563 max       20382 min
Histogram: 2 1 2 3 1 2 2 2 0 1

Total # of neighbors = 347903
Ave neighs/atom = 345.14187
Ave special neighs/atom = 2.0000000
Neighbor list builds = 1287
Dangerous builds = 0

unfix		3
unfix		2
unfix		1

write_data	data.final.${pid}
write_data	data.final.1
System init for write_data ...
PPPM initialization ...
  extracting TIP4P info from pair style
  using 12-bit tables for long-range coulomb (../kspace.cpp:340)
  G vector (1/distance) = 0.38008489
  grid = 24 27 32
  stencil order = 5
  estimated absolute RMS force accuracy = 0.0023802965
  estimated relative force accuracy = 7.1681922e-06
  using double precision FFTW3
  3d grid and FFT values/proc = 7875 1344
Last active /omp style is kspace_style pppm/tip4p/omp
WARNING: Not all mixed pair coeffs generated from mixing. Use write_data with 'pair ij' option to store all pair coeffs. (../write_data.cpp:312)

write_restart   restart.lmp.${pid}
write_restart   restart.lmp.1
System init for write_restart ...
PPPM initialization ...
  extracting TIP4P info from pair style
  using 12-bit tables for long-range coulomb (../kspace.cpp:340)
  G vector (1/distance) = 0.38008489
  grid = 24 27 32
  stencil order = 5
  estimated absolute RMS force accuracy = 0.0023802965
  estimated relative force accuracy = 7.1681922e-06
  using double precision FFTW3
  3d grid and FFT values/proc = 7875 1344
Last active /omp style is kspace_style pppm/tip4p/omp
Total wall time: 0:08:25
