LAMMPS data file via write_data, version 30 Jul 2021, timestep = 46500000

864 atoms
2 atom types
576 bonds
1 bond types
288 angles
1 angle types

0.190680645404667 18.01689175459422 xlo xhi
0.16422946691188578 23.46494833309203 ylo yhi
0.1555176463783301 22.05767815362027 zlo zhi

Masses

1 1.00794
2 15.9994

Atoms # full

707 1 1 0.5897 3.2155040704561855 1.91789125673832 3.921099066148544 0 0 0
706 1 2 -1.1794 3.21289497590018 1.8813305265395255 2.964567381040785 0 0 0
30 1 1 0.5897 5.358010705835842 4.060445173718579 2.3744639108024246 0 0 0
708 1 1 0.5897 2.4164242861806597 2.346564548859239 2.708783818532033 0 0 0
29 1 1 0.5897 4.65980217185304 2.7172500098725396 2.3862892948233045 0 0 0
28 1 2 -1.1794 5.442511303608407 3.160642608528789 2.0591685619198508 0 0 0
495 1 1 0.5897 8.355475039569388 2.3352633310271544 2.7799077873257 0 0 0
1 1 2 -1.1794 0.9443137424015523 3.1810749681564365 2.1240289901601215 0 0 0
494 1 1 0.5897 6.842765310405257 2.3653645768548546 2.7276537590479135 0 0 0
493 1 2 -1.1794 7.578072698006211 1.8674584261973537 3.0849313451598164 0 0 0
846 1 1 0.5897 7.544638608793873 1.9198054117021912 4.8943188369601005 0 0 0
3 1 1 0.5897 0.9074509885449702 4.0723293309437105 2.4711666719224894 0 0 0
136 1 2 -1.1794 5.329846549177641 5.769201111399314 2.928015898771948 0 0 0
595 1 2 -1.1794 0.8435326776709768 5.772700046103082 3.0428741905835115 0 0 0
597 1 1 0.5897 0.8573717111418346 5.776353296047377 4.000001053123979 0 0 0
137 1 1 0.5897 5.3327817300923215 5.801841338181834 3.8846892281796035 0 0 0
20 1 1 0.5897 0.8815212019355925 3.0272150408483633 0.3582268399072427 0 0 0
668 1 1 0.5897 5.369725623401732 3.188033282827772 0.30272209589314414 0 0 0
819 1 1 0.5897 7.498842020641739 0.2224141507798397 2.4255812894492923 0 0 0
685 1 2 -1.1794 5.365098064627573 5.849315545614298 5.677638944297627 0 0 0
35 1 1 0.5897 0.7184797652481626 4.0543682060243365 9.740154535278805 0 0 0
356 1 1 0.5897 7.400222168316297 1.0701582951523068 10.047343480019086 0 0 0
34 1 2 -1.1794 0.7053856159499181 3.143990371607055 9.444800287249839 0 0 0
784 1 2 -1.1794 0.9387425058630957 3.2009394071669677 6.716718159059274 0 0 0
675 1 1 0.5897 2.979071501124786 1.083624898659691 10.120125889382392 0 0 0
176 1 1 0.5897 8.97577425746183 2.788324309562569 9.71735057506659 0 0 0
678 1 1 0.5897 5.180305034605683 4.839745422233157 10.080216289285737 0 0 0
845 1 1 0.5897 7.477842515220913 1.0609590003162528 6.139262552922954 0 0 0
84 1 1 0.5897 6.03037012833124 2.8118760428315306 6.395228864846077 0 0 0
112 1 2 -1.1794 0.7404622649638624 5.748783127316387 10.268685825282192 0 0 0
785 1 1 0.5897 0.8514070874855284 3.1831856562500067 7.669793641833908 0 0 0
355 1 2 -1.1794 7.450464960103987 2.0054639690989084 10.244492476123165 0 0 0
276 1 1 0.5897 5.971667628696386 2.7526950583089183 9.62185341185374 0 0 0
844 1 2 -1.1794 7.502020654742806 1.9727889688833546 5.849134088989271 0 0 0
82 1 2 -1.1794 5.260632001158959 3.323510958858814 6.6441526341805135 0 0 0
274 1 2 -1.1794 5.148788355336786 3.178789774706989 9.381961047441674 0 0 0
676 1 2 -1.1794 5.177484852723439 5.724582090679318 10.445258573915618 0 0 0
419 1 1 0.5897 9.008257591204504 2.736091511952817 6.414638617260445 0 0 0
674 1 1 0.5897 3.725084988121515 2.4008866461589617 10.129845301882458 0 0 0
181 1 2 -1.1794 0.9379707526170498 5.791298096976784 5.780131998751191 0 0 0
686 1 1 0.5897 5.329830174940738 4.946938512371749 5.994920486380721 0 0 0
183 1 1 0.5897 0.9094183321843453 4.8970493680373846 6.120280291551974 0 0 0
489 1 1 0.5897 3.095598743989631 0.9928301222317656 6.057083458309881 0 0 0
36 1 1 0.5897 1.495337223574562 2.7576575024768974 9.822908895756452 0 0 0
487 1 2 -1.1794 3.125000483927261 1.8798644900442052 5.698608745623006 0 0 0
488 1 1 0.5897 2.3545735310021567 2.3129083048390178 6.066242495473178 0 0 0
275 1 1 0.5897 5.1837306171388065 3.2482807822443203 8.427893100602134 0 0 0
83 1 1 0.5897 4.519020317598889 2.8205260469194866 6.307622497711781 0 0 0
673 1 2 -1.1794 2.9680204191704878 1.9568929732055178 10.511894819970626 0 0 0
166 1 2 -1.1794 3.007180751774507 1.8784998866238438 13.235802714265205 0 0 0
167 1 1 0.5897 2.9886056907373653 1.8915902554803896 12.278838173461153 0 0 0
457 1 2 -1.1794 5.233766996055144 3.283479315016521 14.111751823961937 0 0 0
458 1 1 0.5897 5.977359471518104 2.83179807320916 13.712635235945795 0 0 0
459 1 1 0.5897 4.466258994742716 2.8036272892620597 13.800449734024763 0 0 0
762 1 1 0.5897 5.1881198578684655 4.969900505478612 13.513447559089174 0 0 0
594 1 1 0.5897 8.244280953317832 2.4057761727740314 13.246435239832095 0 0 0
168 1 1 0.5897 2.228411007214241 2.369579106601933 13.497701014047271 0 0 0
71 1 1 0.5897 5.342529918755007 3.199837993350395 15.904691760260926 0 0 0
592 1 2 -1.1794 7.403953205067812 2.032491298966935 12.980452171744835 0 0 0
466 1 2 -1.1794 0.8051118184312596 3.3308931005857967 13.951336509727199 0 0 0
593 1 1 0.5897 7.414068657769957 1.1428463206014876 13.333479832187379 0 0 0
468 1 1 0.5897 0.7946490868762155 3.295691134682722 14.907865255253013 0 0 0
365 1 1 0.5897 0.7414279302044889 5.015551127417509 13.32262198524128 0 0 0
761 1 1 0.5897 5.181923711585454 5.76720975613939 12.226499129248086 0 0 0
357 1 1 0.5897 7.455499224549092 2.0492513872619336 11.20071142366325 0 0 0
113 1 1 0.5897 0.7153587573679212 5.809898189487648 11.223636747232845 0 0 0
364 1 2 -1.1794 0.7023084756537775 5.912197510754189 12.989918951362032 0 0 0
760 1 2 -1.1794 5.195418428776757 5.8665241333976965 13.178470663230762 0 0 0
737 1 1 0.5897 2.9096151589497725 0.19639331329116347 13.786271838032109 0 1 0
599 1 1 0.5897 9.060650066582786 2.7899992947709245 16.924246941614918 0 0 0
323 1 1 0.5897 7.45120240390393 0.22353412158549713 16.962689099432637 0 1 0
277 1 2 -1.1794 5.339336689199017 5.812863708941945 17.74688010090948 0 0 0
667 1 2 -1.1794 5.36742951731962 3.196791761979447 21.24769065145695 0 0 0
360 1 1 0.5897 9.040357410369728 2.7799325493783753 21.070401417654054 0 0 0
646 1 2 -1.1794 0.7494225225751568 5.6400824593355425 20.52763814865832 0 0 0
278 1 1 0.5897 5.322033622648317 4.899912526785193 17.45980220447472 0 0 0
648 1 1 0.5897 0.766885876781131 5.660640895794962 19.57078479269908 0 0 0
21 1 1 0.5897 0.7992794143718145 3.919501522505423 21.040134141572494 0 0 0
289 1 2 -1.1794 3.1445332521378973 1.897563987529276 17.702030513309275 0 0 0
291 1 1 0.5897 2.370192529459039 2.361393669719453 17.38344721367355 0 0 0
669 1 1 0.5897 4.57321951814775 2.7206859799905136 21.00523294120491 0 0 0
754 1 2 -1.1794 7.6563686782649425 1.8642909683866569 17.59119159671225 0 0 0
756 1 1 0.5897 6.895004359227779 2.3727796287046696 17.311915012210846 0 0 0
143 1 1 0.5897 5.268105706863095 4.932152898524278 20.765824399020545 0 0 0
568 1 2 -1.1794 3.1305889236594746 1.7881800114740407 20.44783256768443 0 0 0
570 1 1 0.5897 3.1374079332686016 1.8194975047481081 19.49113544572355 0 0 0
41 1 1 0.5897 6.853228518210024 2.373294630135017 20.67159707042785 0 0 0
42 1 1 0.5897 7.6129684707036205 1.0644140054478253 20.70951170061523 0 0 0
144 1 1 0.5897 5.322817494748188 5.841262133694671 19.556492564623262 0 0 0
19 1 2 -1.1794 0.8293162272221287 3.0001779161555664 21.304960789890515 0 0 0
70 1 2 -1.1794 5.400595107285548 3.218988212583678 16.859970748813787 0 0 0
569 1 1 0.5897 2.3239275589719424 2.23924289456071 20.696980180202537 0 0 0
133 1 2 -1.1794 0.9290522737090977 3.2031652863019495 16.69752728545197 0 0 0
134 1 1 0.5897 0.8871363277791767 4.087500446915108 17.061387036256498 0 0 0
72 1 1 0.5897 4.6178295694220495 2.755213996400457 17.157338079372437 0 0 0
755 1 1 0.5897 7.629775758363211 1.8978870565504768 18.54746564277285 0 0 0
290 1 1 0.5897 3.0446196084035546 1.0061385224812152 17.368000484381774 0 0 0
142 1 2 -1.1794 5.23921383129698 5.854054155336947 20.509982579319185 0 0 0
40 1 2 -1.1794 7.646152015530618 1.9485667195047884 20.3443104808253 0 0 0
571 1 2 -1.1794 0.8233524923800518 5.722720854707839 17.77802349172834 0 0 0
123 1 1 0.5897 3.121860646033735 8.764464159259612 2.735223327070947 0 0 0
121 1 2 -1.1794 3.095356390608567 9.677765090814228 3.020480707722651 0 0 0
122 1 1 0.5897 3.09140137437627 9.63058322454847 3.976542786864748 0 0 0
44 1 1 0.5897 1.5718517696810672 10.414432994624164 2.4754440553739703 0 0 0
218 1 1 0.5897 6.007240169150601 10.606129136599751 2.4370844111486627 0 0 0
417 1 1 0.5897 8.254404517259884 6.724633195798964 2.4661148383188305 0 0 0
219 1 1 0.5897 4.493569844040215 10.615274860032727 2.4116058492740167 0 0 0
254 1 1 0.5897 3.008918686999135 7.068096623846436 1.2248665058416424 0 0 0
415 1 2 -1.1794 7.505032357938628 7.214762681397099 2.1278102117077786 0 0 0
217 1 2 -1.1794 5.258729126525426 11.102777901697161 2.106470013617291 0 0 0
66 1 1 0.5897 7.403053733473561 9.771358067319476 4.021235929393785 0 0 0
65 1 1 0.5897 7.469493672460999 8.89208795713341 2.7906133629593004 0 0 0
64 1 2 -1.1794 7.452853815289855 9.808638779142768 3.066025852831253 0 0 0
253 1 2 -1.1794 3.083153336684124 7.0821254645888425 2.1791144584434 0 0 0
255 1 1 0.5897 2.2982764689325377 6.6292970048539335 2.487581655757242 0 0 0
416 1 1 0.5897 6.741197782963777 6.717632677613333 2.420471762917879 0 0 0
43 1 2 -1.1794 0.7407835924878404 10.81166439612508 2.215116318112602 0 0 0
396 1 1 0.5897 0.8182800743505848 10.827040624695524 0.4490645812835995 0 0 0
138 1 1 0.5897 4.528201884675701 6.226850144212422 2.6747220892227204 0 0 0
162 1 1 0.5897 7.547710863306274 7.071923727954583 0.3511559799380389 0 0 1
773 1 1 0.5897 8.889014757426464 10.675543788957036 2.537121414221291 0 0 0
363 1 1 0.5897 5.338402820072003 10.990025831542644 0.33107519398817764 0 0 1
45 1 1 0.5897 0.8036043542930705 11.71827378544059 2.5156365768122706 0 0 0
527 1 1 0.5897 7.453740799900297 7.89639031076029 9.795421015510298 0 0 0
10 1 2 -1.1794 3.1831413253270924 7.036607060457696 6.773499710958459 0 0 0
11 1 1 0.5897 2.4218293993263793 6.5723561126312635 6.42548899809696 0 0 0
712 1 2 -1.1794 7.430740598273846 9.678291644761797 5.810247240289194 0 0 0
146 1 1 0.5897 6.796559187213575 6.66516757905245 6.422511780178892 0 0 0
114 1 1 0.5897 1.5470130361290504 6.2005211753537885 10.020406828643189 0 0 0
650 1 1 0.5897 3.0716576598346568 7.082297906867562 8.563692226567387 0 0 0
580 1 2 -1.1794 5.182194199040977 10.93946574866012 9.56524329671806 0 0 0
165 1 1 0.5897 8.964159494510316 6.199399195819178 6.116013597517939 0 0 0
795 1 1 0.5897 3.7470690826394 10.114751307013679 6.1488338002101965 0 0 0
820 1 2 -1.1794 7.437266587547568 9.639674518901776 10.311843789731935 0 0 0
145 1 2 -1.1794 7.57728336711586 7.1185290840620965 6.740582544277105 0 0 0
793 1 2 -1.1794 3.016491922119535 9.616397929075266 5.782587108609004 0 0 0
12 1 1 0.5897 3.1168862617824225 7.917061979889216 6.403892334684564 0 0 0
13 1 2 -1.1794 0.6691241110505317 11.017796357914746 9.372943942663747 0 0 0
256 1 2 -1.1794 2.8798686641839892 9.722071516361066 10.353672277976258 0 0 0
713 1 1 0.5897 8.236752422595332 10.10874888299912 6.095357403820914 0 0 0
15 1 1 0.5897 1.4491884637759114 10.56757324007401 9.697035810522738 0 0 0
550 1 2 -1.1794 0.7563807216846175 10.921362428605036 6.657730108390635 0 0 0
651 1 1 0.5897 3.7813022165530423 6.633967755578557 9.823616179797245 0 0 0
677 1 1 0.5897 5.973294240223668 6.1291616206655135 10.099943307222123 0 0 0
147 1 1 0.5897 7.509561652294546 7.072766660122848 7.69432017568297 0 0 0
258 1 1 0.5897 3.6831100949614393 10.126473446425374 10.025797553757805 0 0 0
578 1 1 0.5897 5.957519398397471 10.498211614918207 6.465008710142699 0 0 0
577 1 2 -1.1794 5.185509569201019 10.916960242821975 6.845653999919463 0 0 0
714 1 1 0.5897 7.506205699542213 8.783633599594175 6.142044392994763 0 0 0
794 1 1 0.5897 2.234618892551277 10.0583722584564 6.113601216322695 0 0 0
551 1 1 0.5897 0.7048714431861859 11.006692378212676 7.60976056750194 0 0 0
526 1 2 -1.1794 7.420737190286391 6.991875245347988 9.484039503584645 0 0 0
581 1 1 0.5897 5.981658815874407 10.476622540305575 9.815975578965245 0 0 0
687 1 1 0.5897 4.58930943485478 6.266065182840231 6.05275608373586 0 0 0
257 1 1 0.5897 2.9427082462633973 8.807111825132973 10.07964012979992 0 0 0
582 1 1 0.5897 5.180191208020931 10.913987003841633 8.608350748586746 0 0 0
649 1 2 -1.1794 3.003738766221772 7.101329208724725 9.51832341524865 0 0 0
822 1 1 0.5897 8.218604431547147 10.114992333202158 10.029323548417793 0 0 0
528 1 1 0.5897 8.239205498799985 6.602232389361664 9.791493109089753 0 0 0
828 1 1 0.5897 7.531771047064039 7.094096782709186 14.893121331799838 0 0 0
261 1 1 0.5897 0.8270653766579026 11.067587793132734 14.960792500109353 0 0 0
332 1 1 0.5897 2.9699582768526693 8.002936864711394 13.755863738031918 0 0 0
797 1 1 0.5897 2.945543732260773 9.690271360751936 12.135241669273572 0 0 0
796 1 2 -1.1794 3.02207362051288 9.661147930895645 13.088966873689307 0 0 0
798 1 1 0.5897 2.2754000816330313 10.169720957464097 13.405296496197051 0 0 0
722 1 1 0.5897 4.53655938538874 10.50774971260732 13.609143305587313 0 0 0
259 1 2 -1.1794 0.8618868082085207 11.111619886848272 14.005206580366707 0 0 0
721 1 2 -1.1794 5.302706829256272 10.987321088353722 13.924205395985696 0 0 0
723 1 1 0.5897 5.262327236201233 10.90490755324169 14.877028867787192 0 0 0
331 1 2 -1.1794 2.923934799311635 7.10384698640214 14.081004144997069 0 0 0
225 1 1 0.5897 2.977613180650774 7.01642257446649 15.865419345459278 0 0 0
826 1 2 -1.1794 7.505657590955908 7.163858138810495 13.938789866926703 0 0 0
475 1 2 -1.1794 7.569158146648928 9.750235798835286 13.031145519055023 0 0 0
476 1 1 0.5897 6.7873538513289615 10.15998132878511 13.401458264150095 0 0 0
477 1 1 0.5897 7.545266566934066 8.850273365080108 13.356249764189545 0 0 0
827 1 1 0.5897 6.681147486405154 6.746050610893326 13.690081607334823 0 0 0
333 1 1 0.5897 3.724829886846155 6.690695867254388 13.758338752112197 0 0 0
366 1 1 0.5897 1.4788000472644807 6.337333396427195 13.354009312657318 0 0 0
821 1 1 0.5897 7.480237932857728 9.654032945384579 11.268004546596622 0 0 0
851 1 1 0.5897 8.911420429789255 6.244951014669915 13.32843723285269 0 0 0
104 1 1 0.5897 9.04885095101837 10.536454538417154 13.631886269481788 0 0 0
681 1 1 0.5897 5.26771478760193 11.676941023997879 16.98613807475121 0 0 0
160 1 2 -1.1794 7.556163903075602 7.049304040153178 21.296387034963793 0 0 0
362 1 1 0.5897 5.308243187373873 11.765218448748916 20.933178710805123 0 0 0
246 1 1 0.5897 9.031942693923298 10.476931561817588 16.941218690404916 0 0 0
287 1 1 0.5897 9.027672726880782 10.440407666644841 21.01383883015268 0 0 0
521 1 1 0.5897 6.839803359718474 6.630569437497556 17.071878428036996 0 0 0
690 1 1 0.5897 2.3362305792411546 10.103074071420954 20.7539679556173 0 0 0
626 1 1 0.5897 3.047127464442582 9.662124896310939 18.619638367683507 0 0 0
625 1 2 -1.1794 3.0739970098190486 9.575994894332284 17.666665618760334 0 0 0
5 1 1 0.5897 3.7296400126039653 6.649106254287711 21.07168680348397 0 0 0
141 1 1 0.5897 7.5261292852414465 8.732390802025066 20.694923897309053 0 0 0
688 1 2 -1.1794 3.0712208011154427 9.618850088836759 20.37773271033727 0 0 0
6 1 1 0.5897 2.9657744693435415 7.9529102482590535 20.979936278598743 0 0 0
711 1 1 0.5897 9.042148076811326 6.1816577161517 17.390464432379822 0 0 0
520 1 2 -1.1794 7.634498874276445 7.010278530436287 16.697015205960014 0 0 0
394 1 2 -1.1794 0.875667566868204 10.903834318301996 21.39880392897622 0 0 0
462 1 1 0.5897 9.02318117507685 6.19227641841549 20.743957373743143 0 0 0
161 1 1 0.5897 6.729008841045627 6.630188393712477 21.058915097509384 0 0 0
8 1 1 0.5897 7.584418941266285 9.635001025105717 18.530071025542902 0 0 0
139 1 2 -1.1794 7.579995456263942 9.625981584594923 20.356114951190143 0 0 0
224 1 1 0.5897 3.0560323667307165 7.893134657774609 17.097161282268523 0 0 0
679 1 2 -1.1794 5.312579712272279 10.7695729557558 16.684696373072853 0 0 0
4 1 2 -1.1794 2.9064703589935346 7.063899432329281 21.329709716293834 0 0 0
361 1 2 -1.1794 5.319969926483943 10.874403059370914 21.283190483024192 0 0 0
140 1 1 0.5897 6.795573630444542 10.058323346777575 20.693758102811294 0 0 0
522 1 1 0.5897 7.634627230249817 7.9171736501983085 17.003177537242195 0 0 0
279 1 1 0.5897 4.521909213670193 6.184285849651732 17.415068791604547 0 0 0
7 1 2 -1.1794 7.618546780055414 9.627147892395556 17.5734783477944 0 0 0
445 1 2 -1.1794 0.8623431391968119 10.95301304119462 16.753022314583795 0 0 0
647 1 1 0.5897 1.5219995412250396 6.139256080607628 20.79255635922579 0 0 0
680 1 1 0.5897 4.532193273569208 10.355452858266707 17.053130380656164 0 0 0
572 1 1 0.5897 1.5902343831298522 6.201070782772694 17.462892046356686 0 0 0
627 1 1 0.5897 2.2876155790547146 10.02909889877856 17.362466950356236 0 0 0
223 1 2 -1.1794 3.0493066877241937 6.97724024343026 16.819159664227797 0 0 0
689 1 1 0.5897 3.849027464665493 10.069598041964477 20.706496097208507 0 0 0
9 1 1 0.5897 6.783449454786553 10.006995497411575 17.300408078798945 0 0 0
200 1 1 0.5897 5.296734099581825 13.499286020052413 4.983625776544446 0 0 0
173 1 1 0.5897 4.566573124445779 14.044226148093362 2.8656747505488958 0 0 0
172 1 2 -1.1794 5.333988414534925 13.59093998973612 3.2147357183970175 0 0 0
293 1 1 0.5897 3.067571503341362 16.67354004848154 2.7145765041188072 0 0 0
558 1 1 0.5897 3.1268859445969603 14.875700486744536 1.255406595600539 0 0 0
556 1 2 -1.1794 3.1302979065370216 14.910324101574249 2.212008290659815 0 0 0
557 1 1 0.5897 2.3474074715838156 14.425093193450502 2.4725197887663803 0 0 0
478 1 2 -1.1794 7.478989652472554 14.945520446273214 2.0884196247413276 0 0 0
174 1 1 0.5897 5.276676033334829 12.70730670485516 2.8512701315885614 0 0 0
479 1 1 0.5897 8.24541482430808 14.516607102984944 2.4690317149589487 0 0 0
449 1 1 0.5897 7.435578157977267 16.594674255395958 2.7365878527327516 0 0 0
480 1 1 0.5897 6.7318040770275225 14.486640248186022 2.47232344545118 0 0 0
373 1 2 -1.1794 0.975788080490708 13.433435367145721 2.937678670262717 0 0 0
374 1 1 0.5897 0.9328155890825134 13.426583037621027 3.8939229647774587 0 0 0
308 1 1 0.5897 7.52289807688379 17.38952877809544 4.8649086803314825 0 0 0
448 1 2 -1.1794 7.48133723458845 17.492082880089775 3.06638642346427 0 0 0
317 1 1 0.5897 7.521745958028839 14.774975196222012 0.32199768176710575 0 0 0
294 1 1 0.5897 3.1101624804428507 17.594744757460752 3.915209432439037 0 0 0
292 1 2 -1.1794 3.028492080381399 17.597503177627594 2.9614703669718176 0 0 0
18 1 1 0.5897 3.8101070440741287 14.427276326939738 6.4333702297572835 0 0 0
766 1 2 -1.1794 0.8692587100397146 13.600666681969635 10.291376766375528 0 0 0
377 1 1 0.5897 6.752615160205416 14.419971415789178 9.86327852995689 0 0 0
454 1 2 -1.1794 5.2669537291549915 13.554542528303484 10.36897457909462 0 0 0
456 1 1 0.5897 5.23978847169463 12.627899423658965 10.13067937540544 0 0 0
376 1 2 -1.1794 7.558825533447245 14.850621978105073 9.5790221720028 0 0 0
518 1 1 0.5897 7.491838901943881 15.650561966958373 6.448445206519021 0 0 0
238 1 2 -1.1794 3.0968097933004453 17.47671167980588 5.6916981863239915 0 0 0
186 1 1 0.5897 7.521641698714146 16.537444189781226 10.132676512596834 0 0 0
16 1 2 -1.1794 3.020861777805411 14.911722133493814 6.675518145816423 0 0 0
59 1 1 0.5897 9.018092087528808 13.934998898773571 10.076583987576171 0 0 0
517 1 2 -1.1794 7.509076497638903 14.775085946238061 6.835027249135455 0 0 0
199 1 2 -1.1794 5.242236014927341 13.487791347455708 5.939238294695337 0 0 0
656 1 1 0.5897 1.6352810145959205 13.97090826627383 6.031349240554451 0 0 0
384 1 1 0.5897 2.980795656495592 16.545415672520143 10.056151502869533 0 0 0
17 1 1 0.5897 3.05386019147221 14.9621757622482 7.630851173352842 0 0 0
307 1 2 -1.1794 7.489505245921024 17.320215015756048 5.819046071309364 0 0 0
184 1 2 -1.1794 7.466279025017919 17.437717551665358 10.453049078546371 0 0 0
811 1 2 -1.1794 3.0882165006354088 14.898870959197321 9.406378868012071 0 0 0
201 1 1 0.5897 6.044734023978362 13.920609656235351 6.230617198208851 0 0 0
519 1 1 0.5897 8.326687975571263 14.38971832118615 6.519998065721967 0 0 0
655 1 2 -1.1794 0.9060720532317202 13.465342213428867 5.672334344793094 0 0 0
813 1 1 0.5897 2.312424985110122 14.413910262689674 9.687793651008672 0 0 0
378 1 1 0.5897 7.512528543703463 14.839697355686875 8.622970200358619 0 0 0
239 1 1 0.5897 3.072126397840698 16.582547908457748 6.032372609508932 0 0 0
382 1 2 -1.1794 2.916922619534418 17.442034534075923 10.385075555368811 0 0 0
812 1 1 0.5897 3.8236642989978824 14.41153831955141 9.7776745590631 0 0 0
552 1 1 0.5897 0.8016658500556163 11.822461815659894 6.338097482858436 0 0 0
14 1 1 0.5897 0.7623226815693671 11.91662742474962 9.688560503402604 0 0 0
579 1 1 0.5897 5.221678689681402 11.819651930379584 6.529371749947994 0 0 0
429 1 1 0.5897 5.899991258637079 14.030642449898362 13.415038946452787 0 0 0
232 1 2 -1.1794 2.881637140658459 14.934462257537716 13.966622887233974 0 0 0
234 1 1 0.5897 2.9573050095363085 14.926537585227514 14.920827951923615 0 0 0
606 1 1 0.5897 2.9784273119192703 16.63196472208692 13.382778932662939 0 0 0
427 1 2 -1.1794 5.10861069104345 13.602941025289997 13.087890518323045 0 0 0
233 1 1 0.5897 3.658237850030788 14.466118304027052 13.660387994982758 0 0 0
639 1 1 0.5897 1.414444564690148 14.11226853525806 13.373315395030565 0 0 0
428 1 1 0.5897 5.178105794669622 12.700078112326041 13.398060867070651 0 0 0
297 1 1 0.5897 8.138338766675703 14.395437005162938 13.70299850510861 0 0 0
296 1 1 0.5897 7.402524035838648 14.782495259393455 14.968213560376292 0 0 0
295 1 2 -1.1794 7.359225705442442 14.855882813132384 14.014780206449064 0 0 0
270 1 1 0.5897 7.447346769338993 16.55615627239299 13.502447480915139 0 0 0
638 1 1 0.5897 0.7704702186168487 12.742806483576464 13.332437515476911 0 0 0
637 1 2 -1.1794 0.6676270391016248 13.63757707570101 13.008392365532577 0 0 0
455 1 1 0.5897 5.234092721003587 13.557407592181152 11.325640657299623 0 0 0
605 1 1 0.5897 2.981178587510023 17.481372691199752 12.129595424284888 0 0 0
269 1 1 0.5897 7.48952403585187 17.392007029473056 12.240883313819241 0 0 0
767 1 1 0.5897 0.7907498730055957 13.639965276814117 11.244575535181523 0 0 0
604 1 2 -1.1794 3.0647109286922163 17.53641777581344 13.08158692155798 0 0 0
268 1 2 -1.1794 7.483686945675799 17.462068244688794 13.195531573045947 0 0 0
49 1 2 -1.1794 7.40339090152185 14.694942147120154 16.723301242482272 0 0 0
124 1 2 -1.1794 5.1598821359756455 13.361678619705605 17.575271896218723 0 0 0
318 1 1 0.5897 7.506875965622307 15.648808838539132 20.98797192770634 0 0 0
117 1 1 0.5897 8.985474884913415 13.897099607736036 20.6348666345408 0 0 0
823 1 2 -1.1794 3.0712419684920147 14.89649184222561 16.745803494934634 0 0 0
824 1 1 0.5897 3.81349571704013 14.35975238070868 17.02365091370178 0 0 0
584 1 1 0.5897 3.0553073610534955 16.581000356175885 17.33283540369579 0 0 0
665 1 1 0.5897 2.3754128902508453 14.397278967557176 21.030552612160292 0 0 0
683 1 1 0.5897 6.085183975567468 13.894462267660506 20.66823334553107 0 0 0
316 1 2 -1.1794 7.54986350115487 14.734575664933164 21.268190881741006 0 0 0
716 1 1 0.5897 3.010598639653555 17.461381968956175 19.43903857628625 0 0 0
125 1 1 0.5897 5.203644564159674 13.374430571266432 18.531419631509337 0 0 0
50 1 1 0.5897 7.437746829035281 15.598248275829695 17.038028036943906 0 0 0
452 1 1 0.5897 0.9048791058800644 12.601593560365822 20.804485715021407 0 0 0
126 1 1 0.5897 5.955850242332213 13.811953128821887 17.29256524225108 0 0 0
53 1 1 0.5897 0.8787718355108785 13.529064790267618 18.66652677205787 0 0 0
684 1 1 0.5897 4.57159463329115 13.925318841555006 20.673014912054974 0 0 0
825 1 1 0.5897 2.3005721147673537 14.411573508822105 17.041024976857813 0 0 0
51 1 1 0.5897 8.224861765999245 14.30518146987591 17.022485259683407 0 0 0
610 1 2 -1.1794 7.47464497886343 17.278114693125012 17.677669119444545 0 0 0
157 1 2 -1.1794 7.48375889535566 17.34649809426807 20.434260028150668 0 0 0
52 1 2 -1.1794 0.894359756248695 13.52294377378916 17.709439780138837 0 0 0
715 1 2 -1.1794 3.054771320656076 17.407717748757214 20.393745047733866 0 0 0
451 1 2 -1.1794 0.9307215183465548 13.49350858432473 20.458050606518988 0 0 0
666 1 1 0.5897 3.126850769415044 15.71118662432718 21.002310566967743 0 0 0
159 1 1 0.5897 7.543635951368457 17.33955174389895 19.478926174619218 0 0 0
682 1 2 -1.1794 5.317742586380012 13.44236200502546 20.317695161235534 0 0 0
583 1 2 -1.1794 2.977787219445499 17.48291335757945 17.64386382507474 0 0 0
664 1 2 -1.1794 3.163484839460474 14.825898460100552 21.364417729059106 0 0 0
446 1 1 0.5897 0.8883955634000064 11.839558228828249 17.112963728013455 0 0 0
267 1 1 0.5897 6.003217827823447 21.747994641506885 2.781149410755996 0 0 0
696 1 1 0.5897 1.5269143027549836 21.773690778910833 2.8050067320848733 0 0 0
266 1 1 0.5897 4.490959628306805 21.677349182586134 2.7841979771587044 0 0 0
265 1 2 -1.1794 5.269661751712532 21.24467759148378 3.134421792951404 0 0 0
228 1 1 0.5897 5.295429497268944 19.63136612962346 2.4255966050217377 0 0 0
343 1 2 -1.1794 0.6989717431720733 18.82109580778539 2.202309786847621 0 0 0
249 1 1 0.5897 5.291269103526122 21.25532873494852 4.933986581160072 0 0 0
226 1 2 -1.1794 5.301564183683703 18.766346575220894 2.0158311788086296 0 0 0
187 1 2 -1.1794 3.015986740772287 22.53223289606356 2.202693202109494 0 0 0
818 1 1 0.5897 8.176545484111127 22.16945665389111 2.4165730827035024 0 0 0
189 1 1 0.5897 3.0427473556214637 22.529260569655555 1.2458382762482898 0 0 0
344 1 1 0.5897 1.5110021749801914 18.404412631811304 2.4907864825716803 0 0 0
817 1 2 -1.1794 7.411991250468945 22.63546757103166 2.0781551652368484 0 0 0
345 1 1 0.5897 0.740081360984321 18.79078768225046 1.2464397705078734 0 0 0
413 1 1 0.5897 0.8072987331258041 21.34077403655221 4.906927595716461 0 0 0
695 1 1 0.5897 0.7153881734226847 20.49571973081953 2.7994137491673445 0 0 0
227 1 1 0.5897 4.489218261688682 18.35513853375729 2.311196515031862 0 0 0
694 1 2 -1.1794 0.7161809788695069 21.39037183100971 3.1396987338145568 0 0 0
450 1 1 0.5897 6.685011107465136 17.909385934070635 2.7378110918401033 0 0 0
498 1 1 0.5897 7.5180564228998685 22.648338683609666 0.28538855411898423 0 0 0
321 1 1 0.5897 8.905426406027848 18.331686021205684 2.4109143638458344 0 0 0
602 1 1 0.5897 5.323799676507946 18.791104776586963 0.20934495908421988 0 0 0
188 1 1 0.5897 3.0729507672976055 23.457390182875002 2.4415020424110647 0 0 0
702 1 1 0.5897 2.293866538614797 22.209666427172145 6.419946025292777 0 0 0
39 1 1 0.5897 3.7116727531476683 22.249475428570477 9.758840194243444 0 0 0
387 1 1 0.5897 5.332127407176092 19.55028849106813 6.489533464000596 0 0 0
87 1 1 0.5897 8.117625345133664 22.241437687618365 9.787486488122106 0 0 0
33 1 1 0.5897 6.679117810561531 22.173723712145843 6.456094598173281 0 0 0
701 1 1 0.5897 3.0538210510718615 22.694580728327132 7.636219362362152 0 0 0
32 1 1 0.5897 8.191714262975315 22.209857599907224 6.4044013226048895 0 0 0
553 1 2 -1.1794 5.08261110958445 21.329706534387334 10.46114636402904 0 0 0
555 1 1 0.5897 5.128802539191842 20.43276545052956 10.130148801610071 0 0 0
248 1 1 0.5897 4.487035339499852 21.683682906340074 6.143002115050933 0 0 0
101 1 1 0.5897 5.958762720582986 18.292168235896227 9.883402403655227 0 0 0
404 1 1 0.5897 1.4653108198113884 18.222628678136253 9.728236815403859 0 0 0
341 1 1 0.5897 1.6017412551379089 18.267712078220256 6.317842639944345 0 0 0
37 1 2 -1.1794 2.975330777741635 22.746559895837237 9.40255067678945 0 0 0
31 1 2 -1.1794 7.43501640563304 22.67739215426751 6.758034314298661 0 0 0
340 1 2 -1.1794 0.7683662016029305 18.658021354642578 6.581251779525308 0 0 0
100 1 2 -1.1794 5.172709826088617 18.74296256812311 9.574952932900208 0 0 0
247 1 2 -1.1794 5.29052169291135 21.228641660044495 5.890847806381753 0 0 0
85 1 2 -1.1794 7.294884559846808 22.64916177683643 9.517123142522426 0 0 0
185 1 1 0.5897 8.23836577921062 17.870161401255622 10.088202225405999 0 0 0
700 1 2 -1.1794 3.1087670569604517 22.637884362713372 6.682247616919623 0 0 0
386 1 1 0.5897 6.048631184566287 18.21678536341804 6.47536026636799 0 0 0
414 1 1 0.5897 0.8522940683923952 20.40734748247621 6.097993334818885 0 0 0
385 1 2 -1.1794 5.270580813478007 18.654394144017836 6.820867695473879 0 0 0
554 1 1 0.5897 5.872101521016356 21.7515724419318 10.122068933691194 0 0 0
102 1 1 0.5897 5.223974452918078 18.688990320916297 8.620618204243618 0 0 0
405 1 1 0.5897 0.7214128645032258 19.53898648333 9.653216940194698 0 0 0
240 1 1 0.5897 3.8639447732816037 17.870669251720123 6.107083036815637 0 0 0
412 1 2 -1.1794 0.8666977705754821 21.33494127488396 5.862298743686997 0 0 0
38 1 1 0.5897 2.199989666733078 22.256951572924308 9.677076624627466 0 0 0
86 1 1 0.5897 7.3396552736056915 22.66904316532925 8.561143745076315 0 0 0
94 1 2 -1.1794 0.7786619666963529 21.2583998134942 10.17337179161476 0 0 0
342 1 1 0.5897 0.7794138226487071 18.6246329649303 7.537839361935001 0 0 0
403 1 2 -1.1794 0.6939295787055488 18.635083589375185 9.339529867290675 0 0 0
383 1 1 0.5897 3.7132449743853844 17.87022179732739 10.070808513628608 0 0 0
309 1 1 0.5897 8.259872825856853 17.801006177222362 6.1217153465213245 0 0 0
88 1 2 -1.1794 5.140033819398472 21.41763943209991 13.16650171063109 0 0 0
381 1 1 0.5897 1.4587411671094086 21.739439683516565 13.303420585858035 0 0 0
90 1 1 0.5897 5.165789126074788 20.50930292186613 13.467260035990588 0 0 0
763 1 2 -1.1794 5.266271817340326 18.81809668427359 14.053045384870504 0 0 0
738 1 1 0.5897 3.6449177663698156 22.173895454877425 13.77091645960802 0 0 0
89 1 1 0.5897 5.12135456963683 21.353849462143543 12.211578911397737 0 0 0
736 1 2 -1.1794 2.826717144549861 22.5819547557822 14.054240723605133 0 0 0
789 1 1 0.5897 6.630601505787849 22.27434196679215 13.666120649293235 0 0 0
765 1 1 0.5897 6.038879560034264 18.364062770227484 13.716642179336805 0 0 0
787 1 2 -1.1794 7.433017874802769 22.741360813323404 13.899050673925503 0 0 0
503 1 1 0.5897 1.5690711003987108 18.38757304848769 13.571170007809283 0 0 0
764 1 1 0.5897 4.525528551352229 18.330599818473715 13.692653125426048 0 0 0
474 1 1 0.5897 5.26950745165184 18.70008062309475 15.832053894774916 0 0 0