LAMMPS (30 Jul 2021)
  using 1 OpenMP thread(s) per MPI task
package omp 0
using multi-threaded neighbor list subroutines
echo both

include		in.partitions
variable        pid world 0
include		in.temp
variable        temperature equal 244.95
variable	tempDamp equal 100.0
include		in.pressure
variable        pressure equal 3125.0
variable        pressureDamp equal 1000.0 # This is 1 ps
include		in.seed
variable        seed world 745823

units		real
atom_style	full
read_restart	restart.lmp.${pid}
read_restart	restart.lmp.0
Reading restart file ...
  restart file = 30 Jul 2021, LAMMPS = 30 Jul 2021
  restoring atom style full from restart
  orthogonal box = (0.34609993 1.4991913 0.42224111) to (17.861472 22.129987 21.790955)
  4 by 4 by 4 MPI processor grid
  restoring pair style lj/cut/tip4p/long/omp from restart
  restoring bond style harmonic/omp from restart
  restoring angle style harmonic/omp from restart
  864 atoms
  576 bonds
  288 angles
Finding 1-2 1-3 1-4 neighbors ...
  special bond factors lj:    0        0        0       
  special bond factors coul:  0        0        0       
     2 = max # of 1-2 neighbors
     1 = max # of 1-3 neighbors
     1 = max # of 1-4 neighbors
     2 = max # of special neighbors
  special bonds CPU = 0.678 seconds
  read_restart CPU = 0.941 seconds
include 	in.setup
variable	out_freq equal 1000
variable	out_freq2 equal 10000
variable	out_freq3 equal 1000

timestep	2.0

neigh_modify    delay 7 every 1

include		in.tip4p
# This is TIP4P/Ice

# create groups ###
group ox type 2
288 atoms in group ox
group hy type 1
576 atoms in group hy

# set charges - beside manually ###
set group ox charge -1.1794
Setting atom values ...
  288 settings made for charge
set group hy charge 0.5897
Setting atom values ...
  576 settings made for charge

# ### TIP3P Potential Parameters ###
pair_style lj/cut/tip4p/long/omp 2 1 1 1 0.1577 8.5
pair_coeff 1 1*2 0.000 0.000
pair_coeff 2 2 0.21084 3.1668
bond_style  harmonic
bond_coeff  1 450 0.9572
angle_style harmonic
angle_coeff 1 55 104.52
kspace_style pppm/tip4p/omp 1.0e-5
pair_modify tail yes

thermo          ${out_freq}
thermo          1000
thermo_style    custom step temp pe etotal epair emol press lx ly lz vol pxx pyy pzz pxy pxz pyz enthalpy

restart 	${out_freq3} restart.lmp.${pid} restart2.lmp.${pid}
restart 	1000 restart.lmp.${pid} restart2.lmp.${pid}
restart 	1000 restart.lmp.0 restart2.lmp.${pid}
restart 	1000 restart.lmp.0 restart2.lmp.0


include         in.dump
dump            myDump all atom ${out_freq2} dump.water.${pid}
dump            myDump all atom 10000 dump.water.${pid}
dump            myDump all atom 10000 dump.water.0
dump            myDump2 all dcd ${out_freq2} dump.dcd
dump            myDump2 all dcd 10000 dump.dcd
dump_modify     myDump append yes
dump_modify     myDump2 append yes


variable natoms 	equal  "count(all)"                        # NUMBER ATOMS
variable H      	equal  "enthalpy/v_natoms"                 # ENTHALPY-per-atom
variable Vol      	equal  "vol/v_natoms"                 # volume-per-atom
fix AVG all 		ave/time ${out_freq} 1 ${out_freq} v_Vol v_H file vol_enthalpy.dat
fix AVG all 		ave/time 1000 1 ${out_freq} v_Vol v_H file vol_enthalpy.dat
fix AVG all 		ave/time 1000 1 1000 v_Vol v_H file vol_enthalpy.dat


timer           timeout 23:50:00 every 1000
New timer settings: style=normal  mode=nosync  timeout=23:50:00

fix 		1 all shake 1e-6 200 0 b 1 a 1
       0 = # of size 2 clusters
       0 = # of size 3 clusters
       0 = # of size 4 clusters
     288 = # of frozen angles
  find clusters CPU = 0.284 seconds
fix             2 all nph iso ${pressure} ${pressure} ${pressureDamp}
fix             2 all nph iso 3125 ${pressure} ${pressureDamp}
fix             2 all nph iso 3125 3125 ${pressureDamp}
fix             2 all nph iso 3125 3125 1000
fix             3 all temp/csvr ${temperature} ${temperature} ${tempDamp} ${seed}
fix             3 all temp/csvr 244.95 ${temperature} ${tempDamp} ${seed}
fix             3 all temp/csvr 244.95 244.95 ${tempDamp} ${seed}
fix             3 all temp/csvr 244.95 244.95 100 ${seed}
fix             3 all temp/csvr 244.95 244.95 100 745823

run             250000
PPPM initialization ...
  extracting TIP4P info from pair style
  using 12-bit tables for long-range coulomb (../kspace.cpp:340)
  G vector (1/distance) = 0.37323909
  grid = 24 24 25
  stencil order = 5
  estimated absolute RMS force accuracy = 0.003187197
  estimated relative force accuracy = 9.598149e-06
  using double precision FFTW3
  3d grid and FFT values/proc = 2730 288
Last active /omp style is kspace_style pppm/tip4p/omp
Neighbor list info ...
  update every 1 steps, delay 7 steps, check yes
  max neighbors/atom: 2000, page size: 100000
  master list distance cutoff = 10.8154
  ghost atom cutoff = 10.8154
  binsize = 5.4077, bins = 4 4 4
  1 neighbor lists, perpetual/occasional/extra = 1 0 0
  (1) pair lj/cut/tip4p/long/omp, perpetual
      attributes: half, newton on, omp
      pair build: half/bin/newton/omp
      stencil: half/bin/3d
      bin: standard
Per MPI rank memory allocation (min/avg/max) = 9.235 | 9.241 | 9.250 Mbytes
Step Temp PotEng TotEng E_pair E_mol Press Lx Ly Lz Volume Pxx Pyy Pzz Pxy Pxz Pyz Enthalpy 
 8750000    249.93398   -3915.7973    -3487.419   -3915.7973            0     4097.582    17.515373    20.630795    21.368714    7721.7142    3847.5244    4045.2596    4399.9621    32.727685    1125.2132   -696.77804   -3025.9769 
 8751000    256.07074   -3946.9112   -3508.0148   -3946.9112            0     3417.247    17.369502    20.458979    21.190752    7530.3936    3318.6439    4062.3296    2870.7675    532.14921    1378.5935   -982.99511   -3132.7222 
 8752000    236.60245   -3918.6046   -3513.0761   -3918.6046            0    2529.2501    17.448056    20.551506    21.286588    7633.0261    2297.9101    1848.3298    3441.5105    2068.9664   -931.48283    582.46749   -3231.5203 
 8753000    252.24524   -3934.7918   -3502.4521   -3934.7918            0    3238.6791    17.485016     20.59504    21.331679     7681.636    1688.9199    5330.3125    2696.8048    1475.3101   -664.23009    22.944954   -3139.6268 
 8754000    234.37315   -3958.9354   -3557.2278   -3958.9354            0    638.55822    17.433546    20.534414    21.268885    7613.9984    1130.3175    1640.8778   -855.52061    318.52015   -52.743285    193.69499   -3486.3208 
 8755000    236.57515   -3908.5948   -3503.1131   -3908.5948            0    3418.1848    17.448913    20.552515    21.287634    7634.1511    3781.3878    2478.9927    3994.1739   -1100.0009    316.51363   -562.37061   -3122.5451 
 8756000    238.73227   -3897.0473   -3487.8684   -3897.0473            0    3439.7544    17.425519     20.52496    21.259093    7603.4863    3942.9971    3382.8252    2993.4411   -2026.1658   -597.64748   -1082.1762   -3106.4373 
 8757000    252.19711   -3942.7639   -3510.5067   -3942.7639            0    3023.6023    17.431745    20.532293    21.266689    7611.6394     2906.301    3734.6925    2429.8133    1190.6862    -156.0556   -446.31721   -3174.8628 
 8758000    258.98239   -3935.9883   -3492.1013   -3935.9883            0    5594.2294    17.410825    20.507652    21.241166    7584.2676    4942.9379    6639.5326    5200.2176   -122.39615   -958.85718   -990.44962   -2873.3305 
 8759000    259.23448   -3908.4626   -3464.1435   -3908.4626            0     4218.724    17.408881    20.505362    21.238794    7581.7271    5489.5089    3995.1378    3171.5253    969.88123   -847.86001    440.74806    -2997.672 
 8760000    247.33099   -3931.8489   -3507.9321   -3931.8489            0    3381.9672    17.506902    20.620818     21.35838     7710.517     3708.462    3687.3984    2750.0413    126.75027     788.6102   -390.37218   -3127.6299 
 8761000    248.25569   -3938.8292   -3513.3274   -3938.8292            0    3167.6133    17.496416    20.608467    21.345587    7696.6706     2462.883    5237.4185    1802.5383    501.96276    405.75099   -1223.0359    -3157.769 
 8762000    271.25439   -3910.5765   -3445.6557   -3910.5765            0    3683.6375    17.436352     20.53772    21.272309    7617.6759    4348.9018    4280.8293    2421.1815    -1249.639    361.80745   -472.12401   -3036.4184 
 8763000    250.52684   -3886.5768   -3457.1823   -3886.5768            0    2989.3175    17.458552    20.563868    21.299393    7646.8094    1890.8729    2421.0726    4656.0068   -71.897105   -681.94685   -324.33446    -3123.811 
 8764000    244.00274   -3934.9254    -3516.713   -3934.9254            0    1724.2732    17.533114    20.651692    21.390358    7745.2016    2514.6145   -21.659681    2679.8647    258.84143   -783.84465    229.66872   -3321.9463 
 8765000    242.59955   -3901.8643    -3486.057   -3901.8643            0    4411.3101    17.444874    20.547758    21.282706    7628.8508     5335.646    3191.6982    4706.5862    285.27393   -1097.7819   -437.73053   -2995.2592 
 8766000    249.39241   -3907.5071    -3480.057   -3907.5071            0    3572.5217    17.436616     20.53803    21.272631    7618.0215    2628.2447    4174.7168    3914.6035    529.65286    534.10403    398.89619   -3083.1462 
 8767000    252.24142   -3935.6757   -3503.3425   -3935.6757            0    3118.2302    17.374859    20.465289    21.197287    7537.3634    1513.4142    3924.1791    3917.0974    660.35536    327.06753   -1092.7352   -3160.5719 
 8768000    240.44608   -3936.1739   -3524.0575   -3936.1739            0    2009.7707    17.381866    20.473542    21.205835    7546.4856    1633.4039    1915.8273    2480.0809    188.71816    807.44563   -1018.6904   -3302.8667 
 8769000    245.14016    -3912.607   -3492.4452    -3912.607            0    3461.3586    17.322073    20.403114    21.132889    7468.8752    2874.5934    3857.2953    3652.1872   -542.73246   -250.21789   -586.35707   -3115.4136 
 8770000    240.89492   -3928.6238   -3515.7382   -3928.6238            0    3228.1264    17.415699    20.513393    21.247112    7590.6391    2007.7694    5238.3721    2438.2376   -76.656225    845.13028    388.80004   -3158.3792 
 8771000    235.41799   -3919.2402   -3515.7419   -3919.2402            0    2451.9349    17.331408     20.41411    21.144278     7480.957    1615.4283    2417.0788    3323.2977    1316.6833   -2256.0673   -512.90848   -3248.2306 
 8772000    258.18723   -3937.7539   -3495.2298   -3937.7539            0    4578.9245    17.356245    20.443364    21.174578    7513.1644    2591.9887    5304.3231    5840.4616   -1291.1312    683.59129   -1611.4493   -2993.5088 
 8773000    232.52404   -3936.7911   -3538.2528   -3936.7911            0    3572.0119    17.432064    20.532669    21.267078    7612.0573    3559.3075    2707.5634    4449.1649    821.73195    -131.0601    157.46524   -3141.7093 
 8774000    259.81296   -3906.1531   -3460.8425   -3906.1531            0     2228.538    17.477867    20.586618    21.322957    7672.2167    2947.9031    668.61326    3069.0976    474.31504    -126.1607    503.67281   -3211.4883 
 8775000     242.0458   -3934.4287   -3519.5705   -3934.4287            0    3829.7189    17.433289    20.534111    21.268571    7613.6612    2999.3487    4187.8747    4301.9333    1240.4254    64.266752   -1273.2093   -3094.3283 
 8776000    251.30465    -3936.468   -3505.7404    -3936.468            0    3261.0234     17.54495    20.665634    21.404798    7760.8984    3354.2713    1848.8737    4579.9253    567.78524    1738.9848   -27.256128   -3136.6423 
 8777000    258.05753   -3956.3034   -3514.0017   -3956.3034            0    2815.3145    17.491771    20.602995    21.339919    7690.5414    3271.7116     1141.227    4033.0049    109.63834    733.17136    218.47517   -3198.2398 
 8778000    253.64904   -3975.1631   -3540.4173   -3975.1631            0    3869.1267    17.383945    20.475991    21.208372     7549.194    2636.1734    3654.1165    5317.0902    235.70321   -376.46024   -642.58023   -3114.4371 
 8779000    236.68837   -3968.9885   -3563.3127   -3968.9885            0    2648.4198    17.470087    20.577455    21.313466    7661.9766    3890.3745    2783.9351      1270.95    1454.3481    1187.6527   -864.94521   -3267.3728 
 8780000    244.66351   -3918.7206   -3499.3757   -3918.7206            0    4152.5123    17.456377    20.561306    21.296739    7643.9512    3156.4999    4747.0577    4553.9794     1109.935   -233.35845   -662.42132    -3036.457 
 8781000    238.48491   -3896.5403   -3487.7853   -3896.5403            0    2858.9568    17.501438    20.614383    21.351714    7703.3003    4547.7327    3053.7976    975.33999   -442.88218   -1819.6793    450.59439   -3166.5966 
 8782000    250.46583   -3944.9284   -3515.6385   -3944.9284            0    4789.3782    17.519249    20.635361    21.373443    7726.8421    4089.0795    3676.5802     6602.475    430.36759   -1321.5554    192.67794   -2975.9328 
 8783000    242.33395    -3936.855   -3521.5029    -3936.855            0    3604.3849     17.54233    20.662548    21.401602    7757.4224    3588.8554    4846.4542    2377.8451    463.62962    133.48431     -417.639   -3113.7243 
 8784000    249.19527   -3999.0679   -3571.9558   -3999.0679            0    2709.7155    17.470917    20.578433    21.314478    7663.0683    2912.6119    3390.5723    1825.9622    316.72191   -279.74488   -807.56626   -3269.1234 
 8785000    245.40022   -3993.4724   -3572.8648   -3993.4724            0    5401.9327    17.391733    20.485164    21.217873    7559.3447    6087.6294    5593.8546    4524.3143    474.94698     -1568.35   -63.758771   -2977.3272 
 8786000    237.00708   -3970.2756   -3564.0536   -3970.2756            0    2585.2218    17.471109    20.578658    21.314712    7663.3204    2461.5882    2176.9014    3117.1758   -1418.9888    -964.6151   -1834.3705   -3275.1249 
 8787000    244.10932    -3933.348   -3514.9529    -3933.348            0    4125.3087    17.390417    20.483614    21.216268    7557.6287    5058.3583    4894.2713    2423.2966   -483.33448   -775.43535   -1180.8421   -3060.2603 
 8788000    240.31445   -3937.5457    -3525.655   -3937.5457            0    2510.8057    17.479059    20.588023    21.324411    7673.7872    2470.8498    1988.1317    3073.4356    484.48913   -146.48126   -283.50798   -3244.6599 
 8789000    246.17593   -3943.3869   -3521.4498   -3943.3869            0    3839.7808    17.433974    20.534919    21.269408    7614.5593    2654.9935     3088.829      5775.52    708.91844    612.23398   -727.59171   -3095.0401 
 8790000    239.46718   -3937.7246    -3527.286   -3937.7246            0    3365.8579    17.438651    20.540427    21.275113    7620.6889    2873.0593    3092.0128    4132.5016   -1140.2975    1386.1825   -1663.8581   -3153.2048 
 8791000    241.07175   -3946.2113   -3533.0226   -3946.2113            0    3990.7313    17.428979    20.529035    21.263314    7608.0162    4831.4805    2641.7557    4498.9577    421.01978   -1618.3365   -317.71978   -3090.2305 
 8792000    249.13594    -3953.824   -3526.8135    -3953.824            0    3182.7065    17.447639    20.551014    21.286079    7632.4782    3270.8083    4346.7691    1930.5421   -154.63936    426.60612   -98.399205   -3172.5405 
 8793000    248.04216   -3941.7164   -3516.5806   -3941.7164            0    2006.4063    17.526838      20.6443    21.382701    7736.8875    886.71671    2201.3159    2931.1863    177.07718   -661.06574   -722.09703   -3290.1887 
 8794000    248.66801   -3949.3948   -3523.1864   -3949.3948            0    4644.2549      17.4325    20.533182    21.267609    7612.6275    6712.9078    4099.6596    3120.1972    506.82315    593.54709    1033.6577   -3007.5702 
 8795000    231.22323   -3983.5936   -3587.2849   -3983.5936            0    1686.3318    17.566777    20.691343    21.431427    7789.8995    531.98978    2307.3225     2219.683   -396.97156   -38.161171   -563.01272   -3395.7047 
 8796000    246.93764   -3955.8004   -3532.5577   -3955.8004            0    2910.1374    17.584639    20.712382    21.453218    7813.6856    2166.0506     2817.759    3746.6026    602.91049    68.733039    869.73115   -3200.9342 
 8797000    241.96309   -3978.5623   -3563.8458   -3978.5623            0    3181.9166    17.615418    20.748636    21.490769    7854.7883    3451.4852    1976.4664    4117.7983   -934.16602    682.69629    21.458336   -3199.3444 
 8798000    243.30458   -3942.6564   -3525.6407   -3942.6564            0    4408.2852    17.522841    20.639592    21.377825     7731.596    4368.9156    3786.6856    5069.2542   -1748.9601    445.33214   -1059.4811   -3028.5739 
 8799000    258.44518   -3952.2848   -3509.3186   -3952.2848            0    3815.0877    17.553743     20.67599    21.415525    7772.5722    5090.9544    3941.9257    2412.3831   -229.78846    879.50437   -1498.1508   -3076.8594 
 8800000    241.39578   -3925.4181    -3511.674   -3925.4181            0    3743.8897    17.500849    20.613689    21.350995    7702.5223    1670.0482    4983.4766    4578.1443   -1220.4522    -140.6973   -1382.8746   -3091.1102 
 8801000    245.13625   -3910.5672    -3490.412   -3910.5672            0    1741.0912    17.553153    20.675295    21.414805    7771.7886    1895.1809    1573.4759    1754.6169   -691.04376    99.343555   -105.46669   -3293.0705 
 8802000     246.6261   -3948.0043   -3525.2956   -3948.0043            0    2611.6713    17.528021    20.645694    21.384145    7738.4553    1676.5518    2803.3227    3355.1394   -242.81319      19.0543      480.172   -3230.5491 
 8803000    243.99774   -3924.4261   -3506.2224   -3924.4261            0    3409.9104    17.395737     20.48988    21.222759    7564.5673    4052.7829    1976.3965    4200.5518   -923.71652    571.44831   -364.13635   -3130.0361 
 8804000    250.11069   -3924.4888   -3495.8076   -3924.4888            0     1634.197    17.546088    20.666974    21.406186    7762.4083    965.34128    2254.0793    1683.1703   -1156.3735    1048.5666   -670.99937   -3310.8055 
 8805000     247.0384    -3928.075   -3504.6596    -3928.075            0    3910.2933    17.531479    20.649766    21.388363    7743.0351      4994.57    2843.9401    3892.3699     201.8674   -377.71462   -769.57712   -3063.0928 
 8806000    258.68609   -3924.4496   -3481.0705   -3924.4496            0    3637.8206    17.457531    20.562666    21.298148    7645.4682     3234.793    3960.9797     3717.689   -140.66929     960.6714   -699.07186   -3075.4487 
 8807000    256.88419    -3959.951   -3519.6603    -3959.951            0    1828.9515    17.509618    20.624017    21.361693    7714.1063     2900.082    1079.8991    1506.8735      1204.91   -371.29679   -611.03247    -3313.899 
 8808000    244.75069   -3928.9428   -3509.4485   -3928.9428            0    2712.4632    17.501759     20.61476    21.352105    7703.7236     4326.736    2004.1606     1806.493    1066.6494   -539.95327    523.48311   -3204.7008 
 8809000    249.95792   -3935.8711   -3507.4518   -3935.8711            0    2784.2582    17.534446    20.653261    21.391983     7746.967    3393.5158    2794.3141    2164.9448     729.3295    174.99592    170.95561   -3192.8819 
 8810000     243.1031    -3972.242   -3555.5716    -3972.242            0    2935.6517    17.542357     20.66258    21.401635    7757.4582    5067.9976    1581.1706    2157.7868   -1089.9826   -36.415842   -233.64303   -3223.4479 
 8811000    234.48032   -3915.6804   -3513.7891   -3915.6804            0    919.04799    17.555003    20.677475    21.417063    7774.2466    436.66439    1.9708465    2318.5087    10.531357    -297.4365   -175.81494    -3409.588 
 8812000     246.0742   -3893.8553   -3472.0925   -3893.8553            0    3467.1226    17.446761     20.54998    21.285008    7631.3263    3880.7349    2819.8785    3700.7542    1007.3024    1016.4421   -1954.4301   -3086.2189 
 8813000     234.6693   -3869.3454   -3467.1302   -3869.3454            0     4194.609    17.424214    20.523423      21.2575    7601.7779    3098.4967    3198.0681    6287.2623   -10.948772   -513.64476   -1131.0276   -3002.0985 
 8814000    245.08035   -3919.2426   -3499.1833   -3919.2426            0    2424.7219    17.433249    20.534065    21.268523    7613.6095    3671.6361    2238.6268    1363.9029   -318.51335   -1296.7869    779.90679   -3229.9502 
 8815000    233.80713   -3931.8019   -3531.0644   -3931.8019            0      425.833    17.548409    20.669707    21.409017    7765.4889     333.3368   -144.32001    1088.4822    631.41195   -343.06306   -898.61207   -3482.8381 
 8816000     259.5326   -3933.2749   -3488.4449   -3933.2749            0    623.63559    17.560931    20.684457    21.424295    7782.1252    385.69228    1372.9978    112.21669   -1779.0694   -499.85237   -665.30055   -3417.6658 
 8817000    233.56184   -3920.8847   -3520.5677   -3920.8847            0    2906.6002    17.496964    20.609113    21.346256    7697.3939    5019.6819    666.45983    3033.6591    609.09162    1080.8837   -18.775202   -3194.2768 
 8818000    241.11858   -3905.0873   -3491.8183   -3905.0873            0    2827.3461    17.458657    20.563992    21.299521    7646.9474    4173.9161    1102.0258    3206.0964   -1528.1537   -1027.5404    572.90644   -3176.5045 
 8819000    235.08216   -3944.3019   -3541.3791   -3944.3019            0    3832.9558    17.530577    20.648704    21.387263    7741.8407    4353.0148    4046.6628    3099.1897    522.45723   -373.39049   -751.89475   -3108.6123 
 8820000    244.61302   -3933.7749   -3514.5166   -3933.7749            0    3418.9261    17.542744    20.663035    21.402107    7757.9714    3615.2493    3634.1992    3007.3297    421.62066    387.39358    83.053921   -3127.6923 
 8821000    253.07427   -3939.0002   -3505.2395   -3939.0002            0    3090.9101    17.454667    20.559292    21.294653    7641.7055    4629.8835    1520.5663    3122.2804   -324.83094    726.73053   -702.19571   -3160.7686 
 8822000    265.49434   -3899.5054   -3444.4572   -3899.5054            0     2749.892    17.504912    20.618474    21.355952    7707.8878    2134.1766    3998.8686    2116.6307    946.15236    66.989859    1040.1905   -3135.3373 
 8823000    245.06638   -3963.9504    -3543.915   -3963.9504            0    4666.7359    17.475733    20.584105    21.320353    7669.4068    3808.6296    4774.8413    5416.7366    1085.9075    1527.4182   -166.91398   -3021.9386 
 8824000    253.10971   -3968.4146   -3534.5933   -3968.4146            0    3426.9693    17.522279     20.63893    21.377139    7730.8519    2694.2246    3804.2496    3782.4336    814.86919   -913.82727    454.88222   -3148.2143 
 8825000    233.52108   -3928.1682   -3527.9211   -3928.1682            0    4317.3471    17.547917    20.669129    21.408418    7764.8365    3985.3775     5274.651    3692.0128   -137.27709     314.8225    1282.7712   -3039.0153 
 8826000    235.35228   -3930.8245   -3527.4387   -3930.8245            0    3373.7286    17.542722     20.66301     21.40208    7757.9426    2732.4787    4131.3354    3257.3718    -1132.912    533.35204   -1254.5411   -3145.7296 
 8827000    240.41511   -3959.4396   -3547.3763   -3959.4396            0    3354.9262    17.574212      20.7001    21.440497    7799.7946    5299.7139    3328.2539    1436.8107   -1719.1784   -319.78484    1037.8907   -3165.7467 
 8828000    254.72842   -3923.9013   -3487.3055   -3923.9013            0    3297.0545    17.631125    20.767136    21.509931    7875.8175    4940.2514    2246.2344    2704.6776    617.35092    1158.8824   -410.14689   -3108.6035 
 8829000     243.4751   -3940.0383   -3522.7303   -3940.0383            0    3508.8907    17.544169    20.664714    21.403845    7759.8618    2697.2435     4528.904    3300.5244   -1360.3633   -1598.6305    968.76404   -3125.6305 
 8830000    249.88895   -3928.3187   -3500.0176   -3928.3187            0    2385.5355    17.631444    20.767512     21.51032     7876.245    2917.5344    267.74336    3971.3288    382.83127    260.06143      1135.04   -3225.9984 
 8831000    235.31731   -3933.8989   -3530.5731   -3933.8989            0    4604.6267    17.541078    20.661073    21.400075    7755.7617    4765.8348    4237.8771    4810.1683   -72.735283   -291.84245     2874.126   -3009.7446 
 8832000    233.77823   -3944.9093   -3544.2214   -3944.9093            0    2490.1395    17.523144    20.639949    21.378195    7731.9974    2441.8201    2569.0149    2459.5833   -506.24448     862.5997    355.56843   -3263.4252 
 8833000    236.33806   -3958.8627   -3553.7874   -3958.8627            0    3115.2772    17.531569    20.649872    21.388473    7743.1542    2830.6012    2577.0557    3938.1746   -1179.2523    1064.7449    1366.5762   -3201.9917 
 8834000    237.01989   -3894.2772   -3488.0332   -3894.2772            0     2056.268    17.568402    20.693257    21.433409    7792.0615    994.51541    2474.2677     2700.021   -160.84132    584.98349   -1252.6437   -3254.3605 
 8835000    238.55319    -3964.403    -3555.531    -3964.403            0    3334.0648    17.577735     20.70425    21.444796    7804.4865    1742.8623    3222.2814    5037.0508    750.00532 -0.011195185   -922.47055   -3176.0463 
 8836000       242.41   -3948.1332   -3532.6507   -3948.1332            0    3020.5716    17.481304    20.590667     21.32715    7676.7436    4092.0381    3954.8635    1014.8133   -275.77838    162.04027    330.40016   -3194.4753 
 8837000    240.30126   -3969.5191    -3557.651   -3969.5191            0    2544.5874    17.485559    20.595679    21.332341    7682.3515    2799.4215    1696.6758    3137.6649   -1642.9438    216.90734   -115.87983   -3272.5574 
 8838000    250.05194   -3935.6724    -3507.092   -3935.6724            0     2451.365    17.489447    20.600258    21.337084    7687.4768    249.71734    4127.6769    2976.7008    334.42039   -478.06593   -1485.9032   -3232.2597 
 8839000    225.73774   -3970.6065   -3583.6997   -3970.6065            0    2957.9628    17.457647    20.562802    21.298288    7645.6196     3008.608    4590.4683    1274.8122    1783.7329     607.3168   -858.01478   -3253.8764 
 8840000    256.42713   -3974.5989   -3535.0916   -3974.5989            0    3685.6142    17.435656      20.5369     21.27146     7616.764    3221.1525    3468.1935    4367.4967   -487.52739   -27.300723    212.48802   -3125.6836 
 8841000    231.38153   -3962.3559   -3565.7759   -3962.3559            0     2006.446    17.483778    20.593581    21.330168    7680.0041    3052.9012    742.03414    2224.4025   -405.34788   -116.30445    853.95671    -3341.044 
 8842000    257.27763   -3960.7354   -3519.7704   -3960.7354            0    3574.9461    17.403935    20.499536     21.23276    7575.2669    4447.5086    1584.0364    4693.2935   -468.26567    607.77465    888.71906   -3124.8193 
 8843000    240.10756   -3963.6471   -3552.1109   -3963.6471            0    3563.8197     17.48949    20.600309    21.337136     7687.533    3992.1943    2986.7141    3712.5506   -1094.6686   -689.10578   -130.26752    -3152.554 
 8844000    248.54354   -3964.4947   -3538.4996   -3964.4947            0    2149.5002    17.462781     20.56885    21.304552    7652.3677    2049.2352    2185.5407    2213.7248    261.67771    668.00709    601.82233   -3298.6112 
 8845000    240.32195   -3961.3685   -3549.4649   -3961.3685            0    3880.0167    17.411038    20.507903    21.241426    7584.5459    3664.2333    5221.2481    2754.5688   -83.659431   -990.85268   -1594.3913   -3120.2853 
 8846000    256.66059   -3939.9847   -3500.0772   -3939.9847            0    3952.9095    17.420909    20.519529    21.253468    7597.4526    4130.2314    5450.5913    2277.9059   -871.27837   -199.12245    143.16509   -3062.0907 
 8847000    246.53839   -3940.3543    -3517.796   -3940.3543            0    3716.5502    17.405896    20.501846    21.235152     7577.828    3463.8949    2459.1469    5226.6087   -1589.6447    281.10978    362.61352    -3107.062 
 8848000    244.79266   -3978.6879   -3559.1216   -3978.6879            0     5277.257    17.379803    20.471112    21.203318    7543.7989      4234.61    4926.3832    6670.7778    -2161.549   -1240.3487    707.78508   -2978.5254 
 8849000    239.70597   -3918.9797   -3508.1319   -3918.9797            0    3311.3817    17.397211    20.491617    21.224557    7566.4908    4617.1261    1807.3008    3509.7181   -238.16347   -357.88746    237.92452   -3142.7226 
 8850000    238.67616   -3949.5338   -3540.4511   -3949.5338            0    3321.6147    17.428583    20.528569    21.262831    7607.4977    2615.8021    3358.8944    3990.1474    31.924115    861.63462   -2125.4258   -3171.9261 
 8851000    242.26787   -3992.2045   -3576.9657   -3992.2045            0    4070.8351    17.442681    20.545174     21.28003    7625.9735    5200.2155    3124.9872    3887.3027    724.08471   -1870.2625   -90.856692   -3124.2196 
 8852000    248.38169    -3941.502   -3515.7843    -3941.502            0    3863.0068    17.452963    20.557285    21.292574    7639.4673    4186.9891    4395.0973     3006.934    442.08298   -392.12725   -658.52876   -3085.3921 
 8853000    246.57669   -3941.3312   -3518.7072   -3941.3312            0    1774.9657    17.509312    20.623657     21.36132     7713.702    2964.7159    1259.7301    1100.4511   -352.31177    866.97214    775.78837   -3319.0298 
 8854000    243.84883   -3953.2647   -3535.3162   -3953.2647            0    2839.1441    17.432093    20.532703    21.267113    7612.0947    4108.3146    2230.1522    2178.9656   -1154.0302   -740.46247    330.78094   -3220.1297 
 8855000    265.39699   -3959.8225   -3504.9411   -3959.8225            0    3138.0602    17.410019    20.506702    21.240182    7583.2138    3444.0973    3767.6172    2202.4661   -1856.0784    1135.0423   -1944.5657   -3157.8924 
 8856000    237.76385   -3950.5807   -3543.0616   -3950.5807            0    3131.3077    17.487289    20.597717    21.334452    7684.6321    4022.3918    1773.7415    3597.7898   -1069.8173   -1114.9635    616.88698   -3192.1282 
 8857000    227.32215   -3908.8731   -3519.2507   -3908.8731            0    3758.6164    17.416326    20.514131    21.247877    7591.4584     6106.785    2556.8979    2612.1664    1614.2967    331.98393    -178.0989   -3103.1206 
 8858000    243.03748   -3927.3119    -3510.754   -3927.3119            0    3424.7792    17.446267    20.549399    21.284405    7630.6786    4235.8642    2518.8472    3519.6263    24.016279    479.83587   -360.63057   -3129.6253 
 8859000    238.69327   -3941.9183   -3532.8062   -3941.9183            0    2443.8743    17.443463    20.546095    21.280984     7626.999    2447.3796    2320.5386    2563.7047    376.12005   -564.14539    1952.9581   -3260.9693 
 8860000    236.73274   -3916.3476   -3510.5957   -3916.3476            0    3822.4276    17.376006     20.46664    21.198687    7538.8562    3005.7217    4167.1026    4294.4584   -810.78483    817.92255    475.08752   -3090.3333 
 8861000    249.62346   -3924.4236   -3496.5775   -3924.4236            0    3635.2968     17.28832    20.363357     21.09171    7425.2994    2197.3885    4721.4029    3987.0991   -737.11665    353.31591       153.18   -3102.9099 
 8862000    238.48169   -3921.3678   -3512.6184   -3921.3678            0    3263.5687    17.435021    20.536152    21.270685    7615.9312    3672.9992    2779.3931    3338.3137   -49.422049    291.79806    427.80652    -3150.132 
 8863000    236.86766   -3939.7293   -3533.7462   -3939.7293            0    3009.0794    17.432948     20.53371    21.268156    7613.2149    2671.3015    2949.8889    3406.0479   -694.15047    392.90104    259.92623   -3199.6453 
 8864000    256.38705   -3928.6754   -3489.2368   -3928.6754            0     3180.833    17.481935    20.591411     21.32792    7677.5757    3469.3938    3327.0704    2746.0348    624.23535   -298.42098    -112.2784   -3133.0803 
 8865000    241.77272   -3914.3099   -3499.9197   -3914.3099            0    3735.9147    17.536048    20.655148    21.393937    7749.0906    4202.9378    4078.3369    2926.4695    436.52965   -2370.6075    957.53706   -3077.7145 
 8866000    243.72757   -3946.6661   -3528.9253   -3946.6661            0    2525.4276    17.571686    20.697125    21.437416    7796.4324    2081.5941    1805.0437    3689.6449   -622.83451   -2061.8588   -41.611821   -3241.7767 
 8867000    241.78489    -3960.207    -3545.796    -3960.207            0    4273.3315    17.560131    20.683515    21.423319    7781.0619    4026.4148    2810.8979    5982.6818   -670.43724   -601.60396   -97.003581   -3060.8634 
 8868000    237.70403   -3940.9222   -3533.5056   -3940.9222            0    3188.5446    17.555375    20.677913    21.417516    7774.7406    2091.4342    2940.3424    4533.8574   -643.74517    1120.7629    513.03717   -3171.9673 
 8869000     254.4729   -3945.7706   -3509.6128   -3945.7706            0    4121.3794    17.510639     20.62522    21.362939    7715.4554    4633.2771    2511.3592    5219.5019   -163.16444    626.72641    148.28579   -3045.8669 
 8870000    234.06156   -3925.5904   -3524.4169   -3925.5904            0    4495.4663    17.471126    20.578679    21.314733    7663.3434    4740.5841    3827.9182    4917.8967   -93.291233    1954.8476   -669.39235   -3021.9946 
 8871000    243.01644   -3937.8893   -3521.3675   -3937.8893            0    2810.6848    17.487109    20.597505    21.334232    7684.3945    3701.9751    2046.5318    2683.5475    1555.3632    908.17491   -328.74987   -3206.3768 
 8872000    262.71676   -3946.1882   -3495.9007   -3946.1882            0    2136.1053    17.555013    20.677486    21.417074    7774.2595    414.67196    3671.5881    2322.0558    617.50007    851.74172   -341.42284   -3253.7099 
 8873000     225.0293   -3939.1444   -3553.4519   -3939.1444            0    2595.2043     17.53343    20.652065    21.390744    7745.6212    4864.5983    1676.7395    1244.2752    390.62219   -1644.3558   -71.450777   -3260.2925 
 8874000     250.7641   -3912.1302   -3482.3292   -3912.1302            0    3969.6387    17.440515    20.542623    21.277387    7623.1329    5198.2232    2617.7793    4092.9137   -176.91901    1368.7042   -856.45133   -3041.0023 
 8875000    262.98282   -3910.1637   -3459.4201   -3910.1637            0    2415.1261    17.474807    20.583014    21.319224    7668.1879    1943.5272    3768.1092    1533.7419   -62.637405    1754.0773    366.48819   -3189.3301 
 8876000    245.85938   -3936.9364   -3515.5418   -3936.9364            0    3324.7555    17.495291    20.607142    21.344214    7695.1854    5106.0959    2482.9719    2385.1986    204.47591    1622.2767   -380.16862   -3142.4165 
 8877000    250.98873   -3946.0099   -3515.8238   -3946.0099            0    3280.4723    17.462225    20.568194    21.303874    7651.6363    1972.6482    4611.2078    3257.5607    285.22858   -1401.8462   -146.83803   -3149.7517 
 8878000     246.1285   -3942.0199   -3520.1641   -3942.0199            0    2926.1597    17.526153    20.643493    21.381865    7735.9803    2524.3019    2463.7623    3790.4148    40.080558   -191.67899    398.60458   -3190.0309 
 8879000    246.24093   -3895.9715    -3473.923   -3895.9715            0    3563.4345    17.443343    20.545954    21.280837    7626.8416    4125.6407    1992.0428    4572.6201    1609.0139    152.64407   -2173.3639   -3077.5634 
 8880000    228.72144   -3921.8503   -3529.8296   -3921.8503            0    1763.3324    17.428883    20.528921    21.263196    7607.8899    2123.0798    784.11055    2382.8067   -400.72532   -770.66062   -186.44815   -3334.1821 
 8881000    234.20405   -3943.0238    -3541.606   -3943.0238            0    3454.5404    17.361761    20.449862    21.181308    7520.3307    3112.5328    4562.0771    2689.0113   -782.61464   -962.27059   -295.53867   -3162.7248 
 8882000    249.70363    -3885.426   -3457.4425    -3885.426            0    2531.0133     17.51579    20.631287    21.369223    7722.2669    1678.9374    2963.8731    2950.2293   -113.22006    733.62139    845.67805   -3172.3964 
 8883000    245.48836   -3926.6163   -3505.8576   -3926.6163            0    3082.7359    17.523653    20.640549    21.378816    7732.6711    2563.6011     3003.919    3680.6876    1189.5184   -973.06962     222.5642    -3158.208 
 8884000    246.05951   -3986.7931   -3565.0555   -3986.7931            0    2405.8861    17.539237    20.658905    21.397829    7753.3201    2375.0828    561.52392    4281.0517     150.0384    1132.2818    190.29284   -3293.0118 
 8885000    230.67516   -3948.2953   -3552.9259   -3948.2953            0    2579.1233    17.537059    20.656339    21.395171    7750.4309    2489.9705    3853.4546     1393.945    201.84599   -1085.5229    683.09631   -3261.4022 
 8886000    239.85709   -3920.5626   -3509.4558   -3920.5626            0    4753.4129    17.437226    20.538749    21.273375    7618.8216    4449.0556    4699.3718    5111.8114   -2157.6193   -1358.5091    84.383416   -2981.2913 
 8887000    233.76699   -3928.3945   -3527.7259   -3928.3945            0    2431.2359    17.452586    20.556841    21.292115    7638.9729    1067.0372    2242.0174     3984.653   -258.19248    -431.9026   -292.71153   -3256.8702 
 8888000    256.27033   -3908.6161   -3469.3776   -3908.6161            0    5462.6472    17.416871    20.514773    21.248541    7592.1707    4858.4591    5539.1118    5990.3706    -1528.205   -142.89054    903.53946   -2864.5313 
 8889000    231.69587   -3941.0253   -3543.9065   -3941.0253            0    3293.4934    17.472523    20.580325    21.316438    7665.1822    3361.1858    3824.6522    2694.6423    414.29175    2184.2226     1257.387   -3175.7307 
 8890000    232.30059   -3886.0673   -3487.9121   -3886.0673            0    2353.8035    17.529408    20.647327    21.385836    7740.2913     2151.998    2619.1194    2290.2931    386.99625    564.97703   -491.65144   -3222.2048 
 8891000    241.50032   -3938.3155   -3524.3922   -3938.3155            0    4194.1165    17.425618    20.525076    21.259213    7603.6151    4833.8605    4665.0995    3083.3896   -456.93484   -867.20815    241.10638   -3059.3027 
 8892000    248.49175   -3944.7872   -3518.8809   -3944.7872            0     1627.809    17.429956    20.530186    21.264505    7609.2955    1931.6542    1586.7084    1365.0643   -340.88456    990.17394    -728.1281   -3338.2368 
 8893000    252.15387   -3936.7268   -3504.5437   -3936.7268            0    3773.2624    17.396611     20.49091    21.223825    7565.7079     3120.614    4281.3534    3917.8198   -181.18139   -788.21044   -111.91006   -3088.2092 
 8894000    231.73208   -3904.7726   -3507.5918   -3904.7726            0     2874.217    17.480263    20.589441     21.32588    7675.3727    1525.6637    3702.3383    3394.6489    516.61785    712.81939    553.61551   -3185.8593 
 8895000    259.36376   -3929.1641   -3484.6235   -3929.1641            0    2045.6099    17.488345    20.598961    21.335741    7686.0244    1929.7529    1738.4234    2468.6533    455.00467    1508.2547     180.3536   -3255.3254 
 8896000    238.42043   -3916.9729   -3508.3284   -3916.9729            0    2438.3844    17.509923    20.624376    21.362065    7714.5089    2651.6823    2576.6128     2086.858    830.53421    577.08337     1784.381   -3233.9902 
 8897000    232.21828   -3940.5623   -3542.5481   -3940.5623            0     4462.097    17.480226    20.589398    21.325835    7675.3245    4868.1662    4008.4142    4509.7105    -1215.646   -874.80595    192.27512   -3043.0756 
 8898000    237.35314   -3948.6806   -3541.8654   -3948.6806            0    3845.3826    17.456768    20.561767    21.297216    7644.4654    3629.5956    4732.3074    3174.2447    1600.8088    497.57582   -123.58257   -3113.1565 
 8899000    259.77578   -3922.6458    -3477.399   -3922.6458            0    2485.6135    17.569807    20.694912    21.435123    7793.9307    2321.9255     3365.858    1769.0571    216.50002   -295.51038    1223.2704    -3194.868 
 8900000    243.40822   -3954.6701   -3537.4768   -3954.6701            0    4062.2296    17.542584    20.662847    21.401912    7757.7591    3465.2223     4406.844    4314.6224    459.09845   -503.71349   -77.180686   -3077.8803 
 8901000    243.43605   -3914.8564   -3497.6154   -3914.8564            0    3262.2785    17.553065    20.675192    21.414698    7771.6721    3981.4897    3802.5906    2002.7552    781.36659   -1823.3163   -610.70617   -3127.8626 
 8902000    229.68153   -3951.1043    -3557.438   -3951.1043            0    1596.9479    17.571669    20.697105    21.437395    7796.4087    1307.6122    1813.0631    1670.1685   -477.06079   -548.01625    275.45653   -3375.8608 
 8903000    252.91328   -3964.8851   -3531.4004   -3964.8851            0    1674.6276    17.582673    20.710066     21.45082    7811.0658    1471.6387    1351.2411    2201.0031   -346.10142    103.53244   -573.59952   -3340.6329 
 8904000     244.9422   -3968.0453   -3548.2227   -3968.0453            0    1754.6498     17.58216    20.709462    21.450194    7810.3816    2133.2351    3591.0899   -460.37564    -1000.445   -240.78989   -903.15419   -3348.3569 
 8905000    242.56114   -3944.5268   -3528.7853   -3944.5268            0    5710.4407    17.415417    20.513061    21.246768    7590.2701    6178.9986    5057.2323    5895.0913   -434.82882   -1982.6188   -312.03678   -2896.6606 
 8906000    227.28899   -3948.4973   -3558.9317   -3948.4973            0    2158.1469    17.573701    20.699498    21.439874    7799.1138    1607.0424    2345.7358    2521.6625    189.95948   -881.81533   -1505.5191   -3313.4596 
 8907000    244.09746   -3955.8195   -3537.4448   -3955.8195            0    3103.0275    17.522312    20.638969     21.37718    7730.8961    3895.9614    3563.1689    1849.9522    1023.4604    727.51359    785.15278   -3187.5871 
 8908000    237.67588   -3937.8407   -3530.4724   -3937.8407            0    5005.4648    17.480199    20.589366    21.325802    7675.2888    4548.3933     5449.087    5018.9141    1169.6143   -1263.1207   -1047.5155   -2970.1796 
 8909000    243.51043   -3923.7348   -3506.3662   -3923.7348            0    1641.1776    17.577573    20.704059    21.444597      7804.27   -56.107286    3306.9521     1672.688    626.38316   -21.946821   -221.90706   -3319.5719 
 8910000    248.73117   -3883.4396   -3457.1228   -3883.4396            0    5390.2133     17.43452    20.535561    21.270073    7615.2742    4567.9312    6788.9632    4813.7455    186.13067    502.25198    653.02248   -2858.4806 
 8911000    236.55322   -3953.7906   -3548.3465   -3953.7906            0     2622.211    17.521725    20.638277    21.376463    7730.1184    1734.4291    4237.6982    1894.5057    -678.6459    -1065.112    937.00479   -3252.7293 
 8912000    233.85584   -3923.7363   -3522.9154   -3923.7363            0    447.59209    17.585818    20.713771    21.454657    7815.2583   -453.69807     342.6794    1453.7949    1378.7815    305.06044   -124.81838      -3471.9 
 8913000    245.29334   -3943.3245   -3522.9001   -3943.3245            0    2199.4438    17.590661    20.719475    21.460565    7821.7164    2798.4689    2295.9905     1503.872    -595.4174   -679.92211   -45.724529   -3272.0058 
 8914000    247.85484   -3949.0605   -3524.2458   -3949.0605            0    4141.9004    17.510912    20.625542    21.363272    7715.8166    4735.0497    4500.1089    3190.5425    1490.7046    49.818817   -1059.3841   -3058.1691 
 8915000    240.86347   -3914.8989   -3502.0672   -3914.8989            0    2842.3079       17.463    20.569107    21.304819    7652.6552    941.39648    4961.5338    2623.9934    957.38215    547.00807   -179.86337   -3184.8482 
 8916000    238.26278   -3898.9725   -3490.5983   -3898.9725            0    1561.1313    17.597947    20.728057    21.469454    7831.4396    1009.7417    723.41274    2950.2396     122.4787   -584.67796   -682.93412    -3312.296 
 8917000     228.8583   -3941.9692   -3549.7139   -3941.9692            0    2012.5798    17.568831    20.693762    21.433933    7792.6323    2465.9845    2226.3554    1345.3994   -249.76016   -130.78609   -86.563659   -3320.9891 
 8918000    262.58388   -3931.6122   -3481.5524   -3931.6122            0    2618.0279     17.54956    20.671064    21.410423     7767.018      2339.15    2865.3302    2649.6035   -425.05383    893.03826   -366.35762   -3184.9979 
 8919000    258.66395   -3922.4347   -3479.0935   -3922.4347            0    2180.0094    17.572098    20.697611    21.437919    7796.9805    2194.3318    1551.8703    2793.8261    412.00117   -324.00874     958.2279   -3231.2026 
 8920000    249.99627   -3921.8734   -3493.3883   -3921.8734            0    3317.3681    17.482756    20.592377    21.328922    7678.6573      4083.14    2322.1453     3546.819    226.27884   -890.07204    1217.1942   -3121.8917 
 8921000    250.02405    -3938.816   -3510.2833    -3938.816            0    2604.9267    17.541105    20.661105    21.400107    7755.7969    1687.8739    4115.3722    2011.5341   -426.54443    637.85617    358.33354   -3215.6392 
 8922000    243.75197   -3956.1843   -3538.4018   -3956.1843            0    3051.8086    17.526083    20.643411     21.38178     7735.888    2552.7874    3108.4942    3494.1442    842.16278    1934.1485    965.42303   -3194.0967 
 8923000    255.54338   -3977.0692   -3539.0766   -3977.0692            0    4342.1468    17.450718     20.55464    21.289835    7636.5195    4411.9893    4793.8103    3820.6407   -478.78336    821.52467   -407.50362   -3055.4882 
 8924000    234.74555   -3935.6669    -3533.321   -3935.6669            0    4619.7623    17.439116    20.540975    21.275681    7621.2991    4930.7739    3906.6174    5021.8955   -247.60052   -940.05314     49.60005   -3019.8399 
 8925000    253.57974   -3937.8967   -3503.2697   -3937.8967            0    3337.1991    17.493777    20.605359    21.342368    7693.1887    3665.0915     3186.877    3159.6289   -1640.4666   -1212.3958    1132.0908   -3128.8451 
 8926000    229.84611   -3918.0176   -3524.0692   -3918.0176            0    3358.4297    17.511188    20.625867    21.363609    7716.1814    2007.5275    6024.7073    2043.0545   -1420.2487    253.43628   -443.84983   -3146.1364 
 8927000    242.94498   -3925.1025   -3508.7031   -3925.1025            0    2952.8524    17.563194    20.687123    21.427056    7785.1343    2319.4067    4820.2072    1718.9432   -1564.4073    1006.6191    522.53824   -3173.4415 
 8928000    247.57761   -3929.4512   -3505.1116   -3929.4512            0    2131.6812     17.61325    20.746082    21.488124    7851.8878    1791.4088    230.12281    4373.5119    801.16183     70.19968  -0.53352499   -3261.0091 
 8929000    247.74704   -3952.2042   -3527.5743   -3952.2042            0    1649.2528    17.635521    20.772314    21.515295    7881.7105    1715.9335    311.04953    2920.7754    759.31055   -71.029597     248.6215   -3337.9982 
 8930000      237.897   -3945.5403    -3537.793   -3945.5403            0    2629.8353      17.5508    20.672524    21.411935    7768.6639    2195.4535    724.67758    4969.3749   -338.42218    207.14756    387.30017    -3239.838 
 8931000    255.51083   -3966.0732   -3528.1363   -3966.0732            0    1660.5286    17.574978    20.701002    21.441432     7800.814    1304.7638    2134.8035    1542.0184   -663.21039   -793.90584   -91.779584   -3339.2232 
 8932000     257.0316   -3925.1775   -3484.6342   -3925.1775            0    2660.7958    17.595981    20.725742    21.467056    7828.8157    3192.3763    3121.4644    1668.5468    1119.3469      291.465   -701.95633   -3180.8371 
 8933000    245.00943   -3959.1491   -3539.2113   -3959.1491            0    4404.8525    17.531302    20.649558    21.388147    7742.8011    4466.8566    3421.3765    5326.3243   -567.00921   -199.58348    604.02688   -3041.8118 
 8934000    237.90664   -3956.0902   -3548.3264   -3956.0902            0    1606.6134    17.595844     20.72558    21.466888    7828.6321    2731.5545    1424.2178     664.0678   -61.437662    330.74026    -847.0385   -3364.8952 
 8935000    234.08606    -3906.974   -3505.7585    -3906.974            0    4472.4689     17.52598    20.643289    21.381655    7735.7517    4310.7043    4788.5249    4318.1773   -722.48922    1408.1445   -1511.9472   -3001.1835 
 8936000    253.39155   -3946.0246   -3511.7202   -3946.0246            0    3325.0436    17.529178    20.647056    21.385556    7739.9872    3496.2279    1346.8513    5132.0517   -1234.0044   -549.33079    1137.7185     -3136.39 
 8937000    243.25113   -3945.1639   -3528.2398   -3945.1639            0    3575.1863    17.498804     20.61128      21.3485    7699.8222    3443.2774    2578.9057    4703.3757    113.17483   -1267.3529   -166.79849   -3126.7678 
 8938000    257.82185   -3920.9524   -3479.0546   -3920.9524            0    4069.5617    17.503418    20.616715    21.354129    7705.9146    3402.2127    5236.4893    3569.9832    927.10815   -1849.2135    81.215464   -3021.7056 
 8939000    231.61102   -3933.5235   -3536.5502   -3933.5235            0    3323.1613    17.492984    20.604425      21.3414    7692.1425    3684.5196    3549.0289    2735.9355    575.50561    254.36585    747.41495   -3163.7513 
 8940000    254.68244   -3896.4431   -3459.9261   -3896.4431            0    3721.1179    17.439899    20.541897    21.276636    7622.3252    1611.6225     4057.647     5494.084    2656.3068   -100.50538    640.41836   -3046.2725 
 8941000    233.55374    -3884.455   -3484.1519    -3884.455            0    2414.0557    17.521833    20.638405    21.376596    7730.2622    2346.9693    2642.0669     2253.131    450.00796    1521.4109    335.76796   -3211.9962 
 8942000    250.76616   -3896.8875   -3467.0829   -3896.8875            0    4737.1269    17.527304    20.644849     21.38327    7737.5054    4743.5326     5020.322     4447.526    1108.4383     166.5126    1270.8064   -2932.5286 
 8943000    239.86851   -3897.3662   -3486.2398   -3897.3662            0    3791.5634    17.501169    20.614065    21.351385    7702.9445    2447.9925    3828.4473    5098.2505    900.35689    465.67644   -304.04176   -3060.2973 
 8944000     258.3402    -3915.386   -3472.5997    -3915.386            0    1261.4524    17.563305    20.687253    21.427191    7785.2814     1107.148    750.87331    1926.3359   -455.03573   -280.71933   -2092.3061    -3329.374 
 8945000    242.53143   -3899.8911   -3484.2005   -3899.8911            0    2859.7577    17.436747    20.538185    21.272791    7618.1938    4106.9458    1523.7394     2948.588    552.80289    170.66479   -657.24103   -3166.4713 
 8946000    252.01647   -3924.0397   -3492.0921   -3924.0397            0    1268.0439    17.526632    20.644058     21.38245    7736.6153    2101.0785    1104.5452    598.50782    1043.6045     1316.441    1167.7144    -3349.018 
 8947000    243.75006   -3905.4074   -3487.6282   -3905.4074            0    3608.7003    17.506069    20.619837    21.357364    7709.4168    2867.8656    4583.4451    3374.7901    516.22052    1334.3191    -771.3795   -3081.8878 
 8948000    256.19728   -3921.7759   -3482.6625   -3921.7759            0    2278.1141    17.531995    20.650374    21.388993    7743.7192    1374.1166    2616.1634    2844.0623   -507.68378   -269.12492   -114.16562   -3225.3855 
 8949000    258.87258   -3904.9361   -3461.2374   -3904.9361            0    4859.5496    17.459696    20.565215    21.300788     7648.312    4401.0362    4624.6647    5552.9479     123.6769     923.3343   -707.74734   -2919.1897 
 8950000    238.92488   -3894.0369   -3484.5279   -3894.0369            0    4563.1426    17.504853    20.618405     21.35588    7707.8103    5672.4911    3538.2632    4478.6734    138.83611    1961.1528   -135.91494   -2971.5827 
 8951000    249.61817   -3919.1753   -3491.3383   -3919.1753            0    2198.9469    17.529204    20.647087    21.385588    7740.0216    3660.1357    752.16883    2184.5361     -708.071    -299.2308    1267.7433   -3243.1206 
 8952000    258.37173   -3919.7912   -3476.9509   -3919.7912            0    2921.8355    17.470543    20.577992    21.314021    7662.5758    1315.7424    3565.4748    3884.2894    300.88196   -1615.2852   -150.82091   -3150.4334 
 8953000    243.18897   -3950.4895    -3533.672   -3950.4895            0    2317.7089    17.470219     20.57761    21.313626    7662.1494    2097.0098    3821.1151    1035.0018   -26.495764    1426.2089    219.62032   -3274.6805 
 8954000    239.80341   -3941.5694   -3530.5546   -3941.5694            0    4461.4049    17.524296    20.641305      21.3796    7733.5214    5517.6759    4689.0449     3177.494    635.16003     1257.002   -103.30775   -3027.3729 
 8955000    232.24959   -3948.4657   -3550.3978   -3948.4657            0    452.27159    17.644353    20.782717     21.52607    7893.5583    2042.9923    -593.1438   -93.033774    549.31691   -335.87528    435.54058   -3498.3326 
 8956000    233.41031   -3946.5377   -3546.4804   -3946.5377            0     3005.147    17.547652    20.668816    21.408094    7764.4843    2278.3961    3971.3187    2765.7263    106.47441   -423.20157   -410.30298   -3206.1864 
 8957000    248.51031   -3944.5021    -3518.564   -3944.5021            0    2541.2423    17.533714    20.652399     21.39109    7745.9972    3066.6162    2713.7869    1843.3237   -356.99037   -1183.6504   -307.89691   -3231.4864 
 8958000    252.26691   -3933.2263   -3500.8495   -3933.2263            0    2696.3933    17.481955    20.591433    21.327944    7677.6012    2525.7644    3234.8701    2328.5455    213.23226   -349.77492   -176.38579   -3198.9345 
 8959000    234.95093   -3941.7298   -3539.0319   -3941.7298            0    4041.9331    17.503758    20.617115    21.354544     7706.364    4065.4935     4641.028    3419.2779   -340.46622   -182.90249    1135.6043   -3084.7614 
 8960000    261.57594   -3951.9833   -3503.6511   -3951.9833            0     3491.733    17.464011    20.570298    21.306053    7653.9845    3159.5981    3205.7503    4109.8507   -272.27488   -219.86539    537.55007   -3113.8846 
 8961000    243.59043    -3971.061   -3553.5553    -3971.061            0    3644.5087    17.433194       20.534    21.268457    7613.5379    4803.1427    2333.8903    3796.4932    -1094.332    906.15111    1010.7669    -3148.885 
 8962000    245.50572    -3954.908   -3534.1196    -3954.908            0    5232.4731    17.434415    20.535438    21.269946    7615.1374    5124.7524    5787.9252    4784.7416    109.28601   -769.21818   -623.46115   -2953.0065 
 8963000    259.05339   -3941.7033   -3497.6947   -3941.7033            0    2033.1739    17.492429    20.603771    21.340722    7691.4096     2226.219    2588.9301    1284.3725   -926.78497   -457.25875    894.62945   -3269.6309 
 8964000    244.06002   -3932.4844   -3514.1739   -3932.4844            0    3850.4597    17.431615     20.53214     21.26653    7611.4692    2843.5013    5500.2482    3207.6297   -739.83026    215.55826     371.3258   -3086.7518 
 8965000    231.02106   -3969.7699   -3573.8077   -3969.7699            0    4510.8996    17.414397    20.511859    21.245524    7588.9364    2858.2743    5114.8448    5559.5796    -297.2722   -191.41455    554.57707   -3074.5556 
 8966000    243.17699   -3955.1998   -3538.4028   -3955.1998            0    3500.9821    17.389849    20.482945    21.215575    7556.8889    1845.6219    2632.5516    6024.7729   -56.203449   -241.91304    467.11132   -3152.5614 
 8967000    236.99348   -3944.2815   -3538.0828   -3944.2815            0     2842.616    17.491042    20.602138    21.339031    7689.5808    2661.1147    2499.7053    3367.0281   -365.63281    976.96558   -271.56164   -3219.2986 
 8968000    248.62576   -3930.4871    -3504.351   -3930.4871            0    2537.0539    17.458249    20.563512    21.299023    7646.4115    3303.3617     3587.968     719.8319   -537.84123    4.1133142   -177.42816   -3221.4313 
 8969000    243.45578    -3913.348   -3496.0731    -3913.348            0    1758.9168    17.408229    20.504594    21.237999    7580.8754    2167.7988    1048.4639    2060.4879   -758.93038     301.5948   -283.47749   -3301.6085 
 8970000    239.88704   -3952.5765   -3541.4184   -3952.5765            0    3579.1609    17.375403    20.465929    21.197951     7538.071    4423.4726    3229.8038    3084.2064    299.69944    541.50455     -489.731   -3147.9432 
 8971000    238.41591   -3929.6804   -3521.0437   -3929.6804            0    3710.7598    17.415284    20.512904    21.246606    7590.0962    3831.3408     1340.709    5960.2296    622.23872    2617.6539    961.79435   -3110.2857 
 8972000    232.61637   -3941.1235    -3542.427   -3941.1235            0    2949.7083    17.375629    20.466196    21.198227    7538.3661    4444.2321    1501.2461    2903.6466    809.12473   -57.174586   -459.52626    -3218.138 
 8973000    236.43165    -3936.346   -3531.1103    -3936.346            0    5293.5694    17.323999    20.405383    21.135239    7471.3671    6835.1473    3579.5071    5466.0538   -431.81309   -729.68231   -119.12176   -2954.3112 
 8974000    241.32683   -3932.6956   -3519.0697   -3932.6956            0    1382.0141    17.438239    20.539943    21.274611    7620.1495    2157.6212    -159.3584    2147.7796    532.87488    1317.5566     192.4921   -3365.4836 
 8975000    247.75017    -3961.193   -3536.5577    -3961.193            0    1797.1108     17.39882    20.493512     21.22652    7568.5903    935.77016    689.95789    3765.6042    617.17008   -838.57725    339.11132   -3338.1923 
 8976000      240.086   -3921.6371   -3510.1379   -3921.6371            0    2243.5865    17.510423    20.624965    21.362675    7715.1694    2546.8988     1180.664    3003.1966    462.67793   -806.89181   -404.51806   -3257.6944 
 8977000    249.15368   -3875.1011   -3448.0602   -3875.1011            0    4379.8475     17.50895    20.623231    21.360878    7713.2234    3877.0494    5440.6546    3821.8385     179.4138    186.72174   -537.19382   -2955.3736 
 8978000    246.63548   -3923.9494   -3501.2246   -3923.9494            0    4403.6895    17.492249    20.603559    21.340503    7691.1721    3473.1712    4925.6993     4812.198   -187.32034   -1830.9376    908.82311   -3007.2722 
 8979000      243.444   -3927.9694   -3510.7147   -3927.9694            0    2779.0333    17.476352    20.584835    21.321109    7670.2226    3869.0352    3920.0224    548.04222    1216.5622    -193.3229    188.78963   -3199.8455 
 8980000    257.73576   -3924.7486   -3482.9983   -3924.7486            0    3430.6241    17.426911      20.5266    21.260791    7605.3087     4136.906    2702.7437    3452.2224     659.9677   -1001.3645   -869.77791   -3102.4885 
 8981000    246.66968    -3925.215   -3502.4317    -3925.215            0    2266.4844    17.424265    20.523483    21.257563    7601.8448    2003.6855    2913.9007    1881.8672   -2017.0306    -345.9124    801.75728   -3251.1576 
 8982000     237.5848   -3928.0086   -3520.7964   -3928.0086            0    3710.4488    17.478297    20.587126    21.323482    7672.7839    4726.7617    2978.2071    3426.3777   -1242.8934    611.87585    109.55421   -3105.5983 
 8983000    237.59624    -3954.978   -3547.7462    -3954.978            0    3860.2712    17.441322    20.543574    21.278372    7624.1914     4181.603    3687.4909    3711.7198    -52.27947    325.71301     149.1802   -3118.5187 
 8984000    245.74579   -3925.6178   -3504.4179   -3925.6178            0    2834.0692    17.437546    20.539126    21.273765    7619.2403    2509.8956    1895.0462    4097.2657    410.42218   -60.290971    55.957298   -3189.4996 
 8985000    237.99116   -3938.5454   -3530.6367   -3938.5454            0    4121.5103    17.422479    20.521379    21.255384    7599.5076     4051.302    4695.6882    3617.5407    614.80181   -521.11369   -679.66169   -3073.8455 
 8986000    243.18637   -3938.3386   -3521.5255   -3938.3386            0    2986.6541     17.42316    20.522181    21.256215    7600.3988    5366.3892    774.23851    2819.3344    283.30456     203.3782   -706.90933   -3190.4727 
 8987000    238.89317   -3933.8445   -3524.3898   -3933.8445            0    2131.3651    17.480962    20.590264    21.326732     7676.293    2625.3146   -738.78355    4507.5643     1106.467   -460.13487   -61.059188   -3285.7816 
 8988000    254.07971   -3923.7428   -3488.2589   -3923.7428            0    3562.7317    17.528168    20.645867    21.384324    7738.6493    5506.0626    1862.6841    3319.4483    756.03979   -1496.7241    982.93644   -3086.1681 
 8989000    240.86874   -3922.8273   -3509.9865   -3922.8273            0    3777.4713    17.531324    20.649584    21.388174    7742.8298    4157.6444    4372.5261    2802.2433    204.94733    810.77734   -231.58811   -3083.4298 
 8990000    244.48042   -3938.1272   -3519.0961   -3938.1272            0    3365.6143    17.632941    20.769276    21.512147    7878.2524    3515.3492    2859.0208    3722.4728    27.927365    1463.2752   -570.43678   -3132.3997 
 8991000    236.22116   -3946.4873   -3541.6124   -3946.4873            0     2985.216    17.560252    20.683657    21.423467    7781.2224    1222.3469    3037.1069    4696.1941   -1066.0662     939.4567    1017.4028   -3202.8466 
 8992000    251.19312   -3942.6389   -3512.1025   -3942.6389            0    1043.0028    17.585854    20.713814    21.454701    7815.3064    2001.1778     418.8454    708.98525    1487.9121    569.20605    536.94975   -3393.2229 
 8993000    248.90912   -3915.2616   -3488.6399   -3915.2616            0    3618.2119    17.494912    20.606695    21.343751    7694.6852    2401.3014    5802.7967    2650.5374   -1088.7702    604.70359     68.81075   -3082.6075 
 8994000    252.93979   -3945.8637   -3512.3336   -3945.8637            0    4482.5839    17.491192    20.602314    21.339213    7689.7783     4975.867    5790.6585    2681.2263    98.801369    773.79806   -16.061628   -3009.6229 
 8995000    247.43663   -3920.3123   -3496.2144   -3920.3123            0    3750.9162    17.519713    20.635908    21.374009    7727.4559    5676.7304    3927.4925    1648.5258   -885.46457   -713.95776     745.4295   -3073.4973 
 8996000    246.03052   -3946.5242   -3524.8364   -3946.5242            0    2287.7964    17.558344     20.68141    21.421139    7778.6862    3697.7604    1417.7539     1747.875   -1160.9908   -904.48917    -1132.385   -3265.2992 
 8997000    244.45598   -3953.1775   -3534.1883   -3953.1775            0    2590.5598    17.523428    20.640284    21.378541    7732.3732    3311.3217    3160.2956    1300.0621   -932.96002   -1695.8961    215.49606   -3242.0541 
 8998000    253.45924   -3912.8465    -3478.426   -3912.8465            0    1846.8397    17.490022    20.600935    21.337786    7688.2347    983.81577    2414.1205    2142.5829     2112.096    153.47438   -146.53234   -3271.3491 
 8999000    232.02116   -3933.3681   -3535.6918   -3933.3681            0    2510.7026    17.467482    20.574387    21.310288    7658.5498    1243.1931    1435.9317     4852.983   -662.66805   -1654.2973   -342.52866   -3255.2661 
 9000000     248.5145   -3890.4936   -3464.5482   -3890.4936            0    2230.3508    17.566053     20.69049    21.430544    7788.9367    412.61808    2804.0695    3474.3648     212.1731     259.7787    36.365628   -3211.1946 
Loop time of 481.633 on 64 procs for 250000 steps with 864 atoms

Performance: 89.695 ns/day, 0.268 hours/ns, 519.068 timesteps/s
99.1% CPU use with 64 MPI tasks x 1 OpenMP threads

MPI task timing breakdown:
Section |  min time  |  avg time  |  max time  |%varavg| %total
---------------------------------------------------------------
Pair    | 19.886     | 24.571     | 30.572     |  47.2 |  5.10
Bond    | 0.27564    | 0.28305    | 0.29907    |   1.0 |  0.06
Kspace  | 215.12     | 225.33     | 236.22     |  29.1 | 46.79
Neigh   | 4.4809     | 5.1429     | 5.8611     |  16.9 |  1.07
Comm    | 97.565     | 107.79     | 118.81     |  42.7 | 22.38
Output  | 1.2575     | 1.26       | 1.2727     |   0.2 |  0.26
Modify  | 107.79     | 110.59     | 115.49     |  19.5 | 22.96
Other   |            | 6.661      |            |       |  1.38

Nlocal:        13.5000 ave          18 max           9 min
Histogram: 2 5 8 6 10 14 6 4 6 3
Nghost:        2074.61 ave        2108 max        2033 min
Histogram: 2 2 2 9 12 11 8 9 5 4
Neighs:        3961.75 ave        5622 max        2122 min
Histogram: 4 2 6 7 6 14 8 7 7 3

Total # of neighbors = 253552
Ave neighs/atom = 293.46296
Ave special neighs/atom = 2.0000000
Neighbor list builds = 12039
Dangerous builds = 0

unfix		3
unfix		2
unfix		1

write_data	data.final.${pid}
write_data	data.final.0
System init for write_data ...
PPPM initialization ...
  extracting TIP4P info from pair style
  using 12-bit tables for long-range coulomb (../kspace.cpp:340)
  G vector (1/distance) = 0.37300005
  grid = 24 24 25
  stencil order = 5
  estimated absolute RMS force accuracy = 0.0032147179
  estimated relative force accuracy = 9.6810275e-06
  using double precision FFTW3
  3d grid and FFT values/proc = 2730 288
Last active /omp style is kspace_style pppm/tip4p/omp
WARNING: Not all mixed pair coeffs generated from mixing. Use write_data with 'pair ij' option to store all pair coeffs. (../write_data.cpp:312)

write_restart   restart.lmp.${pid}
write_restart   restart.lmp.0
System init for write_restart ...
PPPM initialization ...
  extracting TIP4P info from pair style
  using 12-bit tables for long-range coulomb (../kspace.cpp:340)
  G vector (1/distance) = 0.37300005
  grid = 24 24 25
  stencil order = 5
  estimated absolute RMS force accuracy = 0.0032147179
  estimated relative force accuracy = 9.6810275e-06
  using double precision FFTW3
  3d grid and FFT values/proc = 2730 288
Last active /omp style is kspace_style pppm/tip4p/omp
Total wall time: 0:08:04
