LAMMPS (30 Jul 2021)
Processor partition = 1
  using 1 OpenMP thread(s) per MPI task
using multi-threaded neighbor list subroutines
variable        pid world 0 1
variable        phase world IceII IceIII

shell cd ${phase}
shell cd IceIII
include Restart.lmp
echo both
log log.lammps
#include		in.partitions
include		in.temp
variable        temperature equal 4.17
variable	tempDamp equal 100.0
include		in.pressure
variable        pressure equal -1456.2
variable        pressureDamp equal 1000.0 # This is 1 ps
include		in.seed
variable        seed equal 745823

units		real
atom_style	full

read_restart	restart.lmp.${pid}
read_restart	restart.lmp.1
Reading restart file ...
  restart file = 30 Jul 2021, LAMMPS = 30 Jul 2021
  restoring atom style full from restart
  orthogonal box = (-0.015855105 0.019999416 -0.18648538) to (20.015856 19.980002 20.886483)
  4 by 4 by 4 MPI processor grid
  restoring pair style lj/cut/tip4p/long/omp from restart
  restoring bond style harmonic/omp from restart
  restoring angle style harmonic/omp from restart
  972 atoms
  648 bonds
  324 angles
Finding 1-2 1-3 1-4 neighbors ...
  special bond factors lj:    0        0        0       
  special bond factors coul:  0        0        0       
     2 = max # of 1-2 neighbors
     1 = max # of 1-3 neighbors
     1 = max # of 1-4 neighbors
     2 = max # of special neighbors
  special bonds CPU = 0.006 seconds
  read_restart CPU = 0.021 seconds
include 	in.setup
variable	out_freq equal 1000
variable	out_freq2 equal 10000
variable	out_freq3 equal 1000

timestep	2.0

neigh_modify    delay 7 every 1

include		in.tip4p
# This is TIP4P/Ice

# create groups ###
group ox type 2
324 atoms in group ox
group hy type 1
648 atoms in group hy

# set charges - beside manually ###
set group ox charge -1.1794
Setting atom values ...
  324 settings made for charge
set group hy charge 0.5897
Setting atom values ...
  648 settings made for charge

# ### TIP3P Potential Parameters ###
pair_style lj/cut/tip4p/long/omp 2 1 1 1 0.1577 8.5
pair_coeff 1 1*2 0.000 0.000
pair_coeff 2 2 0.21084 3.1668
bond_style  harmonic
bond_coeff  1 450 0.9572
angle_style harmonic
angle_coeff 1 55 104.52
kspace_style pppm/tip4p/omp 1.0e-5
pair_modify tail yes

thermo          ${out_freq}
thermo          1000
thermo_style    custom step temp pe etotal epair emol press lx ly lz vol pxx pyy pzz pxy pxz pyz enthalpy

restart 	${out_freq3} restart.lmp.${pid} restart2.lmp.${pid}
restart 	1000 restart.lmp.${pid} restart2.lmp.${pid}
restart 	1000 restart.lmp.1 restart2.lmp.${pid}
restart 	1000 restart.lmp.1 restart2.lmp.1


include         in.dump
dump            myDump all atom ${out_freq2} dump.water.${pid}
dump            myDump all atom 10000 dump.water.${pid}
dump            myDump all atom 10000 dump.water.1
dump            myDump2 all dcd ${out_freq2} dump.dcd
dump            myDump2 all dcd 10000 dump.dcd
dump_modify     myDump append yes
dump_modify     myDump2 append yes


variable natoms 	equal  "count(all)"                        # NUMBER ATOMS
variable H      	equal  "enthalpy/v_natoms"                 # ENTHALPY-per-atom
variable Vol      	equal  "vol/v_natoms"                 # volume-per-atom
fix AVG all 		ave/time ${out_freq} 1 ${out_freq} v_Vol v_H file vol_enthalpy.dat
fix AVG all 		ave/time 1000 1 ${out_freq} v_Vol v_H file vol_enthalpy.dat
fix AVG all 		ave/time 1000 1 1000 v_Vol v_H file vol_enthalpy.dat


timer           timeout 02:55:00 every 1000
New timer settings: style=normal  mode=nosync  timeout=02:55:00

fix 		1 all shake 1e-6 200 0 b 1 a 1
Finding SHAKE clusters ...
       0 = # of size 2 clusters
       0 = # of size 3 clusters
       0 = # of size 4 clusters
     324 = # of frozen angles
  find clusters CPU = 0.002 seconds
fix             2 all nph aniso ${pressure} ${pressure} ${pressureDamp}
fix             2 all nph aniso -1456.2 ${pressure} ${pressureDamp}
fix             2 all nph aniso -1456.2 -1456.2 ${pressureDamp}
fix             2 all nph aniso -1456.2 -1456.2 1000
fix             3 all temp/csvr ${temperature} ${temperature} ${tempDamp} ${seed}
fix             3 all temp/csvr 4.17 ${temperature} ${tempDamp} ${seed}
fix             3 all temp/csvr 4.17 4.17 ${tempDamp} ${seed}
fix             3 all temp/csvr 4.17 4.17 100 ${seed}
fix             3 all temp/csvr 4.17 4.17 100 745823


run             250000
PPPM initialization ...
  extracting TIP4P info from pair style
  using 12-bit tables for long-range coulomb (../kspace.cpp:340)
  G vector (1/distance) = 0.37205826
  grid = 24 24 25
  stencil order = 5
  estimated absolute RMS force accuracy = 0.0034497439
  estimated relative force accuracy = 1.0388801e-05
  using double precision FFTW3
  3d grid and FFT values/proc = 2366 288
Last active /omp style is kspace_style pppm/tip4p/omp
Neighbor list info ...
  update every 1 steps, delay 7 steps, check yes
  max neighbors/atom: 2000, page size: 100000
  master list distance cutoff = 10.8154
  ghost atom cutoff = 10.8154
  binsize = 5.4077, bins = 4 4 4
  1 neighbor lists, perpetual/occasional/extra = 1 0 0
  (1) pair lj/cut/tip4p/long/omp, perpetual
      attributes: half, newton on, omp
      pair build: half/bin/newton/omp
      stencil: half/bin/3d
      bin: standard
Setting up Verlet run ...
  Unit style    : real
  Current step  : 14000000
  Time step     : 2
  Walltime left : 2:54:59.89
Per MPI rank memory allocation (min/avg/max) = 9.228 | 9.231 | 9.237 Mbytes
Step Temp PotEng TotEng E_pair E_mol Press Lx Ly Lz Volume Pxx Pyy Pzz Pxy Pxz Pyz Enthalpy 
14000000    9.9125239   -5234.2236   -5215.1064   -5234.2236            0   -1484.9856    20.031711    19.960002    21.072969    8425.6683   -1797.9965   -1394.4168   -1262.5434   -205.87879   -94.917017     182.4294   -5397.5811 
14001000    4.1380591   -5245.4549   -5237.4743   -5245.4549            0   -1434.3326    19.993781    19.948533    21.091986    8412.4668   -1371.3239   -1401.4667   -1530.2071   -98.501095    115.51202   -6.3205768   -5413.4485 
14002000    4.2694138   -5244.6657   -5236.4317   -5244.6657            0   -1499.2179     20.00389    19.989867    21.066517    8423.9758   -1447.4487   -1461.5005   -1588.7046   -35.181366    303.38576   -36.945438   -5420.6182 
14003000     4.340907   -5244.8665   -5236.4947   -5244.8665            0   -1467.8826    20.030314    20.007898    21.032283    8428.9919    -1512.506   -1582.0629   -1309.0789   -173.91494    193.31052    103.26391   -5416.9389 
14004000    4.0623651   -5244.9609   -5237.1263   -5244.9609            0   -1540.4615    19.992331    19.957056     21.11669    8425.3074   -1445.8157   -1407.4104   -1768.1584   -53.156647    10.114755     19.03836   -5426.4097 
14005000    3.9933572   -5244.4477   -5236.7462   -5244.4477            0   -1384.7592    20.033374    19.970665    21.070968    8430.0689   -1513.1696   -1274.2656   -1366.8425   -169.97474    179.12678   -132.53853   -5406.9939 
14006000    4.2597926     -5244.85   -5236.6346     -5244.85            0   -1410.9521    20.033794    19.973887     21.02846    8414.5959   -1439.0904   -1534.7308    -1259.035   -92.148576    220.62684    66.416032   -5409.7842 
14007000    4.2199442   -5244.9218   -5236.7832   -5244.9218            0   -1514.8049    19.994856    19.958799    21.120549     8428.647    -1380.919   -1572.0503   -1591.4454   -133.90046    253.54087    55.905519   -5422.9879 
14008000    4.0571112   -5244.7239   -5236.8994   -5244.7239            0   -1456.0812    19.985491    19.966988    21.114418    8425.7098    -1490.127   -1297.1209   -1580.9956   -87.995558    163.48491    207.70179   -5415.8231 
14009000    4.4506054   -5244.3652   -5235.7818   -5244.3652            0     -1493.28    20.044142    19.969046    21.061525    8430.1364   -1616.7655   -1570.5185   -1292.5559   -114.18269    235.92043   -39.784431    -5419.373 
14010000    4.1583329   -5244.9993   -5236.9796   -5244.9993            0   -1391.2132     19.99768    19.942491    21.084833    8408.7062   -1401.0431   -1210.9797   -1561.6169   -73.673679    278.25627    -28.10777   -5407.5874 
14011000    4.1723614   -5244.8011   -5236.7543   -5244.8011            0   -1513.2513    20.004747    19.982937    21.094698    8432.6813   -1516.4009   -1600.1893   -1423.1639   -88.009892    241.93128    105.47538    -5422.857 
14012000      4.44311   -5244.5382   -5235.9693   -5244.5382            0   -1448.1309     20.01068    19.998816     21.02267    8413.0605   -1433.1128   -1552.1215   -1359.1582   -132.28713    362.29864   -2.4388268    -5413.649 
14013000    4.1019651   -5243.9249   -5236.0139   -5243.9249            0   -1543.8244    20.026476    19.946123    21.076059    8418.8433   -1528.8438   -1534.8992   -1567.7302   -155.81236    81.819148    -4.525222   -5425.5649 
14014000    3.9779309   -5244.9539   -5237.2822   -5244.9539            0   -1566.4586    19.994303    19.954204    21.104991    8420.2668   -1533.1544   -1499.4645   -1666.7569   -146.07921     294.7076   -71.462838   -5429.6448 
14015000    4.0346839   -5245.1086   -5237.3274   -5245.1086            0   -1415.8674    20.029231    19.988762    21.021585     8416.192   -1479.8336   -1600.0126   -1167.7559   -138.72849    54.829059    138.95543   -5411.1131 
14016000    4.1239206   -5244.9911   -5237.0378   -5244.9911            0   -1506.8764     20.00047     19.97407    21.088016    8424.4681   -1504.3941   -1487.0686   -1529.1665   -34.126686     263.8032   -24.051222    -5422.176 
14017000    4.2699055   -5245.1603   -5236.9255   -5245.1603            0   -1427.4887      19.9901    19.973345    21.097825    8423.7109   -1369.9232    -1370.681   -1541.8618   -149.49361    387.40756     20.77455   -5412.2941 
14018000    4.1408017   -5245.0984   -5237.1125   -5245.0984            0   -1423.9798    20.030297    20.003943    21.012566    8419.4183   -1499.6971    -1541.447   -1230.7953   -278.15347    71.350602    134.71754   -5411.9609 
14019000    4.1705062    -5245.483   -5237.4398    -5245.483            0   -1381.2799    20.002188    19.944076    21.067999    8404.5552   -1354.1576   -1374.8799   -1414.8021    -176.5021    267.12277    7.7078093   -5406.7458 
14020000    4.1905144   -5245.0239   -5236.9422   -5245.0239            0    -1444.673    20.003813    19.956961    21.111374    8427.9841   -1432.7747   -1459.4528   -1441.7917   -87.902741    280.90714   -175.95187    -5414.512 
14021000    4.1760004   -5245.5925   -5237.5387   -5245.5925            0   -1436.5507    20.027044    20.017979    20.996411    8417.4805   -1616.4304   -1660.7694   -1032.4522   -46.181664    158.96101    19.427929   -5413.8901 
14022000    4.1216712   -5244.7864   -5236.8374   -5244.7864            0   -1547.9889    20.002696    19.961166    21.104007    8426.3475   -1449.5802   -1559.5345   -1634.8519   -117.63911     296.2941   -42.759529   -5427.0692 
14023000    4.1612361   -5245.1182   -5237.0929   -5245.1182            0   -1472.3881    19.996709    19.959059    21.081614    8413.9993    -1452.606   -1438.5536   -1526.0048   -173.21381    100.39662   -79.367817    -5417.769 
14024000    4.3412348   -5244.9267   -5236.5543   -5244.9267            0   -1347.6009     20.03897    19.988612    20.977848    8402.7022   -1393.6816   -1540.4807   -1108.6403   -158.97371    166.86355    71.637018   -5401.6957 
14025000    4.3272458   -5244.3144    -5235.969   -5244.3144            0   -1419.9415     19.99058    19.936738    21.131481    8421.8878   -1342.3304   -1350.2704   -1567.2236   -125.93385     134.6936    81.577174   -5410.3727 
14026000    4.2411211   -5244.8125   -5236.6331   -5244.8125            0   -1384.3443    20.000794    19.972546    21.082038    8421.5733   -1450.6444   -1394.4502   -1307.9383   -99.929715    245.99555   -87.908186   -5406.6583 
14027000    4.3702212   -5245.0236   -5236.5952   -5245.0236            0   -1451.5581    20.018824    20.018667    21.001762    8416.4597   -1470.2019   -1695.5153   -1188.9572   -138.26938    333.08878   -87.408415   -5414.7673 
14028000    3.9360793   -5245.1541    -5237.563   -5245.1541            0    -1430.243    19.995484    19.949652    21.099842    8416.7892   -1386.0654    -1340.698   -1563.9657   -78.275452    115.58167   -138.44387   -5413.1257 
14029000    4.1867671   -5244.6908   -5236.6162   -5244.6908            0   -1439.1215    19.998514    19.993582    21.053632    8418.1245    -1354.183   -1529.8288   -1433.3528   -147.91264    128.18562   -51.468726   -5413.2968 
14030000    4.3354479   -5244.8509   -5236.4896   -5244.8509            0   -1390.0482    20.023221    19.999359    21.045235    8427.5975   -1479.5477   -1403.4529    -1287.144   -77.709981    124.83107   -43.196127   -5407.3375 
14031000     4.328853   -5244.3618   -5236.0133   -5244.3618            0   -1391.4309    19.985796    19.939085    21.131554    8420.8925   -1279.6002   -1286.3431   -1608.3493   -107.07352    294.49661    61.147012    -5406.895 
14032000    4.2572636    -5245.091   -5236.8805    -5245.091            0   -1452.4543    20.014227    19.974223    21.053787    8416.6438   -1458.7317   -1466.3237   -1432.3076     -39.3688        161.2    97.963027   -5415.1665 
14033000    4.0946108   -5244.7603   -5236.8635   -5244.7603            0   -1473.0758    20.033834    19.996127    20.998384    8411.9336   -1635.0453    -1569.374   -1214.8081   -123.57839    89.807146    11.945812   -5417.5796 
14034000    4.0161484   -5245.4324   -5237.6869   -5245.4324            0    -1404.425    19.987741    19.942731    21.095513    8408.8855   -1464.2426   -1184.4067   -1564.6257   -76.780788    249.73915    122.15903   -5409.9185 
14035000    4.1484191   -5245.6643   -5237.6638   -5245.6643            0   -1420.2196    20.026902      19.9604    21.047223    8413.5219   -1422.1284   -1436.4108   -1402.1194   -120.84286    221.46512   -75.068898   -5411.9284 
14036000    4.1795764   -5245.7207     -5237.66   -5245.7207            0   -1464.2714    20.013564    20.003661    21.039187    8422.9237   -1576.0009   -1580.9047   -1235.9085   -70.701984    168.91211    190.93704   -5417.5307 
14037000    4.0620431   -5244.3168   -5236.4828   -5244.3168            0     -1545.85    19.979572    19.939879    21.148825    8425.4856   -1353.4105   -1469.7091   -1814.4304   -108.05948    170.57237    155.92379   -5426.4323 
14038000    4.3013138   -5244.7578   -5236.4624   -5244.7578            0   -1544.7799    20.006516    19.976118    21.104445    8434.4445    -1490.272   -1637.7323   -1506.3354   -141.01063    363.65549     122.1672   -5426.4822 
14039000    4.0056064   -5244.4158   -5236.6907   -5244.4158            0   -1468.9668    20.023927    19.995541    21.031458    8420.7695   -1439.0784   -1648.7447   -1319.0773   -159.14215    264.98317    57.692708    -5417.092 
14040000    4.0717715   -5244.6758    -5236.823   -5244.6758            0    -1475.704    19.995954    19.943405    21.103548    8415.8295   -1312.3597   -1385.8167   -1728.9356   -68.693541    154.21303     -2.89901   -5417.9454 
14041000    4.3265009   -5244.7013   -5236.3573   -5244.7013            0    -1482.618    20.005907     19.98739    21.099705    8437.0518   -1363.8231   -1624.7788   -1459.2522    6.7573985    69.392316     105.7576   -5418.7871 
14042000     4.305181   -5245.3732   -5237.0703   -5245.3732            0   -1484.6371    20.013704    20.002985    21.032769    8420.1287    -1492.491   -1672.9891   -1288.4311   -77.172362    194.40372   -92.615334   -5419.3821 
14043000     4.344477   -5244.7706    -5236.392   -5244.7706            0   -1522.1391    19.993571    19.966781    21.099905    8423.2346   -1453.9415   -1437.2295   -1675.2462   -205.64698    75.180239    57.142981    -5423.378 
14044000    4.0343407   -5245.3243   -5237.5438   -5245.3243            0   -1408.6132    20.022177    19.994095    21.024652    8416.7002   -1509.2985   -1404.7221    -1311.819   -55.574372    272.90289    9.5994023   -5410.4496 
14045000    3.9925025   -5245.0457   -5237.3459   -5245.0457            0   -1490.3546    20.023464     19.98442    21.069176    8430.9848   -1584.6208   -1499.6003   -1386.8428   -101.23055    260.41467   -10.366283   -5420.5958 
14046000    4.2304293   -5245.1836   -5237.0248   -5245.1836            0   -1414.8737    20.001592    19.934384    21.117374    8419.9069   -1350.6906   -1291.9708   -1601.9598   -41.475965     294.0546    40.722071   -5410.7653 
14047000     4.156831   -5244.7682   -5236.7514   -5244.7682            0   -1432.2471    20.014803    20.011115    21.032392    8423.8627   -1413.8796   -1544.2672   -1338.5945   -194.50073     130.9432    80.619074   -5412.7078 
14048000    3.9730917   -5244.9827   -5237.3203   -5244.9827            0   -1469.0799    19.996189    19.982713     21.07218    8419.9814   -1508.6286   -1394.4079   -1504.2031   -104.07438    266.79711   -5.6347258   -5417.7186 
14049000    4.2499859   -5244.4315   -5236.2351   -5244.4315            0   -1474.3042    19.991079    19.930955    21.156317    8429.5502   -1254.6468   -1370.6937   -1797.5721   -174.66987     330.1211    62.888756   -5417.4806 
14050000    4.0454969   -5245.1357   -5237.3336   -5245.1357            0   -1499.8701    20.022918     19.98629    21.043099    8421.1086   -1522.5921   -1637.2289   -1339.7894   -167.15768    127.96446   -92.230381   -5421.5375 
14051000    4.5997597   -5244.4816   -5235.6106   -5244.4816            0   -1443.9697    20.010783    20.006088    21.028437    8418.4716   -1520.9065   -1532.0023   -1279.0003    -49.72808    255.83515    60.232474   -5412.8937 
14052000    4.0975442   -5244.7852   -5236.8828   -5244.7852            0   -1469.9317    19.993002    19.948157    21.135649    8429.3948   -1289.9857   -1349.1586   -1770.6509   -72.118514    405.07004    37.292306   -5417.5875 
14053000    4.0946257   -5245.2409   -5237.3441   -5245.2409            0   -1458.1839    20.026107    19.977326    21.030344    8413.5691   -1459.4771   -1411.0036    -1504.071   -128.85474     210.9357   -64.194299    -5416.268 
14054000    4.6113479   -5245.3106   -5236.4172   -5245.3106            0   -1429.1449    20.004317    19.966945    21.054592    8409.7324   -1383.7033   -1491.6257   -1412.1058   -147.67851    178.24308   -39.951434    -5411.698 
14055000    4.3092682   -5244.9158    -5236.605   -5244.9158            0   -1481.6339    19.993175    19.947648    21.102944    8416.2089   -1482.8215   -1341.1044   -1620.9759    -161.4835     294.4771   -93.653586   -5418.4634 
14056000    4.3332257   -5244.6337   -5236.2767   -5244.6337            0   -1465.8735    20.034662     20.00592    21.004505    8418.8547   -1524.6269   -1579.7563   -1293.2373   -89.252147    144.25942    142.79825   -5416.2572 
14057000     4.098239   -5245.2905   -5237.3867   -5245.2905            0   -1416.9548     19.98215    19.979675    21.079986    8415.9073   -1237.5554    -1498.567    -1514.742   -171.96346    95.427994    117.99071      -5411.3 
14058000    4.1937866   -5245.1732   -5237.0851   -5245.1732            0    -1475.871    19.975296    19.953484     21.10486    8411.9065   -1450.6582   -1393.9415   -1583.0133   -135.88471    179.89751    40.828152   -5418.1435 
14059000    4.2892091   -5245.7897   -5237.5176   -5245.7897            0   -1441.6055    20.046118    19.984629     21.00984    8416.8408    -1537.583    -1584.011   -1203.2225   -49.926975    302.15587    9.7745292   -5414.4761 
14060000    4.2793672   -5244.8232     -5236.57   -5244.8232            0   -1377.1177    20.017423    19.953751     21.08777    8422.9337   -1394.0476   -1326.4716   -1410.8339   -113.87893    384.41375    92.285991    -5405.735 
14061000    4.2477342   -5244.7778   -5236.5857   -5244.7778            0   -1546.0156     19.97833    19.947597    21.148703    8428.1745   -1358.2643   -1425.7269   -1854.0556   -82.531044    141.04942   -43.289808   -5426.6162 
14062000    4.3593118   -5244.7747   -5236.3674   -5244.7747            0   -1504.1207    20.002232    20.021213    21.000522    8410.0566   -1549.6162   -1729.7959   -1232.9498   -188.72551    278.58608   -56.656553   -5420.8509 
14063000    4.3814554   -5244.6429   -5236.1929   -5244.6429            0   -1533.7118    19.995491    19.979228    21.082673    8422.4118   -1484.1305   -1545.0327   -1571.9723   -129.51201    221.19531   -42.992731   -5424.5822 
14064000    4.2552765   -5245.1596    -5236.953   -5245.1596            0   -1489.1367    19.989475    19.949496    21.125665    8424.4915   -1404.2611   -1361.9892   -1701.1598   -46.804249    266.80063   -9.1058849   -5419.9121 
14065000    4.2282225   -5244.7886   -5236.6341   -5244.7886            0   -1404.7807    20.033588    20.004474    21.019424    8423.7738   -1465.4784   -1577.1072   -1171.7566   -129.99662    260.50353    14.489484   -5409.2143 
14066000    4.3198612   -5245.0478   -5236.7166   -5245.0478            0   -1447.3771    19.994656    19.971869    21.074043    8415.5114   -1324.6586   -1514.2015   -1503.2711   -113.31632    262.70183    57.786179   -5414.3555 
14067000    3.9316641   -5244.5004   -5236.9179   -5244.5004            0   -1453.7388    19.992785     19.93596    21.132231    8422.7868   -1383.4513   -1243.3383   -1734.4267   -171.36969    217.88063   -146.38576   -5415.4918 
14068000    4.1079143   -5245.0732   -5237.1508   -5245.0732            0   -1511.5024    20.028043    20.019175    20.983795    8413.3455   -1637.9319   -1704.6673    -1191.908   -161.79271    104.57795   -121.41767   -5422.6122 
14069000    3.9929145   -5244.9487    -5237.248   -5244.9487            0   -1518.2025    20.021092    19.961006    21.080904    8424.7961   -1566.4121   -1549.9617   -1438.2335   -88.285295    194.10322   -10.057678    -5423.785 
14070000    4.3363677   -5245.1794   -5236.8164   -5245.1794            0   -1482.4047    19.978128    19.951651    21.127718    8421.4372   -1339.2892   -1484.9165   -1623.0083   -183.43973    221.62935    59.039226   -5418.8824 
14071000    4.2684342   -5244.7597   -5236.5277   -5244.7597            0   -1472.6836    20.030668    19.991239    21.025428    8419.3777   -1576.9979   -1603.5636   -1237.4892   -59.652945    175.18977   -89.439475   -5417.3555 
14072000    4.4219355   -5244.2927   -5235.7646   -5244.2927            0   -1448.5953    20.001514     19.94806    21.102276    8419.6265   -1273.9587   -1494.1724   -1577.6548   -184.36131    286.29583    7.1283515     -5413.64 
14073000    4.0417385   -5245.1644   -5237.3695   -5245.1644            0   -1352.5176    19.996279    19.950707    21.117897     8424.772   -1270.7231   -1307.5324   -1479.2973   -181.04661    416.28146    166.76933   -5403.5489 
14074000    4.0957552   -5244.9425   -5237.0435   -5244.9425            0   -1667.1002    20.044283    20.018143    20.990039    8422.2387   -1804.1867    -1908.929   -1288.1848   -42.085911     147.0023    167.85172    -5441.813 
14075000    3.9619844   -5244.1096   -5236.4686   -5244.1096            0   -1502.9886    20.008798    19.968939    21.086816    8425.3318   -1486.9588   -1473.2657   -1548.7413   -110.47931    180.93046   -59.588587   -5421.1481 
14076000    4.2452358   -5245.6014   -5237.4141   -5245.6014            0   -1425.1354    19.983122    19.951992    21.100598     8412.874    -1223.486    -1370.952   -1680.9683   -169.65856    141.82875    100.39254   -5412.2685 
14077000    4.0114085    -5245.355   -5237.6186    -5245.355            0   -1401.6517    20.016065     19.99889    21.032601    8419.3307   -1387.6223   -1426.9672   -1390.3657   -93.672043    296.45476    -41.90513   -5409.7236 
14078000    4.2314921   -5244.2959   -5236.1351   -5244.2959            0   -1423.6995    20.007152    19.934264    21.080184    8407.3644   -1395.5759   -1303.7636   -1571.7591     -146.384    191.94417   -22.310089   -5410.6989 
14079000    4.2363029   -5245.4472   -5237.2772   -5245.4472            0   -1436.3959    19.991255    19.962513    21.115331    8426.6152   -1367.8028    -1392.745   -1548.6398   -133.43172    225.50435   -80.661186   -5413.8009 
14080000    4.4183479   -5244.8999   -5236.3788   -5244.8999            0   -1408.7652    20.014597    20.005821     21.02715     8419.449   -1434.4372   -1607.7526   -1184.1056   -127.83445     128.9865    7.9776076   -5409.3597 
14081000    4.2113672    -5244.286    -5236.164    -5244.286            0   -1580.9468    20.008813    19.969049    21.098683    8430.1257   -1581.9924   -1539.3928   -1621.4551   -92.426403    353.89174   -19.333241   -5430.5331 
14082000    4.2072483   -5245.4432   -5237.3292   -5245.4432            0   -1421.9557    20.015967    19.955967    21.084434    8421.9235   -1476.7488   -1376.2432   -1412.8752   -56.914209    209.50211    114.96096   -5411.9811 
14083000    4.2089211   -5244.5219   -5236.4047   -5244.5219            0   -1392.9344    20.020861    20.004957    21.035521    8425.0722   -1489.4377   -1456.1316   -1233.2338   -174.27269    46.945976   -75.131459    -5407.556 
14084000    4.4995005   -5244.6151   -5235.9375   -5244.6151            0   -1523.6138    19.988576    19.960226    21.089679    8414.2861   -1503.6692   -1452.0782    -1615.094   -122.77008    100.75133   -75.916344   -5422.9058 
14085000    4.0787338   -5245.1165   -5237.2503   -5245.1165            0    -1525.719    20.007198    19.980384    21.093483    8432.1515   -1484.0214   -1543.4922   -1549.6434   -87.857142    107.83668   -23.264227   -5424.8745 
14086000    4.1138662   -5245.2223   -5237.2884   -5245.2223            0   -1425.1749       20.023    19.994885     21.04422    8425.2126   -1617.4584   -1383.8339   -1274.2324   -43.226579    224.90048    41.140304    -5412.404 
14087000    4.1312299   -5245.4567   -5237.4893   -5245.4567            0   -1372.7023    19.981255    19.949995    21.097688    8410.0855   -1366.0909   -1290.5438   -1461.4722   -71.127956    87.278107   -116.23734   -5405.8546 
14088000    4.3782565   -5245.7302   -5237.2864   -5245.7302            0   -1387.5277    19.993283    19.976844    21.061418    8411.9875    -1389.195   -1375.8214   -1397.5667   -98.527893    223.64199   -9.0636095   -5407.5086 
14089000    3.9755894   -5245.1324   -5237.4651   -5245.1324            0   -1433.5648     20.03056    20.004946    21.004717    8416.8059   -1516.4672   -1482.7464   -1301.4807   -162.64254    312.68874   -4.9384577   -5413.4359 
14090000    4.0346323   -5245.0865   -5237.3053   -5245.0865            0   -1349.3867    19.983423     19.95465    21.094246    8411.5882    -1318.165    -1231.934   -1498.0612   -46.968963   -1.0813614    25.781084   -5402.8405 
14091000    4.3164043   -5245.5558   -5237.2313   -5245.5558            0   -1514.0398    20.008414    19.970974    21.080548    8423.5241   -1584.6164    -1433.227    -1524.276    -81.15188    258.81128   -61.899584   -5423.2287 
14092000    4.1168891   -5244.5131   -5236.5733   -5244.5131            0   -1436.7857    20.039745    19.992951     21.02237    8422.6891   -1642.5649   -1540.5351   -1127.2571   -120.62267     241.8888   -8.0463334   -5413.0627 
14093000    4.2650968   -5244.6118   -5236.3862   -5244.6118            0   -1457.5282     20.02255    19.923881    21.069864    8405.3353   -1441.3498   -1295.4231   -1635.8119   -190.93539    229.36327    84.554713   -5415.0546 
14094000     4.264332   -5245.6191    -5237.395   -5245.6191            0   -1453.3382    20.010234    19.968342    21.089565    8426.7829   -1577.4604   -1332.7031   -1449.8512   -130.05599    271.33608    -20.40382   -5416.0045 
14095000    4.0203692   -5245.5132   -5237.7596   -5245.5132            0   -1365.8224    20.010423    19.992113    21.018221    8408.3528   -1342.6831   -1512.9425   -1241.8415   -112.02406    264.36823    49.311457   -5405.2465 
14096000    4.1464466   -5244.9657    -5236.969   -5244.9657            0    -1424.437    19.994786    19.915734    21.148004    8421.3641    -1363.801    -1193.126   -1716.3841   -133.36801    159.16501    83.618023    -5411.914 
14097000    4.1115941   -5244.5956   -5236.6661   -5244.5956            0   -1472.3697     20.01972    19.983729    21.048651    8420.9057   -1449.4893   -1616.6264   -1350.9934   -63.132414    101.40247    102.76358   -5417.4882 
14098000    4.4137334   -5245.3525   -5236.8402   -5245.3525            0    -1408.162    20.014541    19.991878    21.035739    8416.9938   -1344.6269    -1541.246    -1338.613   -156.89187    367.80676   -39.310552   -5409.6966 
14099000    4.0589009   -5245.0571   -5237.2291   -5245.0571            0   -1410.0863    19.985208    19.935148    21.111664    8411.0574   -1289.5991    -1430.317   -1510.3428   -123.65008    171.68739    17.594431   -5410.1997 
14100000     4.188327   -5245.1058   -5237.0282   -5245.1058            0   -1440.2953    20.028175    19.984079    21.032527    8418.1558    -1444.731   -1591.9326   -1284.2224   -90.358537    168.56644   -69.054477   -5413.8535 
14101000     4.107829   -5245.2256   -5237.3033   -5245.2256            0   -1522.6175    20.010258    20.000505    21.037745    8419.6267   -1654.6642   -1583.8929   -1329.2954   -135.88002    178.11067    113.28232    -5424.268 
14102000    4.2221312    -5244.991   -5236.8483    -5244.991            0   -1540.2813    19.988357    19.957921    21.110696    8421.6064   -1475.0871   -1428.1234   -1717.6334   -195.27332    341.30917    43.110831   -5426.0264 
14103000    4.3240542   -5244.7176   -5236.3783   -5244.7176            0   -1438.8124    20.007015    19.998643    21.065765    8428.6892   -1442.0575   -1425.5435   -1448.8363   -111.09095    266.69787   -13.170981   -5413.2425 
14104000    4.2120445   -5244.4309   -5236.3076   -5244.4309            0   -1338.1653    20.004619    19.991129    21.034593    8412.0477   -1366.4198   -1420.3733   -1227.7027   -157.85047    238.46147   -84.998835   -5400.4752 
14105000    4.3056979   -5244.2446   -5235.9407   -5244.2446            0   -1508.4521    19.974172    19.928584    21.133783    8412.4495   -1421.3217   -1332.6793   -1771.3553   -57.019077    142.80262    10.766775   -5421.0081 
14106000    4.1637529   -5245.4526   -5237.4225   -5245.4526            0   -1531.3332    20.019646    19.974247    21.058026    8420.6277   -1417.0082   -1662.7052   -1514.2862   -95.371403    150.80658   -140.06534   -5425.4797 
14107000    4.2241641   -5244.8179   -5236.6712   -5244.8179            0   -1432.1187    20.012563    19.982888    21.070045    8426.0966   -1591.0279   -1331.4238   -1373.9043   -146.96802    64.157522   -3.1522498   -5412.6585 
14108000    4.0867248   -5243.8984   -5236.0168   -5243.8984            0   -1387.7951    19.961431    19.926241    21.200702    8432.7123    -1263.388   -1209.4085   -1690.5889   -126.51502    294.39946   -172.30178   -5406.6912 
14109000     4.229381   -5245.8671   -5237.7104   -5245.8671            0    -1427.137     19.99424    19.995946    21.042299    8412.7898   -1470.6689   -1457.0491   -1353.6931   -102.21828    137.94288    37.675647   -5412.8086 
14110000    4.5429691   -5245.4505    -5236.689   -5245.4505            0    -1463.225    20.017433    19.980336    21.029832    8410.9871   -1488.4071   -1581.0262   -1320.2416   -164.52696    180.64701    98.378614   -5416.1764 
14111000    4.3547949   -5245.1756    -5236.777   -5245.1756            0   -1564.9783    20.009074    19.942031    21.081175    8411.8438   -1553.6025   -1441.1034    -1700.229   -156.50276    185.13933   -112.55412   -5428.7656 
14112000    4.1374744     -5244.52   -5236.5405     -5244.52            0   -1506.5084    20.043199    20.004944     21.00871    8423.7172   -1626.5052   -1578.2932   -1314.7268   -123.00005    217.26689    241.42602    -5421.617 
14113000    3.9913836   -5245.1763   -5237.4786   -5245.1763            0   -1456.7627    20.014983    19.969625    21.068439    8420.8806   -1576.0251   -1330.9808   -1463.2821   -31.883225    238.57296    78.123213   -5416.3835 
14114000    4.2149013   -5244.5047   -5236.3759   -5244.5047            0   -1417.3046    19.979784     19.93219    21.163956    8428.3516   -1168.4251   -1347.6699   -1735.8187   -126.40487    409.53882     135.9357   -5410.5893 
14115000    4.0958567     -5244.92   -5237.0208     -5244.92            0    -1479.359    20.028846    19.985068    21.037463    8420.8307   -1603.6881   -1422.9342   -1411.4547   -63.641588    79.192703    155.77128   -5418.6997 
14116000    4.1762684   -5245.6726   -5237.6183   -5245.6726            0   -1357.7465    20.027248    19.970608    21.022992    8408.2787   -1476.0217   -1279.2154   -1318.0023   -79.738602    51.993726    215.44076   -5404.1135 
14117000    4.1163951   -5245.5959   -5237.6571   -5245.5959            0   -1441.4935    19.983542    19.933413    21.099481    8404.7712   -1317.9168   -1299.1419   -1707.4219   -90.570692    105.13661   -147.30786   -5414.3481 
14118000    3.9620393    -5244.323   -5236.6819    -5244.323            0   -1386.8071     20.01609    20.000421    21.048946    8426.5295   -1451.0848   -1388.3434   -1320.9931   -207.20809    232.49156   -131.83263   -5407.1098 
14119000    3.9835133   -5244.7596   -5237.0771   -5244.7596            0   -1459.6755    20.024272    19.973614     21.05506    8421.1206   -1368.6531   -1544.4023   -1465.9711    -119.0145    308.70245    291.10005   -5416.3448 
14120000    4.3453911   -5245.2897   -5236.9093   -5245.2897            0    -1408.607    19.977442    19.965781    21.112144    8420.8999   -1225.4695   -1437.5325   -1562.8189   -72.836319    343.15365    117.55304   -5409.9006 
14121000    3.9980835   -5245.3123   -5237.6016   -5245.3123            0   -1430.1864    20.028074    19.996717    21.020301     8418.541   -1455.6567   -1518.7348   -1316.1678   -64.001409    39.685069    86.395258   -5413.1939 
14122000    4.2368732   -5244.4033   -5236.2321   -5244.4033            0   -1474.5838     20.02306    19.978911    21.047728    8419.9106   -1488.5274   -1512.7962   -1422.4277    -63.44071    238.14349    121.82492   -5417.3048 
14123000    4.2497916   -5245.2114   -5237.0153   -5245.2114            0   -1466.6289    19.976569    19.945882    21.113321    8412.6091   -1310.2512    -1373.904   -1715.7315    -122.9129    66.946943    111.44028   -5416.9549 
14124000    4.0994279   -5244.7694   -5236.8633   -5244.7694            0   -1525.5583     20.01408    19.999225    21.052621    8426.6507   -1622.4009   -1628.1791    -1326.095   -18.943771    318.77465    137.94653   -5424.3453 
14125000    4.2985951   -5245.0363   -5236.7461   -5245.0363            0   -1420.8989    20.022623    19.980171    21.051243    8421.6642   -1402.3537   -1473.8902   -1386.4529   -105.72425    426.18569    1.2834647   -5411.2628 
14126000    3.9502232   -5244.9862   -5237.3678   -5244.9862            0   -1375.4297     19.98495    19.932227    21.139632    8420.8575   -1331.8713   -1176.2628    -1618.155   -149.01306    224.18983    227.70413   -5406.2838 
14127000    3.9850158   -5244.7672   -5237.0817   -5244.7672            0   -1464.8663     20.01297    19.979524    21.053786    8418.3484    -1553.844   -1484.9319   -1355.8229   -125.88377    264.64303    76.982344   -5416.9277 
14128000    4.2199896   -5245.6846    -5237.546   -5245.6846            0   -1546.8099    20.022813    19.981781     21.03598    8416.3158   -1716.5461   -1496.0445   -1427.8392   -112.03291    216.43201    95.254119   -5427.4066 
14129000    4.5309486   -5245.3794   -5236.6411   -5245.3794            0    -1428.781    19.989146    19.928971    21.117892    8412.5892   -1175.4598   -1315.1849   -1795.6981   -111.33179      309.704   -74.797845   -5411.9367 
14130000    3.9439182   -5245.4864   -5237.8802   -5245.4864            0    -1402.563    20.014069    19.994898    21.025998    8414.1682   -1448.7899   -1479.9878   -1278.9112   -131.10756    238.85969    101.67603   -5409.9915 
14131000    4.0469255   -5244.9206   -5237.1158   -5244.9206            0   -1464.3833     20.00565    19.982804     21.04158    8411.7711   -1559.3999   -1423.8656   -1409.8843   -225.04189    287.79153   -34.114034    -5416.762 
14132000    4.1255916   -5244.4137   -5236.4571   -5244.4137            0   -1456.5814    19.998365    19.939372    21.096138     8412.187   -1372.8946   -1313.6833   -1683.1663   -19.439982    272.05203   -28.219134   -5415.1551 
14133000    4.3015817   -5244.4023   -5236.1063   -5244.4023            0   -1504.3043     20.04609    19.992306     21.03229    8429.0598    -1647.039   -1509.7792   -1356.0947   -12.302353    326.59482    112.04066   -5421.0292 
14134000    4.0867273   -5244.9109   -5237.0293   -5244.9109            0   -1412.7326    20.010815    19.971803    21.049383    8412.4295   -1493.1957   -1333.0445   -1411.9575   -119.05903    345.01271   -87.842372   -5410.3527 
14135000    4.2304815   -5245.3136   -5237.1548   -5245.3136            0   -1371.9477    19.970593    19.946168     21.14383    8422.3653   -1303.7275   -1257.8876   -1554.2281   -123.06554   -79.556371    -22.80806   -5405.6732 
14136000    4.0974045   -5244.7349   -5236.8327   -5244.7349            0   -1407.3999    20.047817    19.988554    21.009182    8418.9437   -1584.2887   -1602.1049   -1035.8062   -104.88815    209.37342   -29.744511   -5409.6356 
14137000    4.0596442   -5245.1094   -5237.2801   -5245.1094            0     -1419.06    20.003143    19.975772    21.053479    8412.5117   -1356.2714   -1497.8287   -1403.0799   -143.88886    54.269429   -139.32756   -5411.3815 
14138000    4.0429763    -5245.073   -5237.2758    -5245.073            0   -1393.0697    19.988238    19.958514    21.085785    8411.8691   -1239.6541   -1377.3406   -1562.2144   -155.93117    198.54601   -175.32283   -5408.1755 
14139000    4.0370979   -5245.2113   -5237.4254   -5245.2113            0   -1483.8167    20.034277    20.004706    20.995398    8414.5321   -1593.4862   -1593.5175   -1264.4465   -87.463307    26.395196   -116.02814   -5419.5154 
14140000     4.289261   -5245.1544   -5236.8822   -5245.1544            0   -1442.4743     20.01046    19.947677    21.071894    8411.1034   -1519.2439   -1378.3194   -1429.8595   -68.943233    271.12833   -89.993253   -5413.8267 
14141000    4.2736926   -5245.0201   -5236.7779   -5245.0201            0   -1531.2863    19.985808    19.976375     21.12753    8435.0394   -1499.2893   -1472.1306   -1622.4389   -75.429225    117.46226    143.29521   -5425.1513 
14142000    4.2387477   -5245.1065   -5236.9317   -5245.1065            0   -1463.2061    20.053087    20.007271    21.004797    8427.2833   -1716.7217   -1551.5664   -1121.3303   -73.718192     90.99548    30.753127   -5416.7646 
14143000    4.1577457   -5245.0217   -5237.0031   -5245.0217            0   -1467.6253    20.015431     19.95889    21.075649    8419.4223   -1442.6259   -1364.1217   -1596.1282   -144.02348    205.64427    127.29816   -5417.2108 
14144000    4.2356762   -5245.0472   -5236.8784   -5245.0472            0   -1565.4975    19.977791    19.973125    21.120054    8427.3011   -1467.0854   -1527.4206   -1701.9866    -113.3517    69.497343     51.55028   -5429.2836 
14145000    4.1147252   -5244.7099   -5236.7743   -5244.7099            0   -1465.5895    20.013762    20.008057    21.023668    8418.6441   -1599.1735   -1403.6203   -1393.9749   -120.89415    318.95784   -5.5272985   -5416.7154 
14146000    4.2365786   -5244.8418   -5236.6712   -5244.8418            0   -1515.8295    20.000187    19.945098    21.121126    8425.3376   -1512.9013   -1435.2413   -1599.3458   -166.50442   -53.881189    206.10693   -5422.9286 
14147000    4.1345714   -5245.2212   -5237.2473   -5245.2212            0    -1491.142    19.981633    19.979174    21.119655    8431.3152   -1304.2627   -1501.6446   -1667.5187   -127.46184    226.05489   -77.442499   -5420.6012 
14148000    4.0033658    -5244.559   -5236.8381    -5244.559            0   -1434.1982    20.030415    19.996602    21.017297    8418.2729   -1425.0722    -1522.831   -1354.6914   -93.346747    117.14501    129.89753   -5412.9173 
14149000    4.3948393   -5245.0859     -5236.61   -5245.0859            0    -1378.137     20.00777    19.944798    21.073584    8409.4337    -1384.725   -1242.7767   -1506.9092   -150.38431    487.80406    -3.511672   -5405.6288 
14150000    4.1471741    -5245.029   -5237.0308    -5245.029            0   -1426.7062    19.988833    19.965549     21.10605    8423.1721    -1294.481   -1371.9349   -1613.7026   -22.787053    198.01484    112.68239   -5412.2921 
14151000    4.1604262   -5243.8587   -5235.8349   -5243.8587            0   -1325.1927    20.009632    20.005449    21.040772    8422.6565   -1232.2796   -1548.7265    -1194.572   -124.63571    256.82249   -162.94807    -5398.616 
14152000    4.1936079   -5244.4283   -5236.3406   -5244.4283            0   -1388.5636    20.009001    19.978272    21.074573    8424.4607   -1383.5503   -1381.5393   -1400.6014    -108.1176    354.31747   -92.524666   -5406.9425 
14153000    4.1673934   -5245.3079   -5237.2707   -5245.3079            0    -1515.016    19.980519    19.942582    21.139758    8423.4144   -1418.8222    -1353.489   -1772.7366   -59.420614    252.51786   -72.136181   -5423.3857 
14154000      3.99809    -5245.094   -5237.3833    -5245.094            0   -1500.5372    20.023709    20.000265    21.025498    8420.2809   -1614.3803    -1626.084   -1261.1474    -148.6757    192.92436   -30.705052   -5421.6511 
14155000    4.0395471   -5244.1028   -5236.3122   -5244.1028            0   -1517.9714    20.018513    19.963964    21.075882    8422.9524   -1566.3455   -1401.7124   -1585.8564   -100.73445    146.02113   -46.986431     -5422.78 
14156000    4.2424768   -5245.4631   -5237.2811   -5245.4631            0    -1393.404    19.967262    19.927193    21.174444    8425.1312   -1310.3149   -1114.7871   -1755.1102   -68.251094    117.08788    76.011611   -5408.4913 
14157000    4.1360357   -5244.6244   -5236.6477   -5244.6244            0   -1449.8754    20.003754    19.990421    21.059271    8421.2541   -1545.5647   -1447.4205   -1356.6409    -106.9299     234.5092    197.52183   -5414.7147 
14158000    3.9556471   -5245.2598    -5237.631   -5245.2598            0   -1418.8303    20.029495    19.948023    21.059689    8414.3738   -1540.8459   -1335.3007   -1380.3444   -184.58565    308.53156    9.4668586   -5411.7428 
14159000    4.1077065   -5245.2677   -5237.3457   -5245.2677            0   -1367.1612    19.986252    19.936949    21.108651    8411.0563   -1289.2071   -1356.7957   -1455.4807   -138.85226    126.27494   -64.768307   -5405.0507 
14160000    4.2649411   -5245.4211   -5237.1958   -5245.4211            0     -1482.29    20.002259    20.000589    21.029965    8413.1843   -1396.3467   -1663.0931   -1387.4301    -210.6395    121.42739    200.53577   -5419.0693 
14161000    4.0416734   -5244.9531   -5237.1584   -5244.9531            0   -1444.8302    20.002301    19.970795    21.071114    8417.1061   -1289.9688   -1560.5749   -1483.9469   -118.29135    245.66056    119.83959   -5414.5183 
14162000     4.030874   -5244.8114   -5237.0376   -5244.8114            0   -1455.6245    20.002801    19.940917    21.105452    8418.4199   -1493.4239   -1452.7352   -1420.7144   -153.46877    164.97248   -87.442043   -5415.7504 
14163000    4.2575118   -5245.1564   -5236.9454   -5245.1564            0   -1467.0153    20.045544    20.006274    20.989785    8417.6731   -1607.4652   -1707.6926   -1085.8881   -83.319787    148.18169   -26.679139   -5417.0408 
14164000     4.250236   -5245.5447   -5237.3477   -5245.5447            0   -1357.1759    19.981775    19.973038    21.082217    8413.8444   -1178.2166   -1414.8395   -1478.4717   -83.065887    37.703708    14.138879   -5403.8831 
14165000    4.2390191   -5245.5745   -5237.3992   -5245.5745            0   -1459.4667    19.991737    19.943946    21.104466    8414.6491   -1494.3137   -1358.5551   -1525.5311   -187.35815   -17.762154    167.04405   -5416.5035 
14166000     4.129506   -5244.6082   -5236.6441   -5244.6082            0   -1325.6205    20.013272    19.994685    21.043501    8420.7474   -1323.8701   -1302.3324   -1350.6589   -143.42668    269.57999    49.480453   -5399.4409 
14167000    4.1778776   -5244.5883   -5236.5309   -5244.5883            0   -1506.1161    19.988923     19.98142    21.089284    8423.2093   -1422.1823   -1435.9666   -1660.1992   -159.35582    106.81195   -32.094878   -5421.5481 
14168000    4.3494936   -5244.3295   -5235.9412   -5244.3295            0   -1446.8658    20.011826    19.959876    21.100183    8428.1214     -1436.95   -1263.5316   -1640.1157   -83.727774    344.44092     15.08558   -5413.7834 
14169000    4.2674612   -5244.5412    -5236.311   -5244.5412            0   -1462.2356    20.036945    20.001489    21.017346    8423.0951   -1586.3158   -1606.6639    -1193.727   -46.593411    233.35757    90.552331   -5415.9353 
14170000    4.0361823   -5244.7825   -5236.9984   -5244.7825            0   -1489.9379     19.99389     19.97221    21.089874    8421.6543   -1434.5543   -1521.6478   -1513.6116   -165.08074    117.30193   -84.286992   -5419.9943 
14171000    3.9864215   -5244.1959   -5236.5077   -5244.1959            0   -1450.2973    19.984316    19.964813     21.10516     8420.603   -1359.0035   -1431.8281   -1560.0604   -161.95586    67.989512   -29.242523   -5414.6128 
14172000    4.3518167   -5245.2625   -5236.8697   -5245.2625            0   -1546.0977    20.033435    20.000437    21.043863    8431.8017   -1640.0978    -1681.953   -1316.2424   -36.688156    194.23317   -76.726515   -5426.9921 
14173000    4.0610299    -5245.209    -5237.377    -5245.209            0   -1394.4915    20.013702    19.980475     21.00827    8400.8557   -1378.0914   -1511.3174   -1294.0658   -137.24043    164.08363    38.861754   -5408.2271 
14174000     4.265982   -5245.1994   -5236.9721   -5245.1994            0   -1429.1708    19.973395    19.954641    21.114136    8415.2911   -1395.6515   -1292.0848    -1599.776   -120.51563    205.94486    24.990999   -5412.3719 
14175000    4.2520858    -5245.167   -5236.9665    -5245.167            0   -1550.6437    20.022779    19.998103    21.050432    8428.9636   -1665.7906   -1627.7864    -1358.354   -191.93073    205.87507    200.95864   -5427.5837 
14176000    4.1555246    -5244.866   -5236.8518    -5244.866            0   -1526.7872    20.001889    19.963997    21.105718    8427.8859   -1375.3125   -1639.2055   -1565.8438   -171.19941    249.98985    129.92703   -5424.5123 
14177000    4.1303388   -5244.6892   -5236.7235   -5244.6892            0   -1383.6495      19.9841     19.95894    21.096436    8414.5555   -1251.9811    -1253.259   -1645.7083    -149.8318    246.36115    53.315193   -5406.5217 
14178000    4.0786132   -5245.0862   -5237.2203   -5245.0862            0   -1456.7297     20.02739    20.000267    21.000554    8411.8382   -1506.0248   -1608.9158   -1255.2485   -139.72279    312.49201    178.28164    -5415.929 
14179000    4.1241087   -5244.3344   -5236.3807   -5244.3344            0   -1411.1344     20.00973     19.97084    21.086063    8426.2252    -1318.705   -1482.1717   -1432.5265   -78.085747    276.84927    43.922934    -5409.792 
14180000    4.2161136   -5244.5405   -5236.4094   -5244.5405            0   -1443.2665    19.975762    19.949286    21.151223    8428.8088   -1254.8411   -1388.1705    -1686.788   -125.48759     142.9292    147.64816   -5413.8237 
14181000    4.1685699    -5245.162   -5237.1225    -5245.162            0   -1447.4171    20.029886     19.99317    21.019429    8417.4599   -1501.6109   -1574.2865    -1266.354   -141.64269    356.02473    169.90979   -5414.8075 
14182000    4.1384549   -5244.5492   -5236.5678   -5244.5492            0   -1423.8834     20.00053    19.976639     21.05817     8413.652   -1360.7548   -1449.5299   -1461.3655   -109.23247    208.52204     165.4923   -5411.2847 
14183000    4.0505144   -5245.7015   -5237.8897   -5245.7015            0   -1339.3822    19.989935    19.936817     21.10072    8409.3898   -1385.8009   -1220.4733   -1411.8725   -88.630364    130.13232    77.607603   -5402.1546 
14184000    4.0270003   -5245.4003   -5237.6339   -5245.4003            0   -1493.4307    20.027139    20.003565    20.995067    8410.9218   -1634.6293   -1529.7384   -1315.9245   -82.819412   -12.519687     26.61927   -5420.8251 
14185000    4.1358533   -5244.5067   -5236.5303   -5244.5067            0   -1469.6398    20.018465    19.961906    21.076223    8422.1998    -1482.039   -1433.9421   -1492.9384   -84.676626    147.71268    80.452914   -5417.0449 
14186000    4.2745297   -5244.7187   -5236.4749   -5244.7187            0   -1584.8291    19.995827    19.923773    21.145712    8424.2891   -1534.2735   -1363.1969    -1857.017   -130.62867    74.241191    277.59239   -5431.1864 
14187000    4.0799025   -5244.7832   -5236.9148   -5244.7832            0   -1459.0914    20.043469    19.978222    21.011075    8413.5251   -1542.5805   -1519.7561   -1314.9377   -156.82628     123.7827    105.65527   -5415.9491 
14188000    4.3272837   -5244.5222   -5236.1767   -5244.5222            0   -1579.2784    20.023245    19.989507    21.053242    8426.6608   -1677.0329   -1652.2405   -1408.5618    -110.5757     132.3327    57.454471   -5430.2609 
14189000    4.0112803   -5244.9671    -5237.231   -5244.9671            0    -1461.359    19.981239    19.963305    21.111677      8421.27   -1397.5408    -1385.017   -1601.5193   -132.61828    280.86948    57.043158   -5416.7086 
14190000    4.3805971   -5244.5622   -5236.1138   -5244.5622            0   -1518.8101    20.022617    20.004069    21.056998    8434.0398    -1589.772    -1568.529   -1398.1292   -47.797219    13.939585   -88.828468   -5422.9302 
14191000    4.0495542   -5244.1732   -5236.3633   -5244.1732            0   -1425.3706    20.016865    19.972223    21.089918    8431.3546   -1529.5288   -1360.4285   -1386.1546   -97.903535    121.28815   -45.660501   -5411.6306 
14192000    4.1282454   -5244.5699   -5236.6082   -5244.5699            0   -1402.4714    19.986389    19.947963    21.117634    8419.3422   -1322.7958    -1331.429   -1553.1892   -156.74008    120.56225   -71.615772   -5408.8141 
14193000    4.1585669   -5244.7023   -5236.6821   -5244.7023            0   -1394.0715     20.02936    20.024582     20.98438    8416.4057    -1503.876   -1654.5043   -1023.8344   -87.500191    243.37899    184.90736   -5407.7969 
14194000    4.2945133   -5244.6809   -5236.3985   -5244.6809            0   -1586.8598    20.033661    19.963085    21.052218     8419.491   -1545.6027    -1686.446   -1528.5308   -89.771651    250.35691    37.019674   -5431.2485 
14195000    4.1988942   -5244.9563   -5236.8584   -5244.9563            0   -1430.8556    19.983421    19.958177    21.133435    8428.7044   -1378.9928   -1357.8578   -1555.7161    -94.13503    186.37332   -51.583672   -5412.7449 
14196000    4.1466474   -5245.1244   -5237.1272   -5245.1244            0   -1439.8782    20.031045    19.979575    21.031575    8417.0838   -1528.6922   -1476.3124   -1314.6301   -45.842947     239.8988    31.233869   -5413.8788 
14197000    4.2885939   -5244.8966   -5236.6257   -5244.8966            0   -1415.0497    20.008796    19.948725    21.099259    8421.7687   -1457.0543   -1225.5523   -1562.5425   -44.813615    114.60458      225.066   -5410.4261 
14198000    4.3045955   -5245.4494   -5237.1476   -5245.4494            0   -1544.1439    19.987671    19.959936    21.072684    8407.0028   -1426.7552   -1577.5395   -1628.1372    -58.04671     303.5115    79.804443   -5426.4713 
14199000    4.3174138   -5245.0454   -5236.7189   -5245.0454            0   -1596.1152    20.010425    20.022281    21.014789    8419.6668   -1532.3509     -1813.53   -1442.4646   -93.634345    324.08588    113.98659   -5432.7094 
14200000    4.1454982   -5245.1208   -5237.1259   -5245.1208            0   -1514.4516    20.001138     19.96253    21.072346    8413.6256   -1462.2526   -1497.0422   -1584.0601     -110.839    247.22494    42.583665   -5422.9553 
14201000    4.1272044   -5245.1514   -5237.1918   -5245.1514            0   -1282.6048    19.994612    19.928181    21.103215    8408.7079   -1248.4465   -1048.6688   -1550.6991   -95.885802    363.91886     4.758306   -5394.4806 
14202000    4.0901879   -5244.2289   -5236.3406   -5244.2289            0   -1425.2055    20.024688    19.996736    21.046703    8427.6972   -1404.6929   -1497.6137     -1373.31   -29.360688    305.52861    56.063315   -5411.5116 
14203000    4.1463865     -5245.45   -5237.4533     -5245.45            0   -1418.0378    19.991975    19.962742    21.077301     8411.838   -1447.9858   -1423.0076   -1383.1199   -88.418578     181.6139   -174.76095   -5411.4154 
14204000    4.1239528    -5245.416   -5237.4626    -5245.416            0    -1481.461    19.970485    19.961091    21.100864    8411.4933   -1455.0069   -1340.2713   -1649.1048    -150.5187    202.37386   -198.24496   -5419.1978 
14205000    3.9103591   -5244.7618   -5237.2203   -5244.7618            0   -1377.4734    20.041911    19.968977    21.031665    8417.2183    -1447.589   -1435.2152   -1249.6158   -92.214029    152.21587    -7.326353   -5406.3141 
14206000    4.2488855   -5245.2371   -5237.0427   -5245.2371            0   -1448.0323    20.000704     19.96157    21.105318    8426.2023    -1343.159   -1457.3336   -1543.6043   -131.53632    80.745148    78.731612   -5414.9878 
14207000    4.0326914   -5244.9079   -5237.1305   -5244.9079            0   -1421.0835    20.012828    19.945014    21.090428    8418.3733   -1468.9584   -1270.2475   -1524.0444   -34.936777    225.94602    110.98942   -5411.6017 
14208000    4.1659135   -5244.4773    -5236.443   -5244.4773            0   -1539.5071    20.023118    20.007777    21.058483    8436.4089   -1564.5585   -1665.2405   -1388.7222   -125.39129   -7.6983768    21.089578   -5425.8584 
14209000    4.1528903    -5244.862   -5236.8528    -5244.862            0   -1461.8906    20.000714    19.959176    21.089519    8418.8888    -1479.478   -1442.8669    -1463.327   -139.11053    299.48982   -2.4880677    -5416.345 
14210000    4.2273949   -5244.5011   -5236.3482   -5244.5011            0    -1519.404    19.999007    19.953177     21.08264    8412.8954   -1509.7612    -1443.273   -1605.1778   -125.95334    215.41348    98.151104   -5422.7691 
14211000    4.2528256   -5244.9568   -5236.7548   -5244.9568            0   -1387.1547    20.041798    19.985071    21.040239     8427.389   -1524.9472   -1474.5566   -1161.9603   -135.14218    26.665728    133.11629   -5407.2428 
14212000      4.15913    -5245.075   -5237.0538    -5245.075            0    -1391.765    20.020394    19.939468    21.095732    8421.3318   -1452.1402   -1156.4815   -1566.6732   -172.48418    206.94083    145.19528   -5407.9855 
14213000    4.4612805   -5245.1016   -5236.4977   -5245.1016            0   -1485.0933    19.966775    19.960756    21.131671    8422.0677   -1406.6565   -1393.7773   -1654.8462   -170.65263    162.27658    219.65153   -5418.9076 
14214000    4.1221268   -5244.8375   -5236.8876   -5244.8375            0   -1486.2565    20.007082    20.001858    21.033711    8417.2457   -1482.4092   -1595.6782    -1380.682   -123.21426    95.335005   -56.249107   -5419.3359 
14215000    4.0975249   -5245.2088   -5237.3064   -5245.2088            0    -1477.274    20.005145    19.934678    21.127335    8425.4991   -1488.0642   -1251.8246   -1691.9333   -81.730342    297.20507   -30.274606   -5418.8298 
14216000    4.2059375    -5245.593   -5237.4815    -5245.593            0   -1472.7193    20.012938    19.936081    21.095433    8416.6468   -1424.1449     -1413.68    -1580.333   -131.37343    283.22143    103.14357   -5418.2551 
14217000    3.9836051   -5245.4058   -5237.7231   -5245.4058            0   -1366.0727    19.993286    20.005957    21.052039     8420.496   -1388.9623   -1532.6232   -1176.6325   -98.073027    63.889635     49.63114   -5405.4827 
14218000    4.2996606   -5245.6042   -5237.3119   -5245.6042            0   -1376.2988    19.976687    19.960769    21.095307    8411.7543   -1223.6091   -1401.0095   -1504.2779   -75.078498    -26.27659    35.177056   -5406.1518 
14219000    4.2934203     -5245.17   -5236.8898     -5245.17            0   -1430.7065    19.988635    19.956402    21.119241     8424.491   -1271.7962    -1376.891   -1643.4323   -129.04852    285.49771    50.869342   -5412.6701 
14220000    4.0287189   -5245.3326   -5237.5628   -5245.3326            0   -1473.4824    20.063938    19.989145    20.987675     8417.337    -1668.285   -1542.7371   -1209.4252   -164.46451    237.37855   -145.76945   -5418.4449 
14221000    4.0905421   -5245.0966   -5237.2076   -5245.0966            0   -1467.7988    20.014308    19.950407    21.075413    8415.2776   -1585.4787   -1376.2867   -1441.6309   -94.820967    314.91516   -111.61767   -5417.3479 
14222000     4.067965   -5244.9962   -5237.1508   -5244.9962            0   -1480.4906    19.991111    19.966674    21.102869    8423.3366   -1383.9743    -1419.615   -1637.8825   -185.41035    198.71261    36.715679   -5419.0227 
14223000    4.0966837   -5244.8893   -5236.9885   -5244.8893            0   -1511.7012    20.004646    20.010644    21.023277    8415.7408    -1400.823    -1702.517   -1431.7637   -124.90697    79.284247   -168.44298   -5422.5271 
14224000    3.9778326   -5244.6092   -5236.9376   -5244.6092            0   -1425.3615    19.998743    19.938263    21.112528     8418.414   -1381.6591   -1237.0699   -1657.3557   -96.328842    116.58368    53.615179   -5411.9348 
14225000    4.2631502   -5246.0017   -5237.7798   -5246.0017            0    -1395.034    20.000063    19.965783    21.061939    8410.3887   -1417.0634   -1355.9268   -1412.1118   -125.21362    278.58235    -173.3517   -5408.8904 
14226000    4.2938705   -5244.8429   -5236.5618   -5244.8429            0    -1485.508     20.02642    20.011635    21.023927    8425.5785    -1595.175   -1626.9956   -1234.3534   -93.824667    268.08326   -144.11874   -5419.0987 
14227000     4.556965   -5244.2462   -5235.4577   -5244.2462            0   -1469.5307    19.995298    19.959847    21.109656    8424.9285   -1469.4564   -1332.3856     -1606.75   -68.864525    197.64099    50.224854   -5416.0173 
14228000    4.5334992   -5245.4777   -5236.7345   -5245.4777            0   -1523.3575    20.006388    19.939194    21.127007    8427.8005   -1494.6038   -1404.3964   -1671.0724   -182.88885    106.59397    -25.87321   -5423.9716 
14229000     4.353421   -5245.0825   -5236.6866   -5245.0825            0   -1484.4042    20.035219    19.990753    21.033242    8424.2157   -1520.5463   -1547.1434   -1385.5227   -209.60434    300.94129    28.965188   -5419.0583 
14230000    4.3081252   -5245.0756   -5236.7671   -5245.0756            0   -1390.8816    19.991197    19.950042    21.094966    8413.2042    -1425.883   -1335.9781   -1410.7837   -178.67221     413.5397   -107.24298   -5407.4254 
14231000    4.3570182   -5244.7764   -5236.3735   -5244.7764            0   -1462.8737     20.00877    19.960452    21.080967    8419.4031   -1312.0282   -1436.8826   -1639.7102   -144.22184    199.04374     86.97879   -5415.9974 
14232000    4.1141248   -5244.5425    -5236.608   -5244.5425            0   -1597.4561    20.033177    20.008738    21.001836    8418.3465   -1719.3692    -1752.824   -1320.1751     -124.493    143.20333   -43.434444   -5432.7324 
14233000    4.1435674   -5244.8255   -5236.8343   -5244.8255            0   -1468.2151    20.003001    19.946052    21.113412    8423.8481   -1443.9713   -1336.4027   -1624.2713   -113.18032    58.309869    -68.98625   -5417.2092 
14234000    4.3163766   -5244.8379   -5236.5134   -5244.8379            0   -1459.0443    20.034855    19.947114    21.073911    8421.9259   -1516.1628   -1378.2411   -1482.7291   -248.07636    256.77141     21.45617   -5415.7207 
14235000    4.0633373   -5244.9184   -5237.0819   -5244.9184            0   -1407.5847     20.02944    20.000278    21.029527    8424.3102   -1502.2721   -1468.2012   -1252.2808   -129.46214    265.89744    183.15017   -5410.0176 
14236000     3.939208   -5245.1113   -5237.5142   -5245.1113            0   -1451.1222    19.980221     19.96638    21.077281    8408.4163   -1292.4391   -1436.8328   -1624.0947   -135.56128    269.78715   -90.964078   -5415.4626 
14237000    4.1521426   -5245.0499   -5237.0422   -5245.0499            0   -1513.9395    20.002729    19.973245    21.077124    8420.7202   -1609.6886   -1386.2358   -1545.8941    -74.76883    128.31844    152.58137   -5422.9654 
14238000    4.1313495   -5244.4834   -5236.5157   -5244.4834            0   -1453.5937    20.025998    19.997776    21.037621    8425.0497   -1502.9093   -1581.7092   -1276.1628   -73.923429    122.30157   -78.480149   -5415.1198 
14239000    4.2447151   -5244.9449   -5236.7586   -5244.9449            0   -1465.6528    20.010206    19.960291    21.087548    8422.5679   -1489.1996   -1386.0314   -1521.7275   -140.88675    195.33435    32.586087   -5416.7914 
14240000    4.3564603   -5245.0207   -5236.6189   -5245.0207            0   -1483.5771    19.988164    19.956614    21.127912    8427.8412   -1386.2414   -1507.9205   -1556.5696   -134.23366    76.105205   -100.69658   -5418.9675 
14241000    4.0213614   -5244.8395    -5237.084   -5244.8395            0   -1450.8092     20.05667    19.984902    21.020667    8425.7264   -1705.5962   -1462.1425   -1184.6889   -159.53271    190.25981    273.49663   -5415.3603 
14242000    4.1670538   -5244.9866   -5236.9501   -5244.9866            0   -1439.4504    19.986701    19.951526    21.093554    8411.3748   -1266.7437   -1401.0446   -1650.5628   -156.85401    196.99745    133.09117   -5413.5293 
14243000    4.1817728   -5244.4494   -5236.3845   -5244.4494            0   -1425.0396    19.971811    19.971092    21.104803     8417.838   -1264.1039   -1394.1425   -1616.8724   -64.869556   -85.358661     13.94749   -5411.3302 
14244000     4.314683   -5244.5431   -5236.2219   -5244.5431            0   -1488.9313    20.016528    20.000534    21.040182    8423.2531   -1505.6933   -1573.0173   -1388.0833   -227.14736    277.76762    128.95696   -5419.1289 
14245000    4.2759975   -5244.0204   -5235.7738   -5244.0204            0   -1411.8191    20.009065    19.963767    21.084376    8422.2872   -1471.2746   -1427.3412   -1336.8416   -30.420355    261.11147   0.82493151   -5409.1881 
14246000    4.3295964   -5244.4692   -5236.1192   -5244.4692            0   -1506.8299    19.996625     19.93758    21.143178    8429.4534    -1545.806   -1287.4703   -1687.2135   -146.00289    82.036588    -136.9452   -5421.3612 
14247000    4.1478811    -5244.997   -5236.9974    -5244.997            0   -1479.5971    20.018762    19.979102    21.073523    8428.5006   -1539.9808   -1505.5522   -1393.2584   -143.70614    380.00699   -48.473355   -5418.8711 
14248000    4.3240125   -5244.8185   -5236.4792   -5244.8185            0   -1464.8479    20.007964     19.95009    21.083665    8415.7703   -1386.4954   -1475.2085   -1532.8399   -177.63793    65.838374    8.7149421   -5416.2679 
14249000    4.1385871   -5245.6485   -5237.6669   -5245.6485            0   -1465.2878    19.976418    19.954402    21.103662    8412.2883   -1420.2708   -1376.2158   -1599.3767   -97.890636    357.24343   -37.606254   -5417.4352 
14250000    4.2902225    -5244.695   -5236.4209    -5244.695            0   -1516.2007    20.027684    20.002851    21.012568    8417.8613   -1612.4201   -1693.8932   -1242.2888   -185.77764    292.60284    52.542494   -5422.5586 
Loop time of 357.72 on 64 procs for 250000 steps with 972 atoms

Performance: 120.765 ns/day, 0.199 hours/ns, 698.870 timesteps/s
99.1% CPU use with 64 MPI tasks x 1 OpenMP threads

MPI task timing breakdown:
Section |  min time  |  avg time  |  max time  |%varavg| %total
---------------------------------------------------------------
Pair    | 16.408     | 25.945     | 35.684     |  94.2 |  7.25
Bond    | 0.25782    | 0.27598    | 0.28764    |   1.1 |  0.08
Kspace  | 145.12     | 154.89     | 164.89     |  39.0 | 43.30
Neigh   | 0.084054   | 0.08842    | 0.091813   |   0.7 |  0.02
Comm    | 81.449     | 82.558     | 83.857     |   7.0 | 23.08
Output  | 0.54061    | 0.54274    | 0.54436    |   0.1 |  0.15
Modify  | 83.613     | 85.19      | 88.204     |  11.8 | 23.81
Other   |            | 8.226      |            |       |  2.30

Nlocal:        15.1875 ave          19 max          11 min
Histogram: 1 7 11 6 0 9 9 8 12 1
Nghost:        2196.30 ave        2218 max        2173 min
Histogram: 3 4 6 5 9 12 9 9 5 2
Neighs:        4689.77 ave        6315 max        3057 min
Histogram: 2 5 9 8 9 7 10 5 5 4

Total # of neighbors = 300145
Ave neighs/atom = 308.79115
Ave special neighs/atom = 2.0000000
Neighbor list builds = 250
Dangerous builds = 0

unfix		3
unfix		2
unfix		1

write_data	data.final.${pid}
write_data	data.final.1
System init for write_data ...
PPPM initialization ...
  extracting TIP4P info from pair style
  using 12-bit tables for long-range coulomb (../kspace.cpp:340)
  G vector (1/distance) = 0.37208264
  grid = 24 24 25
  stencil order = 5
  estimated absolute RMS force accuracy = 0.003446816
  estimated relative force accuracy = 1.0379984e-05
  using double precision FFTW3
  3d grid and FFT values/proc = 2366 288
Last active /omp style is kspace_style pppm/tip4p/omp
WARNING: Not all mixed pair coeffs generated from mixing. Use write_data with 'pair ij' option to store all pair coeffs. (../write_data.cpp:312)

write_restart   restart.lmp.${pid}
write_restart   restart.lmp.1
System init for write_restart ...
PPPM initialization ...
  extracting TIP4P info from pair style
  using 12-bit tables for long-range coulomb (../kspace.cpp:340)
  G vector (1/distance) = 0.37208264
  grid = 24 24 25
  stencil order = 5
  estimated absolute RMS force accuracy = 0.003446816
  estimated relative force accuracy = 1.0379984e-05
  using double precision FFTW3
  3d grid and FFT values/proc = 2366 288
Last active /omp style is kspace_style pppm/tip4p/omp
Total wall time: 0:05:57
