LAMMPS data file via write_data, version 30 Jul 2021, timestep = 23750000

864 atoms
2 atom types
576 bonds
1 bond types
288 angles
1 angle types

0.6254624864105676 17.582109913565873 xlo xhi
1.828243462172054 21.800934337814226 ylo yhi
0.7630627725095049 21.450133027482643 zlo zhi

Masses

1 1.00794
2 15.9994

Pair Coeffs # lj/cut/tip4p/long/omp

1 0 0
2 0.21084 3.1668

Bond Coeffs # harmonic/omp

1 450 0.9572

Angle Coeffs # harmonic/omp

1 55 104.52

Atoms # full

38 1 1 0.5897 4.045860413523455 3.8083225741430473 3.8888906165171084 1 2 -3
460 1 2 -1.1794 2.281709023877173 4.254096699951091 4.921260156103988 8 1 0
767 1 1 0.5897 2.439421868798138 2.3930598680647672 2.19535946405772 -4 3 -1
462 1 1 0.5897 1.51281123348964 4.394076149728567 4.36850043626502 8 1 0
766 1 2 -1.1794 2.627177085654049 3.2192350418587203 1.7497863104741733 -4 3 -1
447 1 1 0.5897 4.062438346178402 4.933238537835177 1.5818708186282175 4 -1 -4
768 1 1 0.5897 1.8963134091499867 3.7906504444476212 1.9857157290319354 -4 3 -1
461 1 1 0.5897 2.040441009795251 3.5203171946329372 5.486677730926739 8 1 0
110 1 1 0.5897 3.992709252951717 6.776336692979638 5.8745302972805264 -3 -2 -7
561 1 1 0.5897 0.7066048020539817 5.5268000690916415 1.0073403988178908 4 3 3
54 1 1 0.5897 4.38720292921395 2.6401196891745102 1.1188823779083972 -2 0 6
445 1 2 -1.1794 4.587465167891862 5.424364989321576 0.9498089847244492 3 -1 -4
651 1 1 0.5897 1.520998776595191 6.290551239244602 10.272331384328883 1 -4 0
649 1 2 -1.1794 0.9797842903831075 5.95874765272909 9.555855181413202 1 -4 0
856 1 2 -1.1794 2.908217266064986 4.112371932239528 8.68702453264708 -2 -1 -5
402 1 1 0.5897 0.6845703701260399 2.499924476767248 6.818491583638537 -2 -1 -2
857 1 1 0.5897 2.234208445469963 4.68972934922261 9.04578963365604 -2 -1 -5
858 1 1 0.5897 3.559094174909802 4.0404151200392775 9.385253816916112 -2 -1 -5
109 1 2 -1.1794 3.125698061471113 6.783861266978457 6.280205466145333 -3 -2 -7
593 1 1 0.5897 1.6869853157272445 2.3097683743554933 8.80308835008106 1 1 -4
390 1 1 0.5897 4.140167141024204 4.009112252442412 6.829810793582799 6 5 6
594 1 1 0.5897 1.7320342879283102 2.323903459450711 10.316345210429969 1 1 -4
400 1 2 -1.1794 1.4147150239985429 1.933751500296454 6.568124238613203 -2 -1 -2
111 1 1 0.5897 2.7145110522370355 5.972193374305669 5.982786750468574 -3 -2 -7
307 1 2 -1.1794 1.8362900978568606 3.3614249854289673 11.652603295809847 -3 6 -4
264 1 1 0.5897 3.6950287908312403 2.9488638378190624 15.367450958474665 4 1 5
236 1 1 0.5897 1.4101036881766913 6.732555949453887 15.019945078759722 -3 -3 -4
262 1 2 -1.1794 4.6478026530499275 2.899582449902616 15.289121938438244 4 1 5
643 1 2 -1.1794 2.3428899058948716 6.0957602027684175 11.869634027438511 4 1 2
412 1 2 -1.1794 3.1570771420438346 6.693946168628711 15.740819632829135 7 -2 4
309 1 1 0.5897 2.0646024492226016 4.291049643308587 11.656962428346677 -3 6 -4
645 1 1 0.5897 1.8445636591933041 6.4487718098318805 12.606801879979608 4 1 2
308 1 1 0.5897 1.3604752630692292 3.2273078156488975 12.472332227079475 -3 6 -4
263 1 1 0.5897 4.842272020087623 3.3249591314689964 14.453911500770944 4 1 5
235 1 2 -1.1794 0.8707740452139918 6.45742619624507 14.27846113225048 -3 -3 -4
63 1 1 0.5897 2.6727337170329344 1.8742942071621016 11.870457583327042 -1 3 5
644 1 1 0.5897 3.258802653603124 6.236750473297349 12.109592616630822 4 1 2
735 1 1 0.5897 1.020726685129939 3.114564493542537 14.794186792407444 -2 0 -8
568 1 2 -1.1794 2.0494616518382442 2.905491092192438 16.22008482697276 3 -4 1
734 1 1 0.5897 0.8135971681772318 4.479324558277376 14.172293814056587 -2 0 -8
551 1 1 0.5897 2.010619625561617 5.258764623312552 18.711832199571276 1 14 -6
368 1 1 0.5897 2.4540164867916237 2.64230017065286 20.599195544171586 4 2 -6
569 1 1 0.5897 1.9222497973599602 3.6103317123678416 16.855196628442883 3 -4 1
220 1 2 -1.1794 4.247736179384525 3.975952043856428 18.919735531317343 5 -3 4
413 1 1 0.5897 2.651212014317893 6.1783752810349 16.36901307685242 7 -2 4
367 1 2 -1.1794 2.3161481296388087 2.3036668392219006 19.714513717129705 4 2 -6
222 1 1 0.5897 3.6466714691931514 3.273580556108502 19.16819793412482 5 -3 4
550 1 2 -1.1794 1.6064990176294192 5.147819233951801 17.851169946315444 1 14 -6
446 1 1 0.5897 4.01645966945107 5.5217448093637795 20.87476641544857 3 -1 -5
570 1 1 0.5897 1.8350234956174996 2.1066373067121553 16.701948016818534 3 -4 1
552 1 1 0.5897 0.6841878930825326 4.9741544466268195 18.039676270360786 1 14 -6
393 1 1 0.5897 4.556546469554007 5.834702022078241 16.43534864902675 5 3 1
76 1 2 -1.1794 2.679409645386297 6.6629850286051155 20.10949681869451 -8 -6 -1
78 1 1 0.5897 2.4833886827291165 6.7741233468825195 21.03987477368252 -8 -6 -1
27 1 1 0.5897 4.736303608997101 2.0083148556231727 17.186569886695054 0 8 7
410 1 1 0.5897 1.8382659531933254 9.13099276758502 4.333981483536034 8 -2 -9
411 1 1 0.5897 2.138364816366288 7.770428936333388 4.926442275051143 8 -2 -9
542 1 1 0.5897 3.537581805054844 9.023930189540806 1.9728851815891764 3 0 6
860 1 1 0.5897 1.3450721585587426 9.676852426754742 1.0013367496430503 -6 1 3
670 1 2 -1.1794 1.3992206925702209 7.164129087532207 1.7222681957508912 16 4 2
543 1 1 0.5897 3.4048130045732186 10.35628738787738 1.2661780922342452 3 0 6
409 1 2 -1.1794 1.5599725531712338 8.215474862667477 4.30695864195763 8 -2 -9
49 1 2 -1.1794 2.281703034616827 11.288561978422424 4.8638756353145425 8 -4 -2
51 1 1 0.5897 1.9758779226897658 11.346923359115163 3.9586388596720723 8 -4 -2
396 1 1 0.5897 4.520961118218851 10.657963708023079 2.749104908273457 2 1 3
541 1 2 -1.1794 3.0210011820012284 9.829878299031554 1.9675481343227281 3 0 6
672 1 1 0.5897 1.0901969090354116 7.965336414694266 1.2992734087644946 16 4 2
671 1 1 0.5897 1.734010306921394 7.454480897182941 2.5707784761424204 16 4 2
449 1 1 0.5897 4.7370902189045845 7.0523802557457875 1.8757793906068931 -1 -3 -8
50 1 1 0.5897 1.5358696982268496 11.579974076544687 5.388422623575407 8 -4 -2
745 1 2 -1.1794 1.5927678814431743 9.150895093975263 10.90113927360106 3 3 -6
268 1 2 -1.1794 0.992995827908185 7.997505998693351 7.552586730446414 5 0 3
482 1 1 0.5897 3.331829066666083 10.574462270281987 6.578262420971891 -5 1 1
481 1 2 -1.1794 3.6547215745085206 10.38631569612815 7.459556208964515 -5 1 1
483 1 1 0.5897 3.4365891506641693 11.168102581298102 7.967065780292306 -5 1 1
270 1 1 0.5897 1.7627953228084683 7.7181939889000715 7.056857411411677 5 0 3
269 1 1 0.5897 0.9197376128291667 7.3590215516011686 8.262031238836697 5 0 3
746 1 1 0.5897 2.400796861330215 8.97846999104129 10.417718019726722 3 3 -6
70 1 2 -1.1794 3.7183232996750206 8.296353536042263 9.403145653900616 3 4 -4
72 1 1 0.5897 3.6361066372594713 8.691678905581417 8.535217491186177 3 4 -4
71 1 1 0.5897 4.50960589215343 8.68918091695678 9.771831171145934 3 4 -4
683 1 1 0.5897 1.7927066281423878 11.229418745595172 8.971867301656092 6 0 -6
245 1 1 0.5897 4.557971985004549 6.8851480330485275 8.73442064284858 -7 2 -4
120 1 1 0.5897 1.83644966047181 8.747840945242636 14.344671000120083 3 -4 -1
818 1 1 0.5897 4.808807831496431 7.9982391867587594 12.939802807395811 8 1 2
414 1 1 0.5897 3.2290447397935305 7.559463904100664 16.143387952599973 7 -2 4
819 1 1 0.5897 3.9983770989941183 7.0286690245422525 13.773718565405972 8 0 2
416 1 1 0.5897 1.2883962719739546 11.150023206220062 11.639326847853729 -6 1 1
119 1 1 0.5897 2.88446554480214 9.789925264617963 14.016191710661715 3 -4 -1
88 1 2 -1.1794 3.244748953905289 11.739293899621064 14.16872679561472 7 -2 2
118 1 2 -1.1794 2.4814883936096415 8.98938767996458 13.679896516250286 3 -4 -1
747 1 1 0.5897 1.819651968434305 8.982364219282061 11.815723780410805 3 3 -6
817 1 2 -1.1794 4.592847540184893 7.0694280910872935 13.02451013179308 8 1 2
772 1 2 -1.1794 1.1376867333463445 9.0956877538834 16.130080928424782 6 0 1
207 1 1 0.5897 4.330990300711958 8.769105406633429 18.805397288229834 -7 5 -4
77 1 1 0.5897 3.341026984080401 7.3291078120943975 19.922409221091378 -8 -6 -1
324 1 1 0.5897 4.513397620018902 9.24794500626836 16.475990658022475 8 -5 -3
35 1 1 0.5897 1.8253446850711847 9.946406111931521 18.869436271682822 -6 2 -1
322 1 2 -1.1794 3.8214406289238725 8.9265396783095 17.054125609359822 8 -5 -3
34 1 2 -1.1794 2.0899494268147536 10.863377371577197 18.795378255633224 -6 2 -1
140 1 1 0.5897 1.4033686340845875 7.635803004103941 19.16813372155009 2 0 -2
139 1 2 -1.1794 0.9143089794045277 8.38386108548153 18.825247817937637 2 0 -2
205 1 2 -1.1794 4.777404938345575 8.543564170612093 19.62162735103464 -7 5 -4
843 1 1 0.5897 3.789868858812698 11.6634926142107 18.222710819533575 0 6 2
36 1 1 0.5897 1.9783221899339596 11.21739527353037 19.67773268983639 -6 2 -1
323 1 1 0.5897 3.0494389746452812 9.438086377197063 16.811906505938417 8 -5 -3
774 1 1 0.5897 0.9553296989984321 8.706145176056605 16.98526758940656 6 0 1
91 1 2 -1.1794 4.4745596425524505 12.982896280900581 4.456742698460266 -1 -6 7
465 1 1 0.5897 4.405093944778889 13.677062291460567 2.6028872074951224 5 -1 0
255 1 1 0.5897 0.9888346624278328 15.0589708820892 4.140525692015878 5 3 -3
464 1 1 0.5897 3.748020228324907 14.792560991721075 1.8179208696933211 5 -1 0
330 1 1 0.5897 3.094747198769965 15.93991287251536 3.600096105766474 4 3 1
329 1 1 0.5897 3.409278621817779 14.661120648306166 4.347048613807159 4 3 1
93 1 1 0.5897 4.862069229320697 12.84705163918975 5.321453321547319 -1 -6 7
463 1 2 -1.1794 4.107341384586233 13.910281612681537 1.7235185414449865 5 -1 0
328 1 2 -1.1794 2.8330549790592032 15.42535799226884 4.36369860419498 4 3 1
225 1 1 0.5897 1.4071917026010674 12.228838177395092 1.136277441475019 3 -1 -5
92 1 1 0.5897 3.6800762424523996 12.448948184381978 4.463207811945458 -1 -6 7
760 1 2 -1.1794 3.212432183204252 16.452503051945047 1.9044232511930355 4 -3 -1
762 1 1 0.5897 3.6992750055665775 16.544988384831065 1.0854143724301883 4 -3 -1
224 1 1 0.5897 2.751698146302235 12.900031993902058 0.9519909048487989 3 -1 -5
361 1 2 -1.1794 1.483850975816098 14.225002004597766 10.616656339383676 4 0 -5
647 1 1 0.5897 1.1824902555022683 13.243440177824503 6.5893640598941925 -4 -3 -3
619 1 2 -1.1794 2.5631476597864897 14.061391258296993 7.310271923868387 3 -2 2
679 1 2 -1.1794 4.336306629734134 15.018562268173682 9.51961659450767 -12 -6 -1
681 1 1 0.5897 4.164480268526224 15.947728762887076 9.366382394683386 -12 -6 -1
620 1 1 0.5897 3.4410147526026633 14.037538963056118 7.691269356927851 3 -2 2
778 1 2 -1.1794 1.5651034800409074 16.454830361573762 8.230658610954475 -2 3 -5
621 1 1 0.5897 2.2146641743904096 14.91617647596272 7.563730308620541 3 -2 2
684 1 1 0.5897 1.8060971544974043 12.636429323983547 9.530726119738878 6 0 -6
363 1 1 0.5897 1.9210914964951784 15.05662435517768 10.433388032328672 4 0 -5
362 1 1 0.5897 0.9372507276642825 14.066509205281292 9.846950620730754 4 0 -5
779 1 1 0.5897 1.068224903238676 16.656686049156868 7.437742026809103 -2 3 -5
682 1 2 -1.1794 2.363231792573643 11.869478413636458 9.397537867456355 6 0 -6
726 1 1 0.5897 3.5230135591942253 11.8635508713629 10.893619888069145 6 -6 2
58 1 2 -1.1794 0.7178402845080922 12.834772043667689 14.600128482950042 6 -1 -3
188 1 1 0.5897 4.522027489037596 13.536430057734242 12.043187975494389 -4 3 3
385 1 2 -1.1794 3.3651667484652457 15.186249754683999 14.461752675870114 -2 -3 5
417 1 1 0.5897 1.0762883566806825 12.643307827202529 11.507856484259733 -6 1 1
90 1 1 0.5897 2.63785074662009 12.44174185578393 14.402403449018673 7 -2 2
189 1 1 0.5897 4.464547875457085 14.912112829451097 11.413616529411158 -4 3 3
59 1 1 0.5897 0.6483704783004633 12.567926111507532 13.683417565725309 6 -1 -3
187 1 2 -1.1794 4.803992063316705 14.441660553500762 12.17507160897573 -4 3 3
386 1 1 0.5897 3.6581807117852625 14.887143781337622 13.600926462598695 -2 -3 5
387 1 1 0.5897 4.013233187719488 14.83371773941251 15.071727358000341 -2 -3 5
89 1 1 0.5897 4.099406737000496 12.051771430555844 14.465897652695197 7 -2 2
753 1 1 0.5897 3.088957234935519 16.563433584451978 13.028548316931833 2 -2 -6
415 1 2 -1.1794 0.7558802364858229 11.871396818852824 11.974582302489079 -6 1 1
724 1 2 -1.1794 4.179447438769455 11.876672006979058 11.590296606648845 6 -6 2
725 1 1 0.5897 3.669511112754813 11.895568488285587 12.40021640006746 6 -6 2
291 1 1 0.5897 2.0377109907692508 15.794029701207881 16.121864364001073 -8 -4 -8
841 1 2 -1.1794 4.505954086298816 12.16589992930142 17.833928198632428 0 6 2
289 1 2 -1.1794 1.763080176924354 15.70060432494787 17.034111432585128 -8 -4 -8
290 1 1 0.5897 1.2660388062579198 14.882703582061438 17.05256906710499 -8 -4 -8
812 1 1 0.5897 3.0048995289458404 14.769093203202903 18.512520054277672 0 4 -3
842 1 1 0.5897 4.377160767350129 13.057427741611114 18.15785807748143 0 6 2
160 1 2 -1.1794 4.684747938961574 16.747804998000085 20.282905777507338 0 8 1
18 1 1 0.5897 1.240577740648067 13.927240987870016 20.651751898878985 -5 7 3
811 1 2 -1.1794 3.7314227559479876 14.37088274978272 18.992038030241993 0 4 -3
813 1 1 0.5897 4.105887266859634 15.089995125429382 19.500968076532885 0 4 -3
326 1 1 0.5897 1.6322047300868179 16.52923275128632 20.068490226034108 3 2 -4
223 1 2 -1.1794 2.0042231644725987 12.555587189408035 21.15019165612999 3 -1 -6
134 1 1 0.5897 1.1436456115108897 12.580211371191647 17.730822181488577 -2 -5 1
16 1 2 -1.1794 0.8262212897057495 14.737832684877114 20.355780485100354 -5 7 3
582 1 1 0.5897 4.4572533626072 17.833442790798333 2.69993024744333 -4 -1 4
815 1 1 0.5897 1.833938396158813 19.084583373215036 0.9124116808965218 -5 7 -3
85 1 2 -1.1794 0.7309432046917567 19.43978436723806 5.293239302944881 2 5 1
335 1 1 0.5897 2.0058765348333814 18.25277239223616 5.5235829285993345 8 -3 6
251 1 1 0.5897 4.203342785792387 20.461128321289706 5.516436551699334 7 1 5
86 1 1 0.5897 1.0009968338555295 19.949908494601477 4.5295545519804765 2 5 1
814 1 2 -1.1794 1.4887253161699459 18.57180760591251 1.6433214209230256 -5 7 -3
476 1 1 0.5897 1.7108032242696545 20.295333964621893 2.6971100222979776 -1 -3 -2
250 1 2 -1.1794 4.4740359986828935 20.66873727244483 4.622028650834348 7 1 5
475 1 2 -1.1794 1.9883571167403817 20.92928164791524 3.3584867199871273 -1 -3 -2
336 1 1 0.5897 2.5670989932843624 16.84977059366375 5.429481422674053 8 -3 6
477 1 1 0.5897 2.8389435234699802 20.607508419624622 3.657340111058596 -1 -3 -2
761 1 1 0.5897 2.532904859791387 17.125067731806507 1.8569540905435324 4 -3 -1
334 1 2 -1.1794 2.7468027598034324 17.713643741666075 5.80065257429525 8 -3 6
252 1 1 0.5897 4.6092560109940095 19.81621003233961 4.208198974058199 7 1 5
816 1 1 0.5897 0.6464398866697039 18.242919591195317 1.32909980119465 -5 7 -3
320 1 1 0.5897 4.645619844062394 17.07275060224095 5.505302978752128 3 -1 -4
780 1 1 0.5897 2.3426444242846682 17.010384400610114 8.174603107621206 -2 3 -5
471 1 1 0.5897 0.8952429872212346 20.154775300372 8.54856450926694 7 -7 6
311 1 1 0.5897 2.940210781940021 18.611366401547507 9.484733683077064 -6 5 2
312 1 1 0.5897 3.6135494769408263 18.74676516929263 8.135476755324728 -6 5 2
428 1 1 0.5897 2.9875582237246983 20.816280544594143 7.225850582911818 -2 -5 0
178 1 2 -1.1794 1.8970549535518904 18.942260976403233 10.983561237646047 -8 -2 2
427 1 2 -1.1794 3.77924018583151 20.280370469933377 7.274961668232001 -2 -5 0
310 1 2 -1.1794 3.5659624361605107 18.178143261374526 8.904074636210034 -6 5 2
429 1 1 0.5897 4.479222649462898 20.903610341440654 7.469761866147228 -2 -5 0
678 1 1 0.5897 4.732989217411263 21.21757011846411 10.712237265682946 -3 0 -6
592 1 2 -1.1794 1.4274439647949873 21.776116968092342 9.572924501770808 1 0 -4
401 1 1 0.5897 1.0113524420948057 21.20915080463046 6.050995871600718 -2 -2 -2
74 1 1 0.5897 4.54832197053628 20.74266180998792 14.778224643418175 1 4 4
667 1 2 -1.1794 1.5720105641599567 20.419321771914614 14.283420074685226 -4 0 2
180 1 1 0.5897 2.231487745208674 18.20345319748677 11.492164818012716 -8 -2 2
654 1 1 0.5897 3.6423062032460596 18.830078610289085 15.234000785361928 -4 1 2
668 1 1 0.5897 1.0439034448391287 20.0420421664884 13.579785374188567 -4 0 1
751 1 2 -1.1794 3.285438281988175 16.971247717039766 12.185084421450664 2 -2 -6
62 1 1 0.5897 2.9157143455109864 20.788848601559927 12.925687760248188 -1 2 5
61 1 2 -1.1794 3.2028027917435855 21.07214343455592 12.057538021480966 -1 2 5
652 1 2 -1.1794 3.0424084753978304 18.168065908209122 15.577808951443618 -4 1 2
2 1 1 0.5897 1.6231010624370987 17.562988099904707 14.39631193516513 4 -2 3
752 1 1 0.5897 4.152965170402771 17.35861505762491 12.302077238422239 2 -2 -6
669 1 1 0.5897 0.9389037653184026 20.64055883248568 14.966478055433624 -4 0 2
1 1 2 -1.1794 0.8894131719439944 17.035033210520396 14.081186206796806 4 -2 3
179 1 1 0.5897 2.379027106678601 19.699859040729297 11.31552805297534 -8 -2 2
208 1 2 -1.1794 4.41092313215988 17.834871323446595 17.80766210902982 -3 -4 1
369 1 1 0.5897 2.4595458037728792 21.33318905962547 19.7934890952045 4 1 -7
728 1 1 0.5897 2.7029127098314434 18.867740762430675 19.850697030523158 -1 0 3
851 1 1 0.5897 2.8221361505967537 20.508295456517903 17.394781947350246 -10 -1 -3
729 1 1 0.5897 3.835253338642589 19.369696904105457 20.72134673026183 -1 0 3
852 1 1 0.5897 2.1683509880558383 19.69754259645818 16.295963190670136 -10 -1 -3
727 1 2 -1.1794 3.025423778099737 19.651482087982735 20.295763561657765 -1 0 3
850 1 2 -1.1794 1.9703019028221131 20.19766188575299 17.08780622802867 -10 -1 -3
325 1 2 -1.1794 1.7409686002720357 17.33301621047354 19.5601141224575 3 2 -4
327 1 1 0.5897 1.8538003564855405 17.03305430889879 18.65808815585256 3 2 -4
494 1 1 0.5897 0.6836557589329999 17.061304528847504 16.877241688616387 0 -3 3
162 1 1 0.5897 4.558330049812689 17.199315631609423 19.448332303671442 0 8 1
25 1 2 -1.1794 4.732769250622368 21.086240823161244 17.52677086479322 0 7 7
630 1 1 0.5897 0.8120232698541552 20.060834410727228 18.59061815096016 -3 -3 5
209 1 1 0.5897 4.733122921865114 18.736215979268334 17.81825527356235 -3 -4 1
653 1 1 0.5897 3.3616038138275415 17.99139247945088 16.462830535895932 -4 1 2
52 1 2 -1.1794 5.239502857515728 2.303202361830208 1.3953192503231855 -2 0 6
282 1 1 0.5897 6.654199378189729 4.99528364647946 1.1223761695158698 0 -4 -1
573 1 1 0.5897 6.197550852996408 6.577093147575634 5.424697763603387 0 -3 0
280 1 2 -1.1794 7.530658140744164 4.703014338339051 1.3728481162716775 0 -4 -1
243 1 1 0.5897 7.991512607726874 2.8662513400732594 1.5279609976053767 1 -2 5
148 1 2 -1.1794 8.088798525476573 3.5417747804508832 5.534954516083302 0 -6 2
241 1 2 -1.1794 8.300051335563605 2.017949858132389 1.2092988921619956 1 -2 5
281 1 1 0.5897 7.6949013615118425 5.130071248229493 2.2136731067993214 0 -4 -1
39 1 1 0.5897 5.244871425123956 3.4121613515047398 3.05367138551702 1 2 -3
150 1 1 0.5897 8.517343917899328 4.06388354628743 4.856656223490304 0 -6 2
100 1 2 -1.1794 8.096848443178391 6.595967399077297 3.4090625236654795 8 -5 -3
53 1 1 0.5897 5.86120551786267 2.6861340751807505 0.7762842712353506 -2 0 6
571 1 2 -1.1794 5.4800410376221205 6.736998972745125 4.811551694749876 0 -3 0
572 1 1 0.5897 5.401916338078066 5.921904343712845 4.315709267728519 0 -3 0
37 1 2 -1.1794 4.949989846749883 4.057185093820214 3.6965828063033164 1 2 -3
101 1 1 0.5897 9.047257616335118 6.710075622546962 3.415727502103497 8 -5 -3
389 1 1 0.5897 5.077864345277076 4.243928583119025 5.6645479018540685 6 5 5
776 1 1 0.5897 6.094210337304985 3.8001556649481776 9.970837978618722 4 -2 2
108 1 1 0.5897 8.248775237383501 3.4599543014922656 8.918354657943894 4 -1 3
106 1 2 -1.1794 7.728019509176737 3.4717077359201793 9.721488104476974 4 -1 3
830 1 1 0.5897 5.965672280791858 2.6957985874730905 7.372818259747287 4 1 5
388 1 2 -1.1794 5.024946073283487 4.307088724362157 6.618269812027433 6 5 6
777 1 1 0.5897 5.140929879793783 4.948782036943557 9.717685386059472 4 -2 2
749 1 1 0.5897 7.056995092917745 5.993492764982191 7.467859086204935 -3 5 2
107 1 1 0.5897 8.193911773494168 4.0747706343909975 10.300803468755953 4 -1 3
698 1 1 0.5897 8.733859459492733 6.274862546273723 10.171766686015228 1 3 -1
775 1 2 -1.1794 5.183397460793945 4.068700041769404 10.09185637732388 4 -2 2
748 1 2 -1.1794 7.593945189126847 5.906636022522205 6.680153830992813 -3 5 2
244 1 2 -1.1794 5.329578231328603 6.33662788463512 8.59268013377002 -7 2 -4
750 1 1 0.5897 7.509625911379454 4.985809408340948 6.432549096498886 -3 5 2
149 1 1 0.5897 8.756506300659362 3.4336996009604452 6.212324615783357 0 -6 2
785 1 1 0.5897 9.102542536807338 2.024666426835388 10.742336573780097 3 10 4
246 1 1 0.5897 5.100411250512008 5.789570240692756 7.84131522261357 -7 2 -4
545 1 1 0.5897 6.576849223091772 6.307688395871514 12.026852186270022 -3 0 4
136 1 2 -1.1794 8.927799857628338 5.041996767803408 14.30802798584926 6 -6 -3
703 1 2 -1.1794 7.354247107428039 3.432485148385199 15.927795907463956 7 2 -3
663 1 1 0.5897 5.142190525932792 4.3685626250230944 12.341405835321229 1 -5 -2
137 1 1 0.5897 8.362590187939215 5.812946948385086 14.358146440102999 6 -6 -3
544 1 2 -1.1794 7.344554592260549 6.5379576650642415 11.503458285075697 -3 0 4
661 1 2 -1.1794 5.659173056501562 4.2723835904372205 13.141300206178943 1 -5 -2
662 1 1 0.5897 6.2025754250445395 3.5000744943077207 12.984451346272795 1 -5 -2
138 1 1 0.5897 8.607680304982345 4.464264742987735 15.000914611708113 6 -6 -3
705 1 1 0.5897 6.508533302798103 3.4214465931411087 15.479442207423464 7 2 -3
755 1 1 0.5897 7.804067562823822 2.5982400790264637 12.160620672137027 -6 3 -5
585 1 1 0.5897 6.362823480653366 6.722462197316207 15.746450745067609 -7 -9 2
754 1 2 -1.1794 7.051975470354435 2.0898601855163434 12.4643522689113 -6 3 -5
584 1 1 0.5897 6.149452083038453 6.483095449144005 14.266800091563132 -7 -9 2
113 1 1 0.5897 8.974747091059808 4.283936018705117 12.759844774249238 -4 -4 2
507 1 1 0.5897 7.2097662534733065 3.245274766172744 19.171218246636542 -1 4 -3
221 1 1 0.5897 5.104286702343387 3.678658418957192 19.22677877047603 5 -3 4
505 1 2 -1.1794 6.637709035858163 2.5824026463069303 19.558118902560423 -1 4 -3
498 1 1 0.5897 8.713969746946516 5.061321676325985 18.08780995675165 4 8 -1
704 1 1 0.5897 7.252714480269406 4.090592804543014 16.61549823471865 7 2 -3
496 1 2 -1.1794 7.903539017084256 4.673895302280471 18.418646007806657 4 8 0
497 1 1 0.5897 7.495428578515427 5.372026999549639 18.93093067944853 4 8 0
392 1 1 0.5897 4.900906526658945 5.193591264179227 17.762968840488668 5 3 1
506 1 1 0.5897 7.175704202604333 2.1637923963644456 20.230189259786435 -1 4 -3
391 1 2 -1.1794 5.281750751605392 5.700135611101219 17.045532649317117 5 3 1
125 1 1 0.5897 9.07388549954706 5.446527355694828 20.81503914192129 1 3 5
32 1 1 0.5897 8.465762665241058 2.0857910289400614 17.020534968259547 3 5 4
306 1 1 0.5897 6.852013921307716 9.262362682820315 5.0741333305868555 6 1 -6
305 1 1 0.5897 6.674922709027942 9.707430876894694 3.637903132945292 6 1 -6
717 1 1 0.5897 8.348030756460757 11.25452534539877 5.164692445918946 1 -7 -5
129 1 1 0.5897 7.98929866694024 7.9323186042073335 1.792889727116516 2 0 -7
304 1 2 -1.1794 7.270521235020745 9.228002000071516 4.213885163336788 6 1 -6
394 1 2 -1.1794 5.393476482183023 10.97317564035289 2.98514226963888 2 1 4
128 1 1 0.5897 6.760075264051211 8.741589600325693 1.4374407940533986 2 0 -7
395 1 1 0.5897 5.242615194606313 11.571428332321567 3.717073523789134 2 1 4
448 1 2 -1.1794 5.0904795997855805 7.850419694660114 2.2689605687981738 -1 -3 -8
828 1 1 0.5897 5.294143443656108 11.043554108997782 1.0587790057786695 6 4 1
102 1 1 0.5897 7.769570841609617 7.27404702814178 4.00020437400325 8 -5 -3
127 1 2 -1.1794 7.610372463367524 8.46628680475663 1.094549021072449 2 0 -7
450 1 1 0.5897 5.237782237922861 7.6209878588691655 3.18656865144563 -1 -3 -8
737 1 1 0.5897 7.211281072201381 9.150536429396666 9.71708529369063 4 -4 2
602 1 1 0.5897 7.266885833324002 11.706828807547101 9.147465467615657 0 4 0
738 1 1 0.5897 6.408250767921622 7.951629399708487 9.258859612657979 4 -4 2
579 1 1 0.5897 5.390724006629947 9.542308167598579 7.131083665952833 5 5 -6
736 1 2 -1.1794 6.465115895912415 8.601845169435745 9.959104527634794 4 -4 2
577 1 2 -1.1794 6.242588910774193 9.196277178126003 6.864747804739862 5 5 -6
578 1 1 0.5897 6.878683462387666 9.745690407804574 7.322862818964275 5 5 -6
601 1 2 -1.1794 7.43931021363785 11.25929412299497 8.319019546569777 0 4 1
546 1 1 0.5897 7.029277109469211 7.208016516700611 10.89686176861265 -3 0 4
603 1 1 0.5897 8.231821779338828 11.67662170697425 7.981212102981252 0 4 1
183 1 1 0.5897 6.326200484347653 8.57200602843884 15.094858302342734 -11 4 -1
200 1 1 0.5897 4.97944713833205 10.290075798450106 11.95602425251914 2 1 0
181 1 2 -1.1794 5.994131894325419 9.465829367127725 15.179818422381617 -11 4 -1
614 1 1 0.5897 8.906256897172348 7.33177426135969 12.341926625418909 -7 -1 4
332 1 1 0.5897 7.290175939976263 10.74064585434458 15.512835170251233 1 2 1
801 1 1 0.5897 7.695033955629205 10.786250752795151 11.352945554931447 -3 0 1
201 1 1 0.5897 6.140022902221351 9.357342985129552 11.68160689995196 2 1 0
182 1 1 0.5897 5.880615941971466 9.766404317597551 14.278093075735356 -10 4 -1
199 1 2 -1.1794 5.629582351154721 9.741151293310223 12.39468336374396 2 1 0
583 1 2 -1.1794 6.728818728614914 6.9273645285073675 14.885927669318429 -7 -9 2
799 1 2 -1.1794 8.461296009930368 10.28279411297209 11.628102355482106 -3 0 1
331 1 2 -1.1794 7.776312379008281 11.55647058224498 15.392644579644205 1 2 1
333 1 1 0.5897 8.2845213573102 11.6538755294067 16.198001202969195 1 2 1
277 1 2 -1.1794 7.04380396253119 6.987424374166769 19.485745186332316 -4 0 -2
357 1 1 0.5897 8.255765126009177 10.051609660255625 20.852515131939278 -5 -1 5
587 1 1 0.5897 7.676786594985972 8.266646776382963 18.223010642036826 -3 1 4
588 1 1 0.5897 8.352057537569966 8.653730900344915 16.924417129540153 -3 1 4
586 1 2 -1.1794 7.83474944878233 9.013285487294985 17.645151018097053 -3 1 4
826 1 2 -1.1794 4.984761963377105 11.009524055340213 20.840600128833934 6 4 0
279 1 1 0.5897 7.244748275777295 7.287405144038819 20.372304775761492 -4 0 -2
666 1 1 0.5897 7.418094243563496 10.71355388746541 18.114582359155207 2 1 -2
278 1 1 0.5897 6.16101946286998 7.316129270043543 19.315485196068664 -4 0 -2
356 1 1 0.5897 8.286221473819843 11.2419206495454 19.917407222868775 -5 -1 5
355 1 2 -1.1794 8.856675824727729 10.64511499851243 20.401927663622843 -5 -1 5
664 1 2 -1.1794 7.151389393968652 11.600462029501049 18.35671287488382 2 1 -2
827 1 1 0.5897 5.5259003629763415 11.649331059654761 20.377827241465596 6 4 0
206 1 1 0.5897 4.936473507964019 9.385379357199238 20.048705240587275 -7 5 -4
665 1 1 0.5897 6.257949750355198 11.681986025078361 18.02283448391362 2 1 -2
347 1 1 0.5897 6.922266729667309 16.12457212200774 1.5633963408664402 -2 5 -2
512 1 1 0.5897 6.792393342877683 14.169903969985198 4.062091571236078 -1 4 -7
715 1 2 -1.1794 8.209514824194889 12.188416580798801 5.322798757999351 1 -7 -5
798 1 1 0.5897 8.301159158258944 12.514141253081329 1.4353328454502146 1 -4 -3
796 1 2 -1.1794 8.809997413116722 12.718860167738656 2.2198827506137735 1 -4 -3
65 1 1 0.5897 5.601899695486955 13.68767563270637 0.7680461324025546 2 -2 -4
513 1 1 0.5897 7.038046116553134 13.926011767885413 2.588190967626189 -1 4 -7
600 1 1 0.5897 7.331939973140541 16.096818889188 3.600075839645998 -2 -5 -5
511 1 2 -1.1794 6.728618871159808 14.59007647813791 3.204334269820028 -1 4 -7
854 1 1 0.5897 7.898640060591105 14.85272348025625 5.614563981404301 -3 -2 4
716 1 1 0.5897 8.593570789157031 12.620554240849248 4.559842208910738 1 -7 -5
319 1 2 -1.1794 5.424324495439581 16.620016293488742 5.829383411683434 3 -1 -4
567 1 1 0.5897 7.913206411684584 16.467042459027823 8.945714451791643 -3 4 -10
674 1 1 0.5897 6.137796757565981 13.572169500814889 6.722439338674577 -3 1 -5
166 1 2 -1.1794 7.058305546415443 15.0449755471962 9.122542882066984 -4 -1 5
167 1 1 0.5897 7.272488034578678 14.815745245309833 8.218133089522436 -4 -1 5
853 1 2 -1.1794 7.269894416153295 14.94551066759404 6.330390660360019 -3 -2 4
43 1 2 -1.1794 6.880733960032374 12.466648640257416 10.79075536946412 5 8 -2
673 1 2 -1.1794 5.454721288107422 13.041207235481211 7.13210647346696 -3 1 -5
675 1 1 0.5897 5.907764213933549 12.249290080479598 7.42194806156475 -3 1 -5
168 1 1 0.5897 7.525431779970104 14.397938218266825 9.65120040177857 -4 -1 5
855 1 1 0.5897 6.644628965286224 15.599283040222923 6.017388906823243 -3 -2 4
680 1 1 0.5897 5.192312394431832 14.863709359387562 9.120064779482993 -12 -6 -1
44 1 1 0.5897 5.957757159031123 12.71996245896963 10.80772469581392 5 8 -2
452 1 1 0.5897 6.316948782411437 15.065680157265684 13.242030442011073 5 -3 1
510 1 1 0.5897 6.169028704591283 15.991561162183753 15.426447446405563 4 -1 3
45 1 1 0.5897 7.233218189831228 12.788424655738067 11.62054782333278 5 8 -2
284 1 1 0.5897 8.129037170732941 14.11449688027915 13.577101693685588 6 -3 -7
451 1 2 -1.1794 6.614522677478662 15.820634781630002 13.749810467964378 5 -3 1
283 1 2 -1.1794 8.02579793821074 13.300044788640385 13.084780793084418 6 -3 -7
285 1 1 0.5897 7.838863718138755 12.638804366365823 13.751231741733386 6 -3 -7
430 1 2 -1.1794 5.29662909591987 13.092391667085206 15.396505906151464 -10 2 -1
739 1 2 -1.1794 8.90585184214972 15.086592486092389 15.922081470262519 -1 1 7
431 1 1 0.5897 6.189846721986058 12.800853996643015 15.21346146051463 -10 2 -1
165 1 1 0.5897 8.179797819103696 16.343614797105513 13.205361797441714 4 2 1
453 1 1 0.5897 6.1894370996499655 16.57142323887591 13.33512652057422 5 -3 1
432 1 1 0.5897 5.099167175264567 12.732493169496728 16.261293540351744 -10 2 -1
163 1 2 -1.1794 9.016199274826922 16.52658613020686 12.77717199621667 4 2 1
230 1 1 0.5897 7.24225825946103 13.462195020044874 18.394463055677306 -1 8 2
441 1 1 0.5897 8.068619442146407 16.22888781903535 18.615556187059994 1 -2 -1
508 1 2 -1.1794 5.9738798881657 16.147013146551117 16.350635543026872 4 -1 3
348 1 1 0.5897 8.071032476565948 16.194726491695505 21.266810248188904 -2 5 -3
66 1 1 0.5897 6.806881886257978 14.396002023549768 20.873321000244466 2 -2 -5
229 1 2 -1.1794 7.141531731774476 14.371758866159754 18.113595495441395 -1 8 2
509 1 1 0.5897 6.195370269837853 15.323004191998608 16.7846018885026 4 -1 3