LAMMPS data file via write_data, version 30 Jul 2021, timestep = 1250000

1008 atoms
2 atom types
672 bonds
1 bond types
336 angles
1 angle types

-3.0794041394609284 14.689403139011477 xlo xhi
-0.29627181357302845 22.87627081357191 ylo yhi
0.009135694380095316 19.220862305620013 zlo zhi
-0.04956120942235073 -6.426936378450473 0.21854397126359715 xy xz yz

Masses

1 1.008
2 15.999

Pair Coeffs # lj/cut/tip4p/long/omp

1 0 0
2 0.21084 3.1668

Bond Coeffs # harmonic/omp

1 450 0.9572

Angle Coeffs # harmonic/omp

1 55 104.52

Atoms # full

21 7 1 0.5897 0.884103645407385 2.181273721275646 0.7083467968675947 0 0 0
31 11 2 -1.1794 0.9961635345238475 0.9927730255073914 2.275831518650562 0 0 0
32 11 1 0.5897 0.9730244415886364 1.0917331958361958 3.22762533587877 0 0 0
55 19 2 -1.1794 -0.4180704878103554 4.033319971906571 3.7506810448896495 0 0 0
56 19 1 0.5897 -1.0635537543738134 3.6095829090106917 3.184891782669612 0 0 0
57 19 1 0.5897 0.29418659081495413 4.278888074702695 3.1602705906749424 0 0 0
33 11 1 0.5897 0.3281038467617696 0.3338580391836101 2.08671355198962 0 0 0
121 41 2 -1.1794 -2.1403446010725764 2.4443609461612623 2.4307334312408098 1 0 0
122 41 1 0.5897 -2.0362754528131894 1.9503524644124708 1.6175164460840576 1 0 0
53 18 1 0.5897 4.439888820128845 2.6001598241684496 3.0344905234045925 0 0 0
46 16 2 -1.1794 2.0665447477571544 4.572209142969907 2.291272734380985 0 0 0
114 38 1 0.5897 -3.069815007672528 5.230589089142372 1.7035518118901272 1 0 0
123 41 1 0.5897 -3.030642434179173 2.793374224331351 2.3871810408011713 1 0 0
71 24 1 0.5897 2.8665916861942176 0.5124364670504251 2.0001268725976242 0 0 0
86 29 1 0.5897 -2.0643884765156457 1.5624153133816967 3.842112974803914 1 0 0
47 16 1 0.5897 2.1543181879988804 5.09599955339866 1.4949250458529695 0 0 0
602 201 1 0.5897 -0.5198688146982775 5.318698251025634 0.5073882069034037 1 0 1
72 24 1 0.5897 4.27162006326083 -0.046297942499360895 2.0770960951953508 0 0 0
16 6 2 -1.1794 5.117731660701331 4.63110987899238 0.43692455301108885 0 0 0
527 176 1 0.5897 4.009227768703641 1.6668194297124763 0.34711963766858367 0 0 1
18 6 1 0.5897 4.635543586578338 3.8354601013154337 0.21189995406408793 0 0 0
70 24 2 -1.1794 3.595904570425561 0.22001871970056053 1.453487921684774 0 0 0
158 53 1 0.5897 -4.496987017323173 4.121467906780403 4.6183705172434015 1 0 0
54 18 1 0.5897 3.114501374190196 3.29492703685095 2.80469493382223 0 0 0
52 18 2 -1.1794 3.594997935041053 2.774994057654677 3.4490062314569228 0 0 0
48 16 1 0.5897 2.0844840986572777 5.21228994424948 3.002726457472868 0 0 0
78 26 1 0.5897 0.31405223103896507 2.42283156066219 4.5231134669359285 0 0 0
6 2 1 0.5897 3.5924961923549024 1.1703599694010598 4.597263123310867 0 0 0
113 38 1 0.5897 -3.080555095943267 5.1273077468364345 3.2138927659766767 1 0 0
85 29 2 -1.1794 -2.1877263654941164 1.1481561077863365 4.696164872910576 1 0 0
87 29 1 0.5897 -3.0455131918289347 0.7274309760125515 4.637088412607632 1 0 0
67 23 2 -1.1794 -2.542306131250079 0.28325105477000256 8.293695912406346 0 0 0
98 33 1 0.5897 -4.012101768093105 4.985316825067008 8.715150517202506 1 0 0
124 42 2 -1.1794 -5.002583081108243 1.9983687942796906 7.495859889165063 1 0 0
34 12 2 -1.1794 -0.1661295370808813 0.8014427616800484 7.221437621322364 0 0 0
35 12 1 0.5897 -0.0005115514049225389 1.5961106515637873 7.7286655986489015 0 0 0
36 12 1 0.5897 -0.9610374654441225 0.4323613663864736 7.6063147939501246 0 0 0
44 15 1 0.5897 -0.28536613458013305 5.444208614346686 8.198411929226687 0 0 0
157 53 2 -1.1794 -3.991588074225505 4.7737952482612735 5.10345042067708 1 0 0
69 23 1 0.5897 -2.6856472777092435 1.2120919256636395 8.475088067620675 0 0 0
58 20 2 -1.1794 2.0155690321693953 3.869134564430219 6.428190645026053 0 0 0
59 20 1 0.5897 1.775799492451264 3.1542616957142298 5.838537728232144 0 0 0
159 53 1 0.5897 -3.3566127961038275 4.261664226814653 5.6043659773598415 1 0 0
90 30 1 0.5897 -4.926579651969538 1.321171165260953 5.831549892309728 1 0 0
126 42 1 0.5897 -4.133634218537836 2.3901881656305624 7.408187153425539 1 0 0
77 26 1 0.5897 0.22773561142473486 1.2799702439160832 5.5122081405493795 0 0 0
134 45 1 0.5897 -2.4226826700830997 2.414762630585259 6.0166477609822255 1 0 0
522 174 1 0.5897 2.168562356909863 5.407105371127826 9.34742744603708 0 0 0
60 20 1 0.5897 2.9195610774223777 3.679792539040658 6.679851769682014 0 0 0
135 45 1 0.5897 -1.650464438649185 3.418747653728534 6.845910408121143 1 0 0
43 15 2 -1.1794 -0.23361390713052188 5.005332734378229 7.349344151244047 0 0 0
45 15 1 0.5897 0.6273028155870786 4.586862670539964 7.3476253759327586 0 0 0
133 45 2 -1.1794 -2.5350975200720427 3.0899664469767956 6.6857205990598985 1 0 0
76 26 2 -1.1794 0.8440151036001984 1.7499767151919126 4.9505485582121365 0 0 0
669 223 1 0.5897 -5.162812384902919 1.814516331303981 9.398110870455634 1 0 0
97 33 2 -1.1794 -4.088975631227948 4.541963304928292 9.560005183928794 1 0 0
11 4 1 0.5897 2.0401570683445813 5.412210549755342 5.307048803581791 0 0 0
4 2 2 -1.1794 3.833849423650145 0.3320021678775873 4.991172887696051 0 0 0
68 23 1 0.5897 -3.345146061593168 -0.002768930444586648 7.857806517609584 0 0 0
485 162 1 0.5897 -6.13039955676363 -0.034196710348075254 9.203670276966394 1 1 0
22 8 2 -1.1794 0.1326907407936022 2.6342666346668784 9.307661231141314 0 0 0
24 8 1 0.5897 0.7111025418325703 3.370297133517006 9.507487136628745 0 0 0
606 202 1 0.5897 -5.843080682871518 4.655457961550494 9.581359291819185 1 0 0
523 175 2 -1.1794 -2.6182583956261154 2.469217949512559 10.27735756749867 0 0 0
626 209 1 0.5897 -5.815128402435297 1.782359950045565 13.074189923069703 1 0 0
668 223 1 0.5897 -5.60275818544776 1.6521345749376057 10.83752868084517 1 0 0
557 186 1 0.5897 0.8580603002989253 2.7072965058354375 13.415826714292498 0 0 0
552 184 1 0.5897 -2.203549346619792 4.649193499643812 12.236007729112478 0 0 0
986 329 1 0.5897 -4.0173505606262445 -0.13017649451281105 10.516257857496786 1 1 0
576 192 1 0.5897 -0.16330604271671367 0.3275449135105245 11.558432440375608 0 0 0
520 174 2 -1.1794 2.1579308478884203 4.617315219178583 9.888128092571552 0 0 0
535 179 2 -1.1794 -2.0122871060778724 0.7437702667857671 12.327274407170236 0 0 0
536 179 1 0.5897 -2.0238149308386193 1.2683068364278598 13.127831211560336 0 0 0
537 179 1 0.5897 -2.2449405501065183 1.360308169877184 11.632966208628677 0 0 0
550 184 2 -1.1794 -1.293306313858439 4.876212936216308 12.045726262985028 0 0 0
662 221 1 0.5897 -7.268370770191293 4.870295555017666 14.291889230410394 1 0 0
575 192 1 0.5897 1.2580159759934384 -0.15726350164790476 11.36619962534955 0 0 0
556 186 2 -1.1794 0.9147894532528458 3.4916796974015214 12.870158429077492 0 0 0
23 8 1 0.5897 0.38983784763680296 1.9518409608123717 9.92771304110613 0 0 0
558 186 1 0.5897 0.09454567489515409 3.5006738023140294 12.376706406276554 0 0 0
559 187 2 -1.1794 -3.7959365251878667 4.266271100771449 13.167883882523602 0 0 0
560 187 1 0.5897 -4.541065887069836 3.7288234103790847 12.899152938372492 0 0 0
561 187 1 0.5897 -3.233702696484853 3.6681734565111097 13.66036779471671 0 0 0
625 209 2 -1.1794 -6.100387379106186 2.4146673620036254 12.414569123825267 1 0 0
99 33 1 0.5897 -3.9197918805259415 5.2269605153344925 10.206803009343528 1 0 0
627 209 1 0.5897 -6.9534548072943405 2.7177094848550554 12.72558407661874 1 0 0
574 192 2 -1.1794 0.5610052576713973 0.3353475251719239 10.932730293734496 0 0 0
521 174 1 0.5897 1.8929057704888184 4.923727206770014 10.755350927556368 0 0 0
525 175 1 0.5897 -1.7569792675375027 2.7238266482867144 9.946294638855859 0 0 0
524 175 1 0.5897 -3.207106929320304 3.158308256352803 9.969530735095951 0 0 0
551 184 1 0.5897 -1.0306814421576673 5.4431592002797125 12.77088101453943 0 0 0
667 223 2 -1.1794 -5.232091703944002 1.1674563000606084 10.100050641933514 1 0 0
508 170 2 -1.1794 0.8591343068034041 1.2411954923931299 14.38289897875365 0 0 0
630 210 1 0.5897 -8.052285991538767 2.0432943604377574 15.87823833938871 1 0 0
547 183 2 -1.1794 -3.265136866428521 4.9389546862702645 16.93546117885183 0 0 0
571 191 2 -1.1794 -5.287655256135693 0.14384106840424088 17.73091573935651 0 0 0
164 55 1 0.5897 -8.105241575969078 1.6655505974543439 18.333466146971702 1 0 -1
639 213 1 0.5897 -5.4974763699156455 4.118215015798528 15.309752080182623 1 0 0
581 194 1 0.5897 -2.460120949493599 2.006013945909581 15.287352915501117 0 0 0
165 55 1 0.5897 -8.6569664594215 0.4456453926170145 19.039998054628477 1 0 -1
526 176 2 -1.1794 -2.5086010569668016 2.6192697410753194 18.951074092434506 0 0 0
538 180 2 -1.1794 -2.90134813403505 1.0804080065072528 16.715339192216103 0 0 0
539 180 1 0.5897 -2.520897498235146 1.6667935400658453 17.369304079156407 0 0 0
540 180 1 0.5897 -3.7755491324221486 0.8816544942226812 17.050782779887243 0 0 0
601 201 2 -1.1794 -7.143908753810722 4.8725745151453745 19.05912116649938 1 0 0
638 213 1 0.5897 -6.123573436827341 3.4868197521279107 16.534963443243832 1 0 0
549 183 1 0.5897 -3.737969157602384 4.144853978532788 16.686383520831008 0 0 0
562 188 2 -1.1794 -0.8227932204129953 4.57516988653716 15.854716436429921 0 0 0
528 176 1 0.5897 -3.426371515705088 2.8807730620495056 19.02596885327338 0 0 0
564 188 1 0.5897 -1.6553948160704754 4.566056891207385 16.32687873861308 0 0 0
628 210 2 -1.1794 -8.047797632340071 2.5045430989377624 16.716957044582703 1 0 0
20 7 1 0.5897 -5.32570083345991 2.0312576879349726 18.46788190559711 0 0 -1
563 188 1 0.5897 -0.8182100015344593 5.413396886892142 15.392577065973862 0 0 0
582 194 1 0.5897 -1.6610800982498457 3.240601568447939 14.928063453251871 0 0 0
637 213 2 -1.1794 -5.4073297079804945 3.377606905664619 15.909444829949187 1 0 0
661 221 2 -1.1794 -6.691882404639126 5.548762517676308 14.643449891002529 1 0 0
593 198 1 0.5897 -7.349758604973826 0.6539587575253208 14.62239422631554 1 0 0
590 197 1 0.5897 -5.057395506684484 1.4979025381260607 15.043049777556378 1 0 0
591 197 1 0.5897 -4.480156934314129 0.19275442654217367 14.537832802092638 1 0 0
163 55 2 -1.1794 -8.18403840274938 1.2626698294151906 19.19815115693371 1 0 -1
19 7 2 -1.1794 -5.2839449309462365 2.7693447012254855 19.075895803220394 0 0 -1
548 183 1 0.5897 -3.459766612047554 5.563281576944015 16.236445875874786 0 0 0
101 34 1 0.5897 -9.014512349092875 4.390233395817125 19.11386843149691 1 0 -1
603 201 1 0.5897 -6.344628110462828 4.349198092748459 18.999554948620275 1 0 0
589 197 2 -1.1794 -5.246693832185803 0.7611135569301326 14.462087015996666 1 0 0
580 194 2 -1.1794 -2.2724582617568307 2.6015743607388084 14.561877168545678 0 0 0
289 97 2 -1.1794 -2.447661879996059 9.966556556422603 2.5243522284563134 1 0 0
145 49 2 -1.1794 -0.5622389496198288 6.870870831213774 1.8411899917926458 1 0 0
147 49 1 0.5897 -0.8507496904369072 7.530104317348561 1.209930191569498 1 0 0
146 49 1 0.5897 -1.3733774648584696 6.514644823749884 2.2036752196128955 1 0 0
332 111 1 0.5897 -1.9992661168768395 9.295380106842412 0.7561878033460916 1 0 0
112 38 2 -1.1794 -2.8757930476258307 5.728456336348806 2.4977206199357482 1 0 0
245 82 1 0.5897 0.8385186552907777 9.4411280414197 3.9902036571471315 0 0 0
9 3 1 0.5897 -0.9902590938188904 5.781837045866388 4.378676371206278 0 0 0
200 67 1 0.5897 0.8400133721805818 7.806310283456591 2.277364910445495 0 0 0
188 63 1 0.5897 1.0908364930340584 9.886029475298612 1.2206139634616189 0 0 0
199 67 2 -1.1794 1.344127557561495 8.570191138580027 2.5576890374693897 0 0 0
221 74 1 0.5897 4.255713994539061 10.208912810697083 3.098670002219517 0 0 0
255 85 1 0.5897 -2.6289135884015566 8.887511214141062 4.029569162143517 1 0 0
187 63 2 -1.1794 1.1202488706518219 10.336539352683973 0.37657257267012156 0 0 0
201 67 1 0.5897 2.240241310600722 8.381977731128844 2.2787952662177 0 0 0
290 97 1 0.5897 -1.946353938274981 10.719336434586634 2.8377696431200086 1 0 0
239 80 1 0.5897 3.8474084314038652 8.940338761586792 0.9175543480029655 0 0 0
29 10 1 0.5897 4.823888788599418 6.7247945371426745 2.5551072249555844 0 0 0
240 80 1 0.5897 3.4462415799565562 7.481345982261358 0.9644777403492972 0 0 0
238 80 2 -1.1794 3.8089910212113587 8.18433770507793 1.5034065145247093 0 0 0
291 97 1 0.5897 -3.361687227640817 10.24402011247155 2.5867417927699283 1 0 0
220 74 2 -1.1794 3.5133782069008888 10.478089129606143 3.639657287015832 0 0 0
331 111 2 -1.1794 -1.4050379880708825 8.855543978547045 0.14820336664070122 1 0 0
189 63 1 0.5897 2.050480076730361 10.366310459731267 0.1528333498045242 0 0 0
224 75 1 0.5897 -0.3040404352901547 11.14882126887591 3.7247690388830805 0 0 0
244 82 2 -1.1794 0.5998322191503993 10.00529972882034 4.725679022946487 0 0 0
12 4 1 0.5897 1.0272298688348709 6.261646432159875 4.569032834333043 0 0 0
10 4 2 -1.1794 1.9652067979909242 6.07856110410904 4.623947379486483 0 0 0
222 74 1 0.5897 3.024343800997414 11.089623565362633 3.08905677594687 0 0 0
174 58 1 0.5897 2.9228110839641435 8.96992744553862 4.726605208740887 0 0 0
82 28 2 -1.1794 2.5202300183111603 6.065701404002005 0.16550797301479628 0 0 0
292 98 2 -1.1794 -5.023473823083773 10.4692524130328 7.747963044139563 1 0 0
246 82 1 0.5897 0.466671539803174 9.402498204531998 5.457197747574958 0 0 0
588 196 1 0.5897 -1.0941616672608494 6.759643548913661 9.583187914144462 0 0 0
110 37 1 0.5897 -3.9230898417340545 5.9905610790236 6.454263600983714 1 0 0
209 70 1 0.5897 3.2481784206581743 10.890315761073419 7.2861602901750775 0 0 0
109 37 2 -1.1794 -4.052416957646261 6.438473127970981 7.290237616412466 1 0 0
65 22 1 0.5897 2.7012949458629425 7.593715803649099 8.684101455707316 0 0 0
301 101 2 -1.1794 -2.448333372745442 10.43851547916909 6.80888306933574 1 0 0
172 58 2 -1.1794 3.1807837151625398 8.42734671136639 5.471839148340198 0 0 0
257 86 1 0.5897 -4.571181604291387 8.748868036909208 5.137866449951509 1 0 0
64 22 2 -1.1794 2.4388667227510625 6.752345865125689 8.310698026924197 0 0 0
294 98 1 0.5897 -5.180267227062152 10.16203783185553 8.64086327516572 1 0 0
293 98 1 0.5897 -4.092158687582399 10.306275510958189 7.598249355677858 1 0 0
202 68 2 -1.1794 0.5153589709202167 8.181364493874248 6.932758279011607 0 0 0
203 68 1 0.5897 -0.3288906181583702 7.831561515026031 7.217416799380213 0 0 0
204 68 1 0.5897 1.1592248199965258 7.557825733377673 7.268894649747924 0 0 0
8 3 1 0.5897 -0.564414413467544 6.157489306969233 5.782090877030021 0 0 0
235 79 2 -1.1794 -1.9330560168905606 7.80540392826091 8.277008960655126 0 0 0
236 79 1 0.5897 -2.742888983483594 7.553388245865421 7.8331454460010095 0 0 0
237 79 1 0.5897 -2.1492658267639495 8.6234350390963 8.724499556907721 0 0 0
302 101 1 0.5897 -2.1603406675669334 9.567163300856707 6.5368348718982405 1 0 0
191 64 1 0.5897 0.3988978539726893 9.491483849651994 8.440399672632335 0 0 0
111 37 1 0.5897 -4.972609620641396 6.7021489911595955 7.281321286599008 1 0 0
173 58 1 0.5897 2.675707666550281 7.620950527893644 5.367727027596808 0 0 0
837 279 1 0.5897 -5.782223676715673 8.46096316203623 9.010604592568097 1 0 0
190 64 2 -1.1794 0.3494984766037268 9.977481473711553 9.26353381558224 0 0 0
7 3 2 -1.1794 -0.7319243546318823 6.530313350975329 4.916506141776744 0 0 0
192 64 1 0.5897 1.167100333181395 10.474054334698726 9.298531638025096 0 0 0
303 101 1 0.5897 -1.63974199367384 10.899560394965293 7.032324233149156 1 0 0
228 76 1 0.5897 1.4846999763251656 11.332406697340119 5.914228684208079 0 0 0
253 85 2 -1.1794 -2.6641218406126366 8.416720657771922 4.862250310536987 1 0 0
254 85 1 0.5897 -1.893377369556132 7.849232105115863 4.849982867694103 1 0 0
692 231 1 0.5897 -1.447515361746322 10.489116292991016 9.817768708740545 0 0 0
693 231 1 0.5897 -2.5381197437975063 10.026601513380879 10.760368934403473 0 0 0
836 279 1 0.5897 -4.868788328259883 8.095977354436432 10.161568193304685 1 0 0
691 231 2 -1.1794 -2.3971969947049288 10.390635354090582 9.886383673115775 0 0 0
724 242 2 -1.1794 0.9992176960985253 11.110768336017365 12.798094393184513 0 0 0
513 171 1 0.5897 -3.9879376902101864 5.983781881219137 14.022875732583914 0 0 0
795 265 1 0.5897 -5.801515084609308 9.913958037128443 11.329435228970098 1 0 0
616 206 2 -1.1794 -6.298389736140905 6.422181888837149 12.003962624045808 1 0 0
649 217 2 -1.1794 -3.8143435192104747 6.883130525168686 11.003255447614023 1 0 0
650 217 1 0.5897 -3.2499488239880607 7.603884186635908 11.282891067532832 1 0 0
651 217 1 0.5897 -4.507005808281476 6.850854147675614 11.66304962911731 1 0 0
793 265 2 -1.1794 -6.113072026676689 10.455441928772963 12.054625730660437 1 0 0
743 248 1 0.5897 0.6453405043806577 9.007553507166813 10.974677972650953 0 0 0
744 248 1 0.5897 0.18394215807592085 7.568369542278826 11.06211909148633 0 0 0
794 265 1 0.5897 -5.455922510572547 11.146442703959993 12.137736537506123 1 0 0
742 248 2 -1.1794 0.39084123858409825 8.331052242819185 11.60220355495399 0 0 0
703 235 2 -1.1794 -2.3614434962796027 8.949330040504684 12.230798474526752 0 0 0
704 235 1 0.5897 -1.467829641074112 8.63633907802647 12.090078403531344 0 0 0
705 235 1 0.5897 -2.2844556934152704 9.581655014137112 12.945254425021922 0 0 0
759 253 1 0.5897 -5.890106484850742 9.332912769371626 13.380126109376347 1 0 0
618 206 1 0.5897 -6.397361530449988 5.716975266268331 11.364354345534641 1 0 0
586 196 2 -1.1794 -0.3504306145604068 6.301937095237437 9.97530077924666 0 0 0
678 226 1 0.5897 1.0409481244215577 9.341301180361823 13.890055208332289 0 0 0
663 221 1 0.5897 -6.392447712922047 6.0319091392490245 13.873310712821091 1 0 0
516 172 1 0.5897 -0.07679290429233632 7.382220009631939 14.168356559062293 0 0 0
750 250 1 0.5897 -2.7000657779218002 11.096775157774173 13.869250565070576 0 0 0
617 206 1 0.5897 -6.998064079006352 7.039634993398548 11.790502459148781 1 0 0
515 172 1 0.5897 -1.5716095269952586 7.194542016373358 14.018370628797683 0 0 0
514 172 2 -1.1794 -0.7468024891231817 6.709534197338774 14.046661968058798 0 0 0
757 253 2 -1.1794 -5.524163030928499 8.882912312308747 14.141656944866922 1 0 0
587 196 1 0.5897 -0.7280839595059931 5.812243174153293 10.705872116549466 0 0 0
835 279 2 -1.1794 -5.375050550240493 8.822457019655317 9.797900887712 1 0 0
748 250 2 -1.1794 -1.9836765800822516 10.674480524743707 14.343343129493615 0 0 0
615 205 1 0.5897 -6.746354561510479 6.123418544075114 16.221016624046023 1 0 0
613 205 2 -1.1794 -6.80748931265008 6.584013649191755 17.057867875935536 1 0 0
654 218 1 0.5897 -9.263312687952201 7.986389120761936 18.47837955252871 1 0 0
741 247 1 0.5897 -5.55134488178863 8.915086428205484 18.426450332845565 0 0 0
798 266 1 0.5897 -7.618885112995314 9.919299057365745 16.544450039679983 1 0 0
569 190 1 0.5897 -1.4156458012032322 6.662553735340084 18.499544745825215 0 0 0
84 28 1 0.5897 -3.469934610385554 5.74267526435119 18.71987958424445 0 0 -1
805 269 2 -1.1794 -5.047173926714388 11.013354821258332 15.730530754927347 1 0 0
568 190 2 -1.1794 -1.0665619253674512 7.277479718678731 17.854402984782936 0 0 0
797 266 1 0.5897 -6.3848366693109355 10.71698029142098 16.908996717817086 1 0 0
762 254 1 0.5897 -7.25834917384427 8.67774681462776 14.99197979893071 1 0 0
740 247 1 0.5897 -5.485640120934098 7.7296608215096185 17.487177053117282 0 0 0
731 244 1 0.5897 -1.0710526349829035 11.456345281510597 15.633994813222795 0 0 0
695 232 1 0.5897 -2.482494357584269 10.012387370946783 18.09337792943567 0 0 0
758 253 1 0.5897 -5.3001054659562765 9.586062357462394 14.751225208488584 1 0 0
706 236 2 -1.1794 -2.7893170525428985 9.035979842110017 16.52273905756869 0 0 0
707 236 1 0.5897 -3.620484973091269 8.926109607542893 16.984603900551225 0 0 0
708 236 1 0.5897 -2.2449235390732944 8.31218735256913 16.8327245931712 0 0 0
796 266 2 -1.1794 -7.303579674172001 10.592715951369629 17.1472199787484 1 0 0
749 250 1 0.5897 -2.415707043464181 10.042915834692069 14.918328561425081 0 0 0
739 247 2 -1.1794 -4.933135750403078 8.34387051513561 17.970666985959852 0 0 0
614 205 1 0.5897 -6.958237786162478 5.892290746724436 17.70208231844575 1 0 0
333 111 1 0.5897 -7.608456819527127 9.745227425896852 18.715081964579007 1 0 -1
653 218 1 0.5897 -8.708239191766921 7.107060206449204 17.378170247807727 1 0 0
570 190 1 0.5897 -0.292223494700079 6.840033762706777 17.500420330249494 0 0 0
83 28 1 0.5897 -4.3115355323138 6.9915080447601365 18.875027827525763 0 0 -1
511 171 2 -1.1794 -3.7832248009213876 6.682509156364309 14.64421848339318 0 0 0
696 232 1 0.5897 -2.0071696983923095 11.147379617192895 18.975251731722867 0 0 0
694 232 2 -1.1794 -2.5566666549504955 10.363647865665744 18.980678621788137 0 0 0
512 171 1 0.5897 -4.469775187566139 7.335097736851857 14.506132560152652 0 0 0
280 94 2 -1.1794 -3.0716121408505925 13.653010795651785 2.486171934645591 1 0 0
281 94 1 0.5897 -3.145369183115543 13.223879586169481 3.3386018364805468 1 0 0
282 94 1 0.5897 -2.241152905080202 14.127218234557171 2.5273637158408118 1 0 0
315 105 1 0.5897 -0.24668787360365574 14.00081943529978 1.1871140850368174 1 0 0
313 105 2 -1.1794 -0.6169226687597771 14.643006451346801 1.7926820402687869 1 0 0
225 75 1 0.5897 -0.8781100185936559 12.54819943404997 3.788683527731304 0 0 0
314 105 1 0.5897 0.1445199553872536 15.081461976356145 2.1725343792345315 1 0 0
771 257 1 0.5897 0.030972025217461674 11.893608049601946 0.07564457908161025 1 0 1
216 72 1 0.5897 0.9596482670148525 12.421465035197711 2.760910484112371 0 0 0
223 75 2 -1.1794 -0.6480729388015432 11.851793946413531 3.173631102724305 0 0 0
252 84 1 0.5897 2.9002824761482717 14.433943424075382 0.7621613691082666 0 0 0
215 72 1 0.5897 2.034067672381867 13.093787063466346 1.9330007776210292 0 0 0
367 123 2 -1.1794 1.156106102369515 16.554337058497424 2.743479888750291 0 0 0
214 72 2 -1.1794 1.8664207595343694 12.725616465736623 2.8005136878318853 0 0 0
184 62 2 -1.1794 5.340642954531548 12.314232780231295 0.14213354004844933 0 0 0
423 141 1 0.5897 -2.567994108853286 16.880721964739084 4.186659736931916 1 0 0
180 60 1 0.5897 1.8864445178862947 13.955108170654404 4.296139017780399 0 0 0
407 136 1 0.5897 4.282215716623293 15.115264749685553 1.9971410674437964 0 0 0
499 167 2 -1.1794 -2.1118756361222903 16.62955091153902 0.47792061325152435 1 0 0
406 136 2 -1.1794 3.6158019850772254 15.787291580760225 1.85362094923203 0 0 0
368 123 1 0.5897 2.088519398049004 16.34715577818562 2.8071643712943986 0 0 0
269 90 1 0.5897 -3.257846050688077 12.768219935882192 0.9667745320501338 1 0 0
408 136 1 0.5897 4.005424248624731 16.377821338778023 1.2089061453327947 0 0 0
500 167 1 0.5897 -1.511687888923536 15.987948434507988 0.8580162277757653 1 0 0
369 123 1 0.5897 0.9473415178337827 16.9791131553906 3.575443085116643 0 0 0
250 84 2 -1.1794 2.3701760465447297 13.744818279966788 0.36175660482751887 0 0 0
175 59 2 -1.1794 -1.1680849587584845 14.053663321613111 4.7877918640176915 0 0 0
326 109 1 0.5897 -2.973349917474753 11.71197533161403 5.172036150224165 1 0 0
178 60 2 -1.1794 1.7968265990006165 14.339399863962083 5.168199719693436 0 0 0
325 109 2 -1.1794 -3.74137370978925 12.199556144976226 4.874081095152888 1 0 0
327 109 1 0.5897 -3.8925843902294295 12.85095167106164 5.558916479250544 1 0 0
226 76 2 -1.1794 1.6761809002615422 11.929196509688214 6.6376755571792705 0 0 0
211 71 2 -1.1794 -0.857601042063926 12.692375206733354 7.192467131051502 0 0 0
212 71 1 0.5897 -0.7270537987306067 13.132534913149158 8.03237875944278 0 0 0
213 71 1 0.5897 -1.153030031605494 13.385224256664829 6.601719133003649 0 0 0
340 114 2 -1.1794 3.3351673347806106 16.659409745104835 5.123129365834762 0 0 0
179 60 1 0.5897 1.7707374187858074 13.587684694395739 5.760211888855752 0 0 0
232 78 2 -1.1794 1.9432297470851516 14.425747732760687 8.308532920562248 0 0 0
421 141 2 -1.1794 -2.547796464721613 16.475447160607438 5.05360484954123 1 0 0
234 78 1 0.5897 1.309433803865991 15.026171296521346 7.915948435246477 0 0 0
227 76 1 0.5897 0.8163693836042292 12.208792317082926 6.952055104901586 0 0 0
267 89 1 0.5897 -3.5781706126421775 13.051775333517353 8.181470159410214 1 0 0
277 93 2 -1.1794 -4.054583447098718 14.181753850107652 6.691744444313264 1 0 0
278 93 1 0.5897 -3.468750839985848 14.834688914251027 7.074816619562444 1 0 0
403 135 2 -1.1794 -2.472632061525617 15.918326830709823 8.19859213625289 0 0 0
279 93 1 0.5897 -4.896382801554806 14.332961974008379 7.121558695936736 1 0 0
370 124 2 -1.1794 0.31958166427619883 16.499272016722156 7.26254211998272 0 0 0
405 135 1 0.5897 -2.598191932277457 16.74681389091203 8.661184064531756 0 0 0
404 135 1 0.5897 -1.5582878916544418 15.937386448041973 7.915985236559244 0 0 0
1004 335 1 0.5897 -5.018403229757013 16.99015665178247 9.218033028259045 1 0 0
177 59 1 0.5897 -0.23726493115786784 14.274410026850799 4.821968102932685 0 0 0
690 230 1 0.5897 1.894900476589429 12.99052555493815 9.417241274052342 0 0 0
176 59 1 0.5897 -1.6176097878227296 14.892959309542055 4.886427315076272 0 0 0
756 252 1 0.5897 -1.649713908454041 14.385094970041337 9.322624393378915 0 0 0
372 124 1 0.5897 0.2258056105204891 16.944106317859376 6.4201650051145664 0 0 0
341 114 1 0.5897 2.6178524696589145 16.026672382216308 5.159842684929688 0 0 0
265 89 2 -1.1794 -3.5016908503453803 12.97590611348536 9.13261246341035 1 0 0
266 89 1 0.5897 -3.1791936972013835 12.086345088746157 9.277311088698976 1 0 0
233 78 1 0.5897 2.7135145667452623 14.486811763746825 7.743605133224047 0 0 0
774 258 1 0.5897 -5.610780189360053 12.332365102908545 9.206046837994155 1 0 0
425 142 1 0.5897 -4.564678246378686 15.901823213937536 4.816053827311585 1 0 0
371 124 1 0.5897 0.7856493584641071 17.12693565260576 7.814881276060683 0 0 0
462 154 1 0.5897 -5.079144959583742 16.927167513487614 6.889941977955729 1 0 0
910 304 2 -1.1794 0.5637905406578878 15.999144222180188 10.953750537140676 0 0 0
688 230 2 -1.1794 2.1745614902694053 12.188531851601816 9.858692609807102 0 0 0
755 252 1 0.5897 -0.32780985839063126 14.80213146149836 9.931583674589797 0 0 0
718 240 2 -1.1794 -1.1625575804250263 12.591240339123992 11.931470731931807 0 0 0
719 240 1 0.5897 -1.0905404133931649 13.115165005229262 11.133639450268266 0 0 0
720 240 1 0.5897 -0.7802475613150284 13.141337717817374 12.615211459732762 0 0 0
911 304 1 0.5897 -0.26367156331839015 16.10307952767588 11.423579881110589 0 0 0
873 291 1 0.5897 -2.537863742163 16.130590073533 11.645992155283878 0 0 0
773 258 1 0.5897 -6.367227259381291 12.879380140437341 10.397816753863607 1 0 0
785 262 1 0.5897 -6.677792281702729 14.567223107684809 12.068602260193602 1 0 0
729 243 1 0.5897 -3.850638933424222 12.633456418286668 13.476270703187382 0 0 0
871 291 2 -1.1794 -2.031099912486768 16.867916809696247 11.98622304888252 0 0 0
680 227 1 0.5897 -2.3954570156919424 14.425775221393216 14.385684579984062 0 0 0
727 243 2 -1.1794 -3.76413925069934 11.960196835560184 12.801414691504114 0 0 0
784 262 2 -1.1794 -6.027063754462635 13.86645324935896 12.110279662418186 1 0 0
1005 335 1 0.5897 -4.586524196445396 15.935907084685105 10.215080632931874 1 0 0
786 262 1 0.5897 -6.193211736365308 13.434101845596397 12.947934999773219 1 0 0
817 273 2 -1.1794 -3.4569305319510266 14.869466054654357 11.153812855637474 1 0 0
818 273 1 0.5897 -4.201515609785358 14.575334104187833 11.678490542889534 1 0 0
819 273 1 0.5897 -3.3329914815198083 14.177616247875239 10.504102814643941 1 0 0
728 243 1 0.5897 -2.971738307189261 12.201609855859152 12.321778960398516 0 0 0
725 242 1 0.5897 1.2569713606621944 11.702876187777052 13.5046452495852 0 0 0
912 304 1 0.5897 1.0912621529863742 15.434259990746236 11.51859077440853 0 0 0
726 242 1 0.5897 0.175272014158943 11.471873459995898 12.470800860833002 0 0 0
1003 335 2 -1.1794 -5.32691109903461 16.493592643169034 9.975958061083762 1 0 0
962 321 1 0.5897 -5.508868181212621 17.16221291343949 12.860798960956664 1 0 0
831 277 1 0.5897 -7.616672252647461 12.19864321641896 14.09165164946832 1 0 0
679 227 2 -1.1794 -3.3295820274930508 14.218120642785893 14.410463635133217 0 0 0
925 309 2 -1.1794 -5.705782168243271 15.854865005923372 14.345384797613729 1 0 0
754 252 2 -1.1794 -0.8083769707180144 14.036284835501142 9.617354279835567 0 0 0
876 292 1 0.5897 -2.3627555945385588 15.757917713551826 17.25110892927725 0 0 0
681 227 1 0.5897 -3.4637593566383194 13.818409657486471 15.269791176182178 0 0 0
907 303 2 -1.1794 -5.578201622079176 15.71095318567452 18.071269952813964 0 0 0
926 309 1 0.5897 -4.9439220708093305 15.316285962192264 14.559497986782477 1 0 0
736 246 2 -1.1794 -0.7848836054375061 14.878852387003398 18.053377243920124 0 0 0
930 310 1 0.5897 -7.558083960929926 15.916883706909694 14.656186487117472 1 0 0
908 303 1 0.5897 -6.3103200932888655 15.328102020200603 17.587782888798234 0 0 0
830 277 1 0.5897 -7.076294015092639 12.94610374193646 15.292174444740255 1 0 0
715 239 2 -1.1794 -3.4349351012610745 12.975872641628602 16.797920155150212 0 0 0
716 239 1 0.5897 -3.7063925716895856 13.470466864555501 17.57114715167036 0 0 0
875 292 1 0.5897 -2.8917138730625442 16.42808547604251 16.00080776858956 0 0 0
737 246 1 0.5897 -0.5822741146943322 15.734683166494381 18.431136837425058 0 0 0
684 228 1 0.5897 0.03895077441410244 15.118484869823696 14.74605764396405 0 0 0
874 292 2 -1.1794 -3.132340018899982 16.20634741438596 16.900335427001643 0 0 0
806 269 1 0.5897 -5.661466311279228 11.505602950021038 15.185806490128032 1 0 0
909 303 1 0.5897 -4.889496689055045 15.821762584620394 17.415827450167487 0 0 0
781 261 2 -1.1794 -7.481735449959715 14.039251445511358 16.730889557243977 1 0 0
782 261 1 0.5897 -7.226069198931789 13.558224184107177 17.518018458061803 1 0 0
730 244 2 -1.1794 -0.65654215776076 12.06375461342029 16.24676502490176 0 0 0
717 239 1 0.5897 -2.5271353709776134 12.730249457509192 16.976684104418766 0 0 0
807 269 1 0.5897 -4.532602751580795 11.684613953367046 16.178729250852793 1 0 0
251 84 1 0.5897 -4.685511642728801 14.43232052457501 19.024771587544137 0 0 -1
683 228 1 0.5897 -0.4773068925668218 13.747920988873163 15.129228839011844 0 0 0
927 309 1 0.5897 -5.578433147129297 16.660537221412454 14.84623358188623 1 0 0
501 167 1 0.5897 -8.035471737327217 17.261460516320547 18.988250204999527 1 0 -1
783 261 1 0.5897 -8.386114904149188 14.306158608391472 16.895761877483693 1 0 0
732 244 1 0.5897 0.01397907434876089 11.540916339314192 16.686536092117088 0 0 0