LAMMPS data file via write_data, version 30 Jul 2021, timestep = 1750000

1008 atoms
2 atom types
672 bonds
1 bond types
336 angles
1 angle types

-3.3059405952687655 14.915939594822795 xlo xhi
-0.05331652584205315 22.63331552584143 ylo yhi
-0.17482246256001766 19.404820462558398 zlo zhi
-0.15296440854861354 -6.850371518198462 -0.16121198677996665 xy xz yz

Masses

1 1.008
2 15.999

Pair Coeffs # lj/cut/tip4p/long/omp

1 0 0
2 0.21084 3.1668

Bond Coeffs # harmonic/omp

1 450 0.9572

Angle Coeffs # harmonic/omp

1 55 104.52

Atoms # full

19 7 2 -1.1794 0.8730603119193301 2.8213523220721255 -0.16799962705767238 0 0 0
158 53 1 0.5897 -4.398871508426174 4.52420825049523 4.310727879817865 1 0 0
56 19 1 0.5897 -1.5319684561422695 3.821387862117445 3.0835698746455393 0 0 0
86 29 1 0.5897 -2.5230142981802643 1.2451487424692012 4.102619571610425 1 0 0
122 41 1 0.5897 -2.6666873597427325 2.2119368444868233 1.393318233737312 1 0 0
123 41 1 0.5897 -3.4197252485764857 2.6165360981629986 2.642643805422533 1 0 0
121 41 2 -1.1794 -2.547947115594138 2.376556869258207 2.328691544347129 1 0 0
55 19 2 -1.1794 -0.8982423051938544 4.39110266392535 3.5194675985784203 0 0 0
602 201 1 0.5897 -0.9025256096827281 5.387006317518576 0.6495912819810127 1 0 1
57 19 1 0.5897 -0.14427790333670654 4.406636880822495 2.9300333575574244 0 0 0
601 201 2 -1.1794 -1.2314347592784496 4.720108982488781 0.04687235372289231 1 0 1
101 34 1 0.5897 -3.2894599836993605 4.203301438345253 -0.08987486696757752 1 0 0
33 11 1 0.5897 0.1910202850156617 0.6119383693030247 2.3624511483302815 0 0 0
482 161 1 0.5897 -1.3077083644900056 0.3300620865947592 0.6945530139977222 1 1 0
603 201 1 0.5897 -0.572643122197376 4.026212605111227 0.07397292043208784 1 0 1
21 7 1 0.5897 0.9283352058438465 2.3775093910823193 0.6782288676786253 0 0 0
114 38 1 0.5897 -3.712026670872111 5.595645651220984 1.808340599724382 1 0 0
68 23 1 0.5897 -3.2254641810654165 0.009099106249327152 7.914465121514128 0 0 0
133 45 2 -1.1794 -2.649369352902926 3.3077023643102064 6.529280409955189 1 0 0
69 23 1 0.5897 -2.7346735372919757 1.209239491165169 8.695938110817787 0 0 0
134 45 1 0.5897 -2.3366535926756553 2.47834678219681 6.167883096273872 1 0 0
124 42 2 -1.1794 -5.085928247554301 2.4022132218866843 7.493403519231517 1 0 0
135 45 1 0.5897 -1.8564275452408223 3.7547061692271613 6.825320998037597 1 0 0
126 42 1 0.5897 -4.24033143698604 2.578963861028066 7.08122870058028 1 0 0
67 23 2 -1.1794 -2.4268461703015873 0.4310852040988813 8.231254924327216 0 0 0
669 223 1 0.5897 -5.247636402282227 1.9464933153469846 9.224320838719242 1 0 0
159 53 1 0.5897 -3.4139327683887712 4.702699820052488 5.446416484543743 1 0 0
98 33 1 0.5897 -4.366657845354277 5.147850935761783 8.677207606401652 1 0 0
157 53 2 -1.1794 -3.976397162282767 5.194350737030378 4.847980936516461 1 0 0
125 42 1 0.5897 -5.578166144869392 3.2166286374624526 7.38996654462483 1 0 0
85 29 2 -1.1794 -2.628267833294573 1.008238795634277 5.024005646923939 1 0 0
87 29 1 0.5897 -3.5493468192554225 0.7605627387784771 5.104404525801004 1 0 0
485 162 1 0.5897 -6.4199016008491725 0.04861452356868741 8.906253575917908 1 1 0
97 33 2 -1.1794 -4.198360472357292 4.691922230960502 9.50182542412173 1 0 0
559 187 2 -1.1794 -4.409667106247946 4.260100603822178 13.289131908934227 0 0 0
626 209 1 0.5897 -6.176092442225233 2.2813217103025947 12.857750012559961 1 0 0
627 209 1 0.5897 -7.365404902401446 3.059837262263327 12.336872350922222 1 0 0
986 329 1 0.5897 -4.865962433066628 0.09675423951652856 10.743186911065107 1 1 0
524 175 1 0.5897 -3.0838951970566333 3.2101306665298326 9.791593540184111 0 0 0
560 187 1 0.5897 -5.084744140396676 3.8517264933045885 12.747222327887156 0 0 0
668 223 1 0.5897 -5.940832327984761 2.0619464838958996 10.565128833625014 1 0 0
625 209 2 -1.1794 -6.4619117690175525 2.8259702437799836 12.124336934198757 1 0 0
667 223 2 -1.1794 -5.567770184841808 1.4223942272457772 9.95852615989712 1 0 0
589 197 2 -1.1794 -6.14203770710518 1.1154728260450002 14.351936488571521 1 0 0
523 175 2 -1.1794 -2.5281585987769284 2.5050900444920323 10.123765025212167 0 0 0
591 197 1 0.5897 -5.426485518260213 0.4845502647743004 14.430259233128922 1 0 0
561 187 1 0.5897 -4.051094196786914 3.540448366636647 13.808557658255072 0 0 0
99 33 1 0.5897 -4.1083745701330905 5.391599801942486 10.148769447375056 1 0 0
606 202 1 0.5897 -6.13399222220697 4.516190577754069 9.64625417283345 1 0 0
165 55 1 0.5897 -9.660900480606731 1.0514175269502006 18.611800903028772 1 0 -1
164 55 1 0.5897 -8.732946940659307 2.2472387975400077 18.581918731872463 1 0 -1
571 191 2 -1.1794 -6.31207161306866 0.3978814876457858 17.809397122656208 0 0 0
572 191 1 0.5897 -7.129985153983474 0.007575102828093649 17.501432241562455 0 0 0
637 213 2 -1.1794 -5.89008617239405 3.3579445715494707 15.98210271228641 1 0 0
639 213 1 0.5897 -6.142132903736558 3.985704128611724 15.304886840550553 1 0 0
638 213 1 0.5897 -6.717110838981093 3.0968491681160737 16.387109716472473 1 0 0
629 210 1 0.5897 -9.092657768306445 3.4950816003234206 16.926283574919488 1 0 0
628 210 2 -1.1794 -8.354673079841206 2.88782370223832 16.979599299338226 1 0 0
20 7 1 0.5897 -6.213387587465296 1.9688226737704095 18.793127428420334 0 0 -1
661 221 2 -1.1794 -7.3980113707302015 5.251250791400554 14.804331492981948 1 0 0
590 197 1 0.5897 -5.9484805833651535 1.781079632222239 15.012014376696438 1 0 0
630 210 1 0.5897 -8.648202760952413 2.110968311388425 16.503590832626244 1 0 0
163 55 2 -1.1794 -9.066442671845174 1.562183871771877 19.161291953512382 1 0 -1
593 198 1 0.5897 -7.907571375319106 0.8573350314985694 14.829835685732036 1 0 0
662 221 1 0.5897 -7.9903404824875315 4.5382888216981545 14.565382143474805 1 0 0
146 49 1 0.5897 -1.6099134738979517 6.897640927123182 2.198647265172525 1 0 0
290 97 1 0.5897 -1.9764022470970328 10.74802332168954 2.3490952193548247 1 0 0
289 97 2 -1.1794 -2.615907740898505 10.035768813880978 2.3497386786350107 1 0 0
113 38 1 0.5897 -3.633555005907006 6.014465555730858 3.2609495943625073 1 0 0
145 49 2 -1.1794 -0.810682163066458 6.965458709608599 1.6763839470173039 1 0 0
112 38 2 -1.1794 -3.456170391545868 6.324906398056716 2.373076346263451 1 0 0
147 49 1 0.5897 -1.0645019091220398 7.488710796766313 0.9161220914570505 1 0 0
255 85 1 0.5897 -2.695250499086492 9.024045286872607 3.895934353480629 1 0 0
332 111 1 0.5897 -2.1690352729447464 9.097021809125655 0.7425048319602033 1 0 0
291 97 1 0.5897 -3.446406848486753 10.459188543908247 2.566906282280322 1 0 0
331 111 2 -1.1794 -1.9778136273778317 8.8165116642915 -0.15240454114414448 1 0 0
9 3 1 0.5897 -1.110259666437873 6.008256597372912 4.309791809155312 0 0 0
306 102 1 0.5897 -4.702220874136723 10.962413294250226 4.136081113728963 1 0 0
187 63 2 -1.1794 0.8651138568414538 10.149949379543422 0.17090568488230462 0 0 0
301 101 2 -1.1794 -2.719588362565002 10.556014736578833 6.76801150733684 1 0 0
837 279 1 0.5897 -6.505445237375973 8.271953858833019 9.206973778476133 1 0 0
109 37 2 -1.1794 -4.632056215377501 6.241537014892143 7.2918316760121975 1 0 0
302 101 1 0.5897 -2.4362293527044336 9.789376559420573 6.269860156509698 1 0 0
237 79 1 0.5897 -2.572555262037904 8.280007378071337 8.702294754044077 0 0 0
236 79 1 0.5897 -3.1058829153207337 7.162114004403909 7.831797727608045 0 0 0
294 98 1 0.5897 -5.379809849407605 9.830214701010204 8.376431146563519 1 0 0
293 98 1 0.5897 -4.379510297651539 10.248937324762101 7.320128602239034 1 0 0
110 37 1 0.5897 -4.65295857238689 6.128941814850361 6.3415666285093515 1 0 0
292 98 2 -1.1794 -5.280390672457887 9.94528942635576 7.431437139543405 1 0 0
111 37 1 0.5897 -5.51543351378602 6.532081840898694 7.518515808633883 1 0 0
235 79 2 -1.1794 -2.3166245638395586 7.456911121900833 8.286064253344582 0 0 0
303 101 1 0.5897 -1.9172506962194378 10.8934621855311 7.1662320263813575 1 0 0
7 3 2 -1.1794 -0.9448185349423772 6.729867160225841 4.916520595586647 0 0 0
8 3 1 0.5897 -0.9946639140419458 6.329641472401527 5.784574843253696 0 0 0
257 86 1 0.5897 -4.427722730455119 8.554502689362163 5.1713942379044795 1 0 0
253 85 2 -1.1794 -2.7287946687875575 8.654831993813007 4.778394091656799 1 0 0
254 85 1 0.5897 -1.9929959307014107 8.043470705894826 4.810946482778005 1 0 0
793 265 2 -1.1794 -6.539675015164743 9.635694729629824 12.514928504616702 1 0 0
616 206 2 -1.1794 -6.852983264715383 6.355191912375968 12.298790426288715 1 0 0
835 279 2 -1.1794 -6.101118640040245 8.837095910868591 9.865246414854079 1 0 0
794 265 1 0.5897 -5.801611596032059 10.240132250385159 12.593503822486582 1 0 0
649 217 2 -1.1794 -4.441056291643282 7.032641071920394 11.084936283316164 1 0 0
795 265 1 0.5897 -6.548309217650996 9.386309264232398 11.59090123487469 1 0 0
651 217 1 0.5897 -4.992118715945381 6.862889737271186 11.848899979597306 1 0 0
759 253 1 0.5897 -6.217255178938132 8.455473058213224 14.080381402373416 1 0 0
650 217 1 0.5897 -3.6064322969471956 7.324963965248321 11.451210067865338 1 0 0
663 221 1 0.5897 -7.228820660312476 5.708961651574438 13.980875563955497 1 0 0
618 206 1 0.5897 -6.792520585229326 5.76235960664514 11.549751816693657 1 0 0
836 279 1 0.5897 -5.454270590414396 8.278551861604079 10.296337785635409 1 0 0
617 206 1 0.5897 -7.501222945826572 7.008628343958807 12.03601114583916 1 0 0
513 171 1 0.5897 -4.424286661286944 5.763198369227108 14.245914842224806 0 0 0
333 111 1 0.5897 -8.758778485673842 9.470294256881107 18.92997567160498 1 0 -1
614 205 1 0.5897 -8.072679098724656 5.482774338675337 17.799058403249113 1 0 0
796 266 2 -1.1794 -8.633538414298531 10.27955172653431 17.276983408717825 1 0 0
805 269 2 -1.1794 -6.209790935003548 10.83363486441078 16.166153339726897 1 0 0
613 205 2 -1.1794 -8.168519007548145 6.210831159181987 17.185035383552375 1 0 0
739 247 2 -1.1794 -6.03894586788935 7.820369351507258 18.034498401701285 0 0 0
797 266 1 0.5897 -7.768100358954742 10.553830932790778 16.97372325299748 1 0 0
740 247 1 0.5897 -6.793830347576227 7.267447811241978 17.832884308691277 0 0 0
798 266 1 0.5897 -8.695188779981482 9.358069610764032 17.02527571974052 1 0 0
741 247 1 0.5897 -6.398786427683289 8.5362319372736 18.55818132900243 0 0 0
758 253 1 0.5897 -6.247160285781622 9.096872730094496 15.45127382311333 1 0 0
615 205 1 0.5897 -7.818783059368515 5.875981947259849 16.359395315810183 1 0 0
757 253 2 -1.1794 -6.166548932482267 8.249375679137543 15.013714054090643 1 0 0
762 254 1 0.5897 -8.25194768222628 8.07452319508826 15.021096853020488 1 0 0
512 171 1 0.5897 -4.717278728296618 7.065501185492393 14.960101062915994 0 0 0
807 269 1 0.5897 -5.32334883393465 11.130104653134135 16.372396024040896 1 0 0
500 167 1 0.5897 -1.694422543529728 16.012611815622954 0.5039318855015461 1 0 0
225 75 1 0.5897 -0.8662851331137831 12.655254614208907 3.7566414578959786 0 0 0
423 141 1 0.5897 -2.5663837423658302 16.667122975678677 3.780147478943735 1 0 0
223 75 2 -1.1794 -0.743992681214658 11.981151192496315 3.0882003305607473 0 0 0
281 94 1 0.5897 -3.326886256340586 13.875698625345578 3.6179993480666126 1 0 0
282 94 1 0.5897 -2.7490274724138475 14.19860686120946 2.256571892745755 1 0 0
313 105 2 -1.1794 -0.997400685994593 14.763268627707122 1.5920701365347965 1 0 0
314 105 1 0.5897 -0.1689762086158222 15.233866337225358 1.6841703465366606 1 0 0
315 105 1 0.5897 -0.7489510373195101 13.904713921816786 1.2494226545595248 1 0 0
280 94 2 -1.1794 -3.5641879079645697 14.221741538136577 2.7576912649450853 1 0 0
770 257 1 0.5897 -1.67104878970258 12.37318815754215 -0.0014487838739937198 1 0 1
499 167 2 -1.1794 -2.317285278822188 16.659640425551896 0.17281462695074712 1 0 0
771 257 1 0.5897 -0.27624469309866795 11.799425748562278 -0.1321776496869152 1 0 1
224 75 1 0.5897 -0.2941324699122534 11.269835674061538 3.544086999641995 0 0 0
421 141 2 -1.1794 -2.2763294922352344 16.2288022082821 4.5801086968407585 1 0 0
176 59 1 0.5897 -1.1839950770049246 14.748036927937875 4.717027905260802 0 0 0
279 93 1 0.5897 -5.303697557925389 14.022376785168468 7.60547936201247 1 0 0
425 142 1 0.5897 -4.342744669537135 16.058181235168743 4.852044887225791 1 0 0
326 109 1 0.5897 -3.2355257346416013 11.779285414761612 5.439533366402274 1 0 0
267 89 1 0.5897 -4.0315132245818095 12.581081172344355 8.972609448131939 1 0 0
277 93 2 -1.1794 -4.421942866603283 13.690690768034758 7.436162815964957 1 0 0
278 93 1 0.5897 -3.841617252909283 14.400417190782614 7.7114334324405736 1 0 0
403 135 2 -1.1794 -2.432373742530465 15.647347649927266 8.023233647894225 0 0 0
327 109 1 0.5897 -4.193399306712994 12.932088524956606 5.652645070435111 1 0 0
325 109 2 -1.1794 -3.8360831376194677 12.360607946697185 4.973022729900052 1 0 0
405 135 1 0.5897 -2.5770936992676576 16.38845243681032 8.611468903400286 0 0 0
404 135 1 0.5897 -1.5925479888068477 15.834373514835146 7.603841298977672 0 0 0
1004 335 1 0.5897 -5.590232678784528 16.698249097868135 9.09599363544174 1 0 0
175 59 2 -1.1794 -0.8301338320976805 13.930429797121706 5.067164677183417 0 0 0
785 262 1 0.5897 -7.432179886265565 14.511997772808721 11.768259201775127 1 0 0
818 273 1 0.5897 -5.006224474086059 14.336082800074596 11.712096459262835 1 0 0
728 243 1 0.5897 -4.283223464503401 12.35847884833191 13.344227318812724 0 0 0
1005 335 1 0.5897 -5.030118726849876 15.628294893204975 10.0089206151253 1 0 0
819 273 1 0.5897 -4.09175112458334 13.57919632970779 10.77265553172948 1 0 0
784 262 2 -1.1794 -6.768694967990042 13.863615599781347 12.004100877685175 1 0 0
829 277 2 -1.1794 -7.520820405309833 12.496354205869132 14.346082705898473 1 0 0
786 262 1 0.5897 -7.010072487085375 13.58337586410082 12.886917125279888 1 0 0
817 273 2 -1.1794 -4.1626959852563505 14.397622500000754 11.263954937498315 1 0 0
729 243 1 0.5897 -3.7724685288738393 11.479922727171887 12.222218454348429 0 0 0
831 277 1 0.5897 -8.135668896723484 11.824887795527987 14.050555877295151 1 0 0
1003 335 2 -1.1794 -5.674199127942741 16.335708185756385 9.977860579952882 1 0 0
773 258 1 0.5897 -6.93908670939655 12.513240120501974 10.892804656111554 1 0 0
727 243 2 -1.1794 -4.407719829525321 11.500798164998127 12.937848835903134 0 0 0
774 258 1 0.5897 -6.13642803251974 11.898520455268947 9.766090619065041 1 0 0
266 89 1 0.5897 -3.4162621937759807 11.36545234128889 9.632715365503737 1 0 0
265 89 2 -1.1794 -4.084881558025424 12.038590504033307 9.759427618458918 1 0 0
806 269 1 0.5897 -6.473195283385982 11.367778035751071 15.416825204766113 1 0 0
830 277 1 0.5897 -7.884895675838963 12.807011648817356 15.174970107142824 1 0 0
907 303 2 -1.1794 -6.268437739462415 15.119823485835946 18.066220994289054 0 0 0
908 303 1 0.5897 -6.724670297568755 14.645142855588166 17.371460891623002 0 0 0
781 261 2 -1.1794 -8.25453516830419 13.587694720698764 16.91369224256519 1 0 0
782 261 1 0.5897 -8.012808550125584 13.001015312025487 17.630356086614526 1 0 0
909 303 1 0.5897 -5.412929179150241 15.329657045085805 17.69174423492813 0 0 0
927 309 1 0.5897 -5.624821528814017 16.81065203745253 14.913217616954293 1 0 0
783 261 1 0.5897 -9.083334050560001 13.977478458089532 17.19172774434577 1 0 0
930 310 1 0.5897 -7.77238149916467 15.649564920077392 14.689904418401115 1 0 0
926 309 1 0.5897 -5.116844592967926 15.416351202187682 14.613439254895338 1 0 0
769 257 2 -1.1794 -7.615770924287261 12.459098164386761 19.39132073225761 1 0 0
925 309 2 -1.1794 -5.88640253297574 15.9778935198803 14.520344228261973 1 0 0
356 119 1 0.5897 0.7250736773509647 17.46127188619379 0.6255048549969828 0 0 0
391 131 2 -1.1794 -0.9926084280489249 19.244412948109286 3.6893243002756146 0 0 0
437 146 1 0.5897 -3.4921995396243664 19.834498560991797 0.133062892369461 1 0 0
393 131 1 0.5897 -1.0961562795267632 20.084662933600455 4.13595367872749 0 0 0
457 153 2 -1.1794 -3.2161938347160106 18.091255505729414 2.5644601334792 1 0 0
459 153 1 0.5897 -2.569564273479666 18.635264602951803 3.014054865523898 1 0 0
481 161 2 -1.1794 -1.3331024218174263 22.381989356627514 1.3996255637800643 1 0 0
483 161 1 0.5897 -2.1797171569091276 22.344146524007613 1.8445260053372192 1 0 0
458 153 1 0.5897 -2.8183078666328627 17.897508521637935 1.7157919765816019 1 0 0
448 150 2 -1.1794 -3.808966163284528 21.417644595792403 2.5990909275313694 1 0 0
938 313 1 0.5897 -1.3100099348949752 20.53611672906381 0.6341980463270913 1 0 1
495 165 1 0.5897 -3.8952645570858206 20.51836115021897 4.203172876387323 1 0 0
449 150 1 0.5897 -3.923589352754404 20.74431958495359 1.9285009917997784 1 0 0
392 131 1 0.5897 -0.23207217872532482 19.366835465421183 3.121228621783929 0 0 0
939 313 1 0.5897 -1.022501909851374 19.2106178538043 -0.03823439913159485 1 0 1
937 313 2 -1.1794 -1.6141765217965947 19.962408861186102 -0.06900787436430655 1 0 1
494 165 1 0.5897 -4.35787587524214 20.557568361446425 5.643986282235555 1 0 0
469 157 2 -1.1794 -2.6066673288000377 18.244328748324637 6.544589972893644 1 0 0
447 149 1 0.5897 -5.339256804212041 21.77717445399377 7.313152105469836 1 0 0
471 157 1 0.5897 -3.3036218227813263 17.947306622000582 7.12957457808894 1 0 0
445 149 2 -1.1794 -4.449629472555726 21.449090915150297 7.182406610407551 1 0 0
446 149 1 0.5897 -4.319408360224212 20.819359744141156 7.891445093050173 1 0 0
461 154 1 0.5897 -5.8999230646314675 18.26663333749641 7.457603154584952 1 0 0
470 157 1 0.5897 -3.0592192053180147 18.749755688433833 5.869335816188127 1 0 0
493 165 2 -1.1794 -4.10040623871547 19.953144074380482 4.947907742331897 1 0 0
460 154 2 -1.1794 -5.21881898629006 17.620946975029895 7.645605222371611 1 0 0
433 145 2 -1.1794 -4.205966773729163 19.980199776552393 9.414985253400717 1 0 0
462 154 1 0.5897 -5.195949817641017 17.062895607020355 6.868301411712598 1 0 0
343 115 2 -1.1794 -1.0327577091616233 21.60020894525774 4.899883446119569 0 0 0
344 115 1 0.5897 -1.0092502461415673 21.365530283023457 5.827533349682962 0 0 0
422 141 1 0.5897 -2.266147073463142 16.919995865175835 5.242179432352202 1 0 0
435 145 1 0.5897 -5.133248492566159 19.761924871800243 9.507963421892375 1 0 0
345 115 1 0.5897 -1.631940580711497 22.345393870177173 4.855899474900619 0 0 0
961 321 2 -1.1794 -6.19856920956356 17.55634878878173 12.370970388101657 1 0 0
985 329 2 -1.1794 -4.671423819938853 22.012166292744784 11.191223877079466 1 0 0
987 329 1 0.5897 -3.8859701650235055 22.327837857063592 11.63800397941628 1 0 0
998 333 1 0.5897 -7.221750103383044 20.630917903667452 14.022872682247776 1 0 0
895 299 2 -1.1794 -4.218028768474593 19.177862251488193 13.340541756375218 0 0 0
896 299 1 0.5897 -4.917143170460297 18.817916931605517 12.794775491156724 0 0 0
954 318 1 0.5897 -6.118177617230026 21.43772786366199 12.007226871714762 1 0 0
897 299 1 0.5897 -3.880688943448349 18.424882435733107 13.825811013608163 0 0 0
952 318 2 -1.1794 -7.020374983574946 21.215230956579415 12.236842982695418 1 0 0
434 145 1 0.5897 -4.0851808566905845 20.754052918423017 9.965221916907844 1 0 0
848 283 1 0.5897 -4.452333820448811 20.987660536371205 14.061855932246342 0 0 0
859 287 2 -1.1794 -2.785785321525563 17.81039061546124 9.844128581361433 0 0 0
963 321 1 0.5897 -5.824616674020948 17.134361226454416 11.597531184500648 1 0 0
953 318 1 0.5897 -7.522363554226474 22.003052889931322 12.028015693157341 1 0 0
941 314 1 0.5897 -7.087854552796701 20.13806654512073 10.749727531536077 1 0 0
962 321 1 0.5897 -6.071943353029589 16.92108498677794 13.075709312361345 1 0 0
860 287 1 0.5897 -3.2396339839783295 18.652724513360884 9.816318314410196 0 0 0
997 333 2 -1.1794 -7.51828776602208 20.101325392167055 14.763017981133716 1 0 0
974 325 1 0.5897 -6.54804538233338 18.128628176430922 16.321987616161415 1 0 0
964 322 2 -1.1794 -8.469549775351032 17.585792593212048 17.155793372369367 1 0 0
975 325 1 0.5897 -5.231574281532475 18.87577124987697 16.346181130841522 1 0 0
973 325 2 -1.1794 -5.760666627468199 18.291814539153684 15.802788139152215 1 0 0
949 317 2 -1.1794 -8.313421947843878 21.35778581049617 17.0224770918322 1 0 0
950 317 1 0.5897 -8.035805215648475 20.83571215279036 16.269806430349185 1 0 0
951 317 1 0.5897 -8.044323744761206 20.843460264542543 17.78358028726219 1 0 0
573 191 1 0.5897 -6.028880836529575 22.380372132707862 18.28920841868115 0 -1 0
966 322 1 0.5897 -9.201620074974205 18.19016975235066 17.278296169577573 1 0 0
999 333 1 0.5897 -6.744194029059459 19.604664381999864 15.02820955173279 1 0 0
357 119 1 0.5897 -6.291695316446511 17.163749817911523 18.706695765224318 0 0 -1
965 322 1 0.5897 -8.73427608289153 17.034276134438457 16.41963554290446 1 0 0
501 167 1 0.5897 -8.764395080260787 16.831494368499527 18.95082167025481 1 0 -1
355 119 2 -1.1794 -6.159112973861612 17.812809440187273 19.397580977047994 0 0 -1
847 283 2 -1.1794 -4.329098838067872 21.820038528019264 14.51815744710652 0 0 0
47 16 1 0.5897 1.653001828986695 5.023407390837641 1.3095150260970092 0 0 0
54 18 1 0.5897 2.8586279357198725 3.589155229371483 2.7592869909085125 0 0 0
18 6 1 0.5897 4.623093995945772 3.8460779255069646 -0.000571916742635542 0 0 0
78 26 1 0.5897 -0.24827317669558235 3.089960369482294 4.634444152952714 0 0 0
52 18 2 -1.1794 3.533797725506526 3.1907306016603263 3.308484896564539 0 0 0
32 11 1 0.5897 0.8506444331476821 1.6255420436586774 3.2731372485828425 0 0 0
31 11 2 -1.1794 0.9217502753956905 1.2287438220527496 2.4050243838173833 0 0 0
46 16 2 -1.1794 1.4806226206108857 4.594961506872394 2.1479110700606117 0 0 0
70 24 2 -1.1794 3.2830951905049313 0.1035482021167475 1.4983925029549887 0 0 0
53 18 1 0.5897 4.2609526260451425 3.020989289848214 2.709678632771676 0 0 0
71 24 1 0.5897 2.7054183886712826 0.5227939551400944 2.1360708444277026 0 0 0
48 16 1 0.5897 1.6424748117228773 5.274490224009061 2.802305714885014 0 0 0
527 176 1 0.5897 3.558362769529979 1.5112241000960203 0.38709990818219087 0 0 1
6 2 1 0.5897 3.3085968889291326 1.7549903426932334 4.29339965454888 0 0 0
16 6 2 -1.1794 5.165140829784814 4.632821491407835 0.058339419202017656 0 0 0
5 2 1 0.5897 2.7535722184557816 0.3984659734285403 4.672747622008763 0 0 0
59 20 1 0.5897 1.578131597062903 3.346434872264894 5.791086121442272 0 0 0
60 20 1 0.5897 2.616425125979541 3.8064955200718473 6.792095655150445 0 0 0
43 15 2 -1.1794 -0.6200464123360647 5.108185536794483 7.1997892020905025 0 0 0
34 12 2 -1.1794 0.16220853589616402 1.4501070300589656 7.424607867916397 0 0 0
35 12 1 0.5897 0.4289489290285813 2.0051079834499377 8.157414192278022 0 0 0
77 26 1 0.5897 -0.01765815337796317 1.8930009084133097 5.532271581187706 0 0 0
401 134 1 0.5897 2.501476402542732 0.09697152477953774 8.8585453157037 0 1 0
45 15 1 0.5897 0.22902561319394232 4.712570220601954 7.002964536037689 0 0 0
402 134 1 0.5897 1.371753866289624 -0.06090897349587789 7.863306875255498 0 1 0
58 20 2 -1.1794 1.8410159530921497 4.1027994465880235 6.315514427393874 0 0 0
36 12 1 0.5897 -0.7558961661873296 1.2446937988184792 7.600836555605433 0 0 0
44 15 1 0.5897 -0.6058848758016331 5.248082001763488 8.146548692843165 0 0 0
11 4 1 0.5897 1.7467983942125453 5.3829520317920805 4.924633475738893 0 0 0
4 2 2 -1.1794 3.407262529875301 1.0481535714207448 4.931301789650994 0 0 0
522 174 1 0.5897 2.1070896405007815 5.215237925761359 9.213188605194688 0 0 0
76 26 2 -1.1794 0.33813257551745934 2.345161328907139 4.767325099836878 0 0 0
556 186 2 -1.1794 0.5814623076838874 3.353215207957432 13.119383506887631 0 0 0
552 184 1 0.5897 -2.593287785899725 4.514490846397398 12.512486680088418 0 0 0
557 186 1 0.5897 0.3430984081223345 2.5067163068785754 13.49741644410929 0 0 0
550 184 2 -1.1794 -1.7010470631983923 4.79646953364427 12.31102751708537 0 0 0
535 179 2 -1.1794 -2.292361936035654 0.5515100314255755 12.153746376596006 0 0 0
536 179 1 0.5897 -2.4258643186340665 0.8945704278487826 13.037243687291209 0 0 0
574 192 2 -1.1794 0.3647752879476296 0.4147657271928926 11.008370594561125 0 0 0
576 192 1 0.5897 -0.4769026236066747 0.3188732025886736 11.453949847191689 0 0 0
537 179 1 0.5897 -2.367546596986722 1.3176821983361704 11.584899681766565 0 0 0
558 186 1 0.5897 -0.22202765757675458 3.6648772592713086 12.702890762093752 0 0 0
23 8 1 0.5897 0.6063276238816431 2.0031434210495243 10.243492022773818 0 0 0
551 184 1 0.5897 -1.4242546396756657 5.287921839455472 13.08434906735339 0 0 0
575 192 1 0.5897 0.975793009969844 -0.09902694109853133 11.536482636066363 0 0 0
525 175 1 0.5897 -1.6372535771423147 2.7789164619663183 9.905837445396225 0 0 0
587 196 1 0.5897 -0.9736915412446687 5.357927116862946 10.538422196483936 0 0 0
508 170 2 -1.1794 0.7266550354189469 0.7096460053894793 14.28378282601047 0 0 0
24 8 1 0.5897 1.0719783480664375 3.413806327109638 9.951380542147811 0 0 0
22 8 2 -1.1794 0.3436552015125858 2.8108902549221684 9.80207722891278 0 0 0
564 188 1 0.5897 -2.026453840620343 4.376994813324044 16.768642342621092 0 0 0
540 180 1 0.5897 -4.745612153716099 0.8047254471968327 17.167172075771475 0 0 0
581 194 1 0.5897 -3.392023359646264 1.5911361580156784 15.318112432767158 0 0 0
563 188 1 0.5897 -0.8939060163723074 4.654095212517782 15.803112694668128 0 0 0
562 188 2 -1.1794 -1.3131206920076819 3.9484845288734114 16.295700358579737 0 0 0
538 180 2 -1.1794 -3.799117461080236 0.8465730928807172 17.03088731535656 0 0 0
539 180 1 0.5897 -3.4715056805183755 1.35118223141635 17.775344341857163 0 0 0
549 183 1 0.5897 -4.552626980672173 4.283450377543021 16.97760678554814 0 0 0
547 183 2 -1.1794 -3.88416063764887 4.937810766419821 17.180559090532924 0 0 0
582 194 1 0.5897 -2.3806406780359914 2.636737558948962 14.898805566860158 0 0 0
580 194 2 -1.1794 -3.008292852015896 2.006188796370627 14.545663531844086 0 0 0
84 28 1 0.5897 -4.288499109467211 5.434621623168368 18.96503943626182 0 0 -1
528 176 1 0.5897 -4.112813361552171 2.4740006552762854 19.3710384097635 0 0 0
526 176 2 -1.1794 -3.238418201605869 2.084973486227022 19.355810239052367 0 0 0
245 82 1 0.5897 0.8308791254327375 9.418063828783918 3.8848140316444706 0 0 0
82 28 2 -1.1794 2.256183147510046 6.271183447776823 -0.009124394809978675 0 0 0
240 80 1 0.5897 3.5189593593525075 7.419176789930918 0.8318036270275884 0 0 0
238 80 2 -1.1794 3.727347613614138 8.078931905743312 1.4932281735086996 0 0 0
174 58 1 0.5897 3.5396840483309564 8.699134636663356 4.2883620953103705 0 0 0
199 67 2 -1.1794 1.137306775351723 8.505599285760967 2.3784676489231398 0 0 0
239 80 1 0.5897 3.788929840573786 8.898971269240008 1.0032799660017404 0 0 0
201 67 1 0.5897 1.9467508821412078 8.160238218153012 2.002061265566819 0 0 0
220 74 2 -1.1794 3.5530536383985813 10.621118194980184 3.606597958449525 0 0 0
10 4 2 -1.1794 1.7343495965171822 6.179760404743514 4.394311192475679 0 0 0
221 74 1 0.5897 4.456321476422938 10.547701398945891 3.298617488141246 0 0 0
244 82 2 -1.1794 0.5253028302532674 9.986978594264286 4.591261924276344 0 0 0
222 74 1 0.5897 3.1122039978239346 11.141947225222303 2.935323895260482 0 0 0
200 67 1 0.5897 0.4757002404845223 7.8454876487620355 2.1716072290717814 0 0 0
188 63 1 0.5897 1.0449747757071712 9.722024087562277 1.0079866340800931 0 0 0
12 4 1 0.5897 0.8300875900177083 6.489091495485816 4.447092618689097 0 0 0
588 196 1 0.5897 -1.3871692974326466 6.262346203923701 9.396946989007743 0 0 0
191 64 1 0.5897 0.4593952608081806 10.026639554945366 8.520976905543597 0 0 0
64 22 2 -1.1794 1.944940954593953 6.75049338575058 7.969432835267483 0 0 0
204 68 1 0.5897 0.7757534309913332 8.131004274507967 7.258740675715891 0 0 0
203 68 1 0.5897 -0.6837256157843306 8.262838593208937 7.638577905114797 0 0 0
228 76 1 0.5897 1.6647066335153475 11.046175995041738 5.701957483697367 0 0 0
202 68 2 -1.1794 0.0018324132511819968 8.675077059358285 7.112962580331297 0 0 0
246 82 1 0.5897 0.11964515093363204 9.390904768856952 5.220820570672038 0 0 0
190 64 2 -1.1794 0.4005161060064424 10.233410905518202 9.453658415600897 0 0 0
65 22 1 0.5897 2.4788861702336504 7.258016753259876 8.580588811293424 0 0 0
172 58 2 -1.1794 3.4892717371624205 8.064977440436992 5.00359029751333 0 0 0
66 22 1 0.5897 2.5779395460148713 6.347455678626262 7.375301505902565 0 0 0
173 58 1 0.5897 2.782235920815994 7.471972951153332 4.749242940930677 0 0 0
692 231 1 0.5897 -1.3118422759456911 10.098566463007261 9.5355917239145 0 0 0
192 64 1 0.5897 0.8679236095642064 11.063721853848236 9.545375183452164 0 0 0
691 231 2 -1.1794 -2.2362433579806718 9.863027338301396 9.614342722575898 0 0 0
744 248 1 0.5897 0.2500165457951997 7.290940641688519 10.507831483169129 0 0 0
743 248 1 0.5897 0.684678854988372 8.741042957138816 10.48825618928958 0 0 0
678 226 1 0.5897 0.315105476821433 9.259230461607311 14.138570640291357 0 0 0
705 235 1 0.5897 -2.543515218326508 8.666020637439228 12.808791798267848 0 0 0
724 242 2 -1.1794 0.5508667623634302 10.547891332825715 12.973111429174919 0 0 0
742 248 2 -1.1794 0.6344786993992968 7.973437287941747 11.057937566115287 0 0 0
693 231 1 0.5897 -2.3192702213202727 9.509755052039097 10.500054799452162 0 0 0
704 235 1 0.5897 -1.4150046953276894 8.272274024826643 11.879788949216755 0 0 0
703 235 2 -1.1794 -2.3423103483395487 8.50938981194634 11.886241434010326 0 0 0
586 196 2 -1.1794 -0.6226608224308596 5.842756213712184 9.7914999368207 0 0 0
750 250 1 0.5897 -3.380286229737308 10.18097958032417 13.9812033287325 0 0 0
726 242 1 0.5897 -0.24852772372860077 10.937006550411306 12.618499826971256 0 0 0
748 250 2 -1.1794 -2.7293030114564703 9.579233823734059 14.342260446863737 0 0 0
569 190 1 0.5897 -1.6765087548393973 5.932592261887254 18.424984934343165 0 0 0
706 236 2 -1.1794 -3.595338570038259 8.585142121349637 16.868229720023947 0 0 0
708 236 1 0.5897 -3.1094085331266728 7.89419334915238 17.31848025332384 0 0 0
695 232 1 0.5897 -3.3465851956203974 9.672412127530775 18.131132204927454 0 0 0
707 236 1 0.5897 -4.514803540004464 8.385463737374394 17.044020216368892 0 0 0
749 250 1 0.5897 -3.0239363108259125 9.41632721866896 15.238240698777886 0 0 0
568 190 2 -1.1794 -1.3810751988246688 6.79643142608916 18.13725500398204 0 0 0
514 172 2 -1.1794 -1.0483618654517377 6.280500256253466 14.563034906772401 0 0 0
548 183 1 0.5897 -4.030698339680416 5.636466930316123 16.542845937884508 0 0 0
570 190 1 0.5897 -0.5946623114255782 6.621235305188849 17.620563516686516 0 0 0
731 244 1 0.5897 -1.6786903811472937 10.982550019452486 14.796943663225344 0 0 0