LAMMPS data file via write_data, version 30 Jul 2021, timestep = 500000

1296 atoms
2 atom types
864 bonds
1 bond types
432 angles
1 angle types

-10.65620670877817 12.63620670877817 xlo xhi
-9.113293995553345 12.103291995553345 ylo yhi
0.08630054148964206 21.77369845851085 zlo zhi
-9.11690068291511 1.897288401175735 2.848806091018095 xy xz yz

Masses

1 1.008
2 15.999

Pair Coeffs # lj/cut/tip4p/long/omp

1 0 0
2 0.21084 3.1668

Bond Coeffs # harmonic/omp

1 450 0.9572

Angle Coeffs # harmonic/omp

1 55 104.52

Atoms # full

282 94 1 0.5897 -10.372798526416936 -4.179682640159424 1.3800569552114323 1 1 0
281 94 1 0.5897 -8.927394625441579 -3.7320169771406295 1.42564999308082 1 1 0
280 94 2 -1.1794 -9.478127011282764 -4.514720402352596 1.4391349723173579 1 1 0
107 36 1 0.5897 -9.194953111787562 1.5275131426726372 3.299759630281036 1 0 0
69 23 1 0.5897 -11.1024239308014 -2.530079495100762 3.3655369193414666 1 0 0
59 20 1 0.5897 -13.496136293455194 -0.8594477037341566 3.3786416104246153 1 0 0
272 91 1 0.5897 -9.363141440622494 -1.2336700916461423 1.0620251005342536 1 1 0
271 91 2 -1.1794 -10.19516289081208 -0.8812008663362096 0.7463332513024016 1 1 0
270 90 1 0.5897 -8.595486058476881 -7.428357670432845 2.098090253497605 1 1 0
163 55 2 -1.1794 -7.204312534172953 -8.018447137763138 0.9851952296223566 1 1 0
164 55 1 0.5897 -6.307231231581673 -8.322986827566469 1.121835961692631 1 1 0
315 105 1 0.5897 -8.76029043289753 -5.575231455003456 5.2898443599998 1 1 0
269 90 1 0.5897 -9.353255709472649 -6.133586098785575 2.300779962048585 1 1 0
268 90 2 -1.1794 -9.275814074720545 -7.026019025545222 2.6380454568543383 1 1 0
323 108 1 0.5897 -6.459271574631931 -5.542941820180996 3.0512060574686775 1 1 0
301 101 2 -1.1794 -7.95492958787732 -2.153240696079684 1.5981060258085025 1 1 0
258 86 1 0.5897 -12.492947474083088 -2.640661545181306 1.2234838331523668 1 1 0
256 86 2 -1.1794 -12.051649641863781 -3.1660089826718583 1.890929525115376 1 1 0
67 23 2 -1.1794 -10.678327119665765 -2.2345309317931994 4.171117182644921 1 0 0
324 108 1 0.5897 -7.17491610067443 -4.22434460126725 3.2534052562718494 1 1 0
44 15 1 0.5897 -9.916479419469356 0.8461682755425777 0.14543739789140553 1 0 0
68 23 1 0.5897 -11.35756912386887 -2.309426680146987 4.8414544631093275 1 0 0
73 25 2 -1.1794 -8.341334171054458 -3.7791327765276668 4.726162823012804 1 0 0
52 18 2 -1.1794 -12.086304546133963 0.011241941397015509 2.65455598556512 1 0 0
314 105 1 0.5897 -9.014899623291207 -6.812004774677331 4.454875244319273 1 1 0
165 55 1 0.5897 -7.58163784277817 -8.650369334611074 0.3733058222293369 1 1 0
75 25 1 0.5897 -9.192936131761535 -3.406840159300077 4.497388275339147 1 0 0
53 18 1 0.5897 -12.270177254838307 0.8436684757891353 2.2192910348210666 1 0 0
275 92 1 0.5897 -10.580200509662685 -7.794096879964223 3.5440089441746405 1 1 0
261 87 1 0.5897 -6.6903885125922695 -5.114796382039705 0.9192146369575818 1 1 0
299 100 1 0.5897 -6.670707820384385 -7.8002563379097225 3.9277843319017562 1 1 0
298 100 2 -1.1794 -6.068324308309253 -7.056686486798323 3.946598797097669 1 1 0
313 105 2 -1.1794 -9.017672841799062 -6.494605788202267 5.357929680439958 1 1 0
82 28 2 -1.1794 -8.991792860359649 -0.015055074856604733 4.132976358613053 1 0 0
83 28 1 0.5897 -9.629732690232492 -0.7285133761367621 4.121884603289688 1 0 0
54 18 1 0.5897 -11.386723036316758 -0.38265317703789137 2.1333017872807765 1 0 0
98 33 1 0.5897 -11.854154025178543 0.41408124293063153 4.488575272897253 1 0 0
322 108 2 -1.1794 -6.547640932382158 -4.66503641490705 2.680177988065706 1 1 0
84 28 1 0.5897 -8.144170713229538 -0.452275126948944 4.213900911428475 1 0 0
99 33 1 0.5897 -11.756114854373688 1.7766762453937375 5.140746669727371 1 0 0
260 87 1 0.5897 -6.831716837547427 -6.382806600552438 0.10448199512655004 1 1 0
74 25 1 0.5897 -8.044803921914909 -3.2588842796715554 5.472860246172796 1 0 0
97 33 2 -1.1794 -11.90871109045791 0.8525189842860907 5.337716203472046 1 0 0
300 100 1 0.5897 -5.201743228182202 -7.446916221748991 3.83277767042707 1 1 0
302 101 1 0.5897 -7.598851187018036 -1.9075307020822834 2.4519311572359315 1 1 0
1226 409 1 0.5897 -9.716540107612573 -5.63258003518281 0.1170088419494599 0 0 1
429 143 1 0.5897 -6.541379348271789 -7.026398005257178 8.852896518360351 1 0 0
428 143 1 0.5897 -6.592501449500367 -6.8192925423256305 10.351749615511512 1 0 0
427 143 2 -1.1794 -6.016534703733285 -6.722355055902963 9.593326109968345 1 0 0
527 176 1 0.5897 -11.973378703859275 1.5886142588681835 8.932926046001974 1 0 0
526 176 2 -1.1794 -12.71108082882175 1.1657645775885062 9.372529567452279 1 0 0
426 142 1 0.5897 -8.794681849351766 -1.4435004182071633 6.910974509294272 1 0 0
419 140 1 0.5897 -8.994393536367488 -5.332222545329191 8.917740417154373 1 0 0
418 140 2 -1.1794 -9.751440102284048 -5.717443315243843 9.35902963678183 1 0 0
413 138 1 0.5897 -7.600065275530326 -3.6799737060855087 7.777859011301201 1 0 0
411 137 1 0.5897 -13.36587201421909 0.6010674569062324 6.359449366330298 1 0 0
349 117 2 -1.1794 -7.222089323662013 -3.8897739888417258 10.885309938576844 0 0 0
402 134 1 0.5897 -10.926004699464476 -0.24376384773764848 6.70607747985626 1 0 0
401 134 1 0.5897 -11.241043643834534 -1.253067241993187 7.789622655742329 1 0 0
400 134 2 -1.1794 -10.511130231648261 -0.8112165133989997 7.3557687244036245 1 0 0
633 211 1 0.5897 -5.844625409908399 -6.173960240110473 5.570149514556088 1 1 0
627 209 1 0.5897 -10.299873552627048 -6.7551328658934064 6.532027255376772 1 1 0
618 206 1 0.5897 -7.74836999635604 -7.4199668906912475 6.67980846528348 1 1 0
616 206 2 -1.1794 -7.348436972532263 -7.907580206762497 7.399888731315182 1 1 0
537 179 1 0.5897 -9.450603792147719 -0.07572754721431707 8.736170319532267 1 0 0
536 179 1 0.5897 -9.668781201939135 -0.028429360686303085 10.23360352878075 1 0 0
535 179 2 -1.1794 -9.009322553959827 0.13445995805985866 9.559133860050768 1 0 0
528 176 1 0.5897 -12.313985247518353 0.6835348346630319 10.097790942651557 1 0 0
410 137 1 0.5897 -13.648278108153818 0.5911177672721202 7.846834623112848 1 0 0
435 145 1 0.5897 -7.616049619490999 -0.7707858103082952 10.006720447495455 0 0 0
412 138 2 -1.1794 -7.468411727351045 -4.566589410388165 8.11365958837813 1 0 0
424 142 2 -1.1794 -7.988916511024777 -1.9546702555541922 6.83585143650115 1 0 0
420 140 1 0.5897 -9.379286783674628 -6.384642072288169 9.93570948204857 1 0 0
350 117 1 0.5897 -7.23797974899086 -4.215610919222 9.98540196944754 0 0 0
414 138 1 0.5897 -6.7870046866113665 -4.9369263819697045 7.552571048354913 1 0 0
522 174 1 0.5897 -10.026678181247302 2.2813628691869923 7.551262018642155 1 0 0
351 117 1 0.5897 -7.125971223793286 -2.941707030129175 10.795498493043873 0 0 0
425 142 1 0.5897 -7.289170490691873 -1.301628439756903 6.83978113455115 1 0 0
415 139 2 -1.1794 -8.769427335850532 1.773100282640618 6.416006240341377 1 0 0
631 211 2 -1.1794 -5.624761343249365 -5.5247235710004094 6.238193353423534 1 1 0
417 139 1 0.5897 -8.953778657457065 1.2135474995332132 5.661632502257495 1 0 0
433 145 2 -1.1794 -6.813818511623159 -1.2200560668529237 10.272707987210731 0 0 0
327 109 1 0.5897 -4.584569697750692 -7.807593774565899 9.814036871732176 0 0 0
684 228 1 0.5897 -8.588088256349483 -6.430886449999346 14.54140408086807 0 0 0
770 257 1 0.5897 -12.082799497124167 2.913144560699637 13.161470823404605 0 0 0
788 263 1 0.5897 -5.099221627303515 -4.392994251481657 15.273924651170304 0 0 0
740 247 1 0.5897 -10.8806931222411 -3.443398920738275 12.060505208229019 1 0 0
762 254 1 0.5897 -9.092896434266123 2.249629754883239 12.080164255889597 0 0 0
761 254 1 0.5897 -9.418380126791384 1.3539993541146593 13.25659954959025 0 0 0
760 254 2 -1.1794 -8.688281364524508 1.7863986567046037 12.813601367718759 0 0 0
652 218 2 -1.1794 -5.778730246285064 -5.4245296941285535 12.623878381409657 0 0 0
682 228 2 -1.1794 -7.835331163307673 -6.666887603457604 13.999227002160906 0 0 0
769 257 2 -1.1794 -12.50417398228043 2.773564078098273 12.313441392806205 0 0 0
780 260 1 0.5897 -7.595072239615949 -4.220556927756071 15.29409226536215 0 0 0
779 260 1 0.5897 -7.4038095428072275 -3.106965054701428 14.286458566272115 0 0 0
778 260 2 -1.1794 -8.080096678923272 -3.5924009718603926 14.758953973568419 0 0 0
768 256 1 0.5897 -9.494008101146811 -2.5920527586757167 15.107570400080713 0 0 0
654 218 1 0.5897 -6.326377370854635 -4.921492541394618 12.021190396574658 0 0 0
653 218 1 0.5897 -6.399666996958917 -5.842065498591406 13.220869653794697 0 0 0
661 221 2 -1.1794 -9.36586093207357 -4.355247525054372 12.535717579093053 0 0 0
792 264 1 0.5897 -11.446245177993815 0.7108886211818835 14.520034430249686 0 0 0
729 243 1 0.5897 -8.250607179827227 -6.909474858424002 12.050534688804744 1 0 0
767 256 1 0.5897 -10.995416533322686 -2.7841741362377936 15.083894056826258 0 0 0
727 243 2 -1.1794 -8.305587960898375 -7.239082137859548 11.153550279493059 1 0 0
663 221 1 0.5897 -8.608585793407213 -4.119757723109874 11.999640030511646 0 0 0
837 279 1 0.5897 -11.128866337363545 0.011784452266716983 12.183019949824775 1 0 0
772 258 2 -1.1794 -6.155833660704655 -2.0167120118915127 13.275638571713086 0 0 0
662 221 1 0.5897 -9.079758024587363 -4.201561105783231 13.436129207638778 0 0 0
791 264 1 0.5897 -10.604683035354505 -0.5271568641608795 14.29470372491604 0 0 0
790 264 2 -1.1794 -10.863372386310527 0.2974131912125628 13.88318407715115 0 0 0
888 296 1 0.5897 -10.492409881596043 3.1730808431678508 15.25689671788479 0 0 0
766 256 2 -1.1794 -10.319436111814003 -2.107675063012172 15.12270211414739 0 0 0
836 279 1 0.5897 -11.315768057956756 -1.1785515468763412 11.266608841872225 1 0 0
896 299 1 0.5897 -7.820631736815873 2.402463403067914 15.753008835058951 0 0 0
897 299 1 0.5897 -7.796658747041019 2.4282487253709633 14.239450495041835 0 0 0
865 289 2 -1.1794 -12.729375998839632 1.150138884299933 15.645875746337195 0 0 0
835 279 2 -1.1794 -11.193576582815986 -0.22927251390943582 11.258918463589417 1 0 0
771 257 1 0.5897 -11.794816286508047 2.85738186418949 11.67617108953776 0 0 0
758 253 1 0.5897 -9.551430579464242 -5.310771469103936 16.257236535303836 0 0 0
1009 337 2 -1.1794 -11.168502863528115 3.711111898457638 20.952384837980716 0 -1 0
1260 420 1 0.5897 -9.795290175761583 3.11653872280662 19.923926249673638 0 0 0
1205 402 1 0.5897 -11.894032421842335 1.3898911095158297 18.594074729531766 0 0 0
1259 420 1 0.5897 -8.83743116206942 1.974051224057174 19.661221883380776 0 0 0
1258 420 2 -1.1794 -9.075731358380137 2.848173991317527 19.352512409642564 0 0 0
1121 374 1 0.5897 -4.86454168531899 -3.354952253509272 18.439009997405783 0 0 0
1217 406 1 0.5897 -11.75673820947296 3.725199107293605 17.800723736567438 0 0 0
1249 417 2 -1.1794 -11.495829222431546 1.098656004896565 21.598612647509626 0 0 0
1130 377 1 0.5897 -7.410399787165751 -1.638069208387373 18.5777632122597 0 0 0
1248 416 1 0.5897 -5.842168368153121 -1.6354073305862826 20.621783365359466 0 0 0
1246 416 2 -1.1794 -6.2697234940431406 -1.085453424861079 19.965302754266798 0 0 0
1236 412 1 0.5897 -7.860007323033898 -0.24015420787659103 20.305774299311903 0 0 0
1087 363 2 -1.1794 -6.433978984871076 -4.968253429210625 16.44786818346372 0 0 0
1218 406 1 0.5897 -13.231755173170875 3.3924263424721453 17.87371946099861 0 0 0
1152 384 1 0.5897 -6.871121809847401 -3.958562150768689 19.759526576040297 0 0 0
1225 409 2 -1.1794 -8.118112029925037 -3.4284462589562734 21.163158202149912 0 0 0
1235 412 1 0.5897 -9.365328865764306 -0.39456884760869393 20.349374086785133 0 0 0
1227 409 1 0.5897 -8.936257116708422 -3.0667193199356078 20.82264086689696 0 0 0
1234 412 2 -1.1794 -8.671654854955055 0.2649136412179054 20.353971661068186 0 0 0
1097 366 1 0.5897 -8.90058085632108 -5.6929460896368305 18.56988174216496 0 0 0
1011 337 1 0.5897 -11.968233766906987 4.087316811678539 20.58487758952832 0 -1 0
1251 417 1 0.5897 -11.394645172660834 2.046785749856765 21.515282220937436 0 0 0
1109 370 1 0.5897 -8.73864024122592 -3.4025502163976746 17.52077728626287 0 0 0
1108 370 2 -1.1794 -9.338163943582781 -4.1436803822215875 17.606993377104317 0 0 0
1088 363 1 0.5897 -6.65339740162611 -5.8969906152394564 16.37432656457055 0 0 0
1089 363 1 0.5897 -6.438664328296792 -4.79442689859682 17.389171652159746 0 0 0
1141 381 2 -1.1794 -8.479461409912677 -6.065420005772767 21.721404023384267 0 0 0
1110 370 1 0.5897 -10.196321345844646 -3.7432396103519077 17.74632724288896 0 0 0
1129 377 2 -1.1794 -7.708366960510596 -1.8670303880437427 17.697423207693078 0 0 0
1151 384 1 0.5897 -6.093009664008095 -5.252474652747583 19.64966826160023 0 0 0
1150 384 2 -1.1794 -6.19824320914125 -4.39517762957828 19.237158866630438 0 0 0
1131 377 1 0.5897 -6.970894176975506 -1.6449690652951166 17.1289780463226 0 0 0
1250 417 1 0.5897 -11.683661603062916 0.7983668413713438 20.70936117710927 0 0 0
1219 407 2 -1.1794 -10.300984356436711 -2.03133760958727 20.24848869593259 0 0 0
1197 399 1 0.5897 -9.41914247367561 2.5093683663955844 17.563378583961732 0 0 0
1100 367 1 0.5897 -9.173933967284468 -0.7112323714534625 17.506494757792474 0 0 0
1216 406 2 -1.1794 -12.365104411826005 2.987387447596598 17.84129536443829 0 0 0
1099 367 2 -1.1794 -10.027944296132056 -0.4388603737111545 17.170890785367387 0 0 0
1206 402 1 0.5897 -11.15709156748762 0.0804063374620334 18.409969492256412 0 0 0
1143 381 1 0.5897 -8.38260763786122 -5.116402605177728 21.643218484588093 0 0 0
1204 402 2 -1.1794 -11.790750639844973 0.5190616834332271 18.977710419297726 0 0 0
1196 399 1 0.5897 -9.575562240571436 1.2525506555927635 16.73418671769585 0 0 0
1010 337 1 0.5897 -10.943302330978415 4.2904115064694395 21.680288490868126 0 -1 0
259 87 2 -1.1794 -4.780027522294506 -2.59320069501579 21.707154899931545 1 1 -1
1096 366 2 -1.1794 -8.826225353251264 -6.581909233325515 18.91686870146641 0 0 0
1195 399 2 -1.1794 -9.414472648268738 2.1931155893017245 16.659928086195794 0 0 0
1101 367 1 0.5897 -10.262835759764435 -1.1150568387119755 16.53550865663348 0 0 0
1229 410 1 0.5897 -7.765703031785915 3.83069696042773 18.676177484404366 0 0 0
1221 407 1 0.5897 -10.785435746134404 -2.156205280458667 19.432464268824653 0 0 0
1142 381 1 0.5897 -8.483741897995822 -6.3813803545075025 20.81784885223797 0 0 0
273 91 1 0.5897 -8.552243581448732 1.3808807970439982 21.721557050025314 1 1 -1
866 289 1 0.5897 -12.498397653341039 1.7173571064787794 16.38144519871782 0 0 0
40 14 2 -1.1794 -14.99267752378401 3.577339733717519 1.6199071136622056 1 0 0
177 59 1 0.5897 -14.088261103591282 4.587487601552239 3.093229719606873 1 0 0
42 14 1 0.5897 -15.421198890114532 4.093293573784779 0.9369833437676484 1 0 0
193 65 2 -1.1794 -13.889566019822052 12.064487150582082 1.3633128467801146 1 0 0
174 58 1 0.5897 -16.379637891700717 10.045220400936813 1.6845659060133629 1 0 0
173 58 1 0.5897 -14.918918089970603 10.410833933055027 1.528487012130977 1 0 0
172 58 2 -1.1794 -15.51644826346476 9.663127989777578 1.5260948841393955 1 0 0
207 69 1 0.5897 -14.921232344044864 8.681741270893664 5.211796204346114 1 0 0
162 54 1 0.5897 -14.530762484194604 6.686637328266627 2.0980536413871516 1 0 0
161 54 1 0.5897 -15.244670546040037 8.012772081638811 2.2510980966001575 1 0 0
160 54 2 -1.1794 -15.250794398511243 7.109057676081065 2.566428533756097 1 0 0
55 19 2 -1.1794 -13.122900526934291 6.187304458365018 0.8467388082746717 1 0 0
56 19 1 0.5897 -12.346869722927334 5.8077801776649824 1.2589122512796473 1 0 0
45 15 1 0.5897 -9.79028018485996 2.065790769794285 1.0332658787662061 1 0 0
106 36 2 -1.1794 -9.381567063708278 2.3765687016849473 2.899166260042247 1 0 0
66 22 1 0.5897 -13.365392385091063 2.821466550066294 1.4370514111264736 1 0 0
65 22 1 0.5897 -11.88002804039252 3.1137182032273714 1.4361738659119894 1 0 0
64 22 2 -1.1794 -12.509753638322634 2.3935406403810227 1.406152592810994 1 0 0
285 95 1 0.5897 -17.248004176701315 11.51268591603105 3.2952267199735426 1 0 0
148 50 2 -1.1794 -18.13311451960422 10.772177439036387 1.9786986173292787 1 0 0
215 72 1 0.5897 -12.428693213991924 8.697308247505674 3.223108963155781 1 0 0
150 50 1 0.5897 -18.589552699904992 11.34557860489532 1.3630027516736496 1 0 0
152 51 1 0.5897 -12.9299022540863 7.8669644036460475 0.3250627731509166 1 0 0
284 95 1 0.5897 -17.461871219626957 11.7359628677623 4.777289984200008 1 0 0
85 29 2 -1.1794 -10.901511026019136 4.778204457397024 1.590502027468445 1 0 0
206 69 1 0.5897 -14.879833401747995 7.373544940965502 4.451161579411936 1 0 0
167 56 1 0.5897 -16.613985200261368 6.182265164752316 3.3194440336794226 1 0 0
191 64 1 0.5897 -12.750327517464534 6.332676197111912 3.9909713379284537 1 0 0
190 64 2 -1.1794 -12.173870883348002 7.096630862049622 4.00466492563554 1 0 0
183 61 1 0.5897 -12.147528063448013 3.765585276319518 4.315919041565945 1 0 0
291 97 1 0.5897 -15.292373504094927 10.979273616509904 4.447642077122439 1 0 0
181 61 2 -1.1794 -11.331357052164162 3.4705824420018647 4.71964564492702 1 0 0
176 59 1 0.5897 -14.390018637667382 4.593559803585647 4.576827881876199 1 0 0
175 59 2 -1.1794 -13.692863501751908 4.7711420961266455 3.9453589558522535 1 0 0
289 97 2 -1.1794 -14.524499202230746 10.490413022492273 4.743533924881773 1 0 0
108 36 1 0.5897 -9.97721264439871 2.805872701576064 3.5133199591345905 1 0 0
283 95 2 -1.1794 -16.80142415835762 11.809106286545408 4.088233787983981 1 0 0
216 72 1 0.5897 -13.359136067401566 9.865631941826745 3.4702383443761566 1 0 0
205 69 2 -1.1794 -14.910561313076531 7.732974810201952 5.337796811513241 1 0 0
290 97 1 0.5897 -14.156365213659704 11.02471470645558 5.447184616552785 1 0 0
153 51 1 0.5897 -12.747541998464705 9.145974439708294 1.1140450178816796 1 0 0
151 51 2 -1.1794 -12.72176327058707 8.795683362299854 0.2236005295245678 1 0 0
57 19 1 0.5897 -13.341351642208275 5.579058814128821 0.14071969815505156 1 0 0
214 72 2 -1.1794 -12.575906537586002 9.6118259999996 2.9819625511187704 1 0 0
192 64 1 0.5897 -11.28972244420851 6.7305193265352745 3.984035431296078 1 0 0
43 15 2 -1.1794 -9.681885591945202 1.773953009141021 0.1280804262636653 1 0 0
508 170 2 -1.1794 -13.562204023041566 6.383828402738056 7.249495934015507 1 0 0
645 215 1 0.5897 -12.413039347317067 7.270093126432691 8.53375404979276 1 0 0
644 215 1 0.5897 -12.483634716433544 7.141483010187898 10.040606782567385 1 0 0
643 215 2 -1.1794 -11.879729207364901 7.341629974445688 9.325357232901354 1 0 0
509 170 1 0.5897 -14.294583760264548 5.906855347000054 7.639827780123854 1 0 0
640 214 2 -1.1794 -13.964677659349778 12.236528027643047 6.839504687274115 1 0 0
636 212 1 0.5897 -15.086816978381133 7.587943606319566 9.736350658458027 1 0 0
630 210 1 0.5897 -12.844579246148964 9.502277041186048 7.398561268931958 1 0 0
629 210 1 0.5897 -13.723686497978221 10.71144382531848 7.636983075012888 1 0 0
628 210 2 -1.1794 -13.521344763149497 9.842553308239825 7.983776510272697 1 0 0
457 153 2 -1.1794 -10.271135280770762 3.20961455214357 10.911727042327419 0 0 0
566 189 1 0.5897 -13.287961250172796 10.05882088030847 9.748267680786658 0 0 0
520 174 2 -1.1794 -10.654082893201391 2.669038098380888 8.161471997304997 1 0 0
543 181 1 0.5897 -10.500661847123478 6.279936903129183 9.740188044136985 0 0 0
525 175 1 0.5897 -11.860369257918673 8.310569740712964 5.573451517203996 1 0 0
510 170 1 0.5897 -13.96809523540226 6.955558037415013 6.597885021462744 1 0 0
565 189 2 -1.1794 -13.278046018290762 10.2917966461245 10.676650346201919 0 0 0
521 174 1 0.5897 -10.902434214022897 3.49927261028931 7.754992657791465 1 0 0
534 178 1 0.5897 -12.019966429616177 5.540995488227468 7.030124594422472 1 0 0
519 173 1 0.5897 -16.527898210738105 7.255970525702931 6.349510609460068 1 0 0
642 214 1 0.5897 -14.792900593285847 12.69642769854504 6.976420999706594 1 0 0
635 212 1 0.5897 -14.831366506802375 8.66237583528548 8.700812233929307 1 0 0
634 212 2 -1.1794 -15.51112131859543 8.073915348177099 9.029227707626765 1 0 0
459 153 1 0.5897 -10.154704473886435 4.155757972128033 10.825788205561064 0 0 0
532 178 2 -1.1794 -11.191431563353927 5.071969287338051 6.931454887439112 1 0 0
617 206 1 0.5897 -17.19455765611837 12.841971924687947 7.807757288744164 1 0 0
567 189 1 0.5897 -13.196806922762281 11.24545847059925 10.683807764874501 0 0 0
325 109 2 -1.1794 -12.92313808301011 12.9854209128777 10.175905992104916 0 -1 0
458 153 1 0.5897 -10.255769840925518 2.8833080487875726 10.011976763731129 0 0 0
533 178 1 0.5897 -10.521158242123077 5.751742292189723 7.000392106816717 1 0 0
182 61 1 0.5897 -11.257125112081834 3.9915853018323233 5.51917238299622 1 0 0
658 220 2 -1.1794 -16.421245148015224 11.904267920796435 14.710313908755369 0 -1 0
887 296 1 0.5897 -10.222165643834204 4.067328510054908 14.065521411870785 0 0 0
875 292 1 0.5897 -13.991243594835943 4.272165854473652 14.89693933738153 0 0 0
876 292 1 0.5897 -12.494692242801271 4.480798756980809 14.804426155063222 0 0 0
870 290 1 0.5897 -12.255900949267785 9.31552368653654 11.878489802677002 0 0 0
869 290 1 0.5897 -12.474417798878333 8.28824114720248 12.968868053599913 0 0 0
868 290 2 -1.1794 -11.78621034482629 8.721855927071967 12.4642710257712 0 0 0
671 224 1 0.5897 -13.364841600104473 11.298745393029158 14.11282957444482 0 -1 0
943 315 2 -1.1794 -14.050595240850924 6.845041101242643 11.036956968309715 1 0 0
728 243 1 0.5897 -17.3900281158363 13.02532507038552 11.245446522231555 1 -1 0
956 319 1 0.5897 -16.775871615612427 10.97675198353307 11.967219737312348 1 0 0
945 315 1 0.5897 -14.072768930204402 7.120161383758653 11.953519271349455 1 0 0
886 296 2 -1.1794 -10.915958052630163 3.5656076813901194 14.493507615413481 0 0 0
660 220 1 0.5897 -15.55266192678836 11.502372163166683 14.725192869922497 0 -1 0
900 300 1 0.5897 -14.549357811701885 7.763085044646008 14.290100536355842 0 0 0
899 300 1 0.5897 -13.660973398329698 6.548948467883921 14.121564807731732 0 0 0
898 300 2 -1.1794 -13.8291748413153 7.41963060433206 13.761273437653308 0 0 0
879 293 1 0.5897 -14.708586884256562 9.826025728768183 11.663501542178334 0 0 0
878 293 1 0.5897 -14.990404202128222 10.0690413895983 13.131027954752676 0 0 0
877 293 2 -1.1794 -15.415830226351584 9.826636695344472 12.30858045402509 0 0 0
683 228 1 0.5897 -16.783163858786118 13.631476240101826 14.210051959578465 0 -1 0
874 292 2 -1.1794 -13.318192609016332 4.9518018398992005 14.931726696788388 0 0 0
848 283 1 0.5897 -13.981690897694389 3.9140654121370417 11.826491364154975 1 0 0
670 224 2 -1.1794 -14.004000917856942 10.73432550186596 14.547750498459994 0 -1 0
672 224 1 0.5897 -13.477994419242265 10.161864216599152 15.106143715408509 0 -1 0
659 220 1 0.5897 -17.02825062093641 11.164284699403328 14.719775037216564 0 -1 0
680 227 1 0.5897 -10.92139188502588 9.468855371514788 15.38548879249763 0 -1 0
944 315 1 0.5897 -14.370834710991627 5.943149461250007 11.049410482479118 1 0 0
955 319 2 -1.1794 -17.63496357026986 11.29559245594746 11.690703418415065 1 0 0
649 217 2 -1.1794 -15.820479846177886 8.23785448522803 15.518306724881501 0 -1 0
650 217 1 0.5897 -15.593476671230256 8.851486516452649 16.216924829290836 0 -1 0
980 327 1 0.5897 -12.743168378675477 8.482438917250647 16.32041151360503 0 -1 0
993 331 1 0.5897 -16.322800437685803 13.091292944353292 16.3216517901893 0 -1 0
1209 403 1 0.5897 -13.169532414570632 6.013121606529571 16.27644924547694 0 0 0
1140 380 1 0.5897 -11.711018814648341 12.72105913468005 20.643957372444262 0 -1 0
1138 380 2 -1.1794 -12.228833349350454 13.22940105987428 20.01972799511315 0 -1 0
1128 376 1 0.5897 -13.909156487549517 13.979521468512893 20.235608941642514 0 -1 0
1127 376 1 0.5897 -15.344406929161927 13.532444290008794 20.41434042094108 0 -1 0
1018 340 2 -1.1794 -11.624119148218483 7.430551897667865 20.391354803997288 0 -1 0
1019 340 1 0.5897 -12.28654340940259 6.744848794031672 20.30705735026641 0 -1 0
1020 340 1 0.5897 -10.794293543890973 6.984803569949257 20.221336017451357 0 -1 0
1022 341 1 0.5897 -13.194067611688794 12.490984367957797 18.646464640238896 0 -1 0
989 330 1 0.5897 -15.24007569675079 8.353703118506413 18.311800795291692 0 -1 0
1119 373 1 0.5897 -14.928655901728224 10.996967988031571 20.786883179441983 0 -1 0
1237 413 2 -1.1794 -10.700921090599405 5.1540714417422855 17.734243037716237 0 0 0
1117 373 2 -1.1794 -14.071666960132648 10.65169178298185 21.03689808782224 0 -1 0
1044 348 1 0.5897 -12.889694924172321 10.217590339772165 19.635021116403006 0 -1 0
1043 348 1 0.5897 -11.994631227771297 8.999298858213557 19.55518698211514 0 -1 0
1030 344 2 -1.1794 -9.236159914446265 6.172333931951023 19.868341148058647 0 -1 0
1042 348 2 -1.1794 -12.17512054906365 9.835374641997578 19.125541285678697 0 -1 0
1032 344 1 0.5897 -8.78192016430505 5.571163044907546 20.458648319695083 0 -1 0
1003 335 2 -1.1794 -13.32776467434008 5.111476401303348 20.298390796339156 0 -1 0
1013 338 1 0.5897 -10.71776031081929 10.784855506526053 18.610731025534328 0 -1 0
1005 335 1 0.5897 -13.853130243996672 5.053461762496767 19.50039228852564 0 -1 0
1126 376 2 -1.1794 -14.783635903623153 14.3074900878761 20.44521645547674 0 -1 0
981 327 1 0.5897 -12.501357882758361 9.590879501412171 17.322681682346 0 -1 0
1111 371 2 -1.1794 -16.405094958730572 12.0275869463546 20.517284417499006 0 -1 0
1239 413 1 0.5897 -10.027376762769327 5.171701624945932 17.054276223922013 0 0 0
1238 413 1 0.5897 -10.22307109772922 5.306338306217102 18.549502433412044 0 0 0
990 330 1 0.5897 -14.23628512577564 7.257082761895408 18.026101999030416 0 -1 0
988 330 2 -1.1794 -14.950592648769522 7.494132677483837 18.617604040399634 0 -1 0
1207 403 2 -1.1794 -12.856442167147978 6.683347258777413 16.883803172909804 0 0 0
991 331 2 -1.1794 -16.05058402249734 13.665604998519985 17.03733830194888 0 -1 0
992 331 1 0.5897 -15.224361260939705 13.291981934488167 17.343807086132358 0 -1 0
1034 345 1 0.5897 -14.696164597821948 7.615481954303348 20.605499369312632 0 -1 0
1023 341 1 0.5897 -12.994280287093451 12.54350171496744 17.14664540333242 0 -1 0
1021 341 2 -1.1794 -13.65221721084768 12.357778694228468 17.816684986848983 0 -1 0
1208 403 1 0.5897 -12.11250043486029 6.27629185301533 17.327672798133698 0 0 0
1001 334 1 0.5897 -14.819156280224771 10.884130730142594 17.55558047721387 0 -1 0
1000 334 2 -1.1794 -15.388455580130245 10.118815558750775 17.47624298979371 0 -1 0
1098 366 1 0.5897 -17.275101058538635 14.21932959742351 18.371430631852256 0 -1 0
979 327 2 -1.1794 -12.45740583573318 9.39348612805821 16.38705546845107 0 -1 0
1033 345 2 -1.1794 -14.562829407799164 7.943802226897887 21.494686478659656 0 -1 0
1035 345 1 0.5897 -14.346035329779088 8.868850509736319 21.378839033825166 0 -1 0
1002 334 1 0.5897 -16.26877269877949 10.456383869640522 17.641484269671487 0 -1 0
1118 373 1 0.5897 -13.733563680700616 11.284485059700774 21.670435195346336 0 -1 0
94 32 2 -1.1794 -6.484092411227565 -1.1303519709559664 3.8591430070254473 1 0 0
318 106 1 0.5897 -2.806490009916642 -4.187610729295701 1.4003829693516239 1 1 0
311 104 1 0.5897 -2.7081921102692306 -7.740736137227092 3.342052195379999 1 1 0
303 101 1 0.5897 -7.233911264128064 -2.0060826352986805 0.9858986463415943 1 1 0
310 104 2 -1.1794 -3.4943494331869926 -8.180197225241418 3.666168776674531 1 1 0
243 81 1 0.5897 -1.1316756361874294 -5.328011646359791 5.401343825669452 0 1 0
294 98 1 0.5897 -4.828968357369836 -2.863200459235353 0.8234525135158564 1 1 0
293 98 1 0.5897 -5.0979741414809405 -3.793271043053398 1.9873569505125102 1 1 0
292 98 2 -1.1794 -4.391975829642807 -3.332265567681077 1.5342523249083886 1 1 0
1046 349 1 0.5897 -4.893037753688883 1.3416467072806597 0.11630636851062755 0 -1 1
26 9 1 0.5897 -4.151064021169353 0.21680837822780852 4.576027807922701 0 0 0
25 9 2 -1.1794 -4.126868717747805 0.5921606028505497 5.456237635048019 0 0 0
88 30 2 -1.1794 -4.341245584278967 0.0929193464151048 2.690666326660168 1 0 0
89 30 1 0.5897 -4.473367720735375 0.9615402143989424 2.3108848262633193 1 0 0
90 30 1 0.5897 -3.736566232082817 -0.3422626369960966 2.089617725061975 1 0 0
96 32 1 0.5897 -5.986475293417392 -1.707015651884542 4.438828118871346 1 0 0
3 1 1 0.5897 -1.3976603797476255 -3.2229883791932457 4.21644580609004 0 0 0
95 32 1 0.5897 -5.817945110948894 -0.6724666028640911 3.3464414123495727 1 0 0
316 106 2 -1.1794 -1.915590957481239 -4.532823393106374 1.457870194901913 1 1 0
103 35 2 -1.1794 -2.9859429980452568 -2.2979868187219656 3.6980130771424067 1 0 0
242 81 1 0.5897 -1.053455052652156 -6.561687552678949 4.527496084932661 0 1 0
306 102 1 0.5897 -0.8041934088229876 -7.281525851574292 1.9937932922214356 1 1 0
305 102 1 0.5897 -1.47627432863281 -5.9779154755442825 2.368824857205076 1 1 0
304 102 2 -1.1794 -1.4002828367711473 -6.894221861162958 2.634859969002938 1 1 0
104 35 1 0.5897 -3.603044696838336 -2.519056754896112 4.395614332350528 1 0 0
105 35 1 0.5897 -3.408712637285354 -2.606808604785849 2.8967271008177558 1 0 0
317 106 1 0.5897 -1.3542547840244676 -3.760214745832342 1.3937860421967694 1 1 0
241 81 2 -1.1794 -1.0886667816828979 -6.283300758833977 5.442664583172219 0 1 0
27 9 1 0.5897 -3.9409499561384393 1.520556328945407 5.316078947103721 0 0 0
307 103 2 -1.1794 -2.4886797298481156 -0.9057728214413725 0.7899677558160907 1 1 0
199 67 2 -1.1794 0.5199951061708159 -8.015582639949802 0.842769508828992 1 1 0
632 211 1 0.5897 -4.777759316259269 -5.810165661787592 6.580626673009347 1 1 0
357 119 1 0.5897 1.3088030287672119 -7.171555328155012 8.68380383260595 0 0 0
555 185 1 0.5897 -2.662077829414004 -6.737833979893097 6.358005305665092 0 1 0
554 185 1 0.5897 -2.7852593444688196 -6.404966197278233 7.829766441625597 0 1 0
553 185 2 -1.1794 -3.2973497585507268 -6.688251208845644 7.072362541096035 0 1 0
338 113 1 0.5897 -5.970808852699595 0.5549951312099068 7.927919491469447 0 0 0
546 182 1 0.5897 -0.20456296089343518 -7.20939751314026 6.754191254162263 0 1 0
404 135 1 0.5897 -5.173337269787726 -3.747662814609498 5.699190066802024 1 0 0
356 119 1 0.5897 1.1312315248666067 -6.984443579911121 10.175634986819636 0 0 0
328 110 2 -1.1794 -2.7685791350571156 -1.048441670306886 7.278933849871917 0 0 0
443 148 1 0.5897 -7.949277683555405 1.5499191307240068 9.54182323233343 0 0 0
456 152 1 0.5897 -4.508885730224309 0.7504837236616577 10.049951105925281 0 0 0
455 152 1 0.5897 -4.195125422825722 1.6639869103189824 8.884123305324955 0 0 0