LAMMPS data file via write_data, version 30 Jul 2021, timestep = 4000000

864 atoms
2 atom types
576 bonds
1 bond types
288 angles
1 angle types

0.43402026918257697 17.773552130810703 xlo xhi
1.6027498177638915 22.026427982231738 ylo yhi
0.5295037146474879 21.683692085350668 zlo zhi

Masses

1 1.00794
2 15.9994

Pair Coeffs # lj/cut/tip4p/long/omp

1 0 0
2 0.21084 3.1668

Bond Coeffs # harmonic/omp

1 450 0.9572

Angle Coeffs # harmonic/omp

1 55 104.52

Atoms # full

778 1 2 -1.1794 1.1571345202979115 6.125487835332082 1.22078647873299 -1 1 0
126 1 1 0.5897 2.0846790670177953 3.395676691032257 1.1205192492410214 2 2 4
780 1 1 0.5897 0.6616129996011886 5.325329452400804 1.0466348134922994 -1 1 0
370 1 2 -1.1794 0.8135330209010379 6.522534816223498 4.93551100165514 4 6 -1
137 1 1 0.5897 3.7232402873219317 3.82609120157222 5.18835029463387 8 -7 0
481 1 2 -1.1794 3.763541109098982 5.815238992112512 1.8608831209360794 -1 3 0
125 1 1 0.5897 3.3864793196269742 4.15584830837825 1.2585237611531355 2 2 4
482 1 1 0.5897 2.826651973079402 5.9593756834108484 1.9935084057978556 -1 3 0
124 1 2 -1.1794 3.026922182719109 3.3162717992106527 0.9722390901419902 2 2 4
779 1 1 0.5897 0.5418502760548233 6.692372442800417 1.6857333614184768 -1 1 0
483 1 1 0.5897 4.136014962263582 6.695094281827221 1.8039229758954023 -1 3 0
372 1 1 0.5897 0.6231167396473419 6.353391556349793 5.858145703467608 4 6 -1
426 1 1 0.5897 4.105381437167024 5.296402796647191 9.302362335542602 8 -5 0
17 1 1 0.5897 0.992454612146024 5.482734618248628 7.852428428663552 -1 3 1
419 1 1 0.5897 2.5947093963137267 5.731199382133756 7.601744987071876 -7 -2 5
420 1 1 0.5897 2.7193936028741654 4.226884121333882 7.487063079062425 -7 -2 5
418 1 2 -1.1794 2.6179826217786855 4.931391287597892 8.127006631279205 -7 -2 5
715 1 2 -1.1794 1.6073979644978886 3.95461461144131 10.470832346685324 5 -6 -3
717 1 1 0.5897 1.2038124567263262 3.243592560907929 9.973148923327111 5 -6 -3
716 1 1 0.5897 2.147266146781272 4.418912092954507 9.831228266943405 5 -6 -3
138 1 1 0.5897 3.9206767016239343 2.8463100563295827 6.325295578620448 8 -7 0
434 1 1 0.5897 4.4115343269710205 3.3892928847627113 10.070751212455779 1 5 -2
433 1 2 -1.1794 3.9524697992308035 2.6299191063456595 9.711974292593476 1 5 -2
435 1 1 0.5897 3.0374902288215533 2.9057579687337656 9.65868924187345 1 5 -2
569 1 1 0.5897 0.5204629386766085 2.098098988874228 7.915257042040297 3 0 -1
568 1 2 -1.1794 0.7483880970857346 1.9551143369670143 8.833805689222679 3 0 -1
424 1 2 -1.1794 4.543635847603619 5.285724207018987 10.15320692995755 8 -4 0
136 1 2 -1.1794 3.289691652896678 3.4681582303930822 5.962969901925912 8 -7 0
195 1 1 0.5897 1.4615649803703397 2.591315252495414 5.925850117845396 1 -4 0
193 1 2 -1.1794 0.5716991167564305 2.262898803227828 6.053991164995576 1 -4 0
695 1 1 0.5897 4.285388022453604 3.017225741407238 13.268760569460873 2 -3 1
103 1 2 -1.1794 4.717792685047327 6.242813931851329 13.627557524607173 4 0 6
818 1 1 0.5897 2.0753640821228014 2.5889071877485077 14.903763800386104 4 0 -1
817 1 2 -1.1794 1.9277869394998635 1.644518060603963 14.9533594239071 4 0 -1
722 1 1 0.5897 2.5426716172373105 4.2263103175751935 12.24856313288665 1 0 0
721 1 2 -1.1794 2.8442232472375326 4.100227420348308 13.14817749902904 1 0 0
104 1 1 0.5897 4.101565882825152 5.6002312565193035 13.276177999414593 4 0 6
473 1 1 0.5897 1.182806691175386 6.112015031231886 11.121012166911404 1 1 -2
723 1 1 0.5897 2.1050448074188446 4.376284397047201 13.689984683103654 1 0 0
71 1 1 0.5897 0.8936971027874436 2.6503511400848727 19.247773363482608 5 2 -6
609 1 1 0.5897 4.729048143284531 3.2618180093645313 19.30802454438117 8 2 1
366 1 1 0.5897 2.0327476541362532 3.718417264410121 17.4384624329956 3 3 1
290 1 1 0.5897 1.541869861379424 6.30792048914046 20.699677046749727 -7 -3 -7
123 1 1 0.5897 0.8887507594636024 5.426914545817013 16.830154723194376 1 -2 0
364 1 2 -1.1794 2.275117634253052 4.114534841912841 16.601518111481845 3 3 1
256 1 2 -1.1794 4.396576445244958 5.0182133550807055 19.45446683444623 -2 -1 0
257 1 1 0.5897 3.5170594201333656 5.384231116877147 19.547164920237194 -2 -1 0
70 1 2 -1.1794 1.181462183810231 3.559763626545204 19.168525044793796 5 2 -6
72 1 1 0.5897 1.8951411148859587 3.6416406646332273 19.80105901786922 5 2 -6
365 1 1 0.5897 3.118292187815783 4.534921374876083 16.770218201267234 3 3 1
291 1 1 0.5897 1.126381827050781 6.654979024700217 19.285988603001577 -7 -3 -7
635 1 1 0.5897 3.626870493430774 1.6458601458414635 21.65136439014799 -7 2 1
289 1 2 -1.1794 1.8932260145318156 6.449778620826886 19.82073578063052 -7 -3 -7
258 1 1 0.5897 4.695880693045615 5.326505206176886 18.59919758005259 -2 -1 0
608 1 1 0.5897 4.616540366372315 1.8320785644166606 19.792581142056335 8 2 1
80 1 1 0.5897 3.670067174106345 11.042174644718592 5.752142944453652 2 1 -4
423 1 1 0.5897 4.078304176805974 7.9907882932281 4.238082043526871 -4 2 4
422 1 1 0.5897 2.6083502786642963 8.055296310093002 3.8821443326351055 -4 2 4
421 1 2 -1.1794 3.2066615499542586 7.799068309196534 4.583916610787912 -4 2 4
612 1 1 0.5897 4.130136680799539 8.855908590348282 0.6350876310930499 2 3 0
371 1 1 0.5897 1.6634079606935954 6.962756304848677 4.942658388342791 4 6 -1
251 1 1 0.5897 1.9169191097953733 8.918980322653416 1.3689197034280167 3 -2 2
252 1 1 0.5897 1.3316320053783288 9.942827900934832 2.3180289060857726 3 -2 2
250 1 2 -1.1794 1.7313080534706284 9.073423860266743 2.295113462760802 3 -2 2
81 1 1 0.5897 3.29466379036888 9.62688165926918 5.367884955026563 2 1 -4
146 1 1 0.5897 3.7179061250257983 11.590775890302174 9.911755012003429 1 1 -4
519 1 1 0.5897 2.8392236866891 7.734542700546292 6.36376257317167 0 -2 -4
517 1 2 -1.1794 2.6120483889179167 7.570017695901619 7.278886162647879 0 -2 -4
508 1 2 -1.1794 3.0747868428347576 9.89111318456618 9.255471069832048 4 -1 3
319 1 2 -1.1794 4.175756631485024 8.270531353879626 11.102401453654709 2 -2 1
510 1 1 0.5897 2.678339984864745 9.452248540733521 8.50290827926473 4 -1 3
321 1 1 0.5897 3.688166664868843 8.796107883375575 10.46826037339063 2 -2 1
509 1 1 0.5897 2.3484741511077756 10.027581585613472 9.863714869193384 4 -1 3
247 1 2 -1.1794 1.2016637451866135 10.943659224777402 10.950279957909697 -1 2 -3
518 1 1 0.5897 1.875496345241035 8.156106068748828 7.452398053368643 0 -2 -4
274 1 2 -1.1794 0.7415361555244379 9.467691849491594 7.382888845097382 -2 2 -2
275 1 1 0.5897 1.2441867881528352 10.180100952672552 6.98799521822094 -2 2 -2
79 1 2 -1.1794 2.986778359103416 10.382146078385235 5.868787111474293 2 1 -4
313 1 2 -1.1794 1.7868931708973317 10.67126903366043 13.579014310162268 -1 -1 -2
320 1 1 0.5897 3.514520752599139 7.710444818791938 11.508822860021944 2 -2 1
577 1 2 -1.1794 4.31803395300234 11.060907234420492 12.885642269098792 1 2 -3
314 1 1 0.5897 1.5129755128067297 11.46018562615975 14.046655410085092 -1 -1 -2
315 1 1 0.5897 2.6101410538329 10.916298041900532 13.156707399267603 -1 -1 -2
293 1 1 0.5897 3.193172354661638 8.754283010816792 14.988928273775024 -3 2 1
838 1 2 -1.1794 2.0418326478471567 8.291705994451073 16.294378982147578 -3 -2 -3
579 1 1 0.5897 4.188328004102182 10.205321515985908 13.29463725999654 1 2 -3
578 1 1 0.5897 4.628517522999279 11.621978011352136 13.596219170950087 1 2 -3
292 1 2 -1.1794 3.960888059220603 8.838852075305711 14.423608871259953 -3 2 1
284 1 1 0.5897 0.9451644351036272 9.099010969453794 13.587063822243678 6 0 -2
294 1 1 0.5897 4.091074146427019 7.961888717718268 14.062913580117927 -3 2 1
248 1 1 0.5897 1.3398444819761255 10.61188950786479 11.837381319782844 -1 2 -3
474 1 1 0.5897 1.1846726954741837 7.314742229247196 12.040270047528823 1 1 -2
283 1 2 -1.1794 0.48512669413298665 8.34303134426132 13.222387871269163 6 0 -2
147 1 1 0.5897 4.506484757878032 11.717551827083646 11.197708429749799 1 1 -4
472 1 2 -1.1794 1.7628760876114107 6.766590240301174 11.509830014879391 1 1 -2
36 1 1 0.5897 0.5045122469694922 10.895860661625704 16.706485857198174 -5 1 -2
205 1 2 -1.1794 3.59823838108065 9.198458911833205 18.323821157930595 -4 3 -4
749 1 1 0.5897 1.6977952191174017 9.41224028196664 20.60835558916255 1 5 0
206 1 1 0.5897 3.9743816280913316 10.019532188958262 18.006859261238276 -4 3 -4
750 1 1 0.5897 2.3064989893927685 8.039484530515114 20.41699681631905 1 5 0
207 1 1 0.5897 3.277718540925539 9.40451210508833 19.20185293262 -4 3 -4
748 1 2 -1.1794 2.468520375540345 8.888761861822676 20.82759201869473 1 5 0
840 1 1 0.5897 2.6314073764160564 8.514299968214456 17.014769846594298 -3 -2 -3
839 1 1 0.5897 1.6959751377111472 7.42955363873144 16.524996101425494 -3 -2 -3
514 1 2 -1.1794 2.0040983913590367 11.798214338459314 17.940244527608087 -3 -4 -1
35 1 1 0.5897 0.4736895303312469 9.411617991272648 16.41040646125729 -5 1 -2
642 1 1 0.5897 1.6787688324665104 12.527225040088823 5.446108246922884 5 1 -3
148 1 2 -1.1794 1.7828292996108148 15.091890409409984 3.1388770767169976 -4 0 2
150 1 1 0.5897 2.0074257001714577 14.573077572048003 3.911218292822751 -4 0 2
446 1 1 0.5897 3.211210234830225 14.08577405138934 1.6291197300059326 0 0 -1
821 1 1 0.5897 1.843062646113156 12.27121627946793 2.000894191055292 2 2 6
445 1 2 -1.1794 3.0118165020625267 13.325834621544075 1.082454810229871 0 0 -1
447 1 1 0.5897 3.765345908518121 12.746154888735914 1.193283065205279 1 0 -1
560 1 1 0.5897 1.5841199243988342 16.43469213760855 4.186893017839704 4 0 2
149 1 1 0.5897 0.8299033433889387 15.028131329621555 3.0757771469543096 -4 0 2
640 1 2 -1.1794 1.9329766417188698 13.44334456461065 5.335564835345239 5 1 -3
260 1 1 0.5897 2.868868715600613 16.26649694237073 2.2882997531743205 1 -2 8
820 1 2 -1.1794 0.9876708152324258 11.906226931636422 2.2271818329849706 2 2 6
65 1 1 0.5897 4.475988143796551 16.400887933160156 3.697976461191414 2 -2 -3
66 1 1 0.5897 4.596433220427729 16.553969958833022 5.199192671995456 2 -2 -3
259 1 2 -1.1794 3.568573121201297 16.89062335935963 2.09586892353522 1 -2 8
822 1 1 0.5897 0.46660970341763175 12.004024511112084 1.4302833154995556 2 2 6
641 1 1 0.5897 2.5046841940403195 13.625409159193355 6.081318133146427 5 1 -3
188 1 1 0.5897 2.1055937303628287 13.426880333552281 8.203368274750435 -4 4 1
440 1 1 0.5897 1.5421847969128488 16.85933935402297 9.383453163800699 1 0 -1
615 1 1 0.5897 4.23342724658475 14.636600647167311 7.858939468825957 -6 1 4
428 1 1 0.5897 3.9358469304250296 13.91162975822866 10.382800391939778 1 0 -2
441 1 1 0.5897 2.747686185634419 15.955958089787378 9.533047241092133 1 0 -1
427 1 2 -1.1794 3.750194558350388 14.80831657147268 10.661362133069707 1 0 -2
613 1 2 -1.1794 3.7145224314383807 13.987804106045221 7.3836126815678185 -6 1 4
187 1 2 -1.1794 1.3456000289338714 13.189482958408549 8.73456816100136 -4 4 1
145 1 2 -1.1794 4.351241558040169 12.151947488706005 10.359069144668542 1 1 -4
439 1 2 -1.1794 2.4482356529236244 16.752045988216743 9.09407949473832 1 0 -1
614 1 1 0.5897 4.35017593783256 13.327581097709613 7.107643055106596 -6 1 3
189 1 1 0.5897 1.6799394252369664 12.543361322836377 9.356545317062508 -4 4 1
802 1 2 -1.1794 0.707923664826198 12.746794021508666 14.671774750886165 6 2 -3
383 1 1 0.5897 1.8805717943441396 14.862534264214933 12.904707780672881 -9 -2 -2
791 1 1 0.5897 4.606526555153022 15.963345786407173 15.364149888469214 1 5 -2
384 1 1 0.5897 3.1884942562172602 14.744598096178816 13.657725620436654 -9 -2 -2
804 1 1 0.5897 1.4754094870337824 13.172253898903444 14.28958297187357 6 2 -3
429 1 1 0.5897 3.3201561677281197 14.711496523965762 11.510972304541127 1 0 -2
382 1 2 -1.1794 2.596315636916571 14.254022743168116 13.087832414074091 -9 -2 -2
790 1 2 -1.1794 4.404076596623707 15.939620299352498 14.428909654561972 1 5 -2
582 1 1 0.5897 4.323556730464298 12.762405839288597 15.80112528298555 -1 -1 0
576 1 1 0.5897 0.4352990188509338 13.943946255315032 15.933105410474223 3 0 1
96 1 1 0.5897 2.1985022267009087 14.315297262221767 16.308420010258338 -4 0 -2
448 1 2 -1.1794 4.281467229383917 16.45665792870742 20.555421652340563 4 -2 -5
556 1 2 -1.1794 4.364273738017511 16.46232808522008 17.162928754313512 2 0 1
645 1 1 0.5897 2.006827696794971 13.539391634762646 20.67908920573519 4 -3 -2
644 1 1 0.5897 1.5837186975996107 14.523735707145809 19.609682211672684 4 -3 -2
515 1 1 0.5897 2.4962851486756326 12.40973497885033 17.39259111488301 -3 -4 -1
95 1 1 0.5897 3.5842851511537623 14.710405968440064 16.772277961641088 -3 0 -2
133 1 2 -1.1794 1.8525273149797297 16.174634240068915 19.21169808565454 -1 -5 -2
23 1 1 0.5897 4.5054691161165525 14.851496009656534 19.596325233585873 -4 1 1
516 1 1 0.5897 1.7664761402286784 12.30764530041067 18.71493890650843 -3 -4 -1
643 1 2 -1.1794 1.3547567453869303 13.676664987825458 19.99200526517413 4 -3 -2
450 1 1 0.5897 3.368414033338593 16.5039768431036 20.272189276228644 4 -2 -5
94 1 2 -1.1794 3.079078992136764 13.966041554984649 16.44543290120766 -4 0 -2
574 1 2 -1.1794 0.47829082874021384 14.77843715131123 16.39993013433524 3 0 1
135 1 1 0.5897 2.0365464995997806 16.464135853771893 18.318145913661475 -1 -5 -2
449 1 1 0.5897 4.239776800033971 16.51209812638075 21.510049625352806 4 -2 -5
134 1 1 0.5897 1.0147029961275427 16.583459700089627 19.428668522372604 -1 -5 -2
431 1 1 0.5897 3.5425883137590697 20.008299289221803 2.700998275261881 -4 -2 1
430 1 2 -1.1794 2.857977815491791 19.44661370558527 2.3377605183276375 -4 -2 1
559 1 2 -1.1794 1.2281772196858034 17.191981658523275 4.651582660461699 4 0 2
432 1 1 0.5897 2.815034520378032 19.688294587512935 1.4126312033454327 -4 -2 1
261 1 1 0.5897 3.158925760220698 17.749558875751504 2.198744123077286 1 -2 8
14 1 1 0.5897 1.8047147172459528 20.123100032901718 3.707005227169443 1 -5 -3
561 1 1 0.5897 0.6225220192045273 17.593079166706282 4.028326697276034 4 0 2
15 1 1 0.5897 0.7387425334504505 19.396843374105437 4.499437265590739 1 -5 -3
13 1 2 -1.1794 0.9923603938181113 20.267180305519 4.1922878099929 1 -5 -3
82 1 2 -1.1794 4.345734245814333 21.389295178263403 3.790976519031042 -3 -2 -6
194 1 1 0.5897 0.5490851543194277 21.860260066094682 5.571449284478503 1 -5 0
83 1 1 0.5897 3.6249394504348578 21.896986999716987 4.163554069987763 -3 -2 -6
84 1 1 0.5897 4.7653479297095265 21.98680632053351 3.1720957159035783 -3 -2 -6
369 1 1 0.5897 4.281429061704804 21.047558358814463 7.029532220479073 5 5 -3
570 1 1 0.5897 1.0469836803474664 21.470076463208763 8.86832271502455 3 -1 -1
630 1 1 0.5897 2.9973157881181853 20.072972758210476 10.624898258500558 -2 -4 4
629 1 1 0.5897 3.4631344500368932 21.51251262730868 10.576320009455548 -2 -4 4
4 1 2 -1.1794 4.247147046291027 18.628306953633974 10.000882002767062 1 -2 -1
573 1 1 0.5897 1.9700799341091144 19.937575374038445 8.288272397911415 3 -4 -3
367 1 2 -1.1794 3.439282150587478 20.59293435913888 7.014194117154206 5 5 -2
6 1 1 0.5897 3.7075181121429455 17.874349759902998 9.763264746404037 1 -2 -1
571 1 2 -1.1794 1.084929758611724 19.783299667709947 8.618151624452276 3 -4 -3
368 1 1 0.5897 3.6438939019540117 19.719986062497398 6.679220466840874 5 5 -2
553 1 2 -1.1794 3.360839087447804 17.74933184945025 6.543989153140982 -4 -6 4
554 1 1 0.5897 3.0933386821715354 17.4030203532971 7.395246588028983 -4 -6 4
555 1 1 0.5897 2.5614034340801286 17.736682342516218 6.017810056255588 -4 -6 4
628 1 2 -1.1794 2.8507338046064294 20.92987739921864 11.02534668928237 -2 -4 4
572 1 1 0.5897 0.5233855318363302 19.869244594834548 7.84782285154076 3 -4 -3
240 1 1 0.5897 0.5353365574389102 18.508555426796313 9.780583180633984 -5 -5 -1
819 1 1 0.5897 1.7257699466275285 21.80934382783945 14.054304477305275 4 -2 -1
742 1 2 -1.1794 2.5336833974589092 18.231928646077286 14.399197626376726 -3 0 2
328 1 2 -1.1794 4.237110161169829 20.03197817646688 13.309702350868303 2 5 -1
743 1 1 0.5897 3.047757812628411 17.432028689591412 14.289660736299332 -3 0 2
330 1 1 0.5897 3.6432053679797773 20.340485462939355 12.625441724963359 2 5 -1
744 1 1 0.5897 3.101909679673484 18.92909077320698 14.071793414402483 -3 0 2
491 1 1 0.5897 1.3912958435346519 21.425839977135205 11.94998977402931 0 4 3
726 1 1 0.5897 0.5460524537114557 21.592394249974127 15.795944518282816 2 -5 2
490 1 2 -1.1794 0.6229517812950782 21.348933906831192 12.515534587512576 0 4 3
351 1 1 0.5897 0.7509563260017844 18.61590938192616 13.46261987862751 -9 1 -3
696 1 1 0.5897 4.603711646424056 21.97029991999939 13.102537516694003 2 -4 1
492 1 1 0.5897 0.4653957012056935 20.40702638430144 12.579524293565182 0 4 3
813 1 1 0.5897 2.3294669427680796 18.23052896279232 16.28718127527577 -4 4 -3
811 1 2 -1.1794 2.0169737496630065 18.352040398816953 17.18368921949037 -4 4 -3
825 1 1 0.5897 0.9728873738247734 19.40178829387466 20.97482410273009 -2 3 4
566 1 1 0.5897 2.695088910081721 21.371114644302793 16.742697169551477 0 5 -7
824 1 1 0.5897 1.478094481310101 20.188580276286487 19.784296650402077 -2 3 4
522 1 1 0.5897 4.32335288904685 19.710360816834886 18.409595645762586 -3 -1 -3
565 1 2 -1.1794 2.9667495092689418 21.111741122193557 17.62307607164886 0 5 -7
634 1 2 -1.1794 4.065982616628547 21.39709539988091 21.130678605244583 -7 1 1
567 1 1 0.5897 3.535371322701295 21.82292268266867 17.918034233654694 0 5 -7
812 1 1 0.5897 2.2214828459311184 19.264594747868053 17.387506755783562 -4 4 -3
823 1 2 -1.1794 1.7745095207639823 19.740855812710706 20.576635646341387 -2 3 4
558 1 1 0.5897 4.207427841055603 17.377799378071078 17.394078406790953 2 0 1
636 1 1 0.5897 3.3653526119917654 20.798741703311002 20.87144190534081 -7 1 1
339 1 1 0.5897 6.13344129538414 3.2846975076281515 1.6143550566924774 -3 2 3
169 1 2 -1.1794 8.553979161293698 5.337134757002149 3.8601992537716963 -4 4 -2
338 1 1 0.5897 5.673295057465036 3.7349721222840606 2.984437014554733 -3 2 3
619 1 2 -1.1794 6.842436342647799 6.357104397619008 1.9858772373669356 0 -1 4
416 1 1 0.5897 8.600697732516014 3.5542282506885123 3.3401350364767555 -2 -1 0
337 1 2 -1.1794 5.914092423393962 2.95444578915856 2.4855290722128185 -3 2 3
415 1 2 -1.1794 8.50485547208293 2.6063766691835593 3.2478695196878835 -2 -1 0
417 1 1 0.5897 7.587266420339995 2.480343382678433 3.006468416411676 -2 -1 0
26 1 1 0.5897 8.478024635455181 5.74935530896304 5.564406336723353 -1 6 6
171 1 1 0.5897 8.054945862138215 5.736622826430497 3.147814821355717 -4 4 -2
621 1 1 0.5897 6.630794450675515 5.766183857254595 1.2632910537393887 0 -1 4
345 1 1 0.5897 5.136680831155963 5.400189645130906 3.4327195479177184 -2 1 -1
344 1 1 0.5897 5.20599541331931 5.370490432663159 4.94465656219079 -2 1 -1
343 1 2 -1.1794 5.110898066766117 4.802658014883328 4.180013147063056 -2 1 -1
468 1 1 0.5897 8.310505181071568 2.0440018903936665 5.135651092166731 4 -2 5
286 1 2 -1.1794 7.002222749082277 3.707527792271071 9.13225088776426 3 1 1
27 1 1 0.5897 7.441066971475723 6.013182754549779 6.6352569945032585 -1 6 6
622 1 2 -1.1794 5.481992170778157 2.228226990517038 6.990857065178999 4 0 2
288 1 1 0.5897 6.804113144877743 4.6276057243097375 9.306369648277196 3 1 1
25 1 2 -1.1794 8.383460649242224 6.042874291794221 6.470504441862766 -1 6 6
624 1 1 0.5897 5.615152583030461 2.6537601388683605 7.83779988240787 4 0 2
623 1 1 0.5897 6.365268491512526 2.100618041833603 6.644899343861605 4 0 2
287 1 1 0.5897 7.859866914583412 3.722926476986623 8.707551440779232 3 1 1
245 1 1 0.5897 7.247731259808878 3.362174650830872 10.923184200595925 -4 2 -2
763 1 2 -1.1794 5.584780698058822 6.514590877850081 6.358456106886745 -2 0 -3
846 1 1 0.5897 7.522613477518723 6.17050808551402 10.796196942278057 0 0 4
844 1 2 -1.1794 7.7224763694651 6.510784400083458 9.92420194773821 0 0 4
425 1 1 0.5897 4.875529543126218 6.176709651831668 10.26339542064183 8 -4 0
128 1 1 0.5897 9.02013215011935 4.6004088734721025 7.4624604833014105 -1 1 -4
771 1 1 0.5897 5.5314912833777585 2.632229992304322 14.975638924182006 2 0 0
770 1 1 0.5897 6.100135841401987 2.0144790046121526 16.235254287557915 2 0 0
8 1 1 0.5897 6.325195957614892 6.153076020008211 13.000848470442266 4 -2 -1
225 1 1 0.5897 8.59577007714918 5.835586854485547 15.992031466772739 3 0 -8
9 1 1 0.5897 7.469778065545263 5.224833641278783 12.654606086334114 4 -2 -1
244 1 2 -1.1794 7.399268956351591 3.349132435006973 11.868158946503828 -4 2 -2
246 1 1 0.5897 6.5513197706010144 3.1126287899167924 12.243943625150314 -4 2 -2
769 1 2 -1.1794 6.1289777984328335 2.808926505426842 15.702205879425549 2 0 0
499 1 2 -1.1794 8.305878797466775 1.6967669295345826 14.63031315949368 -2 0 -3
7 1 2 -1.1794 7.195405465213695 6.1403231958397315 12.60249217992818 4 -2 -1
501 1 1 0.5897 7.524853315910365 2.025856392593175 15.075071432128205 -2 0 -3
694 1 2 -1.1794 5.016260188912942 2.4080717364800166 13.16440937659846 2 -3 1
105 1 1 0.5897 4.954374336233976 5.901767397360006 14.49001676029627 4 0 6
607 1 2 -1.1794 4.919134339697771 2.3590545825057623 19.05308378833054 8 2 1
505 1 2 -1.1794 5.003818142850434 5.321493609779332 16.484257279431667 3 4 -2
144 1 1 0.5897 5.845247694314721 4.815642907729316 20.61826916610132 0 5 1
143 1 1 0.5897 7.321097792694351 4.478849356693498 20.626318135826466 0 5 1
808 1 2 -1.1794 7.654802071802855 2.089895921563123 18.525408280975363 4 -2 -1
810 1 1 0.5897 8.037845269485846 2.9669319966704597 18.539550573822346 4 -2 -1
172 1 2 -1.1794 8.366035924120908 4.883497935870704 19.068975800562626 2 2 -1
173 1 1 0.5897 8.271548690383256 5.484714749401336 18.3302345560746 2 2 -1
809 1 1 0.5897 6.711971502810799 2.2386367393149103 18.596570211904485 4 -2 -1
223 1 2 -1.1794 8.278232992516113 6.3869511007376385 16.707070191877015 3 0 -8
507 1 1 0.5897 5.671738492825221 5.901386428690607 16.849947468100552 3 4 -2
142 1 2 -1.1794 6.519665404095033 4.381358826899854 21.140452511481215 0 5 1
506 1 1 0.5897 5.426857569068443 4.46387899608828 16.44341492171095 3 4 -2
676 1 2 -1.1794 8.060969749851099 11.078805293949287 1.057000583909094 0 0 -3
827 1 1 0.5897 7.501197387997526 11.12576454309817 3.9715713883078703 0 2 2
184 1 2 -1.1794 5.77034211303647 8.000065660517194 4.110286654255791 -1 4 3
186 1 1 0.5897 6.332421366446169 8.773293315647088 4.062308341908709 -1 4 3
826 1 2 -1.1794 6.925171845407533 10.472718589041627 3.5742773754807207 0 2 2
765 1 1 0.5897 5.626333578342587 7.147385896285498 5.64154806858835 -2 0 -3
185 1 1 0.5897 6.023414227605809 7.472079891228009 3.3531183158885067 -1 4 3
611 1 1 0.5897 5.021938242063415 9.663238941255258 1.5540596832152507 2 3 0
828 1 1 0.5897 7.1250944991054155 10.513586323117543 2.6391413000803516 0 2 2
678 1 1 0.5897 8.97821515203403 10.872320043932602 1.2362806006093012 0 0 -3
610 1 2 -1.1794 4.885578222555825 8.777631530961736 1.2175810805628586 2 3 0
475 1 2 -1.1794 8.445556883106105 8.703674250200466 5.736761914096492 4 -2 -1
31 1 2 -1.1794 4.996952588511091 11.559625596929724 1.4612802597658083 5 6 1
620 1 1 0.5897 7.56570353012626 6.8901727345040165 1.6559700249711038 0 -1 4
295 1 2 -1.1794 6.5672269147933795 10.17176152962448 7.052408731599051 0 3 0
845 1 1 0.5897 7.066551540777324 7.191953947904913 9.77627194596207 0 0 4
297 1 1 0.5897 7.382351138784917 9.796845598102392 6.719061410364616 0 3 0
263 1 1 0.5897 6.137993597413971 8.764705246388967 8.000124375531545 2 -2 6
772 1 2 -1.1794 7.0277288616787885 11.598588801689017 9.53337433683067 1 -4 4
264 1 1 0.5897 5.078609021845374 8.472409336891284 9.041207221338505 2 -2 6
262 1 2 -1.1794 5.855403906815169 8.097912644496724 8.62593525284987 2 -2 6
296 1 1 0.5897 6.782619996919941 10.465802571552604 7.937426907637809 0 3 0
734 1 1 0.5897 8.30700219169561 10.201999854327118 10.271239448342486 -1 -1 -4
773 1 1 0.5897 6.1201816128556645 11.724368663196147 9.810231941407363 1 -4 4
477 1 1 0.5897 8.515623198347944 7.81596776923581 6.087775569687331 4 -2 -1
764 1 1 0.5897 5.453466333972334 7.04813565227671 7.142168546626725 -2 0 -3
669 1 1 0.5897 5.706183154552053 11.485062707799228 5.838261766695275 -7 -3 1
219 1 1 0.5897 7.824911429132544 8.421262553313039 14.552312352276042 3 -1 -3
217 1 2 -1.1794 8.651633359682792 8.0988470498305 14.193575580297951 3 -1 -3
37 1 2 -1.1794 6.697349304596188 9.393382177118559 12.068890342420142 1 2 -2
465 1 1 0.5897 6.983429738508446 11.30105756295131 12.580625950872845 7 2 -2
38 1 1 0.5897 7.307916720290106 8.720133734418422 12.368978086422437 1 2 -2
584 1 1 0.5897 6.952892642859529 9.699079179271354 15.540123554318518 1 -4 1
616 1 2 -1.1794 8.445647536070148 10.971616406170385 15.116202675277552 -1 3 0
585 1 1 0.5897 5.586388850725867 9.095365924932826 15.295600782677791 1 -4 1
218 1 1 0.5897 8.415492348475695 7.294040170019101 13.732452793092566 3 -1 -3
39 1 1 0.5897 5.909456432816056 8.909618833959193 11.821253942343306 1 2 -2
583 1 2 -1.1794 6.45561151025945 8.887134523809621 15.63794903695952 1 -4 1
618 1 1 0.5897 7.973720434755941 11.398400669460766 14.401175526158775 -1 3 0
617 1 1 0.5897 8.482467088002984 11.632538245900442 15.807574472046202 -1 3 0
394 1 2 -1.1794 7.211894754612137 8.041860483285905 20.53195587765785 2 1 5
692 1 1 0.5897 6.780112931325692 10.960558005937205 18.936129619289467 0 -1 3
704 1 1 0.5897 5.404309325469676 11.591173810745653 17.19111286902566 3 -2 -2
396 1 1 0.5897 6.779829448233567 7.8325926090471585 19.70389919836699 2 1 4
279 1 1 0.5897 6.3344011502414235 7.869500180697985 17.307631969802443 0 0 1
693 1 1 0.5897 7.3919766194993155 9.757182713310032 19.621036855280032 0 -1 3
395 1 1 0.5897 6.493528367325246 8.182941162609374 21.1485342761845 2 1 5
677 1 1 0.5897 8.018269539376035 11.17560415500288 21.25990295683603 0 0 -4
691 1 2 -1.1794 7.551882098464492 10.680995038159999 19.428398671988717 0 -1 3
277 1 2 -1.1794 5.918289901288843 7.57334117955462 18.117114536821923 0 0 1
224 1 1 0.5897 8.703800386182847 7.232472219019443 16.56529926591972 3 0 -8
703 1 2 -1.1794 5.25062868627532 11.506927930792369 18.132093948843114 3 -2 -2
278 1 1 0.5897 5.125006080956448 8.1042706024046 18.18732464518144 0 0 1
32 1 1 0.5897 4.951176328778954 11.865648527735692 2.367033130643786 5 6 1
210 1 1 0.5897 5.312496614152903 14.391359939560171 3.59926422223061 0 -2 2
209 1 1 0.5897 6.281383468320831 13.672467064064248 2.6848933008180995 0 -2 2
667 1 2 -1.1794 5.03725823715028 12.14826532536865 5.668470752506401 -7 -3 1
160 1 2 -1.1794 6.79495504326629 16.269229511488682 0.8354511485996727 4 6 1
551 1 1 0.5897 8.788385518969335 15.921860227220733 1.0994690639898188 -2 8 -3
33 1 1 0.5897 5.71392188766807 12.06190186601321 1.0742344164646456 5 6 1
752 1 1 0.5897 6.390577641480768 14.615623469817043 5.434598725619399 3 1 -1
64 1 2 -1.1794 4.896962416379538 16.016180609031593 4.466672433472548 2 -2 -3
208 1 2 -1.1794 5.545617797459098 13.520441438171924 3.277917545961581 0 -2 2
668 1 1 0.5897 5.337067105736648 12.594248840730007 4.876408052157524 -7 -3 0
718 1 2 -1.1794 8.851934612785783 12.203705655172088 4.341004687091422 3 3 1
751 1 2 -1.1794 7.093989305572113 14.745319019703246 6.070665690348787 3 1 -1
862 1 2 -1.1794 7.922548042155497 15.923974968535614 9.80549740389065 0 -2 3
732 1 1 0.5897 6.171250492132211 15.586168311614323 7.330718401209853 2 2 -4
731 1 1 0.5897 5.600988114714951 16.905797185681745 7.805049714782371 2 2 -4
863 1 1 0.5897 7.2406189595376205 16.097744739275548 9.15673789458016 0 -2 3
730 1 2 -1.1794 5.718530423205481 15.993366742643216 8.069200375982174 2 2 -4
864 1 1 0.5897 7.511163361488078 15.329409275410226 10.432708307417196 0 -2 3
774 1 1 0.5897 7.317184179266933 12.468214965165618 9.2575437484244 1 -4 4
548 1 1 0.5897 8.546331078203599 13.345795133918148 6.724006359257209 4 1 5
281 1 1 0.5897 5.681204856817191 14.55257397362417 11.008511350414212 -4 -1 1
753 1 1 0.5897 7.457908296300518 15.603729546205559 5.854294615569566 3 1 -1
792 1 1 0.5897 5.2555631861281995 15.848616080604565 14.001347978087498 1 5 -2
464 1 1 0.5897 8.184231236834822 12.206448583359206 12.407416111893866 7 2 -2
463 1 2 -1.1794 7.373885974545671 12.111408690578795 12.90785306130161 7 2 -2
698 1 1 0.5897 6.942487345459804 14.865894865253255 14.717069294297373 0 3 -3
273 1 1 0.5897 6.8452359519007295 15.50459858800554 12.72750355746859 -2 4 3
697 1 2 -1.1794 6.935905615768427 14.199082595120094 15.40367891132523 0 3 -3
271 1 2 -1.1794 7.019687984030163 16.003997833097984 13.525175658644974 -2 4 3
282 1 1 0.5897 6.479770526637426 13.633747961828554 11.908323752087057 -4 -1 1
581 1 1 0.5897 5.758810600049605 12.863691021853432 15.330613725342479 -1 -1 0
280 1 2 -1.1794 6.467941672273706 14.52235422150675 11.552807362281557 -4 -1 1
861 1 1 0.5897 8.758854662247476 16.00187840706674 13.349283940060989 -4 -2 1
272 1 1 0.5897 6.66976763527908 16.87617709082671 13.343603800372028 -2 4 3
699 1 1 0.5897 6.908463114659118 14.69646537469353 16.22097816948815 0 3 -3
580 1 2 -1.1794 5.071981069150343 12.228880206430407 15.53406390551261 -1 -1 0
451 1 2 -1.1794 6.7921752847013 15.514267609590975 17.83007606210103 -1 0 4
22 1 2 -1.1794 4.837558475871611 14.02919787146591 19.236250564966994 -4 1 1
705 1 1 0.5897 5.022913188050573 12.391462754330073 18.418206429014255 3 -2 -2
453 1 1 0.5897 7.616226961371863 15.807593539432471 18.218716421519993 -1 0 4
452 1 1 0.5897 6.330915260962304 15.078073438085033 18.546383434271434 -1 0 4
157 1 2 -1.1794 8.7126017605593 16.272531631897472 19.66562825034284 2 2 -3
181 1 2 -1.1794 6.565155960671496 13.491455047528639 21.35205411057968 -3 2 -2
161 1 1 0.5897 6.765603582800993 16.692905605160632 21.131855739912503 4 6 0
24 1 1 0.5897 5.279342623530414 13.605969386266764 19.972332040740753 -4 1 1
183 1 1 0.5897 7.326854593414572 13.292178695715311 20.80779876379203 -3 2 -2
557 1 1 0.5897 5.271744153927171 16.30165926845533 17.42137294904382 2 0 1
235 1 2 -1.1794 8.96263716983091 13.279281979808818 16.920755268266966 0 -2 -4
854 1 1 0.5897 8.63400622206347 13.484439596606174 18.903860535774854 -2 0 1
853 1 2 -1.1794 8.952486760836301 13.437645970225702 19.80526016944009 -2 0 1
182 1 1 0.5897 6.566260636537345 14.44572899645803 21.426227774638406 -2 2 -2
855 1 1 0.5897 9.022767194898611 14.35102059040014 20.082627823426698 -2 0 1
237 1 1 0.5897 8.235796021851336 13.635309901229734 16.40980735092325 0 -2 -4
398 1 1 0.5897 6.647236260894378 19.611473284056522 4.383797195673406 4 2 -5
467 1 1 0.5897 7.777934986830496 21.1274892562596 5.595930948702198 4 -3 5