LAMMPS (30 Jul 2021)
  using 1 OpenMP thread(s) per MPI task
package omp 0
using multi-threaded neighbor list subroutines
echo both

include		in.partitions
variable        pid world 0
include		in.temp
variable        temperature equal 282.16
variable	tempDamp equal 100.0
include		in.pressure
variable        pressure equal 11250.0
variable        pressureDamp equal 1000.0 # This is 1 ps
include		in.seed
variable        seed world 745823

units		real
atom_style	full
read_restart	restart.lmp.${pid}
read_restart	restart.lmp.0
Reading restart file ...
  restart file = 30 Jul 2021, LAMMPS = 30 Jul 2021
  restoring atom style full from restart
  orthogonal box = (0.66954205 1.8801634 0.81683974) to (17.538030 21.749014 21.396356)
  4 by 4 by 4 MPI processor grid
  restoring pair style lj/cut/tip4p/long/omp from restart
  restoring bond style harmonic/omp from restart
  restoring angle style harmonic/omp from restart
  864 atoms
  576 bonds
  288 angles
Finding 1-2 1-3 1-4 neighbors ...
  special bond factors lj:    0        0        0       
  special bond factors coul:  0        0        0       
     2 = max # of 1-2 neighbors
     1 = max # of 1-3 neighbors
     1 = max # of 1-4 neighbors
     2 = max # of special neighbors
  special bonds CPU = 1.798 seconds
  read_restart CPU = 2.153 seconds
include 	in.setup
variable	out_freq equal 1000
variable	out_freq2 equal 10000
variable	out_freq3 equal 1000

timestep	2.0

neigh_modify    delay 7 every 1

include		in.tip4p
# This is TIP4P/Ice

# create groups ###
group ox type 2
288 atoms in group ox
group hy type 1
576 atoms in group hy

# set charges - beside manually ###
set group ox charge -1.1794
Setting atom values ...
  288 settings made for charge
set group hy charge 0.5897
Setting atom values ...
  576 settings made for charge

# ### TIP3P Potential Parameters ###
pair_style lj/cut/tip4p/long/omp 2 1 1 1 0.1577 8.5
pair_coeff 1 1*2 0.000 0.000
pair_coeff 2 2 0.21084 3.1668
bond_style  harmonic
bond_coeff  1 450 0.9572
angle_style harmonic
angle_coeff 1 55 104.52
kspace_style pppm/tip4p/omp 1.0e-5
pair_modify tail yes

thermo          ${out_freq}
thermo          1000
thermo_style    custom step temp pe etotal epair emol press lx ly lz vol pxx pyy pzz pxy pxz pyz enthalpy

restart 	${out_freq3} restart.lmp.${pid} restart2.lmp.${pid}
restart 	1000 restart.lmp.${pid} restart2.lmp.${pid}
restart 	1000 restart.lmp.0 restart2.lmp.${pid}
restart 	1000 restart.lmp.0 restart2.lmp.0


include         in.dump
dump            myDump all atom ${out_freq2} dump.water.${pid}
dump            myDump all atom 10000 dump.water.${pid}
dump            myDump all atom 10000 dump.water.0
dump            myDump2 all dcd ${out_freq2} dump.dcd
dump            myDump2 all dcd 10000 dump.dcd
dump_modify     myDump append yes
dump_modify     myDump2 append yes


variable natoms 	equal  "count(all)"                        # NUMBER ATOMS
variable H      	equal  "enthalpy/v_natoms"                 # ENTHALPY-per-atom
variable Vol      	equal  "vol/v_natoms"                 # volume-per-atom
fix AVG all 		ave/time ${out_freq} 1 ${out_freq} v_Vol v_H file vol_enthalpy.dat
fix AVG all 		ave/time 1000 1 ${out_freq} v_Vol v_H file vol_enthalpy.dat
fix AVG all 		ave/time 1000 1 1000 v_Vol v_H file vol_enthalpy.dat


timer           timeout 23:50:00 every 1000
New timer settings: style=normal  mode=nosync  timeout=23:50:00

fix 		1 all shake 1e-6 200 0 b 1 a 1
       0 = # of size 2 clusters
       0 = # of size 3 clusters
       0 = # of size 4 clusters
     288 = # of frozen angles
  find clusters CPU = 0.808 seconds
fix             2 all nph iso ${pressure} ${pressure} ${pressureDamp}
fix             2 all nph iso 11250 ${pressure} ${pressureDamp}
fix             2 all nph iso 11250 11250 ${pressureDamp}
fix             2 all nph iso 11250 11250 1000
fix             3 all temp/csvr ${temperature} ${temperature} ${tempDamp} ${seed}
fix             3 all temp/csvr 282.16 ${temperature} ${tempDamp} ${seed}
fix             3 all temp/csvr 282.16 282.16 ${tempDamp} ${seed}
fix             3 all temp/csvr 282.16 282.16 100 ${seed}
fix             3 all temp/csvr 282.16 282.16 100 745823

run             250000
PPPM initialization ...
  extracting TIP4P info from pair style
  using 12-bit tables for long-range coulomb (../kspace.cpp:340)
  G vector (1/distance) = 0.37477999
  grid = 24 24 24
  stencil order = 5
  estimated absolute RMS force accuracy = 0.0031023579
  estimated relative force accuracy = 9.3426587e-06
  using double precision FFTW3
  3d grid and FFT values/proc = 2535 216
Last active /omp style is kspace_style pppm/tip4p/omp
Neighbor list info ...
  update every 1 steps, delay 7 steps, check yes
  max neighbors/atom: 2000, page size: 100000
  master list distance cutoff = 10.8154
  ghost atom cutoff = 10.8154
  binsize = 5.4077, bins = 4 4 4
  1 neighbor lists, perpetual/occasional/extra = 1 0 0
  (1) pair lj/cut/tip4p/long/omp, perpetual
      attributes: half, newton on, omp
      pair build: half/bin/newton/omp
      stencil: half/bin/3d
      bin: standard
Per MPI rank memory allocation (min/avg/max) = 9.238 | 9.240 | 9.242 Mbytes
Step Temp PotEng TotEng E_pair E_mol Press Lx Ly Lz Volume Pxx Pyy Pzz Pxy Pxz Pyz Enthalpy 
 5250000    290.75998   -3782.9225   -3284.5698   -3782.9225            0     8604.156    16.868488    19.868851    20.579516    6897.3789     7800.707     9256.541    8755.2199   -471.89932    19.487894   -1026.7329   -2419.0675 
 5251000    271.55422   -3783.5312   -3318.0965   -3783.5312            0    10758.651    16.830634    19.824264    20.533335    6851.0487    11159.717    10341.575    10774.662   -1005.6953   -373.67704    127.68433   -2243.1403 
 5252000     294.6721   -3804.5675   -3299.5096   -3804.5675            0     11468.23    16.740786    19.718434    20.423719    6741.9123    10843.142    11218.932    12342.614    1148.1917   -2888.9918    133.38576   -2171.9088 
 5253000    288.77077   -3811.8947   -3316.9515   -3811.8947            0    10386.862    16.798251    19.786121    20.493827    6811.5787    10293.922     12170.13    8696.5352    1685.9763   -410.03511    2362.6167   -2285.1217 
 5254000     271.7029   -3824.9216   -3359.2321   -3824.9216            0    11564.903    16.814715    19.805513    20.513913    6831.6262    11507.277    10993.278    12194.154   -198.49413    427.22851   -1001.3071   -2206.9946 
 5255000    276.42256    -3774.204   -3300.4252    -3774.204            0    10943.605    16.814864    19.805689    20.514095    6831.8087    11101.593    12296.752    9432.4694   -1088.3997    899.21045    1537.2085     -2210.06 
 5256000    282.70623   -3789.9413   -3305.3924   -3789.9413            0    11543.528    16.794553    19.781765    20.489315    6807.0812    13407.681    10460.233     10762.67    2518.3607    -1421.358    746.54851   -2159.4168 
 5257000    287.19539   -3772.4098   -3280.1667   -3772.4098            0     13293.71     16.77218    19.755413    20.462021    6779.9133     13440.33    13180.977    13259.823   -1095.9968    945.52998   -809.62431   -1965.7102 
 5258000    298.07094   -3778.4559   -3267.5725   -3778.4559            0    11385.676    16.836266    19.830897    20.540205    6857.9278    10930.281    9286.4381     13940.31    1211.1083   -1032.5193   -993.28664   -2128.8245 
 5259000    287.41603   -3761.1781   -3268.5569   -3761.1781            0    10570.436    16.913222    19.921541    20.634091    6952.3979    12013.059    10931.006    8767.2435   -106.28002    542.15463    272.79839   -2196.7824 
 5260000    278.95966   -3772.9119   -3294.7845   -3772.9119            0    9589.9117    16.870757    19.871523    20.582284    6900.1623    9516.8432    10499.338    8753.5543    1103.9073    1656.3283    -391.2191   -2329.7346 
 5261000    284.31554   -3774.1356   -3286.8285   -3774.1356            0    12994.814    16.844331    19.840397    20.550045    6867.7887    12382.456    14589.464    12012.524    184.71241   -734.03099    639.91289   -1985.2724 
 5262000    284.24048   -3738.2799   -3251.1015   -3738.2799            0    12819.932    16.897333    19.902826    20.614706    6932.8221    14532.889    9543.4099    14383.496    993.94946    790.95615   -1371.2593   -1954.9025 
 5263000    290.32968   -3778.9748   -3281.3597   -3778.9748            0    10512.919    16.902676     19.90912    20.621225     6939.401     9035.464    11855.806    10647.489    1258.5378    265.51199    613.84597   -2217.4097 
 5264000    287.73674   -3824.4904   -3331.3195   -3824.4904            0    12340.844    16.844235    19.840283    20.549927    6867.6702    13421.299    11033.301    12567.931   -100.83081    1388.4368   -974.36003   -2095.2862 
 5265000    287.18598    -3807.399   -3315.1721    -3807.399            0    9975.9754    16.904112    19.910811    20.622977    6941.1697    8876.5426      9462.22    11589.164    -786.0344   -2095.3411   -1182.5623   -2305.3057 
 5266000    277.08074   -3757.3015   -3282.3945   -3757.3015            0    11593.722    16.853134    19.850766    20.560784    6878.5611    11673.896    10102.702    13004.568    -1432.924    1961.8372   -407.02962   -2119.3499 
 5267000    287.25959   -3760.4882    -3268.135   -3760.4882            0     12537.55    16.821006    19.812924    20.521589    6839.2979     10505.81    12700.104    14406.737   -1696.9403   -59.476436    956.24639   -2017.5878 
 5268000    274.17591   -3802.9708   -3333.0427   -3802.9708            0    9862.2108    16.840127    19.835445    20.544915    6862.6469     12154.66    8725.6854    8706.2869    360.09803   -1360.8454    6.2272497   -2345.9866 
 5269000    263.20045   -3735.9561   -3284.8395   -3735.9561            0    11024.293    16.846491    19.842942     20.55268    6870.4311    11713.133    11214.584    10145.162    -1325.387    238.61523    718.51873   -2180.2254 
 5270000    275.71285   -3781.0841   -3308.5217   -3781.0841            0    10146.636    16.893748    19.898604    20.610334    6928.4113    10536.331    9044.7405    10858.837   -1678.1636    92.631461     151.1002   -2283.2673 
 5271000    281.41855   -3800.4585   -3318.1167   -3800.4585            0    10338.267    16.840894    19.836348    20.545851    6863.5846     11139.54    9764.5345    10110.725    1207.6322   -1768.2627    1770.8762   -2283.2734 
 5272000     292.0384   -3767.3928   -3266.8489   -3767.3928            0    11543.203    16.845809    19.842138    20.551848    6869.5967    11598.748    11105.031    11925.829   -144.56265   -897.11539   -1411.8348   -2110.3814 
 5273000    277.52663   -3804.5937   -3328.9225   -3804.5937            0    12001.086    16.797572    19.785321    20.492999    6810.7529    10706.921    14155.963    11140.375   -1717.3102   -551.78652   -337.61598   -2136.8805 
 5274000     295.3448   -3764.7417   -3258.5308   -3764.7417            0    11445.213    16.880946    19.883524    20.594714    6912.6715    13345.984    12660.671    8328.9846   -45.631194    1508.6993   -249.35664   -2104.6906 
 5275000     281.6833   -3798.9763   -3316.1808   -3798.9763            0     12589.67    16.880311    19.882776     20.59394    6911.8914    13896.982    13855.817    10016.211    58.142516   -1016.3462    335.61822   -2047.1062 
 5276000    292.73966   -3770.7115   -3268.9658   -3770.7115            0    11449.273    16.844964    19.841142    20.550816    6868.5619    9682.3352     11479.21    13186.274   -492.71113   -1379.5575   -69.493626   -2122.0814 
 5277000    286.34814   -3771.2159    -3280.425   -3771.2159            0      11604.6    16.859932    19.858773    20.569077    6886.8881    12688.447    9171.1592    12954.195   -2008.4154    242.98908   -558.98904   -2114.8799 
 5278000    279.20664   -3795.8902   -3317.3395   -3795.8902            0    10325.894    16.879921    19.882317    20.593464    6911.4124     12178.75    8526.8846    10272.047   -908.93901    1397.9455    -2337.256   -2276.5322 
 5279000    282.59024   -3813.4433   -3329.0933   -3813.4433            0    12870.141    16.793108    19.780063    20.487552    6805.3241    13509.726    11891.004    13209.692    250.51346   -2348.5377    1171.5027   -2051.7489 
 5280000    287.19412   -3769.7932   -3277.5523   -3769.7932            0    12586.494    16.859033    19.857714    20.567981    6885.7865    12866.837     13241.88    11650.766   -414.67413   -56.600207   -182.25337   -2013.5897 
 5281000    282.20907   -3752.0013   -3268.3046   -3752.0013            0    13154.652    16.804714    19.793733    20.501712    6819.4438    11594.197    12627.652    15242.106    1224.9666   -923.81332     198.7216   -1960.0141 
 5282000    283.27437   -3760.3502   -3274.8276   -3760.3502            0    9247.9832    16.890481    19.894756    20.606348    6924.3924    9872.2939    8636.5855    9235.0701    1220.6885   -511.99021   -1749.1657   -2340.9185 
 5283000    292.09135   -3769.0982   -3268.4636   -3769.0982            0    11664.419     16.84802    19.844742    20.554545    6872.3009    11637.622    11312.676    12042.959   -1602.1739     49.08998    152.04554   -2099.3918 
 5284000    275.38425   -3825.4308   -3353.4316   -3825.4308            0    11345.056       16.855    19.852964    20.563061    6880.8463    12967.406    9905.1178    11162.643    920.76728   -1895.2128   -1089.2415   -2214.9544 
 5285000    272.69962   -3808.3316   -3340.9338   -3808.3316            0    13839.067    16.757337     19.73793    20.443912    6761.9292    15177.693    14139.243    12200.265   -305.10898   -436.80631     -36.9654   -1976.1831 
 5286000    283.30911   -3802.9579   -3317.3758   -3802.9579            0     9776.248     16.87053    19.871256    20.582007    6899.8838    8559.5909    11820.134    8949.0191    1495.9127    776.43844   -88.911102   -2333.6142 
 5287000    295.89456    -3780.358   -3273.2049    -3780.358            0    12121.487    16.792605    19.779471    20.486939    6804.7135    13750.094    11176.049     11438.32   -848.05434   -127.35578    118.36778   -2070.2713 
 5288000    293.75575   -3789.2425   -3285.7552   -3789.2425            0    11280.516    16.865401    19.865214    20.575749    6893.5921    10497.897    11778.991     11564.66   -2232.8733   -545.47882   -1305.0982   -2151.6576 
 5289000    284.29488   -3773.6431   -3286.3715   -3773.6431            0    12711.012     16.82969    19.823152    20.532183    6849.8957    12910.672    15029.446    10192.919    845.38663    924.39383    244.53529   -2016.5578 
 5290000    276.05862    -3785.545     -3312.39    -3785.545            0    8666.7259    16.857742    19.856194    20.566406    6884.2054    8971.6801    8570.3214    8458.1763    949.14216    97.082914   -105.82133   -2442.2587 
 5291000    264.83942    -3767.373   -3313.4473    -3767.373            0    12752.242    16.834176    19.828436    20.537656    6855.3747     12301.34    11034.649    14920.736   -764.82181     1531.802   -2229.1277   -2038.4959 
 5292000    292.19361   -3815.5301   -3314.7203   -3815.5301            0    12547.763    16.783744    19.769033    20.476128     6793.946    11764.046    13042.059    12837.183    437.91017   -1492.0883    31.074142   -2071.4536 
 5293000    279.20092   -3751.0676   -3272.5268   -3751.0676            0    10688.167    16.792173    19.778962    20.486412    6804.1878     9920.369    10490.822    11653.309    843.00191   -292.47435    148.04743   -2211.9176 
 5294000    301.50783   -3798.7575   -3281.9834   -3798.7575            0    11289.738    16.803051    19.791775    20.499683    6817.4197    10644.046     10655.25    12569.918    91.927217   -839.18273   -1573.0883   -2159.5004 
 5295000    266.83721   -3827.6642   -3370.3144   -3827.6642            0    11973.173    16.791563    19.778243    20.485667    6803.4457    13171.295    10268.451    12479.773    1164.8905    1387.6923   -1717.2635   -2182.3208 
 5296000    281.81377    -3766.444   -3283.4249    -3766.444            0    11202.552    16.796462    19.784014    20.491645    6809.4031    12642.297    11013.478    9951.8817    691.66453   -2156.1453   -598.30334     -2170.92 
 5297000    272.14312   -3811.5389    -3345.095   -3811.5389            0    10740.235    16.902478    19.908886    20.620983    6939.1568    10442.255     9127.366    12651.085    742.05174     239.1419    1968.3751    -2258.178 
 5298000    293.32336   -3785.9619   -3283.2157   -3785.9619            0    11217.984    16.812519    19.802927    20.511234    6828.9506    10886.948    12214.928    10552.077    -1038.894    603.25991     1463.186   -2165.9803 
 5299000    288.69827   -3768.9259   -3274.1069   -3768.9259            0    11188.393    16.922492     19.93246    20.645401    6963.8361    11377.592     10705.16    11482.427    264.50156    654.82223   -725.89964   -2137.8092 
 5300000    273.65619   -3772.5319   -3303.4946   -3772.5319            0    11483.742    16.869764    19.870354    20.581073    6898.9442    11180.042    10470.109    12801.076   -56.383817    648.36763   -1100.4513    -2148.069 
 5301000    293.13619   -3782.3483   -3279.9229   -3782.3483            0     10737.93    16.932387    19.944115    20.657472    6976.0588    9977.6681    12221.192     10014.93    -39.83737   -2464.5447    987.01203   -2187.4603 
 5302000    281.81278   -3754.6803   -3271.6628   -3754.6803            0    13792.673    16.784112    19.769467    20.476577    6794.3932     14551.68    12649.525    14176.813    584.13196   -1056.9977    556.73384   -1904.9572 
 5303000    274.83112   -3772.8465   -3301.7953   -3772.8465            0    13169.049    16.855419    19.853457    20.563571    6881.3591    13026.436    12662.906    13817.804   -2109.2191   -1909.7896    132.40128   -1980.1817 
 5304000    276.28957   -3751.1469   -3277.5961   -3751.1469            0    10685.603    16.953318    19.968769    20.683008    7001.9614    13852.531    8855.7108    9348.5679   -852.43536   -82.648901    1371.4124   -2186.4205 
 5305000    290.70283    -3794.467   -3296.2124    -3794.467            0    9729.4289    16.965909      19.9836     20.69837    7017.5742    9012.0127     10215.08     9961.194    170.39038   -1929.8248   -1327.7772   -2300.4625 
 5306000    279.51797   -3717.1866   -3238.1023   -3717.1866            0    9563.5318    16.900153    19.906148    20.618148    6936.2944    9199.3374    10290.227    9201.0313    296.79526    388.42447    731.37643   -2270.6675 
 5307000    288.55072   -3760.3111    -3265.745   -3760.3111            0    10445.723    16.875174    19.876725    20.587672    6905.5828    9330.3982    10080.598    11926.173    1261.6109   -645.28006   -886.15647   -2213.7474 
 5308000    286.19133   -3775.4938   -3284.9717   -3775.4938            0    12239.135    16.886006    19.889485    20.600888    6918.8896    12006.115     11599.89      13111.4   -2482.3068   -1423.2102    2996.5503   -2049.9829 
 5309000    285.85047   -3801.3129    -3311.375   -3801.3129            0    9463.6505     16.90686    19.914048     20.62633    6944.5561    8931.5544    10830.164    8629.2334    1651.7001   -465.02042   -609.63734   -2352.9038 
 5310000    276.03854   -3823.8899   -3350.7693   -3823.8899            0     12410.18    16.785485    19.771084    20.478253    6796.0614    11671.183    14442.739    11116.617   -975.29715   -199.01408   -3129.8217   -2120.7519 
 5311000    270.34956   -3786.1823   -3322.8124   -3786.1823            0    10061.097    16.858052    19.856558    20.566784    6884.5844    8330.8691    10958.102     10894.32    289.99353    74.037755    1448.4396    -2312.632 
 5312000    284.95445   -3798.6243   -3310.2222   -3798.6243            0    11205.993    16.900757    19.906859    20.618884    6937.0374    7707.1165    12284.539    13626.324   -248.28798    1355.9198    572.57844   -2176.5166 
 5313000    315.86388   -3819.6976   -3278.3177   -3819.6976            0    11366.515    16.808764    19.798504    20.506653    6824.3757    9163.6607    13611.187    11324.696    1763.8622   -1003.2474     100.5949   -2147.0481 
 5314000    287.27578   -3828.8516   -3336.4708   -3828.8516            0    13111.949    16.721993    19.696298    20.400792    6719.2325    14031.148    12923.979    12380.721    2329.0299   -2077.2831    1828.6747     -2051.59 
 5315000    263.83137   -3814.7962   -3362.5983   -3814.7962            0    9964.8951     16.77836    19.762692     20.46956    6787.4103    7564.6312    11306.321    11023.733   -467.87508    193.54802   -66.096945   -2376.1991 
 5316000    300.35879   -3788.6079   -3273.8032   -3788.6079            0    10780.348    16.884012    19.887136    20.598455     6916.439    11563.427    10067.943    10709.673   -514.43824   -2801.1909   -78.852509   -2186.3985 
 5317000    269.38638   -3781.7846   -3320.0656   -3781.7846            0    12672.292    16.820517    19.812347    20.520991    6838.7004    12192.645    13344.616    12479.616    1074.5307    2467.0967    720.11814    -2056.189 
 5318000    290.37203   -3812.6542   -3314.9664   -3812.6542            0    11141.701     16.86305    19.862445    20.572881    6890.7096    9813.0318    10376.073    13235.998   -678.94226    494.74054    609.82224   -2195.2931 
 5319000    271.73892   -3823.0953   -3357.3441   -3823.0953            0    11910.946    16.810087    19.800062    20.508267    6825.9874    10964.462    12561.547    12206.829    202.34224    1854.7766    401.96481   -2171.6092 
 5320000    295.58064   -3813.5989   -3306.9838   -3813.5989            0    10955.497     16.84013    19.835449     20.54492    6862.6515    10521.132    11020.124    11325.236    1499.0258    334.49692    294.38065   -2210.5058 
 5321000    281.23266   -3814.6878   -3332.6646   -3814.6878            0    10039.291    16.893238    19.898003    20.609711    6927.7837    10952.445    9255.7155    9909.7139    2063.8485   -1716.1944    2748.7146   -2318.3486 
 5322000    293.80831   -3726.7815   -3223.2041   -3726.7815            0     10398.59    16.891791    19.896299    20.607946    6926.0032    10587.006    10487.529    10121.234    1128.0244   -1686.2798   -669.36433   -2172.8566 
 5323000    270.82633   -3789.3755   -3325.1885   -3789.3755            0    11541.893    16.822019    19.814117    20.522824    6840.5332    14066.981    10185.975    10372.722   -52.676039    -798.5094   -250.13158   -2173.7443 
 5324000    285.75089   -3782.3459   -3292.5787   -3782.3459            0     12152.87    16.824859    19.817462    20.526289    6843.9985    12744.984     14748.46    8965.1675    -334.6524   -904.15802   -76.533353   -2079.5679 
 5325000     273.7666   -3764.2748   -3295.0482   -3764.2748            0    9001.9347    16.934524    19.946632    20.660079    6978.7004    8680.5409    11336.951    6988.3125   -1209.5219   -877.19308    1548.3585   -2378.8566 
 5326000    294.45119   -3822.7531   -3318.0739   -3822.7531            0    13194.361    16.874536    19.875974    20.586894    6904.7998    14637.966    13112.703    11832.414   -698.44228    1134.4072     1207.023   -1989.4094 
 5327000    269.16495   -3818.3069   -3356.9674   -3818.3069            0     11215.43    16.848377    19.845163    20.554981    6872.7383    9372.3618     11465.84     12808.09    -793.9624   -685.97618   -2567.4454   -2232.8242 
 5328000    311.97311   -3766.3017   -3231.5905   -3766.3017            0    12541.258    16.812165     19.80251    20.510802    6828.5189    10238.792    14401.372    12983.609   -242.86157    1165.2243   -889.53107   -1982.6449 
 5329000    279.79055   -3812.2667   -3332.7153   -3812.2667            0    11131.082    16.863437    19.862901    20.573353    6891.1839    11450.232    11296.792    10646.222    1378.5855    867.31473   -72.378985   -2214.0321 
 5330000    286.24556    -3759.591   -3268.9759    -3759.591            0    10734.394      16.8951    19.900196    20.611982    6930.0741    10596.121    10262.247    11344.813    848.58317    1350.1119    117.69791    -2184.072 
 5331000    280.64078   -3797.7457    -3316.737   -3797.7457            0    10028.703      16.8902    19.894425    20.606005    6924.0464    8623.2611    10618.413    10844.436    78.484585   -177.00441    614.50522   -2304.0374 
 5332000    278.83457   -3799.6867   -3321.7738   -3799.6867            0     12167.01    16.810915    19.801038    20.509277    6826.9963    14028.807    11075.356    11396.868    1589.1074    378.74829     975.4803   -2110.3686 
 5333000    273.87172   -3801.1554   -3331.7486   -3801.1554            0    10433.568    16.855893    19.854015     20.56415      6881.94    8538.1219    11053.763    11708.818   -217.43516   -162.46412    49.555925   -2284.5728 
 5334000     285.4834   -3746.1701   -3256.8613   -3746.1701            0    10452.464    16.928159    19.939135    20.652314    6970.8342    10952.406    8312.0784    12092.909   -856.70168   -1454.6795   -930.74391    -2194.238 
 5335000     277.0139   -3758.9038   -3284.1115   -3758.9038            0    12345.761    16.863872    19.863414    20.573884    6891.7177    12499.449     13515.68    11022.155    1673.3447    215.94572   -196.36891   -2043.2559 
 5336000    286.75021   -3768.2424   -3276.7623   -3768.2424            0    12360.568     16.79068    19.777203     20.48459    6802.3731    13697.495    12740.629     10643.58   -623.96415    158.75491   -78.698428   -2050.5243 
 5337000    269.77125   -3802.1114   -3339.7327   -3802.1114            0    8727.1727    16.918638     19.92792    20.640698    6959.0788    8698.8334    8405.6816    9077.0032    59.812875   -362.91592    78.992004    -2454.003 
 5338000    276.30659    -3749.076    -3275.496    -3749.076            0    10706.272    16.920138    19.929688    20.642529    6960.9306    8620.5514    13297.277    10200.988   -78.711581   -1345.8437   -917.65776   -2188.6163 
 5339000    260.68723   -3774.1596   -3327.3506   -3774.1596            0    12091.168    16.812759    19.803209    20.511527    6829.2427     12961.69    9496.9764    13814.838    840.63721     86.44801    360.47094   -2123.1005 
 5340000     287.5243   -3803.6822   -3310.8754   -3803.6822            0    13301.473    16.787534    19.773497    20.480752      6798.55    15556.051    11226.313    13122.057   -628.36854    1208.2785   -204.41312    -1992.036 
 5341000    269.59022   -3821.0651   -3358.9967   -3821.0651            0    10467.853     16.88978     19.89393    20.605493    6923.5303    10016.566    11385.427    10001.565    1480.5199   -1493.7942    118.06024   -2302.0305 
 5342000    286.94224   -3783.5032   -3291.6941   -3783.5032            0    11119.866    16.888218     19.89209    20.603586    6921.6089    10905.653    11905.773    10548.173    2012.1979    -656.5578   -2026.0213    -2169.204 
 5343000    284.87415   -3837.1565    -3348.892   -3837.1565            0    10561.277    16.841088    19.836577    20.546088    6863.8222    10828.054    11146.071    9709.7055    269.96169    891.99462    1228.2741   -2291.6891 
 5344000    272.49353   -3779.0364   -3311.9918   -3779.0364            0    12073.325    16.807052    19.796487    20.504564    6822.2904    11697.246    12520.518    12002.212   -172.44323    -1053.115    275.44538   -2110.7429 
 5345000     286.6295   -3810.9687   -3319.6955   -3810.9687            0    13319.449     16.74536    19.723822      20.4293    6747.4405    12471.943    13332.926    14153.477   -546.16598   -2410.8769    222.41226   -2009.0019 
 5346000    277.16076   -3775.3141     -3300.27   -3775.3141            0    10387.986    16.873799    19.875106    20.585995    6903.8953    12656.929    10053.126    8453.9041   -898.82027    607.37761    844.31082   -2254.3428 
 5347000    275.42436   -3803.6224   -3331.5545   -3803.6224            0     11276.07    16.847067     19.84362    20.553382    6871.1352     11725.45    11362.411    10740.351   -443.50137    2041.2702    825.75232   -2201.5969 
 5348000    275.99085   -3836.2078   -3363.1689   -3836.2078            0    11475.741    16.800265    19.788493    20.496284    6814.0293    12602.851    10397.138    11427.233   -166.99586    625.84113   -119.30054   -2222.7599 
 5349000    277.97368   -3801.1399   -3324.7025   -3801.1399            0    11543.513     16.79417    19.781314    20.488848    6806.6156    13028.885    10583.672    11017.982   -115.02165    221.46266   -248.53706   -2178.8067 
 5350000    279.42313   -3830.6763   -3351.7546   -3830.6763            0    11367.127    16.823386    19.815726    20.524491    6842.2006    12323.293    12078.049    9700.0398    1373.6339   -501.29465    189.21624    -2217.469 
 5351000    268.39031   -3813.8523   -3353.8405   -3813.8523            0    9807.3249    16.802955    19.791662    20.499566    6817.3033    10887.435     8706.828    9827.7114    860.54938    999.38851   -100.04694   -2378.7631 
 5352000    288.96236   -3791.2722   -3296.0006   -3791.2722            0    8762.4511    16.857699    19.856143    20.566354    6884.1528    8923.8261    7578.6593     9784.868   -1653.2668    599.70564    -479.3375   -2416.2653 
 5353000    284.69156   -3786.5614   -3298.6098   -3786.5614            0    12200.557    16.800005    19.788187    20.495967    6813.7131    9890.7081    12466.332    14244.632    -277.9754    960.18238   -222.77767   -2086.2281 
 5354000    276.21918   -3782.7867   -3309.3565   -3782.7867            0    11284.789    16.808491    19.798182     20.50632    6824.0432    11733.824    9582.0709    12538.471   -1165.9465   -935.22079   -831.12622   -2186.2755 
 5355000    281.41007   -3763.2787   -3280.9514   -3763.2787            0    11422.789    16.813739    19.804364    20.512723    6830.4373     11038.55    10002.559     13227.26    1249.0082   -389.67355    -1470.092   -2143.0712 
 5356000    262.25169   -3802.0177   -3352.5273   -3802.0177            0    9660.7453    16.834743    19.829103    20.538347    6856.0668      9137.15    10137.767    9707.3185    744.75202    813.07461    1761.1632   -2386.5619 
 5357000    286.99306   -3835.6184   -3343.7221   -3835.6184            0    10940.595    16.840267     19.83561    20.545087    6862.8185    12387.042    10795.243    9639.4988    1142.8687    581.97305   -132.13681    -2248.709 
 5358000    270.19732   -3757.9321   -3294.8231   -3757.9321            0    9902.0285    16.850487    19.847648    20.557555    6875.3211    8766.1618    10107.746    10832.177   -1162.4211    1588.1688    1020.7231   -2301.9516 
 5359000    280.91705   -3801.8822      -3320.4   -3801.8822            0    9322.9038    16.826992    19.819974    20.528891    6846.6021    8258.9779    10520.169    9189.5646   -225.30572    480.82107    446.75539   -2389.5018 
 5360000     270.0689   -3790.0207   -3327.1319   -3790.0207            0    9794.7475    16.804353    19.793308    20.501271     6819.004    11548.418    8672.5847    9163.2398    51.023911    1080.4533   -523.04002   -2353.0621 
 5361000    276.78334   -3776.3755   -3301.9783   -3776.3755            0    11449.061      16.8316    19.825401    20.534512    6852.2272    12853.136    12802.392    8691.6549   -738.60868    978.43797    1097.8732   -2157.8427 
 5362000    285.06391   -3787.4742   -3298.8845   -3787.4742            0    11812.315    16.811127    19.801287    20.509535    6827.2539    12173.244    12323.185    10940.514   -1352.9585   -928.26185    1169.5606   -2122.7501 
 5363000    286.87444   -3800.3598   -3308.6668   -3800.3598            0    12457.918    16.814301    19.805026    20.513409    6831.1226     11293.78    11728.886    14351.086   -693.62257   -915.94628    654.37795   -2067.5478 
 5364000      302.613   -3770.7309   -3252.0625   -3770.7309            0    12090.194    16.840095    19.835407    20.544876    6862.6077    11382.937     12431.75    12455.895   -295.72314    696.70442    676.14544   -2042.0264 
 5365000    277.36067   -3753.2389   -3277.8522   -3753.2389            0    10758.184    16.922989    19.933045    20.646007    6964.4494    11054.058    10487.808    10732.686   -64.336192    566.48341    865.51777   -2185.1505 
 5366000    275.06499   -3802.3569   -3330.9049   -3802.3569            0    11867.467    16.866286    19.866258     20.57683    6894.6782    11982.625    11447.303    12172.473   -86.482863    763.62762    99.534234   -2137.6096 
 5367000    282.31855   -3819.1068   -3335.2225   -3819.1068            0    13058.978    16.817338    19.808603    20.517113    6834.8243     12063.72    11837.976    15275.238    621.04051   -630.44956   -984.43991   -2033.5179 
 5368000    272.00587   -3794.2412   -3328.0324   -3794.2412            0    11620.738     16.82446    19.816992    20.525802    6843.5114    13089.297    11055.233    10717.684    31.816869   -127.30329   -100.88917   -2168.2178 
 5369000    286.26359   -3800.8752   -3310.2292   -3800.8752            0    10717.006    16.868812    19.869233    20.579911    6897.7762    11390.184    10400.955    10359.879    1431.9808    930.41056    229.02435   -2232.1306 
 5370000    269.31829   -3801.6593   -3340.0569   -3801.6593            0    11023.346    16.850935    19.848176    20.558101    6875.8692    10441.171    9832.0085    12796.858    164.52803   -737.13012   -139.53292   -2234.6634 
 5371000    278.33108    -3824.065   -3347.0151    -3824.065            0    13417.086    16.797196    19.784878     20.49254    6810.2956    12638.325    13518.543    14094.389    -737.4653    1041.2375   -621.43971   -2014.4143 
 5372000      295.846   -3804.9975   -3297.9276   -3804.9975            0    11440.713    16.832451    19.826404    20.535551    6853.2678    12334.036    13058.986    8929.1171   -100.89219   -1474.9564    831.94809   -2154.4526 
 5373000    270.52247   -3795.1885   -3331.5223   -3795.1885            0    13092.944    16.792983    19.779916      20.4874    6805.1721    12203.096    13558.218    13517.519   -466.41777    124.86214   -1138.0397    -2032.094 
 5374000    284.58075   -3781.5301   -3293.7684   -3781.5301            0    12540.867    16.890576    19.894867    20.606463    6924.5083    13772.996    11867.483    11982.123    695.60363   -326.87144    121.57892   -2027.3057 
 5375000    285.96683   -3758.1977   -3268.0604   -3758.1977            0    12150.576    16.848526    19.845339    20.555163    6872.9212    11727.508    12574.158    12150.061   -1244.2295    2258.5382     1169.241   -2050.1534 
 5376000    278.93705   -3788.0955    -3310.007   -3788.0955            0    13118.644    16.829192    19.822565    20.531574    6849.2867     11893.49    10526.559    16935.883   -697.53397    1931.7515    1057.7551    -1999.588 
 5377000    279.53106   -3800.7953   -3321.6886   -3800.7953            0    10765.899    16.880976     19.88356    20.594751    6912.7083    10014.121    10427.147     11856.43    1857.0154    157.25549    339.99788   -2236.3271 
 5378000    287.92539    -3794.594   -3301.0997    -3794.594            0     12587.61    16.814122    19.804815     20.51319    6830.9043    13574.311    10085.445    14103.074    875.51156   -535.48358     903.8674   -2047.1002 
 5379000    298.60352   -3806.8453   -3295.0491   -3806.8453            0    11132.813    16.845099    19.841301    20.550981    6868.7273    9126.4309    13098.257    11173.752   -559.29537    421.89373   -782.63343    -2179.838 
 5380000    264.84911   -3809.2007   -3355.2584   -3809.2007            0    10364.645    16.897892    19.903485    20.615389    6933.5106    10522.986    10056.487    10514.464    150.34726   -44.194596     -358.643   -2307.2047 
 5381000    269.39816   -3816.5141   -3354.7748   -3816.5141            0    10451.884    16.870557    19.871287     20.58204    6899.9162    9951.2522    9613.4281     11790.97   -1507.5984   -687.79079   -55.397104   -2303.0206 
 5382000    289.67211     -3770.98    -3274.492     -3770.98            0    10710.713    16.912696    19.920922     20.63345    6951.7498    11033.348    10156.241    10942.551    56.749204    648.10361   -467.40162   -2188.5955 
 5383000    273.03608   -3781.7461   -3313.7716   -3781.7461            0    10058.257    16.914669    19.923245    20.635856    6954.1822    11006.773    8549.9303    10618.068    1269.9133    925.92554    486.32127    -2293.667 
 5384000    269.27739   -3784.7298   -3323.1975   -3784.7298            0    11405.295    16.841341    19.836876    20.546397     6864.132    11076.107    13403.044    9736.7337   -1149.7532    1491.2745    378.47331   -2181.4554 
 5385000    273.09726   -3797.4881   -3329.4087   -3797.4881            0    10506.856    16.797518    19.785258    20.492933    6810.6878    10310.023    10874.435    10336.109    -318.0478   -870.83887   -2014.7651   -2285.7953 
 5386000    282.68068   -3787.3929   -3302.8879   -3787.3929            0    9955.4936    16.863167    19.862583    20.573024    6890.8532    9103.5105    10001.256    10761.714    437.63256   -551.92672    160.15299   -2302.4004 
 5387000    266.40662   -3769.5103   -3312.8985   -3769.5103            0    12006.906    16.816633    19.807772    20.516252    6833.9641    13374.725    11589.272    11056.722  -0.57469322   -939.86218    260.98625   -2116.2139 
 5388000    286.50107   -3775.7235   -3284.6704   -3775.7235            0    11027.322    16.863651    19.863153    20.573614    6891.4462    9777.3805    14506.859     8797.727    166.47515    187.83217    -583.0181    -2176.373 
 5389000    267.36762   -3817.7899    -3359.531   -3817.7899            0    10180.109    16.850656    19.847847    20.557761    6875.5274    8035.9063    10489.413    12015.007   -1437.7804    558.03367   -176.84835   -2338.7459 
 5390000    278.76028   -3768.1991   -3290.4135   -3768.1991            0    10880.019    16.847983    19.844698    20.554499    6872.2557    10892.761    9296.3817    12450.915    -573.3693    445.44116    730.85538   -2199.9657 
 5391000    274.80636   -3814.0771   -3343.0684   -3814.0771            0    8706.3308    16.900731    19.906829    20.618852     6937.006    8600.6761    8268.9857    9249.3306     1444.181   -2145.8575   -970.88319   -2462.2566 
 5392000    269.96582   -3787.2232    -3324.511   -3787.2232            0    11872.329     16.83912    19.834259    20.543687    6861.4159    11301.539    13645.262    10670.184   -1890.1824    1784.8849   -59.139865   -2136.4861 
 5393000    275.89627   -3769.9641   -3297.0873   -3769.9641            0    12566.372    16.819321    19.810938    20.519532    6837.2417     11622.77    15418.795    10657.552    -374.0166    1036.2318   -363.71723   -2044.0421 
 5394000    278.92769   -3798.1623   -3320.0898   -3798.1623            0    12279.608    16.821504     19.81351    20.522196    6839.9054    14413.063    10678.493    11747.269   -420.49176    170.08811   -684.53793    -2095.162 
 5395000     298.6725   -3774.7289   -3262.8144   -3774.7289            0    9834.4902    16.849074    19.845984    20.555831    6873.5917     10855.61    11109.636    7538.2248    676.54198    401.52589   -201.12851    -2276.963 
 5396000    283.59269   -3812.4395   -3326.3714   -3812.4395            0    10808.165    16.808222    19.797866    20.505992    6823.7161     9361.105    11114.121    11949.268   -28.887815    524.07534   -1140.0253   -2250.7763 
 5397000    263.97965   -3789.7315   -3337.2794   -3789.7315            0    11674.964    16.826645    19.819565    20.528468    6846.1781    12613.407    11029.324    11382.162   -1146.0625    429.53157    98.736302   -2171.5986 
 5398000    276.38816   -3808.4662   -3334.7464   -3808.4662            0    13831.575    16.757729    19.738391     20.44439    6762.4037    14162.218    14666.145    12666.363    1503.3165    2245.5877    407.01059   -1970.6387 
 5399000    290.09461   -3770.6626   -3273.4504   -3770.6626            0    10815.504    16.883542    19.886582    20.597882    6915.8615    10423.095    10080.634    11942.783    491.95364   -856.12927   0.97806223   -2182.5906 
 5400000    279.99224   -3809.2534   -3329.3562   -3809.2534            0    8994.5555    16.936211    19.948619    20.662138    6980.7864    9925.7119    9049.1007     8008.854    640.80177   -59.810764    10.392083    -2413.642 
 5401000    300.51185   -3804.3462   -3289.2791   -3804.3462            0    9692.7063    16.850831    19.848053    20.557975    6875.7419    9489.3552    10414.249    9174.5147    425.67692    1405.6606    361.53382   -2317.3368 
 5402000    273.10255   -3798.4711   -3330.3827   -3798.4711            0    10693.666    16.830121    19.823659    20.532708    6850.4217     11411.21    9459.0174    11210.771    -2191.994    1960.0426   -60.696787   -2262.0173 
 5403000    297.67086   -3827.1828   -3316.9852   -3827.1828            0    10884.092    16.868691    19.869089    20.579763     6897.627    10358.167    9986.7419    12307.367   -1012.5769   -775.68187    853.14335    -2222.102 
 5404000    268.59959   -3796.1243   -3335.7538   -3796.1243            0    10219.612    16.882749    19.885648    20.596914    6914.8865    11495.579    10831.144    8332.1115   -550.82949   -1030.5607   -597.17884   -2305.1415 
 5405000    275.30894   -3790.2857   -3318.4156   -3790.2857            0    13360.532    16.747287    19.726092    20.431651    6749.7702    14324.469    13624.132    12132.994      1677.65    1296.2876    768.46511   -2003.2253 
 5406000    269.94483    -3816.155   -3353.4788    -3816.155            0      10723.7    16.805187     19.79429    20.502288    6820.0194    11202.553    9854.0128    11114.533    437.22034     363.8307   -264.58636   -2286.8676 
 5407000    283.44345   -3804.1428   -3318.3304   -3804.1428            0    10103.249     16.86951    19.870054    20.580763    6898.6322    10623.472    9820.4601    9865.8143   -665.63556   -1730.1274   -1182.7239   -2301.8479 
 5408000    279.07755    -3824.476   -3346.1466    -3824.476            0     11795.95     16.80742     19.79692    20.505013    6822.7386    12347.674    11084.887    11955.288   -1492.4269    571.96217   -506.09019   -2172.4184 
 5409000    279.26626    -3816.522   -3337.8692    -3816.522            0    13902.949    16.735386    19.712074    20.417131    6735.3902     15077.17    13005.526     13626.15     919.9669   -316.80673   -257.50258   -1972.1998 
 5410000    290.16981   -3801.4461   -3304.1049   -3801.4461            0    12920.778    16.835828    19.830381    20.539671    6857.3927     14293.02    14176.118    10293.197   -455.75148   -1337.7002   -803.30577   -2011.9232 
 5411000    256.89784    -3809.676   -3369.3619    -3809.676            0    10631.607    16.859373    19.858114    20.568396    6886.2033    11785.223    10821.309    9288.2902    89.464308     2051.456    -1402.734   -2301.6485 
 5412000    264.42581   -3795.4927    -3342.276   -3795.4927            0    9814.6734    16.902607    19.909038    20.621141    6939.3161    9778.7629    10280.697    9384.5599   -223.82096    726.92152    253.45817   -2349.0034 
 5413000    287.62121   -3778.0403   -3285.0674   -3778.0403            0    12136.816    16.815773     19.80676    20.515204    6832.9166    11254.793    13726.877    11428.779    619.40382   -2113.8667    889.83075   -2075.6206 
 5414000    278.26921   -3797.6754   -3320.7315   -3797.6754            0    10542.838    16.804693    19.793709    20.501686    6819.4187    7855.8448    12516.052    11256.619   -547.87818     -950.251    1105.8496   -2272.2017 
 5415000    278.64467   -3773.8725   -3296.2851   -3773.8725            0    11533.999     16.88267    19.885555    20.596817    6914.7892    9698.8199    13432.221    11470.957    1976.1175    1185.0796   -233.95754   -2133.1376 
 5416000    295.51957   -3776.6968   -3270.1864   -3776.6968            0    10759.921    16.800059    19.788251    20.496033    6813.7788    12923.617    10245.968     9110.178    1397.7605   -452.75897    174.74374   -2200.9518 
 5417000    280.73041   -3820.3584   -3339.1961   -3820.3584            0    9851.2545    16.926801    19.937536    20.650657    6969.1569    9772.8879    10016.907     9763.969   -615.21625   -673.30296    122.96524   -2337.9342 
 5418000    281.25275   -3783.3334   -3301.2758   -3783.3334            0    10003.734    16.921842    19.931695    20.644608    6963.0339     9412.829    9784.8077    10813.566   -45.437921    764.62053     1531.919   -2285.4095 
 5419000    286.41168   -3750.9367   -3260.0369   -3750.9367            0    10601.954    16.866509     19.86652    20.577102    6894.9512    10755.056    10352.508    10698.299    1499.2833    1335.0311   -188.35264    -2193.949 
 5420000    278.20587   -3761.9898   -3285.1544   -3761.9898            0    10990.765    16.852639    19.850183     20.56018     6877.955    10242.847    12046.554    10682.893   -1199.1317   -1640.6048   -437.89797   -2182.6937 
 5421000    275.71728    -3781.376    -3308.806    -3781.376            0    12588.153    16.808206    19.797846    20.505972    6823.6957    11075.812    11840.677    14847.969   -2073.1781   -1172.2893   -853.69882   -2056.0758 
 5422000    263.16571   -3759.6743   -3308.6172   -3759.6743            0    11764.555    16.864219    19.863822    20.574307    6892.1427    13325.295    10524.924    11443.446   -410.14908    882.54701   -74.468494    -2126.105 
 5423000    274.81674   -3761.6813   -3290.6548   -3761.6813            0    11479.761    16.837153    19.831943    20.541288    6859.0126    13630.774    10410.229     10398.28   -791.88723   -776.30841   -682.66525   -2142.3152 
 5424000    272.03985   -3769.9824   -3303.7154   -3769.9824            0    11238.723    16.844099    19.840124    20.549762    6867.5046    9180.2591    11905.732    12630.177    206.33836    945.82829    1372.0082   -2178.0954 
 5425000    289.64787   -3781.1796   -3284.7331   -3781.1796            0    11241.301    16.863432    19.862896    20.573348    6891.1786    9201.5833    14077.136    10445.185   -748.39565     452.2438    332.39868   -2154.9736 
 5426000    284.91802   -3799.3561   -3311.0164   -3799.3561            0    12339.821    16.795355     19.78271    20.490294    6808.0565    13399.552    10507.312    13112.598   -916.41712   -55.718349    314.41011   -2085.8138 
 5427000    301.98105   -3805.5071   -3287.9219   -3805.5071            0    8711.2592     16.87543    19.877028    20.587986     6905.898    10312.016    9713.7759    6107.9853    1098.3665     1895.468   -1252.7765   -2410.5636 
 5428000    288.61272   -3795.4994   -3300.8271   -3795.4994            0    12495.642    16.831231    19.824967    20.534063    6851.7773    11421.423    12460.603    13604.899    2381.1358    1174.9936   -523.02576   -2052.1858 
 5429000    280.88157   -3805.7195   -3324.2981   -3805.7195            0    10729.113    16.825173    19.817832    20.526672    6844.3817    10688.402    11674.616    9824.3221   -888.57331    -1238.947     777.9114   -2253.3364 
 5430000    281.86489    -3827.189   -3344.0822    -3827.189            0    10509.549    16.816635    19.807775    20.516256    6833.9676    10339.267     10778.82    10410.561   -644.53466   -272.75547    16.749177   -2296.6332 
 5431000    281.52644   -3800.4161   -3317.8894   -3800.4161            0    11607.883    16.805136     19.79423    20.502226    6819.9572    11443.293    11339.531    12040.825   -424.63225    1121.3179   -41.570588   -2163.3452 
 5432000    298.56651   -3794.5928     -3282.86   -3794.5928            0    12657.262    16.803574     19.79239    20.500321    6818.0559    12050.649    12697.925    13223.211   -855.64302   -1250.1146    372.22028   -2024.2934 
 5433000    270.24243   -3788.1649   -3324.9786   -3788.1649            0    14662.505    16.747496    19.726338    20.431906    6750.0226    16420.151     12684.81    14882.554   -1216.2491   -864.24976   -1662.2606     -1881.57 
 5434000    285.50806   -3812.8033   -3323.4523   -3812.8033            0    11480.118    16.794417    19.781605     20.48915    6806.9162    12637.545    12477.372    9325.4377   -1869.2596   -215.53231    357.36138   -2183.7992 
 5435000    280.84135    -3782.837   -3301.4845    -3782.837            0    11640.759    16.857225    19.855584    20.565775    6883.5713    13626.165     10898.47    10397.644   -965.98931   -24.967413   -769.03861   -2132.8707 
 5436000    288.36925   -3764.8088   -3270.5537   -3764.8088            0     13308.56    16.788349    19.774458    20.481747    6799.5405    16267.558    11487.338    12170.782    1058.5508    -499.3148   -970.39347   -1950.8194 
 5437000    271.99892   -3796.6855   -3330.4887   -3796.6855            0    9056.2196    16.899862    19.905806    20.617793    6935.9364    10035.847    9167.1119    7965.6997    -1549.796    515.28095    494.59948   -2414.4202 
 5438000    295.02658   -3777.1676   -3271.5021   -3777.1676            0    11697.105    16.839721    19.834967     20.54442    6862.1506    12465.098    11347.484    11278.734    36.179574   -1089.5904   -282.82681   -2100.8859 
 5439000    279.79098   -3838.7792    -3359.227   -3838.7792            0    10555.674    16.871251    19.872105    20.582886    6900.7678    10612.547    10823.745    10230.729    576.54707   -1508.0205    92.058068   -2296.8975 
 5440000    304.70964   -3787.5154   -3265.2535   -3787.5154            0    12200.871    16.829344    19.822744     20.53176    6849.4725    10662.881    14074.764    11864.969   -892.28408    729.20333     495.2856   -2046.4776 
 5441000    292.01228   -3794.8529   -3294.3539   -3794.8529            0    10208.731    16.936831    19.949349    20.662894    6981.5528    11781.939    10148.225    8696.0284   -2421.2095    2315.6281   -1616.7589   -2254.9133 
 5442000    292.84687   -3785.8244   -3283.8949   -3785.8244            0    11074.262    16.866139    19.866083     20.57665    6894.4969    13896.086    10273.221    9053.4786   -1137.7121    781.56882    1199.9845   -2170.3871 
 5443000    278.29029   -3760.9664   -3283.9864   -3760.9664            0    12361.424    16.818934    19.810482     20.51906    6836.7698    15272.587    13009.347    8802.3377    496.21631   -89.535284    86.227628   -2051.4625 
 5444000     295.0989   -3795.0807   -3289.2912   -3795.0807            0    9641.1758     16.84118    19.836685      20.5462    6863.9344    10641.824    9379.5888    8902.1147   -30.537785   -768.83387   -1030.7838   -2324.1763 
 5445000    275.09666   -3789.5122   -3318.0059   -3789.5122            0     12951.65    16.770236    19.753123    20.459649    6777.5562     13827.08    13583.328    11444.542   -66.623637   -1927.5878    1687.0577   -2037.8168 
 5446000    288.51875   -3813.0702    -3318.559   -3813.0702            0    11018.425    16.810379    19.800406    20.508623    6826.3432    9870.7033    12328.569    10856.002    876.51614   -767.03626   -183.39872   -2221.6174 
 5447000    285.71083   -3783.9474   -3294.2488   -3783.9474            0    10028.864    16.817301    19.808559    20.517067    6834.7785    11094.867    10855.226    8136.5001    185.45594   -1349.5168    -850.0693   -2294.5893 
 5448000    297.99357   -3814.5709   -3303.8201   -3814.5709            0    10023.813    16.870526    19.871251    20.582002    6899.8783    9450.4611    12102.475    8518.5023    2340.1773    892.59042   -1018.4361   -2295.1474 
 5449000      297.658    -3775.862   -3265.6864    -3775.862            0    12483.414    16.771449    19.754551    20.461128    6779.0263    12151.875    14366.177    10932.189    929.74722   -1506.3818   -1633.5548   -2031.5119 
 5450000    278.16455   -3781.5849   -3304.8203   -3781.5849            0    10570.768    16.804542    19.793531    20.501502    6819.2347    11032.752    11032.892    9646.6588    1026.8388    1700.9374     1433.004   -2253.5412 
 5451000    276.80832   -3805.9262   -3331.4863   -3805.9262            0    12376.291    16.823024    19.815301    20.524051    6841.7598    12469.542    12466.357    12192.973    538.46191   -1090.2472    31.294925   -2096.5794 
 5452000    275.83694   -3790.1494   -3317.3743   -3790.1494            0    12348.728    16.803097    19.791829    20.499739    6817.4755    12060.536    13320.584    11665.063   -526.45873   -997.61469    424.31002   -2089.5911 
 5453000     279.0661    -3860.247   -3381.9373    -3860.247            0    11000.375    16.812238    19.802596    20.510891    6828.6079    11418.268    10868.946    10713.911    1627.6243     2753.219   -1442.6561   -2286.4293 
 5454000    275.99416   -3857.0896   -3384.0451   -3857.0896            0     12011.62    16.770825    19.753816    20.460367    6778.2695    11100.073    11715.326    13219.461   -673.25667   -1568.9967   -1622.5867   -2196.6471 
 5455000    268.25575    -3837.405   -3377.6239    -3837.405            0    9990.5092    16.849921    19.846981    20.556864    6874.6275    11328.365    9876.7886    8766.3737    196.73003   -952.60255   -1534.4847   -2375.9815 
 5456000    276.38491    -3823.064   -3349.3498    -3823.064            0    9974.2314    16.791916    19.778659    20.486098    6803.8755    9956.3671    10221.568    9744.7586    822.65044   -1040.8595   -379.27608   -2359.6313 
 5457000    274.92164   -3820.4221   -3349.2158   -3820.4221            0    11945.288    16.760607    19.741782    20.447902    6765.8886    10656.004    11578.578    13601.282    720.50579     248.4672    -392.8885   -2170.5319 
 5458000    286.16046   -3796.7676   -3306.2984   -3796.7676            0     12581.35    16.803155    19.791897    20.499809    6817.5456     10618.49    16113.169     11012.39    23.814498    1470.2371    101.41212   -2055.3737 
 5459000    274.84072   -3804.0019   -3332.9343   -3804.0019            0     10472.54    16.822036    19.814137    20.522845    6840.5542    9689.8716    10811.091    10916.656    -1016.775   -65.095089   -754.23777   -2288.1679 
 5460000    301.58951   -3810.9505   -3294.0364   -3810.9505            0    12786.085     16.84097    19.836439    20.545945    6863.6785    12716.725    12099.517    13542.012    1623.7494   -700.12464    1391.9333    -2014.153 
 5461000    288.60248   -3817.6598    -3323.005   -3817.6598            0     10262.64    16.895593    19.900777    20.612584    6930.6814    9192.0261    10448.034    11147.859   -685.25305    403.60395   -167.42975   -2285.6894 
 5462000    290.00595   -3786.1063    -3289.046   -3786.1063            0      10802.7    16.851597    19.848955    20.558909    6876.6791    9710.2567    10393.493     12304.35   -112.29945   -1189.5538    620.63743   -2205.6507 
 5463000    280.68681    -3749.771   -3268.6834    -3749.771            0    10754.522    16.858176    19.856705    20.566936     6884.737    11409.616    10672.427    10181.523    1042.7972    767.80885    1594.5531   -2188.8559 
 5464000    271.53946   -3778.4946   -3313.0853   -3778.4946            0    11093.904    16.895505    19.900673    20.612476    6930.5721    10926.769    12342.875    10012.068     479.6965    558.77049    558.97732   -2191.7657 
 5465000    271.23395   -3842.1219   -3377.2362   -3842.1219            0    11470.074     16.82512    19.817769    20.526607    6844.3167     11626.55    10433.679    12349.994   -804.09157   -643.99271    871.86934   -2232.3239 
 5466000    279.87513   -3800.3198   -3320.6234   -3800.3198            0     14725.68    16.765291    19.747299    20.453616    6771.5625     13938.67    15395.487    14842.882   -1761.1172   -1600.9664   -1423.6701   -1866.3698 
 5467000    274.78439   -3805.8925   -3334.9215   -3805.8925            0    12414.559    16.852174    19.849635    20.559613    6877.3862    12590.551    9639.7534    15013.373   -646.71471    361.20485    1025.3505   -2089.7459 
 5468000    274.41547   -3765.3967   -3295.0579   -3765.3967            0    11261.115    16.867735    19.867964    20.578598    6896.4552    11453.163    11100.495    11229.686   -1584.8903    392.48023   -136.28993   -2162.4406 
 5469000     275.2349   -3764.6127   -3292.8695   -3764.6127            0      9488.17    16.888758    19.892727    20.604246    6922.2736    8961.7302    10107.029    9395.7507    -522.3521    246.40998   -1321.5775   -2334.9983 
 5470000    274.54059   -3809.2992    -3338.746   -3809.2992            0    11412.929    16.807558    19.797083    20.505181    6822.9067    11819.068    10192.094    12227.627   -554.55696   -979.68343   -588.47444   -2203.1014 
 5471000    268.77604   -3763.9077   -3303.2348   -3763.9077            0      11120.2    16.844336    19.840403    20.550051    6867.7946    9523.4235    9736.2075    14100.968    -1244.961    1061.3109   -184.79374   -2189.4385 
 5472000    269.62837   -3799.5449   -3337.4111   -3799.5449            0    11654.428    16.781536    19.766432    20.473434    6791.2652    8859.6757    12770.836    13332.773   -2807.4752   -693.39485   -1106.8023   -2183.1142 
 5473000    270.66854   -3819.0346   -3355.1179   -3819.0346            0    10132.398    16.811446    19.801662    20.509924    6827.6424    8213.8784    10338.176    11845.141   -1635.7508   -13.199157   -224.67532   -2346.1929 
 5474000    278.52457   -3792.8955   -3315.5139   -3792.8955            0    10996.389    16.816436    19.807541    20.516013    6833.7251    10360.074    11613.684    11015.409   -485.13342   -749.87182    846.16398   -2219.5822 
 5475000    269.50817   -3794.1391   -3332.2113   -3794.1391            0    11525.773      16.8485    19.845307     20.55513    6872.8884    12094.498    13050.428    9432.3937    273.58732    829.19294   -2951.6355   -2176.9366 
 5476000     278.1107    -3761.403   -3284.7308    -3761.403            0    14372.142    16.779202    19.763684    20.470588    6788.4328    13935.299    15187.875     13993.25     298.7046    452.87501   -1337.0223   -1861.8553 
 5477000    306.00249   -3758.7629   -3234.2851   -3758.7629            0    11442.431    16.811483    19.801707     20.50997    6827.6883    10776.652    10776.462    12774.178    537.51094   -944.36923   -1019.4635    -2094.907 
 5478000    284.37866   -3748.3615   -3260.9462   -3748.3615            0    12069.854    16.815334    19.806242    20.514668    6832.3809    12364.659    11542.754    12302.149    6.9392576    736.99291   -1337.1333   -2058.2665 
 5479000    288.46231   -3764.3405    -3269.926   -3764.3405            0    10995.623    16.820601    19.812446    20.521094    6838.8036    9603.6346    11672.651    11710.584    225.12666   -436.80928   -921.67054   -2173.2563 
 5480000    276.05238   -3745.8086   -3272.6643   -3745.8086            0    10799.047    16.846728     19.84322    20.552968    6870.7199    10983.182    10765.369    10648.591    298.14399   -724.91704    743.27908   -2190.5738 
 5481000    287.50088   -3774.6427   -3281.8761   -3774.6427            0    12247.884    16.829811    19.823294     20.53233    6850.0427    11677.044    14173.651    10892.957   -229.59137   -155.98025    439.83527   -2058.3021 
 5482000    283.22082    -3792.293   -3306.8622    -3792.293            0    12675.306    16.853165    19.850802    20.560821    6878.5987    13599.218    11166.146    13260.554   -1199.5797     -334.554    123.57993   -2035.3097 
 5483000    275.63863   -3810.1663   -3337.7311   -3810.1663            0    10419.577    16.856689    19.854953    20.565121    6882.9145    11368.614    10996.411    8893.7046   -2096.4245   -791.92977    1478.4202   -2291.8114 
 5484000    292.52762   -3768.4539   -3267.0716   -3768.4539            0    12804.473    16.814988    19.805834    20.514246    6831.9589     11330.32     13775.46     13307.64   -184.74204    541.84996    783.20429   -1991.2709 
 5485000    285.54537   -3798.4859   -3309.0709   -3798.4859            0    12387.706     16.76872    19.751337    20.457799    6775.7177     11406.38    11307.546    14449.192   -1474.0641    303.57771   -1167.5345   -2084.9563 
 5486000    283.29991    -3813.713   -3328.1467    -3813.713            0     9966.423    16.865515    19.865349    20.575889    6893.7322    11149.976    8129.6406    10619.653   -1321.1863    1132.3016   -353.55938   -2326.1423 
 5487000    293.41443   -3785.6105   -3282.7082   -3785.6105            0    13079.466    16.723557    19.698141      20.4027    6721.1182    12900.381    12420.551    13917.467    171.34826   -973.48376    -128.2741   -2000.6509 
 5488000    280.38941   -3773.5935   -3293.0156   -3773.5935            0    10374.752    16.872937    19.874092    20.584944     6902.838    10001.037    12222.288     8900.931    169.33729     750.7435    775.20772   -2248.5809 
 5489000    282.65373   -3777.7761   -3293.3173   -3777.7761            0    11735.349    16.825478    19.818191    20.527044    6844.7536    12265.594     10165.94    12774.512    38.144402    -2905.479   -265.93488   -2121.8512 
 5490000     289.3406   -3799.1594   -3303.2395   -3799.1594            0    11093.348    16.858119    19.856637    20.566866    6884.6669    11417.053    10605.407    11257.584   -309.23074   -1880.2364   -849.30354    -2189.403 
 5491000    278.45902   -3799.2813    -3322.012   -3799.2813            0    12821.715    16.814801    19.805614    20.514018    6831.7312    12215.262    12803.928    13445.956    786.55256   -976.96975   -256.80482   -2044.5359 
 5492000    291.72344   -3811.4871   -3311.4831   -3811.4871            0    9523.3043    16.903889    19.910548    20.622705    6940.8947    9180.9529    9443.3031    9945.6569    1093.1454   -1764.5548    1985.9064   -2347.4787 
 5493000    283.01745   -3728.0162    -3242.934   -3728.0162            0     11294.28    16.839873    19.835146    20.544606    6862.3371    11796.154    11467.796    10618.892    582.59878   -1935.3725   -727.07291   -2112.6007 
 5494000    266.51582   -3720.7958   -3263.9968   -3720.7958            0    13948.366    16.800332    19.788572    20.496365    6814.1103    15470.142    13068.048    13306.908    736.85946    147.15939    168.19544   -1877.8527 
 5495000    286.34851   -3744.0334   -3253.2419   -3744.0334            0    11157.123    16.812276     19.80264    20.510937    6828.6539    9147.5617    11369.665    12954.142    524.29418   -594.88785    267.84974   -2142.1161 
 5496000    280.28135   -3783.7182   -3303.3255   -3783.7182            0     13279.62    16.824337    19.816847    20.525652    6843.3611    13463.904    12322.253    14052.703    735.90347    49.413824   -189.06661   -1977.9742 
 5497000    268.54175   -3800.2911   -3340.0197   -3800.2911            0    13459.239    16.808253    19.797902     20.50603    6823.7538    12684.376     12839.68     14853.66    863.80361    1616.4218     704.6184   -2000.5906 
 5498000    302.59205   -3826.5993   -3307.9669   -3826.5993            0    9543.8906    16.870602    19.871341    20.582096    6899.9726    7166.6882    12989.597    8475.3864    2095.9965   -942.85952    298.59334   -2347.5745 
 5499000    277.90427   -3834.1438   -3357.8254   -3834.1438            0    13655.493    16.810144    19.800129    20.508337    6826.0568    13944.804    14167.271    12854.404   -889.09212    1676.1468    183.35359   -1998.4069 
 5500000    298.18951   -3778.3756    -3267.289   -3778.3756            0    10652.764    16.845275    19.841509    20.551196    6868.9429    9908.9836    12786.511    9262.7983   -481.78622    992.87485    977.69083   -2200.1325 
Loop time of 507.248 on 64 procs for 250000 steps with 864 atoms

Performance: 85.165 ns/day, 0.282 hours/ns, 492.855 timesteps/s
99.1% CPU use with 64 MPI tasks x 1 OpenMP threads

MPI task timing breakdown:
Section |  min time  |  avg time  |  max time  |%varavg| %total
---------------------------------------------------------------
Pair    | 22.221     | 27.657     | 32.589     |  47.5 |  5.45
Bond    | 0.26626    | 0.28419    | 0.29663    |   1.0 |  0.06
Kspace  | 210.61     | 221.76     | 234.03     |  40.8 | 43.72
Neigh   | 6.1549     | 7.4148     | 8.6906     |  30.1 |  1.46
Comm    | 112.92     | 125.1      | 138.92     |  58.0 | 24.66
Output  | 1.3802     | 1.3857     | 1.39       |   0.2 |  0.27
Modify  | 117.17     | 119.44     | 123.49     |  15.8 | 23.55
Other   |            | 4.207      |            |       |  0.83

Nlocal:        13.5000 ave          18 max           9 min
Histogram: 3 3 6 11 7 11 12 5 4 2
Nghost:        2296.41 ave        2327 max        2270 min
Histogram: 1 3 13 3 15 16 6 3 3 1
Neighs:        4486.48 ave        6466 max        2677 min
Histogram: 2 5 7 10 14 10 5 8 0 3

Total # of neighbors = 287135
Ave neighs/atom = 332.33218
Ave special neighs/atom = 2.0000000
Neighbor list builds = 16006
Dangerous builds = 0

unfix		3
unfix		2
unfix		1

write_data	data.final.${pid}
write_data	data.final.0
System init for write_data ...
PPPM initialization ...
  extracting TIP4P info from pair style
  using 12-bit tables for long-range coulomb (../kspace.cpp:340)
  G vector (1/distance) = 0.37489324
  grid = 24 24 24
  stencil order = 5
  estimated absolute RMS force accuracy = 0.0030896785
  estimated relative force accuracy = 9.3044749e-06
  using double precision FFTW3
  3d grid and FFT values/proc = 2535 216
Last active /omp style is kspace_style pppm/tip4p/omp
WARNING: Not all mixed pair coeffs generated from mixing. Use write_data with 'pair ij' option to store all pair coeffs. (../write_data.cpp:312)

write_restart   restart.lmp.${pid}
write_restart   restart.lmp.0
System init for write_restart ...
PPPM initialization ...
  extracting TIP4P info from pair style
  using 12-bit tables for long-range coulomb (../kspace.cpp:340)
  G vector (1/distance) = 0.37489324
  grid = 24 24 24
  stencil order = 5
  estimated absolute RMS force accuracy = 0.0030896785
  estimated relative force accuracy = 9.3044749e-06
  using double precision FFTW3
  3d grid and FFT values/proc = 2535 216
Last active /omp style is kspace_style pppm/tip4p/omp
Total wall time: 0:08:31
