LAMMPS (30 Jul 2021)
Processor partition = 0
  using 2 OpenMP thread(s) per MPI task
using multi-threaded neighbor list subroutines
variable        pid world 0 1
variable        phase world IceIh IceIII

shell cd ${phase}
shell cd IceIh
include Restart.lmp
echo both
log log.lammps
#include		in.partitions
include		in.temp
variable        temperature equal 32.72
variable	tempDamp equal 100.0
include		in.pressure
variable        pressure equal 2166.2
variable        pressureDamp equal 1000.0 # This is 1 ps
include		in.seed
variable        seed equal 745823

units		real
atom_style	full
#include		in.box
read_restart	restart.lmp.${pid}
read_restart	restart.lmp.0
Reading restart file ...
  restart file = 30 Jul 2021, LAMMPS = 30 Jul 2021
  restoring atom style full from restart
  orthogonal box = (0.17030824 0.16424125 0.15574480) to (18.037264 23.464937 22.057451)
  2 by 4 by 4 MPI processor grid
  restoring pair style lj/cut/tip4p/long/omp from restart
  restoring bond style harmonic/omp from restart
  restoring angle style harmonic/omp from restart
  864 atoms
  576 bonds
  288 angles
Finding 1-2 1-3 1-4 neighbors ...
  special bond factors lj:    0        0        0       
  special bond factors coul:  0        0        0       
     2 = max # of 1-2 neighbors
     1 = max # of 1-3 neighbors
     1 = max # of 1-4 neighbors
     2 = max # of special neighbors
  special bonds CPU = 0.002 seconds
  read_restart CPU = 0.007 seconds
include 	in.setup
variable	out_freq equal 1000
variable	out_freq2 equal 10000
variable	out_freq3 equal 1000

timestep	2.0

neigh_modify    delay 7 every 1

include		in.tip4p
# This is TIP4P/Ice

# create groups ###
group ox type 2
288 atoms in group ox
group hy type 1
576 atoms in group hy

# set charges - beside manually ###
set group ox charge -1.1794
Setting atom values ...
  288 settings made for charge
set group hy charge 0.5897
Setting atom values ...
  576 settings made for charge

# ### TIP3P Potential Parameters ###
pair_style lj/cut/tip4p/long/omp 2 1 1 1 0.1577 8.5
pair_coeff 1 1*2 0.000 0.000
pair_coeff 2 2 0.21084 3.1668
bond_style  harmonic
bond_coeff  1 450 0.9572
angle_style harmonic
angle_coeff 1 55 104.52
kspace_style pppm/tip4p/omp 1.0e-5
pair_modify tail yes

thermo          ${out_freq}
thermo          1000
thermo_style    custom step temp pe etotal epair emol press lx ly lz vol pxx pyy pzz pxy pxz pyz enthalpy

restart 	${out_freq3} restart.lmp.${pid} restart2.lmp.${pid}
restart 	1000 restart.lmp.${pid} restart2.lmp.${pid}
restart 	1000 restart.lmp.0 restart2.lmp.${pid}
restart 	1000 restart.lmp.0 restart2.lmp.0


include         in.dump
dump            myDump all atom ${out_freq2} dump.water.${pid}
dump            myDump all atom 10000 dump.water.${pid}
dump            myDump all atom 10000 dump.water.0
dump            myDump2 all dcd ${out_freq2} dump.dcd
dump            myDump2 all dcd 10000 dump.dcd
dump_modify     myDump append yes
dump_modify     myDump2 append yes


variable natoms 	equal  "count(all)"                        # NUMBER ATOMS
variable H      	equal  "enthalpy/v_natoms"                 # ENTHALPY-per-atom
variable Vol      	equal  "vol/v_natoms"                 # volume-per-atom
fix AVG all 		ave/time ${out_freq} 1 ${out_freq} v_Vol v_H file vol_enthalpy.dat
fix AVG all 		ave/time 1000 1 ${out_freq} v_Vol v_H file vol_enthalpy.dat
fix AVG all 		ave/time 1000 1 1000 v_Vol v_H file vol_enthalpy.dat


timer           timeout 23:50:00 every 1000
New timer settings: style=normal  mode=nosync  timeout=23:50:00

fix 		1 all shake 1e-6 200 0 b 1 a 1
Finding SHAKE clusters ...
       0 = # of size 2 clusters
       0 = # of size 3 clusters
       0 = # of size 4 clusters
     288 = # of frozen angles
  find clusters CPU = 0.001 seconds
fix             2 all nph aniso ${pressure} ${pressure} ${pressureDamp}
fix             2 all nph aniso 2166.2 ${pressure} ${pressureDamp}
fix             2 all nph aniso 2166.2 2166.2 ${pressureDamp}
fix             2 all nph aniso 2166.2 2166.2 1000
fix             3 all temp/csvr ${temperature} ${temperature} ${tempDamp} ${seed}
fix             3 all temp/csvr 32.72 ${temperature} ${tempDamp} ${seed}
fix             3 all temp/csvr 32.72 32.72 ${tempDamp} ${seed}
fix             3 all temp/csvr 32.72 32.72 100 ${seed}
fix             3 all temp/csvr 32.72 32.72 100 745823


run             250000
PPPM initialization ...
  extracting TIP4P info from pair style
  using 12-bit tables for long-range coulomb (../kspace.cpp:340)
  G vector (1/distance) = 0.37214108
  grid = 24 27 25
  stencil order = 5
  estimated absolute RMS force accuracy = 0.0031112306
  estimated relative force accuracy = 9.3693785e-06
  using double precision FFTW3
  3d grid and FFT values/proc = 4410 672
Last active /omp style is kspace_style pppm/tip4p/omp
Neighbor list info ...
  update every 1 steps, delay 7 steps, check yes
  max neighbors/atom: 2000, page size: 100000
  master list distance cutoff = 10.8154
  ghost atom cutoff = 10.8154
  binsize = 5.4077, bins = 4 5 5
  1 neighbor lists, perpetual/occasional/extra = 1 0 0
  (1) pair lj/cut/tip4p/long/omp, perpetual
      attributes: half, newton on, omp
      pair build: half/bin/newton/omp
      stencil: half/bin/3d
      bin: standard
Setting up Verlet run ...
  Unit style    : real
  Current step  : 44250000
  Time step     : 2
  Walltime left : 23:49:59.93
Per MPI rank memory allocation (min/avg/max) = 10.21 | 10.22 | 10.23 Mbytes
Step Temp PotEng TotEng E_pair E_mol Press Lx Ly Lz Volume Pxx Pyy Pzz Pxy Pxz Pyz Enthalpy 
44250000    34.586516    -4682.758   -4623.4779    -4682.758            0    1848.8647    17.866956    23.300695    21.901706     9117.954    1588.4254    1900.0287    2058.1399    58.862452    348.36176    234.72328   -4377.6232 
44251000     31.94594   -4681.2072    -4626.453   -4681.2072            0    1984.2052    17.910909    23.299243    21.843255    9115.4225    2076.1062    1967.4566    1909.0529   -66.529784   -145.80494    -103.6906   -4362.6745 
44252000    31.287325   -4680.1023   -4626.4769   -4680.1023            0    2341.4393    17.814004    23.282468    21.932836    9096.7308    2406.1624    2366.5173    2251.6381    -117.7901   -188.54807    60.182223   -4315.8464 
44253000    32.985044    -4683.696   -4627.1607    -4683.696            0    2237.9619    17.867118    23.201641    21.954383    9101.1114     2169.408    2358.7968     2185.681    -28.31583   -118.84742   -66.654311   -4330.1152 
44254000    31.196728   -4685.7141    -4632.244   -4685.7141            0    2124.9219    17.848737    23.342722    21.876364    9114.5266    2584.1877    1761.3571    2029.2208    56.588363    118.04716    46.630311   -4349.7866 
44255000    33.568974   -4681.4546   -4623.9185   -4681.4546            0     2815.005    17.772378    23.399805    21.827062    9077.2245      2861.81     2310.264     3272.941   -327.38485    98.093151    121.71701   -4251.2625 
44256000     33.75512   -4680.7319   -4622.8768   -4680.7319            0    2583.9844    17.944035    23.188586    21.848082    9090.9171    2520.8639    2176.6097    3054.4797   -181.91107   -69.113241    83.116496   -4280.2878 
44257000    33.812102   -4684.6887   -4626.7359   -4684.6887            0    1867.8066    17.826197     23.31611    21.947032    9122.0108    2084.1167    2011.8803    1507.4226   -89.463675    123.15121    191.92126    -4378.252 
44258000    34.809857    -4684.407   -4624.7441    -4684.407            0    2096.0702    17.941265    23.178094    21.903156     9108.303     1938.693    2385.6508    1963.8669    171.98076    52.206392    413.98267   -4346.3121 
44259000    34.749532   -4681.4842   -4621.9246   -4681.4842            0    2292.5106    17.861039    23.236637    21.955465     9112.187     2277.737    2307.7656    2292.0292    29.283062   -190.09957    55.340087   -4317.2686 
44260000    31.753163   -4680.1271   -4625.7033   -4680.1271            0    2099.1321    17.936942    23.177881    21.915146    9111.0093    1981.7678     2462.815    1852.8135    277.29874   -187.64023   -25.425451   -4346.7817 
44261000    31.395513   -4681.2235   -4627.4126   -4681.2235            0    1894.4551    17.920245    23.232214    21.917161    9124.7052    1889.5164     2092.667     1701.182    20.830751   -123.81251    83.437727    -4375.309 
44262000    33.305281   -4678.2226   -4621.1385   -4678.2226            0    1880.0793    17.898278    23.265074    21.902446    9120.2829    1857.5142    1574.2199    2208.5037   -56.662065   -110.71039    43.575265   -4371.0692 
44263000    34.092862   -4682.8567   -4624.4227   -4682.8567            0    1741.8633    17.940077    23.291649    21.833355    9123.1547    1798.0962    1609.4886    1818.0051     157.5572    10.163627     335.1733   -4392.6646 
44264000    31.048217    -4683.149   -4629.9334    -4683.149            0    1752.0858    17.872179    23.285067    21.921455    9122.7202    1467.0572     2368.518    1420.6823    402.88686    88.632623    22.644165   -4396.8263 
44265000    32.338143   -4684.2064     -4628.78   -4684.2064            0    1823.5599    17.842381    23.352962    21.902276    9126.0754    2698.1594    1676.4403      1096.08    273.04242   -33.380944    253.47439   -4386.0743 
44266000    32.686445   -4682.8627   -4626.8392   -4682.8627            0    2130.8205    17.936129    23.238687    21.842876    9104.3749    2075.1279    2032.8682    2284.4654    -19.02923    170.08435    65.465187   -4343.9132 
44267000    34.147846   -4685.0714   -4626.5432   -4685.0714            0    1972.1329    17.876545    23.298609    21.890084    9117.1899    1845.9399    2195.7066    1874.7521   -227.77217    -212.5401   -149.06538   -4364.3188 
44268000    32.592793    -4686.324   -4630.4611    -4686.324            0    1845.8231    17.882952    23.191184    21.982094    9116.5641    2284.7091    1704.0955    1548.6647   -80.027794   -56.297951   -173.58443   -4385.0483 
44269000    31.470512   -4681.0984    -4627.159   -4681.0984            0    1855.1687    17.952239    23.218402    21.884543    9121.9652    1353.5253    2278.4854    1933.4955   -120.83211   -137.47975    112.02858   -4380.3575 
44270000    32.750076    -4685.742   -4629.6094    -4685.742            0     1899.086    17.934596    23.277675    21.853951    9123.4933    2088.9215    1601.8609    2006.4757    63.108773    100.10844    176.28334   -4376.9231 
44271000    32.464422   -4685.6339    -4629.991   -4685.6339            0    1891.3054    17.997614    23.267593    21.785331    9122.8505    1725.6891    2081.7103    1866.5169   -268.03149    147.07247   -98.774111   -4378.3577 
44272000    34.971942   -4682.8937   -4622.9529   -4682.8937            0     2341.906    17.805278    23.375754     21.86816     9101.786    2703.5078    2007.5944    2314.6157    -251.5842   -64.452624   -32.149905   -4312.0878 
44273000    32.526624   -4684.1398   -4628.3903   -4684.1398            0    2185.2697    17.939628    23.243015    21.822237    9099.2412    1774.4287    2297.2229    2484.1575   -101.22952    -496.6702    217.36237   -4338.3982 
44274000    34.914919   -4681.2664   -4621.4235   -4681.2664            0    1682.2411    17.914919    23.281586    21.878298    9125.1691    1503.1236    1673.6945     1869.905    347.51007    13.688279    29.060034   -4397.5487 
44275000    32.379934   -4682.6552   -4627.1571   -4682.6552            0    1749.7809    17.929872    23.145581     21.98202    9122.4789    1476.7986    2212.0473    1560.4967    8.3229001   -89.404038    82.569024   -4394.3627 
44276000    32.498865   -4677.9858   -4622.2838   -4677.9858            0    2083.4468    17.791375    23.247258    22.023542    9108.9521    2435.6203    1674.2472    2140.4731    41.914299   -253.57172    264.78113   -4345.5089 
44277000    33.848622   -4681.7695   -4623.7541   -4681.7695            0    2130.0525    17.993384    23.096181    21.935848    9116.0657    1577.0595    2604.3747    2208.7233   -212.99283    213.49636   -151.93716   -4340.5669 
44278000     31.64223   -4682.7477    -4628.514   -4682.7477            0    2252.3155    17.916633    23.266371    21.839241    9103.7975     1898.852    2413.3591    2444.7353     30.45405   -511.27143    327.35359   -4329.4751 
44279000    32.364642    -4686.736   -4631.2642    -4686.736            0    2145.0031    17.980326    23.224332    21.817536    9110.5896    1368.3415    2235.0477    2831.6203   -153.72415    220.83066   -104.47759   -4346.2606 
44280000     33.12953   -4680.9483   -4624.1654   -4680.9483            0    2512.1257    17.855951    23.339388    21.822895    9094.6253    2808.2928    2425.6247    2302.4597   -111.42737    62.639841    80.062443   -4290.9677 
44281000    34.245888   -4681.8386   -4623.1423   -4681.8386            0    2494.9872    17.858353    23.279683    21.874095    9093.8661    2036.8412    2687.9714    2760.1491   -286.25286   -319.84544    193.32969   -4292.2453 
44282000    33.773849   -4683.1909   -4625.3037   -4683.1909            0    2373.4826    17.892033    23.247231    21.875974    9099.0975     2251.791    2242.4671    2626.1897   -47.416649    316.70149    44.476298   -4310.3402 
44283000    32.509168   -4681.1339   -4625.4143   -4681.1339            0    2574.8493     17.89943    23.242519    21.842452    9087.0679    2562.7844    2677.8562    2483.9073    308.00267   -264.65118    29.575671   -4284.1809 
44284000    31.688655   -4682.7382   -4628.4249   -4682.7382            0     2603.557    17.915542    23.197268    21.858923    9084.3852    2378.5239    2598.9944    2833.1527   -344.52551   -110.79267    397.67776   -4283.4889 
44285000    31.329251   -4684.1755   -4630.4783   -4684.1755            0    2207.7468    17.865498    23.237966    21.955225    9114.8835    2564.6474    2407.1126    1651.4805   -46.852492    84.186689   -40.932657   -4336.9998 
44286000    33.011115   -4683.9088   -4627.3289   -4683.9088            0    2452.1215     17.90586    23.214691    21.860996    9087.1568    2422.1883    2483.0685    2451.1075   -202.90983   -181.34231    162.32397   -4302.3569 
44287000    34.276509   -4682.8196   -4624.0709   -4682.8196            0    2390.4634    17.850759    23.213388    21.949527    9095.3705    2674.2239    2575.4465    1921.7199   -403.92599   -232.61559    308.38071   -4306.9839 
44288000    31.692155     -4680.34   -4626.0208     -4680.34            0    2169.2693     17.85645    23.290572    21.886297    9102.2246     2258.438    2232.1626    2017.2073    115.63318    101.92697   -242.35757   -4338.0576 
44289000    32.043119   -4680.6828    -4625.762   -4680.6828            0     2029.307    17.889797    23.282183    21.877304    9112.1929    1994.8373    1894.3959    2198.6876  -0.24735121   -114.01601    104.06243   -4356.0834 
44290000    31.622782   -4682.2377   -4628.0374   -4682.2377            0    1608.6143    17.930292      23.2273    21.915559     9127.223    1790.9276    1504.9609    1529.9546   -309.55069    228.93587   -105.54894   -4413.9128 
44291000    32.242317   -4683.5175   -4628.2553   -4683.5175            0    2001.9092    17.926702    23.295605    21.804682    9105.9267    1980.6901    2104.0977    1920.9397    50.542248   -102.77587   -8.3831173   -4362.4005 
44292000    32.498603   -4683.3516   -4627.6501   -4683.3516            0     2145.101    17.846246    23.317536    21.878976    9104.5087    2357.8951     2164.694     1912.714   -67.083571   -316.91007    170.19333   -4342.8238 
44293000    33.856814   -4683.4133   -4625.3839   -4683.4133            0     2369.782    17.860004    23.306925    21.874484    9105.5119    2565.1488    1982.6234    2561.5737    194.11698   -4.0991707    298.99044   -4310.6898 
44294000    33.061616   -4681.5687   -4624.9023   -4681.5687            0    2360.8086    17.919849    23.161037    21.914267    9095.3472    2102.8614    2712.5143    2267.0502    150.77014    84.985401    364.15235   -4311.7497 
44295000    29.273754   -4682.7858   -4632.6116   -4682.7858            0    2182.2306    17.835069    23.241771    21.962128    9103.7101    2302.8478    2238.1806    2005.6635   -458.24631    189.84104      153.444   -4342.8806 
44296000    34.228324   -4683.1538   -4624.4877   -4683.1538            0    2160.8659    17.842364    23.266711     21.92789    9102.9933    2425.7583     1998.867    2057.9723    396.85679   -408.44894    235.63207   -4337.6158 
44297000    30.917863    -4681.778   -4628.7858    -4681.778            0    2699.8225    17.842861    23.329565     21.81515    9080.9094    2203.9005    2685.3225    3210.2447   -600.75705    147.74574    235.86651   -4271.2328 
44298000    34.423461   -4685.3683   -4626.3676   -4685.3683            0     2105.264     17.88225    23.446972    21.725319     9109.092    2248.2677    1545.8397    2521.6848   -724.16797   -40.808926    193.24776   -4346.6901 
44299000    33.292305   -4681.6781   -4624.6163   -4681.6781            0    2076.9392     17.78631    23.371215    21.902595    9104.6386    2493.5898    1963.7563    1773.4714   -385.33091   -377.31526    131.08073   -4348.8365 
44300000    32.062561   -4682.5961   -4627.6419   -4682.5961            0    2135.0125    17.849498    23.289244    21.906489    9106.5562    2114.3996    2150.4821    2140.1559    68.791199     -163.762   -220.17259   -4344.0914 
44301000    33.538251   -4680.8138   -4623.3303   -4680.8138            0    1815.6301    17.845109     23.25237    21.974521    9118.1317    1937.9881    1947.5785    1561.3237   -358.53113    42.684671    292.26963   -4381.8904 
44302000    32.294456   -4682.5265   -4627.1749   -4682.5265            0    2068.4456    17.896286    23.372883    21.784038    9111.9973    2205.1944    1550.2443    2449.8982   -245.86366    370.85525    30.339528    -4352.301 
44303000     33.00491   -4686.4243    -4629.855   -4686.4243            0    1938.7899    17.936941    23.263182     21.85191    9118.1535    1886.9021     1946.524    1982.9436    29.814548   -238.70613    28.707429   -4372.0368 
44304000    32.500565   -4680.0028    -4624.298   -4680.0028            0    2180.7791     17.80167      23.4182    21.841252    9105.2481    2891.0531    1819.8915    1831.3926   -144.06256    242.77568   -97.187806   -4334.7108 
44305000    32.327028   -4681.6699   -4626.2624   -4681.6699            0    2415.8643    17.899577    23.314818    21.811279    9102.4001    2245.8427    2437.9014    2563.8488   -126.16075    89.231833    252.07435   -4305.5585 
44306000    34.517882   -4680.9097   -4621.7472   -4680.9097            0    2055.4819    17.897439    23.299264    21.849558    9111.2036    1960.4867     1797.982    2407.9771    162.18753     131.1765   -28.474272   -4348.6198 
44307000    33.472137   -4683.7373   -4626.3672   -4683.7373            0     2229.043    17.928665    23.230519    21.842143    9097.0819    1864.7106    1993.9829    2828.4356    126.45929    96.620019   -55.871902   -4330.6365 
44308000    33.274286   -4682.2621   -4625.2311   -4682.2621            0    2237.5789    17.863222    23.194761    21.951541    9095.2516     2253.882    2158.7291    2300.1255   -234.23914    219.53502   -202.47497   -4328.4276 
44309000     32.89957   -4683.4314   -4627.0427   -4683.4314            0    1892.6368    17.874987    23.260604     21.91204    9110.6536    1940.4261    1754.0535    1983.4309    145.26762   -173.91247    131.13602   -4375.5689 
44310000    29.812197   -4682.6221    -4631.525   -4682.6221            0    2109.6417    17.953173    23.215084    21.859542    9110.7163    2035.7615    2341.5358    1951.6279    78.796931   -27.577943    225.19273    -4351.216 
44311000    33.540471   -4684.0417   -4626.5545   -4684.0417            0     2159.415    17.902656    23.235868    21.885856    9104.1605    1882.3051    2393.3198    2202.6202     282.4805    89.194271    135.67814   -4339.8385 
44312000    33.091063   -4681.3284   -4624.6115   -4681.3284            0    2112.9182    17.855369    23.311032    21.875041    9104.9844    2473.7817    1676.4185    2188.5542   -343.27944    176.30921    152.68272   -4344.0437 
44313000    33.791386   -4679.4392   -4621.5219   -4679.4392            0    2698.8401    17.840293    23.231891    21.917646    9084.0698    2956.9197    2916.0537    2223.5468   -64.425864    31.551458   -347.58682   -4263.9746 
44314000    33.552464   -4683.3115   -4625.8037   -4683.3115            0    2491.2812    17.854417    23.233888    21.921297    9093.5572    2642.3584    2343.0911    2488.3941   -160.60497    226.23359    215.48381   -4295.4095 
44315000    31.091974   -4682.5438   -4629.2532   -4682.5438            0     2405.206    17.842501    23.272482    21.891378      9090.16    2256.9028    2711.1711    2247.5439   -23.279628   -366.50078    120.64794   -4310.3935 
44316000    34.141887    -4681.784    -4623.266    -4681.784            0    2488.8882    17.910954     23.20517     21.87584    9092.1838    2721.5619    1989.3476    2755.7552    300.47091    214.26617   -129.86563    -4293.239 
44317000    31.268378   -4684.7976   -4631.2047   -4684.7976            0    2353.1991    17.882583    23.330057    21.804298      9096.79    1660.2725    2243.3396    3155.9852   -475.51867    76.815316   -62.657858    -4319.012 
44318000    32.243392   -4682.8347   -4627.5706   -4682.8347            0    2132.9563    17.893372    23.300306    21.871833    9118.8275    1992.1053    1451.9573    2954.8062    61.834704   -178.97346     58.24421   -4343.9114 
44319000    31.120249   -4684.7298   -4631.3907   -4684.7298            0    2153.3065    17.943408    23.188199      21.8902    9107.9715    1962.5476    2384.8825    2112.4895   -18.301388   -92.048365   -337.03534   -4345.3661 
44320000    33.291924   -4683.3916   -4626.3304   -4683.3916            0    1703.9969    17.900287    23.265313    21.909069    9124.1588    1506.9772    2075.5315    1529.4819   -23.801267   -73.050148    133.23449   -4399.5855 
44321000    31.777738   -4682.4795   -4628.0135   -4682.4795            0    1642.6438    17.974838    23.256958    21.835307    9128.0326    1183.0885    1368.2393    2376.6037    309.39965    286.37588    266.74881   -4409.3399 
44322000    34.668061   -4680.1024   -4620.6825   -4680.1024            0    2086.0478    17.887894    23.294578    21.897643    9124.5492    2280.6211    2261.1164     1716.406    77.897982   -109.75149   -108.62409   -4343.0876 
44323000    31.055287   -4683.8601   -4630.6324   -4683.8601            0     2397.783     17.80647     23.30466    21.930337    9100.5136    2580.1022    2488.6255    2124.6215   -522.87582    179.89012   -94.875354   -4312.3947 
44324000     32.99814   -4683.0982   -4626.5405   -4683.0982            0     2840.578    17.862258    23.246251    21.865887     9079.384    2978.0306    2659.7207    2883.9826    -65.35864   -255.52478    345.87044   -4250.4096 
44325000    32.182651   -4681.9511   -4626.7911   -4681.9511            0    2402.6026    17.924981     23.15557    21.927792    9101.4182    2133.4596     2616.203    2458.1453    -473.8707    53.782667   -258.48526    -4307.882 
44326000     30.66545   -4679.3592   -4626.7997   -4679.3592            0    2150.7376    17.828556     23.23832    21.977937    9105.5843    2089.4182    2197.6434    2165.1513   -77.811225   -149.46566   -107.83127   -4341.1912 
44327000    31.508708   -4683.2824   -4629.2775   -4683.2824            0    2079.9836    17.800682    23.351144      21.9151    9109.3683     1904.946    2253.0426    2081.9622   -181.83392    9.9435772    105.57485   -4352.9501 
44328000    36.465872   -4684.6475   -4622.1463   -4684.6475            0    2068.4919    17.862285    23.418583    21.764691     9104.375    1989.1957    1588.6749     2627.605    -323.7213   -82.145589   -204.91744   -4347.4961 
44329000    33.837962   -4686.5288   -4628.5317   -4686.5288            0    2199.8882    17.874677     23.32044     21.83025    9099.8382    2250.1529    2109.5107    2240.0011   -114.68313    134.60759   -3.3128846   -4336.5806 
44330000    34.366609   -4682.2709   -4623.3677   -4682.2709            0    2282.4948     17.84442    23.386172    21.821764    9106.4983    2594.7985    1882.6125    2370.0735   -132.80634   -18.330849    377.14213    -4320.232 
44331000    33.259729   -4683.9204   -4626.9144   -4683.9204            0    2305.9236    17.920852      23.2776    21.824463    9104.1714    2317.6909    2000.4163    2599.6636   -90.713063   -56.767934    127.27424   -4320.7454 
44332000    32.053861   -4682.9335   -4627.9943   -4682.9335            0    2105.4358    17.979334    23.086549    21.923108    9099.8605    1379.1896     2415.901    2521.2167    361.10557   -93.064404    99.072395   -4348.5774 
44333000    30.365663   -4681.9882   -4629.9425   -4681.9882            0    2004.6866     17.88106     23.14514    22.013361    9110.4413    2074.2095    1895.2956    2044.5548   -173.84761   -18.879533    457.87632   -4363.5869 
44334000    35.349545   -4682.9269    -4622.339   -4682.9269            0    2074.0516    17.913304    23.294685    21.837012    9112.2526      1897.99      1944.59    2379.5747   -236.32177    278.85383   -456.74839   -4346.7124 
44335000    32.281245   -4683.6117   -4628.2828   -4683.6117            0    1912.7088    17.906708    23.262161    21.904676    9124.3648    2008.0985    1821.2076    1908.8203    92.568146   -311.83709   -114.11153   -4373.7596 
44336000    34.448136   -4686.8285   -4627.7856   -4686.8285            0    2199.5463    17.934009    23.259964    21.841006    9110.8537    2332.7349    1864.2407    2401.6632   -195.58726     53.12801    -177.4784   -4335.5264 
44337000    32.686075   -4686.0311   -4630.0083   -4686.0311            0    2193.6438    17.876016    23.332251    21.837007     9107.947    2361.9073    2281.6075    1937.4166    101.04835    98.998181    473.36988   -4338.6265 
44338000    33.953601   -4681.4649   -4623.2696   -4681.4649            0    2326.1956    17.912244    23.333434    21.779576    9102.8645    2036.8279    1862.7255    3079.0334   -117.05683   -145.13267    27.907638   -4314.4533 
44339000     31.07072    -4682.523   -4629.2689    -4682.523            0     2529.631    17.801706    23.281294    21.933833    9090.4061    2658.7929    2416.2324    2513.8677    341.28047    465.69181    91.198033    -4293.905 
44340000    33.713291   -4683.9701   -4626.1867   -4683.9701            0    2234.4569    17.892836     23.26988    21.868934    9105.4403    2203.1803    1922.2135    2577.9769   -219.09799   -10.125131    119.43367   -4329.4653 
44341000     31.35491   -4684.4805   -4630.7392   -4684.4805            0    2479.6698     17.83581     23.18546     21.99057    9093.7924     2564.825    2350.4793     2523.705    4.2620483    175.43432   -235.98201   -4301.8764 
44342000    34.363368   -4683.7737    -4624.876   -4683.7737            0    2151.0129    17.955929    23.293899    21.787907    9113.0885    1961.5949    2351.4073    2140.0366    222.00222   -319.76332    77.500158   -4338.9956 
44343000    31.864098   -4683.8749   -4629.2609   -4683.8749            0    2109.1256    17.886688     23.30271    21.857692    9110.4676    2040.2702    2236.2348    2050.8719    97.949624   0.10175708   -55.799737   -4349.0281 
44344000    32.392531    -4682.608   -4627.0883    -4682.608            0    2165.1001    17.884766    23.347448    21.797269     9101.747    2062.8552    1848.3716    2584.0734   -30.026658    145.47775    73.140911   -4339.6937 
44345000    31.280771   -4682.5927   -4628.9785   -4682.5927            0    2478.1915    17.916167    23.247339    21.837308    9095.3087    2381.2083    2607.2202    2446.1458    55.841474   -686.80094    153.77637   -4300.2569 
44346000    33.920878   -4682.1974   -4624.0582   -4682.1974            0    2359.6797    17.862114     23.28847    21.859939    9093.3259    2446.3771    2110.0012    2522.6609   -164.40605    548.72823    267.19211   -4311.1249 
44347000    33.378659   -4684.0185   -4626.8086   -4684.0185            0    2134.4651    17.837294    23.370074    21.861349    9113.0973    1868.2761    1864.8544    2670.2648   -117.98854    122.00505   -110.44351   -4343.1271 
44348000    30.618335   -4684.3419   -4631.8631   -4684.3419            0    1963.5251    17.811427    23.321173    21.944999    9115.5873    2175.9041    1192.0038    2522.6675    64.859423     103.3008    241.79763   -4370.8292 
44349000    33.389107   -4683.6863   -4626.4585   -4683.6863            0    2342.8308    17.864644    23.286593    21.872634    9099.1622    2111.0391    2467.8843    2449.5689   -102.24291    466.73774   -274.00523   -4315.5603 
44350000    33.013038   -4686.1052    -4629.522   -4686.1052            0    2060.8056    17.921833    23.276273    21.834815    9108.4691    2080.9058     1789.548    2311.9631     310.5729    160.27867   -39.318805   -4355.7694 
44351000    31.672736   -4685.6362   -4631.3502   -4685.6362            0    2325.5879    17.915236    23.248956    21.845773    9098.9948    2220.4218    2195.1323    2561.2097    258.45627    79.542257   -140.23921   -4322.7459 
44352000    33.172358   -4681.4148   -4624.5586   -4681.4148            0    2503.7639    17.868728    23.271053    21.873982    9095.7288    2553.4817    2673.1362     2284.674    -263.3869   -118.32068   -322.19446   -4292.4296 
44353000    32.191599   -4680.2593    -4625.084   -4680.2593            0    2130.4837    17.883885    23.285348    21.869606    9107.2147    2490.1978    1948.8372     1952.416     -66.0702    162.64983   -20.705018   -4342.1145 
44354000    32.393852   -4683.1593   -4627.6373   -4683.1593            0    2045.2962     17.93101    23.237779    21.881393    9117.4698    1908.2542    2228.6803    1998.9542     37.10178   -128.03125    102.57902   -4355.6764 
44355000    33.007245   -4681.1374   -4624.5641   -4681.1374            0    2042.1132    17.888633    23.202467    21.914449    9095.8201    2063.7795     2263.463    1799.0969    -9.700817    129.19502   -253.68226   -4353.6712 
44356000    31.612187   -4683.8233   -4629.6411   -4683.8233            0     2120.232    17.906717    23.097025    22.010955    9103.5523    1889.2197    2552.1285    1919.3479    280.06691    190.74623     497.5171   -4348.1465 
44357000    31.598214   -4684.9349   -4630.7766   -4684.9349            0    1599.6496    17.992766    23.212336    21.877184    9137.0965    1321.1359    1947.1944    1530.6183    50.668762    35.322514   -10.328251    -4417.615 
44358000     32.50213   -4683.3889   -4627.6813   -4683.3889            0    2083.9864    17.912016    23.281116    21.852434    9112.7213    2227.4336    1911.4991    2113.0265    379.84903   -131.79569    15.759028   -4350.7202 
44359000    32.482331   -4684.7069   -4629.0333   -4684.7069            0    1993.4347    17.918478    23.310097    21.803051    9106.7298    2068.0083    1959.4407    1952.8552   -415.33598    24.864988    176.42505   -4364.2806 
44360000    33.338069   -4686.3714   -4629.2311   -4686.3714            0    2081.4898    17.887294    23.279902    21.871488    9107.6036    2088.8679    2341.2981    1814.3032    319.73016   -334.38228    156.34006   -4352.7571 
44361000    33.366515   -4683.5286   -4626.3396   -4683.5286            0    2044.2407    17.927923    23.254894    21.868011    9117.0353    2018.6129    2318.2007    1795.9086    8.1384669   -154.89007   -271.03011    -4354.532 
44362000    31.599363   -4680.8257   -4626.6654   -4680.8257            0     1956.842    17.872386    23.297237    21.889072     9114.111    2163.3622    1670.4139    2036.7499    160.62803   -113.96135    425.44632   -4366.5621 
44363000    31.764492    -4681.816   -4627.3727    -4681.816            0    2094.6581    17.920398    23.215435    21.891951    9107.7045    2181.1223    2334.9723    1767.8799   -189.23211    84.565948   -131.50683   -4349.1466 
44364000    34.046232   -4680.4318   -4622.0778   -4680.4318            0    2247.8749    17.865858    23.293168    21.873293    9102.6242     2632.114    2132.3551    1979.1557    242.82532   -278.31511   -147.49607   -4323.6669 
44365000    34.152053   -4681.9421   -4623.4066   -4681.9421            0    2100.5852    17.833203    23.267038    21.959891    9111.7258    2155.8875    2191.8081    1954.0601    117.90328   -6.4014123    90.750704     -4344.27 
44366000    33.128065   -4686.0062   -4629.2258   -4686.0062            0    1999.3476    17.852741    23.372202     21.83435    9110.5542    1959.0972    1821.7752    2217.1705   -294.18521    294.12156    102.68308   -4363.5763 
44367000    31.587306   -4685.0241   -4630.8845   -4685.0241            0    2151.4881    17.893206    23.282111    21.845843    9100.7949    2500.8978    1777.7696    2175.7968   -139.05639    105.20008    10.564113   -4345.3266 
44368000    33.202188    -4686.464   -4629.5566    -4686.464            0    1822.1434    17.876563     23.27586    21.924716    9122.7076     1950.153    1682.7852    1833.4922    22.287077    29.131508   -11.609191   -4387.1289 
44369000    33.766399   -4683.9954   -4626.1209   -4683.9954            0    2046.9003    17.813619    23.357457    21.885332    9106.0672    2213.6174    2159.9822    1767.1013   -311.26342    92.702485    135.34474   -4354.2872 
44370000    32.687556    -4684.563   -4628.5377    -4684.563            0    2311.2431    17.833712    23.379198     21.81041    9093.5861     2690.951    2028.6523    2214.1259    49.578336   -202.33742    168.45027   -4322.0192 
44371000    33.383907   -4684.5689     -4627.35   -4684.5689            0    2161.1892    17.828694     23.30188    21.915685    9104.6983    2374.0735    2079.3365    2030.1575   -280.62998   -83.455266    112.83125   -4340.3815 
44372000    32.545419   -4678.2832   -4622.5015   -4678.2832            0    2189.2392    17.863419     23.20087    21.964759    9103.2254    2302.6499    1900.2864    2364.7813   -38.306254   -66.934152   -17.814399   -4331.8555 
44373000    30.700065   -4683.7071   -4631.0882   -4683.7071            0    2078.0586    17.866264    23.281197    21.884893    9102.9774    1789.3854    2209.0082    2235.7823   -208.73111    -64.47657    51.673397   -4355.2102 
44374000    32.514369   -4680.2422   -4624.5137   -4680.2422            0    1625.5169    17.923234    23.203137    21.943858    9125.9074    1845.8032    1510.0217    1520.7258   -236.07159    -88.06524   -125.65843   -4408.1704 
44375000    34.361992   -4681.7615   -4622.8663   -4681.7615            0    1961.0269    17.846999    23.290879    21.946753    9122.6572    1889.7301    2004.6907    1988.6599    -118.0061    167.42448    139.01945   -4361.9622 
44376000    32.761701   -4683.9458   -4627.7934   -4683.9458            0    2303.4486    17.854481    23.338365    21.819444    9092.0403    2470.5415    1986.3536    2453.4508     133.5201    190.55461    166.95561   -4322.3605 
44377000    33.580509    -4682.935   -4625.3792    -4682.935            0    2537.2265    17.895561    23.234166      21.8675    9092.2534    2575.3276    2568.0455    2468.3064   -338.83222   -381.40251    147.28342   -4288.9399 
44378000    33.323346   -4683.5822   -4626.4671   -4683.5822            0    2293.7401    17.988628    23.143081    21.860422    9100.7622    2263.1838    2643.2761    1974.7605    94.760279   -71.454688   -122.93808   -4322.0298 
44379000    34.186065   -4682.5517   -4623.9579   -4682.5517            0    2031.3259    17.909792     23.31557    21.829696    9115.5792    2120.8729    2025.1516    1947.9532    132.85181   -37.888803   -9.2260295   -4353.9107 
44380000    30.522692   -4681.9093   -4629.5945   -4681.9093            0    2176.4246    17.838676    23.305689     21.90873    9108.3932    2171.2065    2314.6977    2043.3695     -444.867    32.706049    132.96755   -4340.4857 
44381000    30.503819   -4683.9671   -4631.6846   -4683.9671            0    2289.5138    17.970217    23.165603    21.866541    9102.8422    1821.4114    2878.5216    2168.6085    310.58534    46.233807   -5.4696048   -4327.7388 
44382000    33.840912   -4682.3424   -4624.3402   -4682.3424            0    1976.6726    17.917522    23.170372    21.952209    9113.5836    2118.7998    2457.3599    1353.8581    102.31261   -114.40799    37.986862   -4361.6162 
44383000    31.605511   -4683.8055   -4629.6347   -4683.8055            0    2329.5155    17.891409    23.352867    21.778257    9099.2975    2292.2005    2275.6556    2420.6905    163.79397    88.135419     305.7534   -4320.4989 
44384000    32.142076   -4685.1059   -4630.0155   -4685.1059            0    2288.7952    17.823146    23.316462    21.895595    9099.2116    2855.9288    1797.8759    2212.5809   -159.46086    154.44724    44.475595   -4326.2862 
44385000    31.683231    -4685.824     -4631.52    -4685.824            0    2314.5396    17.944116    23.240441    21.806754    9094.0527    2559.4597     2402.075    1982.0841    308.45879   -283.69666     211.9445   -4324.5486 
44386000    33.027941   -4682.9437    -4626.335   -4682.9437            0    2347.6313    17.796831    23.416316     21.83206    9098.2102    2589.8041    2161.6875    2291.4022   -433.43202    148.09719    250.74262   -4314.8323 
44387000    32.651987    -4685.827   -4629.8626    -4685.827            0     2281.325    17.842657    23.328022      21.8669    9101.7448    2553.5168    2190.8869    2099.5711   -146.32094   -164.30567    37.494078   -4327.0404 
44388000    31.915454   -4681.8954   -4627.1934   -4681.8954            0    2117.3431    17.833575    23.310207    21.910806    9108.4167    2026.3157    2241.9841    2083.7294   -447.60261    273.31663    -136.8643   -4345.9321 
44389000     30.39258   -4684.0651   -4631.9732   -4684.0651            0    2605.6284     17.82221    23.238719    21.910775    9074.6832    3061.1295    2583.4271    2172.3286   -4.8921198   -234.84737    97.399279   -4287.1315 
44390000    31.672824   -4680.0785   -4625.7924   -4680.0785            0    2426.1438    17.854396    23.252216    21.891377    9088.2984    2208.5913    2561.2484    2508.5916   -371.05346   -369.44109    170.83937   -4304.2228 
44391000    34.181236   -4688.8327   -4630.2473   -4688.8327            0    2034.7905    17.921544    23.198641    21.901631     9105.723    1704.5225    2331.2576    2068.5914   -259.07835    105.56032   -93.433755   -4360.0319 
44392000    32.509459   -4683.1424   -4627.4223   -4683.1424            0    2131.3176    17.824072    23.262861    21.951433    9101.9184     2535.688    1970.4117    1887.8531    326.64514   -167.73765    197.67418   -4344.5067 
44393000    31.676647   -4683.3358   -4629.0431   -4683.3358            0      1996.35    17.926289    23.313219    21.812042    9115.6777    1928.4131    2042.8918    2017.7452   -184.00508    419.39489    140.71295   -4363.6428 
44394000    31.482029   -4682.4492   -4628.4901   -4682.4492            0    1815.2129    17.944138    23.232777    21.879711      9121.48    1649.8208         1884    1911.8179    65.925372    103.61528    -309.5163    -4387.017 
44395000    33.059842    -4680.567   -4623.9035    -4680.567            0    2026.2192    17.911093    23.284996    21.865118      9119.06    2329.4682    1406.0584    2343.1311   -478.17817   -260.20618    91.845083   -4354.4323 
44396000    32.402785   -4684.7352   -4629.1979   -4684.7352            0    2203.4151    17.953663    23.128836    21.947329    9113.5695      1893.44    2560.4814     2156.324    116.31281    163.45118    120.30832   -4336.3375 
44397000    31.141748    -4684.755   -4631.3791    -4684.755            0    1935.3664    17.842342    23.254835    21.975005    9117.8849    1638.2578    1850.9709    2316.8705   -325.15771   -176.18863    118.20126   -4374.0237 
44398000    31.830526    -4686.146   -4631.5896    -4686.146            0    2216.2187    17.954263    23.235047    21.824581    9104.5198    1912.2892    2164.2786    2572.0884     66.87488    102.34833    196.55692   -4337.3199 
44399000    34.166993   -4681.5014   -4622.9404   -4681.5014            0    2070.6188     17.87635    23.275911    21.888887    9107.7106    2222.2096    2229.2732    1760.3736    228.93858    14.008313    10.857915   -4347.9071 
44400000    32.845761   -4684.4649   -4628.1684   -4684.4649            0    2355.9222    17.941012    23.291909    21.768626    9096.6823    2464.8306    2359.6909    2243.2451   -19.246577   -55.623385    4.5910835   -4315.6181 
44401000    32.640945    -4678.629   -4622.6835    -4678.629            0    2162.2037    17.832871    23.299784    21.909708    9103.5288    2018.2947    2254.4832    2213.8334   -403.94875   -65.723754    69.288576   -4335.6172 
44402000    30.508765   -4683.2802   -4630.9893   -4683.2802            0     2029.103     17.85899    23.255263    21.917183    9102.5458    1917.1964    1854.8378    2315.2747     197.4339   -62.848176    19.644001   -4361.6232 
44403000     33.74212   -4684.6957   -4626.8629   -4684.6957            0     2015.617    17.858738    23.324479    21.860031    9105.7033    2112.2813     1487.777    2446.7928   -338.46124   -76.856665   -91.172609   -4359.1943 
44404000    32.039522   -4684.3916   -4629.4769   -4684.3916            0    2105.4629    17.910573    23.205857    21.886781    9096.8071    2112.9304    2428.2704    1775.1879    101.12941   -88.590299    73.897902   -4350.1502 
44405000    31.799854   -4682.9996   -4628.4957   -4682.9996            0     1874.752     17.82121    23.354136    21.914888    9120.9534    2332.9496     1849.257    1442.0493    143.83328    159.80207    285.01836   -4379.1167 
44406000    30.261687   -4685.8897   -4634.0222   -4685.8897            0    2187.1688    17.928031    23.187244    21.896573    9102.4408    2175.0042     2782.963    1603.5393   -92.258274    137.51494    -233.9968   -4343.6761 
44407000    32.144991   -4683.9745   -4628.8791   -4683.9745            0    2341.7726    17.957477     23.16173    21.865003    9094.2284    2182.3583     2749.366    2093.5936   -151.76641     26.49467    401.79588   -4318.2898 
44408000    33.649896   -4686.9337   -4629.2589   -4686.9337            0    2143.1234    17.958333    23.209831    21.843078    9104.4107    1925.1979     2618.052    1886.1204   -610.70186    172.28007    202.40641   -4344.6982 
44409000    33.158302   -4683.5632    -4626.731   -4683.5632            0    2560.4965    17.901959    23.174425    21.904204    9087.3442    2367.5262    2963.4955    2350.4678    122.87002   -329.09917   -430.27812   -4287.3895 
44410000    35.761748   -4684.2363   -4622.9419   -4684.2363            0     2497.518    17.846785    23.302304    21.872602    9096.1853    3063.9736    2543.6329    1884.9475    74.627026   -13.858058    104.29687   -4291.6248 
44411000    32.075563   -4686.0289   -4631.0525   -4686.0289            0    2290.1258    17.917803    23.251784    21.845349    9101.2287    2183.5703    2515.8029    2171.0044    132.89799    127.87666    165.92883   -4327.0793 
44412000    32.999905   -4685.1486   -4628.5879   -4685.1486            0    2245.1914    17.831314    23.272453     21.93002     9100.485    2594.4691    2168.4664    1972.6388   -105.20821    -194.7645    118.47794   -4330.6034 
44413000    31.775377   -4680.5179    -4626.056   -4680.5179            0    2426.4853    17.879333    23.277752      21.8795     9106.044    2565.4718     2340.884       2373.1     157.9825    105.04753   -15.275931   -4303.8131 
44414000    33.602508     -4686.53   -4628.9364     -4686.53            0     2280.005    17.834741    23.439345    21.762127    9097.3233     2652.847    1622.9225    2564.2456   -222.14008    25.701194    288.15017   -4326.4365 
44415000    32.522838   -4682.6044   -4626.8614   -4682.6044            0    2317.8037    17.830478     23.30498    21.862597    9084.7602    2501.4585    2231.2095     2220.743   -558.69206    41.047362    241.43536   -4319.7711 
44416000    32.855969   -4682.3605   -4626.0464   -4682.3605            0    2129.2782    17.854617    23.282513    21.922035    9112.9975    2194.0257    2008.0845    2185.7244    286.67962    340.76503   -218.46777   -4343.0575 
44417000     32.56324   -4686.6302   -4630.8179   -4686.6302            0    2015.8927    17.955003    23.265161    21.803304    9107.8077      1790.02    1683.8628    2573.7954   -418.02144    5.4625191    217.85926   -4363.0509 
44418000    34.545738   -4681.1074   -4621.8972   -4681.1074            0    2013.6967    17.825052    23.269803    21.967549    9111.8198    2209.9784    2298.3625    1532.7491    598.94144     58.05008    228.44557    -4354.304 
44419000    33.432225   -4680.6559   -4623.3542   -4680.6559            0    1692.4079    17.984855     23.22815    21.854987    9130.0281    1617.6018    1315.1557    2144.4661   -61.719074     53.37263   -133.41707   -4398.0066 
44420000    31.857665   -4681.8454   -4627.2424   -4681.8454            0    2092.7579    17.902426    23.237699    21.905234    9112.8223    1982.5506    2358.2941     1937.429   -607.34552   -209.43293    137.52248   -4349.1125 
44421000    30.559256    -4679.352   -4626.9745    -4679.352            0    2253.3486    17.790691    23.389737    21.858052    9095.5636    2308.8761    2163.3177    2287.8521    60.721783   -189.13746    159.78607    -4328.069 
44422000    32.992314   -4684.1319   -4627.5842   -4684.1319            0     2173.213    17.952169     23.14817    21.911297    9105.4558    1835.2895      2553.76    2130.5894    36.851978    50.961607   -171.21146   -4338.9951 
44423000     31.78472    -4683.526   -4629.0481    -4683.526            0    1909.6127     17.99135    23.173042    21.873739    9119.4745    1769.0306    2249.7576    1710.0498   -352.21233    382.19648    180.04016   -4375.0731 
44424000    30.439483   -4682.7451   -4630.5729   -4682.7451            0    1819.1953     17.94798    23.282939    21.842347    9127.5178    1973.5914    1892.0899    1591.9044    411.30869   -32.861293   -301.67819   -4388.4098 
44425000    32.312818    -4680.189   -4624.8059    -4680.189            0    2049.9277    17.819034    23.273185    21.958942    9106.4978    2529.7109    2054.4458    1565.6263   -202.47353    46.888831     145.3061   -4352.5572 
44426000     32.21502   -4684.9111   -4629.6956   -4684.9111            0    1686.9546     17.88716    23.311497    21.897453    9130.7227     1869.875     1477.591    1713.3977   -262.85922    226.91507    119.55035    -4405.057 
44427000    33.627194   -4682.0535   -4624.4176   -4682.0535            0    2002.2152    17.865411    23.208079     21.98818    9116.7801    2256.5857    2191.5918     1558.468   -51.978639   -101.16286    307.95919   -4358.2053 
44428000    32.630128   -4680.3859    -4624.459   -4680.3859            0    2298.1755    17.872476    23.296265    21.853939    9099.1481    2446.4231    2313.3656    2134.7379   -94.558358    28.927161    182.52762   -4319.4871 
44429000    31.736011   -4682.5876   -4628.1932   -4682.5876            0    2007.8988    17.896571    23.291056    21.868195    9115.3204    2172.5955    1881.2817    1969.8191   -112.61721    40.621835    37.782907   -4361.2679 
44430000    32.769435   -4686.1732   -4630.0075   -4686.1732            0    1834.4438     17.91874    23.348976    21.801805    9121.5314    1919.9747    1193.4785    2389.8783   -95.143244    122.94558     204.3269   -4385.9748 
44431000     34.68398   -4686.1965   -4626.7493   -4686.1965            0    2013.6193     17.88019    23.359987    21.812946    9110.8535    1711.6923    1938.4744    2390.6913   -589.44868   -246.80352   -52.282704   -4359.1948 
44432000    33.140573    -4679.987   -4623.1852    -4679.987            0    2097.4131    17.912591     23.29447    21.827206    9107.7142    2401.4312    1630.6288    2260.1794   -343.53557   -100.73588    138.53981   -4344.5928 
44433000    30.633586   -4682.3759    -4629.871   -4682.3759            0    1936.4214    17.903053    23.177298    21.973845    9117.9238    1324.2577    2720.3639    1764.6426    279.61097     -48.7746   -68.417382   -4372.3743 
44434000    32.071979   -4684.9078   -4629.9375   -4684.9078            0    1999.9892    17.822334    23.313496    21.920371    9107.9342    2448.9871    1739.9324    1811.0481    33.226189   -274.72507   -61.456121   -4364.2792 
44435000    32.933938   -4680.8308   -4624.3831   -4680.8308            0    2044.8961     17.91278    23.219464    21.897683    9107.7972    1785.6777    2291.6681    2057.3426    8.7736083   -48.099262    149.85582   -4352.7639 
44436000    34.492602    -4684.355   -4625.2359    -4684.355            0    2131.8465     17.92461    23.239355    21.868337    9109.3954    1979.2609     2088.203    2328.0755    80.296223    72.814646    193.55226   -4342.0175 
44437000    31.560236   -4682.8401   -4628.7469   -4682.8401            0    2296.1052    17.880628    23.334704    21.779975    9087.4587     2538.961    2191.5558     2157.799   -29.263745    -78.00947    171.22221   -4324.4412 
44438000    32.954795   -4679.0284    -4622.545   -4679.0284            0    2304.9354    17.900148    23.220331    21.888972    9098.0932    2745.1672    2338.3547    1831.2843    49.578709    143.40074    176.85606   -4316.7115 
44439000    31.411791   -4683.6304   -4629.7916   -4683.6304            0    2224.0134    17.852507    23.413823    21.771944    9100.5734    2133.8553    1974.8295    2563.3556    498.20546   -197.62328    189.89564    -4334.615 
44440000    34.090552   -4680.3067   -4621.8767   -4680.3067            0     2346.621    17.878035    23.313826    21.832774     9100.018    2228.8534     2129.988    2681.0217   -288.48874    -287.0675    77.011984   -4310.4462 
44441000    33.162258   -4683.4446   -4626.6057   -4683.4446            0     2039.098    17.785006    23.310706     21.97227    9109.2867    2534.0376    2076.8747    1506.3816    95.619538    156.24014   -331.72541   -4355.7123 
44442000    33.468413   -4683.1797    -4625.816   -4683.1797            0     2128.226    17.911171    23.196054    21.929357    9110.9565     2146.373    2080.4711    2157.8339   -169.37386    364.44038     178.0638   -4343.0302 
44443000    32.552163   -4682.1458   -4626.3525   -4682.1458            0    2445.6926    17.898042    23.269595     21.85098    9100.5002    2464.5698    2292.8282    2579.6798    123.21382   -376.37126    279.26681   -4301.7566 
44444000    33.541198   -4679.9208   -4622.4323   -4679.9208            0    2114.5335    17.903809    23.270178    21.861484    9108.0366    2104.9574    1808.0371    2430.6059    220.39009    127.27833    -129.1348    -4341.556 
44445000     33.28139   -4685.2759   -4628.2328   -4685.2759            0    2029.3179    17.955811    23.254868     21.82796    9114.4836    1385.2845    2286.5931    2416.0761   -389.42113    22.524678    114.66391   -4358.4849 
44446000    32.653102   -4683.2685   -4627.3022   -4683.2685            0    2078.3764     17.97556    23.218249    21.838735    9114.6367    1923.3734    1853.9368     2457.819    23.027913    72.282795    278.98726   -4351.0286 
44447000    31.974587   -4681.8101   -4627.0067   -4681.8101            0    2014.4509    17.900178    23.269674    21.881987    9114.5328    1391.9035    2029.3184    2622.1309    230.54218   -42.815244   -174.08069   -4359.2336 
44448000    32.612177   -4681.9188   -4626.0227   -4681.9188            0     2166.727    17.921704    23.200011    21.908672    9109.2693     2167.103    2131.3009    2201.7772    4.8767817    4.8840023    51.281525   -4338.1744 
44449000    33.567236   -4682.4906   -4624.9575   -4682.4906            0    2148.3922    17.899347    23.190058    21.945548    9109.3092    2150.9987     1813.543    2480.6349    346.26264   -22.338118    23.253822   -4339.5438 
44450000    31.752542   -4682.6478   -4628.2251   -4682.6478            0    2110.4811    17.905351    23.207897    21.905942    9102.9166    1811.5069    1975.7049    2544.2315    151.12802    248.84632   -183.75586   -4348.0446 
44451000    31.685337   -4681.8118   -4627.5042   -4681.8118            0    2258.7118    17.890439    23.201713     21.94246    9108.0701    2100.6864    2309.0939     2366.355    91.657892    119.15385    410.89582   -4327.4753 
44452000    33.918434   -4683.8481   -4625.7131   -4683.8481            0    2121.0201    17.953618    23.112611    21.945658    9106.4602    2363.2665    2219.8471    1779.9468   -426.56185   -101.59588   -201.51816   -4344.0239 
44453000    31.022125   -4682.7484   -4629.5776   -4682.7484            0    2168.0339    17.852347    23.281921    21.893562    9099.7728    2150.0161    2295.8451    2058.2404    182.16405    85.119279   -115.00216    -4341.856 
44454000    31.723846   -4684.2284   -4629.8548   -4684.2284            0    2108.1718    17.942276    23.279082    21.821884    9114.5584    1733.6387    1851.6734    2739.2033    -440.6159    3.8597854    207.58191   -4349.6229 
44455000    31.471055   -4685.3028   -4631.3625   -4685.3028            0    2246.4902     17.95542    23.191131    21.868697    9106.2673    1694.1825    2550.1234    2495.1647   -233.65755     20.61624    2.5173082   -4333.0161 
44456000    32.592543   -4685.8898   -4630.0273   -4685.8898            0    2024.7871    17.985642     23.25582    21.775416    9108.0218    1685.4926    1517.3998     2871.469    110.04966    -101.6408    22.404638   -4361.0725 
44457000     33.70799   -4685.9625   -4628.1881   -4685.9625            0    2216.6547    17.853927    23.402762    21.781966    9101.1854    1717.2941    2147.3359    2785.3341    242.72374   -149.50923    222.57414   -4333.9683 
44458000    33.687494   -4682.3743   -4624.6351   -4682.3743            0    2465.1109    17.774243     23.39353    21.858329    9088.7429    2841.4341    1643.4122    2910.4863   -152.89571    136.84118    184.91326   -4297.8847 
44459000    33.479635   -4684.8441   -4627.4611   -4684.8441            0    2268.6539    17.857596    23.245411    21.929989    9103.2952    2439.8996    1932.5796    2433.4825    -268.1438   -136.89307    490.54729   -4326.2696 
44460000    33.607908   -4680.8832   -4623.2804   -4680.8832            0    2181.0966    17.872445    23.288779    21.866914     9101.609    1803.0919    2038.1785    2702.0194    135.47253   -163.52228    242.93996   -4333.7668 
44461000    31.341024   -4682.4517   -4628.7342   -4682.4517            0    2095.6624    17.870234    23.322011    21.856665     9109.198     1997.591    1786.3703    2503.0261   -81.795025    -103.4396   -191.80131    -4350.329 
44462000    32.908542    -4682.583   -4626.1789    -4682.583            0    1924.5301    17.839463    23.334673    21.901239    9117.0045     1792.164    1757.9585    2223.4678   -346.14155   -57.849772    49.412416   -4370.2893 
44463000     33.46102   -4681.9573   -4624.6063   -4681.9573            0    1795.1079    17.864149    23.344786    21.855258    9114.4018    2280.8748    1502.0721    1602.3768    118.57513   -69.320664    93.113173    -4385.993 
44464000    32.789393   -4685.1426   -4628.9427   -4685.1426            0    1920.7622    17.949487    23.310909    21.805935    9124.0141    1834.8037    2245.6319     1681.851   -106.51522    17.661632    -305.6515   -4373.3576 
44465000    29.640175   -4685.7455   -4634.9432   -4685.7455            0    1568.3415    17.962204    23.242242    21.878196    9133.7509    1577.0677    1589.7181    1538.2387    172.28605   -99.410737    170.54991   -4426.0301 
44466000    31.859177   -4683.4547   -4628.8492   -4683.4547            0    1936.3396    17.947328    23.266372    21.815651    9109.5438    1755.6455    2021.9461    2031.4273   -78.692724   -121.76078    105.61509      -4371.6 
44467000    31.465671   -4685.8967   -4631.9656   -4685.8967            0    1992.1901    17.947758    23.155113    21.932074    9114.5831    1940.7847    2577.6294    1458.1562   -70.035284    234.93991    84.548585   -4367.1501 
44468000    32.766316   -4682.3076   -4626.1472   -4682.3076            0    2184.7441    17.900139    23.206724    21.915316     9103.701    2564.8423     2465.076    1524.3141   -208.20661   -306.13555    173.11314   -4336.0828 
44469000    34.148415   -4684.1489   -4625.6196   -4684.1489            0    2701.6656    17.864191    23.350553    21.779232    9084.9608    2887.1375    2509.3422    2708.5173    108.50837   -11.140475     22.52021   -4267.6629 
44470000    31.779886   -4684.4249   -4629.9553   -4684.4249            0    2653.1898    17.871131    23.296794    21.821103    9084.9992    2897.6518    2324.7082    2737.2096    221.81117    190.16712    228.87846   -4278.4198 
44471000    33.390242     -4684.38   -4627.1503     -4684.38            0     2185.259    17.905859    23.265954    21.858563    9106.2094    1904.7823    2677.5549    1973.4398   -290.34553   -104.34295    217.47873   -4336.9376 
44472000    32.741622   -4685.3804   -4629.2623   -4685.3804            0    1984.0051    17.888624    23.264188    21.894467    9111.6956    1941.7872     1678.277    2331.9513    135.39435    352.23161   -42.361425   -4365.6183 
44473000    31.451515   -4682.9929   -4629.0861   -4682.9929            0    2164.8811    17.803852    23.269165     21.97731    9104.7766    2333.6795    1959.5022    2201.4616    -198.0431   -141.65892    45.149844   -4341.6249 
44474000    31.861857   -4681.4343   -4626.8242   -4681.4343            0    2354.2353    17.876234    23.208269    21.929704     9098.118    2292.0498    2605.8243    2164.8318    158.76224    112.36433    30.306228   -4314.4484 
44475000    32.080025   -4683.6245   -4628.6405   -4683.6245            0     2173.763    17.829489    23.267389     21.94962    9105.7041    2807.0066    1750.9565    1963.3258   -93.394392   -81.259159    148.91286   -4339.9705 
44476000    32.518841     -4683.64   -4627.9038     -4683.64            0    1479.9554     17.90337    23.262969    21.944006     9139.361    1447.3246    1322.4926    1670.0488    -8.449379   -94.670619    298.06978   -4430.6432 
44477000    34.300222   -4679.1976   -4620.4082   -4679.1976            0    2103.8956    17.940714    23.244852    21.857871    9115.3714    2019.7782    2298.3219    1993.5866   -512.67483   -60.398831    159.42092   -4340.7198 
44478000    33.797267   -4682.5039   -4624.5766   -4682.5039            0    2160.1929    17.945498    23.219948    21.856385    9107.4141    1978.3164    2618.6728    1883.5897   -66.412295   -119.14676    172.34616   -4337.6548 
44479000    32.725459   -4681.8507   -4625.7603   -4681.8507            0    2108.8103    17.869819    23.320065    21.858996    9109.1973    2136.2376    1798.7579    2391.4355   -776.48936     45.73212    56.501424   -4345.6085 
44480000    34.825131   -4683.0886   -4623.3995   -4683.0886            0    2413.4813    17.898502    23.309036    21.812298    9100.0214    2212.4986    1942.1138    3085.8316    184.45398   -239.31007    320.77394   -4303.0956 
44481000    33.361848   -4682.3051   -4625.1241   -4682.3051            0     2239.551    17.967743    23.182685    21.863058    9106.8498     2023.019    2281.2772    2414.3567    223.09172    180.04138    4.3721682   -4327.6802 
44482000    33.141206   -4683.3962   -4626.5933   -4683.3962            0    2164.4838    17.852109    23.259743    21.916814    9100.6382    2488.8301    1934.2104    2070.4108   -117.85172   -29.258648    53.367465   -4339.3155 
44483000    31.365841   -4684.4538   -4630.6938   -4684.4538            0    2078.4484     17.88955    23.311207    21.863648    9117.7316    1961.6577     1796.621    2477.0665    330.62985    158.05165    92.681577   -4354.3168 
44484000    33.293504   -4682.3209   -4625.2569   -4682.3209            0    1802.1469    17.827502    23.294774    21.961829    9120.4758    1881.9442    1239.7722    2284.7243   -404.44516    120.18114   -276.90541   -4385.5484 
44485000    33.372254   -4688.1752   -4630.9763   -4688.1752            0    2061.6662    17.907479     23.21208     21.91716    9110.3028    2014.3412    2182.0854     1988.572   -252.61973    47.804203   -209.95307   -4357.0542 
44486000    33.108021   -4685.9305   -4629.1845   -4685.9305            0    1831.7533    17.952602    23.215731    21.888513    9122.7552    1425.3873    2200.0543    1869.8185   -381.44203   -64.958966    59.900254    -4385.477 
44487000    32.773462   -4685.0481   -4628.8755   -4685.0481            0     2011.661    17.904963    23.341981     21.82699    9122.3132     1838.263    2271.1471     1925.573   -156.35854   -37.753943    41.862478    -4361.245 
44488000    35.050102   -4686.4064   -4626.3317   -4686.4064            0    2290.7621      17.9661    23.192339    21.843495    9101.6573    2100.6413    2355.1617    2416.4833    64.836467   -38.153936   -421.05303   -4322.2598 
44489000    31.232145   -4680.8112   -4627.2803   -4680.8112            0    2477.7628    17.939132    23.349436    21.722195    9098.7458    2363.5331    1976.4723    3093.2831   -36.252676      217.035    -142.8791   -4298.4914 
44490000    31.683535    -4681.043   -4626.7385    -4681.043            0    2249.6573    17.938601    23.248249    21.827225    9102.8492    1976.3079    2118.3489    2654.3152   -250.05016    183.77794    175.33208   -4328.0836 
44491000    30.665407   -4683.2058   -4630.6463   -4683.2058            0    2112.9911    17.947491    23.198646    21.888525    9113.4519    1847.0238    2264.4263    2227.5232    15.426577   -14.507418    113.82837   -4349.8079 
44492000    33.996581   -4685.9222   -4627.6532   -4685.9222            0    1983.4872    17.862842    23.378692     21.82964    9116.2733    1870.2056    1397.1779    2683.0783   -413.65081    59.922799   -148.37849   -4363.9457 
44493000    33.378145   -4681.8218   -4624.6128   -4681.8218            0    1852.0183    17.847924    23.301197    21.946809    9127.1949    2188.3355    1299.8893      2067.83   -701.45375    9.8826053     37.24532   -4378.0892 
44494000    33.214979   -4682.6233    -4625.694   -4682.6233            0    1978.7842    17.910553    23.263015    21.884543    9118.2708    1782.1075    1914.7729    2239.4721   -560.02077   -46.321706    46.986433    -4362.554 
44495000    34.550777   -4683.1629    -4623.944   -4683.1629            0    1966.7495    17.842796    23.301381    21.931624     9118.331    2000.6902    1821.8998    2077.6585   -294.37403    81.640732     260.1824   -4362.4027 
44496000    31.969515    -4681.935   -4627.1403    -4681.935            0    2357.2805    17.870464    23.319542    21.818204    9092.3222    1902.5422    2210.1473    2959.1521   -179.20681   -193.54242   -189.68827   -4314.5598 
44497000    31.992169   -4683.0431   -4628.2096   -4683.0431            0    1872.8248    17.847099    23.261717    21.950712    9112.9292    1825.0261    1856.3974    1937.0509    50.025946   -2.6485596    178.99714   -4379.3061 
44498000    34.276246   -4682.1605   -4623.4122   -4682.1605            0    2024.1097    17.978368    23.123999    21.911926    9109.4835    1893.7294    2331.4432    1847.1564    477.58916    243.21814    192.57428   -4354.5043 
44499000    31.151786   -4684.3397   -4630.9466   -4684.3397            0     2146.948    17.941541    23.261154    21.831803    9111.3054    1784.9271    2407.6088    2248.3082    96.643512     -314.254   -68.528042   -4345.6622 
44500000    33.137521   -4678.2181   -4621.4215   -4678.2181            0    2402.8067    17.781708    23.333319    21.924729    9096.7073    2920.9267    2123.8882    2163.6051    152.55955   -14.114279    -47.25729   -4302.6504 
Loop time of 380.137 on 64 procs for 250000 steps with 864 atoms

Performance: 113.643 ns/day, 0.211 hours/ns, 657.658 timesteps/s
193.8% CPU use with 32 MPI tasks x 2 OpenMP threads

MPI task timing breakdown:
Section |  min time  |  avg time  |  max time  |%varavg| %total
---------------------------------------------------------------
Pair    | 17.253     | 25.176     | 34.982     | 111.1 |  6.62
Bond    | 1.039      | 1.2435     | 2.0759     |  20.8 |  0.33
Kspace  | 184.8      | 197.99     | 209.06     |  45.3 | 52.08
Neigh   | 0.09569    | 0.10366    | 0.11202    |   1.8 |  0.03
Comm    | 55.656     | 60.678     | 66.278     |  36.5 | 15.96
Output  | 0.51674    | 0.51704    | 0.51864    |   0.0 |  0.14
Modify  | 69.368     | 71.806     | 79.559     |  23.4 | 18.89
Other   |            | 22.62      |            |       |  5.95

Nlocal:        27.0000 ave          39 max          18 min
Histogram: 8 3 5 0 2 4 2 1 3 4
Nghost:        2162.84 ave        2274 max        2056 min
Histogram: 8 7 1 0 0 0 0 3 7 6
Neighs:        6679.03 ave        9363 max        4544 min
Histogram: 7 3 6 0 2 4 2 1 1 6

Total # of neighbors = 213729
Ave neighs/atom = 247.37153
Ave special neighs/atom = 2.0000000
Neighbor list builds = 250
Dangerous builds = 0

unfix		3
unfix		2
unfix		1

write_data	data.final.${pid} nocoeff
write_data	data.final.0 nocoeff
System init for write_data ...
PPPM initialization ...
  extracting TIP4P info from pair style
  using 12-bit tables for long-range coulomb (../kspace.cpp:340)
  G vector (1/distance) = 0.37213205
  grid = 24 27 25
  stencil order = 5
  estimated absolute RMS force accuracy = 0.0031164085
  estimated relative force accuracy = 9.3849717e-06
  using double precision FFTW3
  3d grid and FFT values/proc = 4410 672
Last active /omp style is kspace_style pppm/tip4p/omp

write_restart   restart.lmp.${pid}
write_restart   restart.lmp.0
System init for write_restart ...
PPPM initialization ...
  extracting TIP4P info from pair style
  using 12-bit tables for long-range coulomb (../kspace.cpp:340)
  G vector (1/distance) = 0.37213205
  grid = 24 27 25
  stencil order = 5
  estimated absolute RMS force accuracy = 0.0031164085
  estimated relative force accuracy = 9.3849717e-06
  using double precision FFTW3
  3d grid and FFT values/proc = 4410 672
Last active /omp style is kspace_style pppm/tip4p/omp
Total wall time: 0:06:20
