LAMMPS data file via write_data, version 30 Jul 2021, timestep = 250000

1944 atoms
2 atom types
1296 bonds
1 bond types
648 angles
1 angle types

-0.6679217495943419 47.5634107495911 xlo xhi
0 21.555052 ylo yhi
0 16.396608 zlo zhi
-9.229517 -18.456907 7.562099 xy xz yz

Masses

1 1.008
2 15.999

Pair Coeffs # lj/cut/tip4p/long/omp

1 0 0
2 0.21084 3.1668

Bond Coeffs # harmonic/omp

1 450 0.9572

Angle Coeffs # harmonic/omp

1 55 104.52

Atoms # full

17 0 1 0.5897 2.9648189270067005 1.3836417939648031 2.2916348954851555 0 0 0
881 0 1 0.5897 -3.041095060126457 3.6398323074246037 7.651920704004495 0 0 0
42 0 1 0.5897 7.821556365178372 4.453204999707272 0.933778586745484 0 0 0
41 0 1 0.5897 7.645719740331632 3.71921152019285 2.2461183646896896 0 0 0
871 0 2 -1.1794 -0.5232134357787714 4.797134169266849 5.75688232725553 0 0 0
429 0 1 0.5897 -6.975694551470887 4.881258330738097 4.795934075702243 1 0 0
870 0 1 0.5897 -6.477693363431143 7.354185817839156 6.872199772768786 0 0 0
219 0 1 0.5897 -4.821483590710166 4.201207696159583 4.464716347416872 0 0 0
878 0 1 0.5897 -9.370908545779661 7.933998355399527 7.916951601628242 0 0 0
915 0 1 0.5897 -1.3075218466527936 7.716400192217364 6.405212250619766 0 0 0
872 0 1 0.5897 -0.7140745722634767 3.861014181689313 5.815871610380311 0 0 0
14 0 1 0.5897 -2.966674757302988 5.631712066377856 2.4843203049681675 0 0 0
5 0 1 0.5897 -0.6985603146315258 3.952541422894138 2.0098284352428344 0 0 0
254 0 1 0.5897 3.8938527373987553 3.8989431686099643 5.027290381657919 0 0 0
893 0 1 0.5897 -3.0031130163955213 6.026931431827229 6.974048792297591 0 0 0
906 0 1 0.5897 1.0769208182960375 7.04469978593374 6.492701670384065 0 0 0
904 0 2 -1.1794 1.5838969082083256 6.527427617575695 7.118496884140391 0 0 0
868 0 2 -1.1794 -5.977922581814829 6.898639179950686 7.5496364717975215 0 0 0
4 0 2 -1.1794 0.0012340830702766148 4.349147844889419 1.4909700157359718 0 0 0
869 0 1 0.5897 -6.624380515946038 6.35530743190264 8.0003056826231 0 0 0
913 0 2 -1.1794 -2.034550055117366 7.621388060943065 7.020541190464421 0 0 0
28 0 2 -1.1794 2.501252495434634 3.040389322903049 1.4011712921995108 0 0 0
30 0 1 0.5897 1.5916413007510428 3.332324800064055 1.4610675628014007 0 0 0
238 0 2 -1.1794 -2.248999636710255 6.178133216772077 4.05812898736862 0 0 0
427 0 2 -1.1794 -6.421677751624866 4.998935247213879 4.0242786099090875 0 0 0
240 0 1 0.5897 -1.6619317189164233 5.794903004284265 4.709814545139166 0 0 0
892 0 2 -1.1794 -3.65905984135585 5.329855903234947 6.979258990244098 0 0 0
894 0 1 0.5897 -4.4681353959704655 5.763705809276621 7.250166228208437 0 0 0
187 0 2 -1.1794 -1.4260399968693895 1.739478523764419 0.4756515699393569 1 0 0
263 0 1 0.5897 2.474117302600522 6.51725362234732 4.006247340489576 0 0 0
218 0 1 0.5897 -3.8046163147991474 4.375463454222864 5.5726094390556495 0 0 0
189 0 1 0.5897 -1.1836886079349356 2.018844108185842 1.3585113239752047 0 0 0
29 0 1 0.5897 3.0162133349619866 3.805652115435072 1.6569039143403672 0 0 0
9 0 1 0.5897 5.777496094287538 2.409885965947511 1.219085512316648 0 0 0
6 0 1 0.5897 -0.45435735176880454 4.903782496044183 0.8576973565731094 0 0 0
13 0 2 -1.1794 -3.4561321018593274 5.376673406042712 1.702276080562621 0 0 0
15 0 1 0.5897 -2.8367260675107255 5.4952091855770835 0.9821942425053424 0 0 0
34 0 2 -1.1794 -1.702453286042903 2.846517355432185 3.0699367479770214 0 0 0
36 0 1 0.5897 -2.4545813667006042 3.224850292748625 3.525342190307229 0 0 0
217 0 2 -1.1794 -4.036598477727679 3.803209189992862 4.841219646573157 0 0 0
50 0 1 0.5897 4.6998888027596495 5.472566675490716 2.235862885927789 0 0 0
49 0 2 -1.1794 4.090610445784863 5.442748536311904 1.4982372492586677 0 0 0
877 0 2 -1.1794 -9.83051200534269 7.71245859102756 7.107079145399949 0 0 0
70 0 2 -1.1794 6.130914002755145 2.8172598621354252 2.984072643937253 0 0 0
247 0 2 -1.1794 1.4037865949417547 5.1816105307791345 3.803330811343082 0 0 0
72 0 1 0.5897 5.258090791561406 3.144199318699773 3.2020266952896566 0 0 0
35 0 1 0.5897 -1.717751915397046 1.9200207735297958 3.3099404473667042 0 1 0
248 0 1 0.5897 0.8255259420910068 5.0479161965599255 4.5543130254347535 0 0 0
249 0 1 0.5897 0.8579433772948049 4.984754259121307 3.0420771971404634 0 0 0
873 0 1 0.5897 -0.1759125341533183 5.026031725283384 6.618974572872743 0 0 0
253 0 2 -1.1794 3.6107471671005147 3.467939203637905 4.2208752818689135 0 0 0
255 0 1 0.5897 2.7756693328571567 3.883935937422542 4.006875846773406 0 0 0
914 0 1 0.5897 -1.645682837277623 7.788248514164449 7.879117686227994 0 0 0
905 0 1 0.5897 0.985871548300663 6.384767369015868 7.852149261404677 0 0 0
71 0 1 0.5897 6.170875057603449 1.9510663399039243 3.389466028540305 0 0 0
51 0 1 0.5897 4.649542973325507 5.327403868346874 0.7297796365042551 0 0 0
227 0 1 0.5897 -5.149552286238237 6.5202684620714955 4.427369394208638 0 0 0
228 0 1 0.5897 -3.7983440713604484 6.995450334518189 3.937190605452921 0 0 0
1051 0 2 -1.1794 -8.147510327364113 4.488040946563876 6.250978787881916 0 0 0
239 0 1 0.5897 -1.695252358328999 6.779859762129309 3.560621683146644 0 0 0
1053 0 1 0.5897 -7.917735471694917 4.823060274085576 7.117689131078701 0 0 0
879 0 1 0.5897 -9.209289319502865 7.928729406524107 6.411709092241193 0 0 0
264 0 1 0.5897 3.9318693685612036 6.852495503021141 3.7730322779741026 0 0 0
7 0 2 -1.1794 5.783291614898342 2.140854060930731 0.30048823861082913 0 0 0
8 0 1 0.5897 5.37600572702113 1.2746343268331526 0.30154676824673077 0 0 0
1770 0 1 0.5897 -4.927849509771409 9.813877447554901 12.160662444075045 0 0 0
1799 0 1 0.5897 -6.2336445435695556 6.657548936107652 14.006211877582604 0 0 0
1333 0 2 -1.1794 -8.164065695739293 8.585367662492892 15.74678774353677 0 0 0
1779 0 1 0.5897 -7.1336424011960755 10.275868696789363 11.60603302522663 0 0 0
1127 0 1 0.5897 -3.23432143461336 9.332452666119384 9.91836497492536 0 0 0
1081 0 2 -1.1794 -10.02800979664945 6.114257075628874 10.472138863496834 0 0 0
1082 0 1 0.5897 -9.921349938802653 6.68669083602139 11.231856864486288 0 0 0
1083 0 1 0.5897 -10.840256642696641 6.409958016212462 10.061024664418605 0 0 0
1741 0 2 -1.1794 -15.691209308181712 10.308411861367425 12.719771742348984 0 0 0
1743 0 1 0.5897 -15.055409047954738 10.233813029457075 12.008135322568073 0 0 0
1742 0 1 0.5897 -15.16731108814854 10.541334394536666 13.486245854898467 0 0 0
1102 0 2 -1.1794 -8.086111205736241 8.54646229265007 9.095211611797575 0 0 0
1917 0 1 0.5897 -14.666636905228092 7.526668436808034 12.019326304771281 0 0 0
1104 0 1 0.5897 -7.6708188775978945 7.946563815632684 9.714787414284437 0 0 0
1111 0 2 -1.1794 -4.406209069643206 7.871801730108759 9.765113602854312 0 0 0
1112 0 1 0.5897 -4.913306229771795 7.372095569150577 10.404938141466566 0 0 0
1798 0 2 -1.1794 -6.463231917072283 7.541396840785087 13.719273643702074 0 0 0
1117 0 2 -1.1794 -2.414384467618529 6.1686778112553355 10.45194529487175 0 0 0
1119 0 1 0.5897 -3.1761252506094984 6.67525386409941 10.170270174895691 0 0 0
1091 0 1 0.5897 -11.184905459335333 8.864250357909198 9.30792170285856 0 0 0
1307 0 1 0.5897 -17.29655066886339 11.760254989865226 15.128654252383958 0 0 0
1113 0 1 0.5897 -4.848961999401502 7.713349108455259 8.931403617148199 0 0 0
1297 0 2 -1.1794 -16.127911398407413 9.06291551644551 15.458685780488889 0 0 0
1769 0 1 0.5897 -5.064802963529846 8.699394800087969 13.176078242011354 0 0 0
1299 0 1 0.5897 -16.751061466149586 9.600389118836892 14.969791558964431 0 0 0
900 0 1 0.5897 -8.733416872527604 5.488865107339215 9.370773582539865 0 0 0
1745 0 1 0.5897 -9.12359315730927 6.28321887143639 13.156529420402391 0 0 0
1777 0 2 -1.1794 -7.826511898537765 10.124973520210471 12.248987348856254 0 0 0
1318 0 2 -1.1794 -14.316261684592408 11.482652861644226 14.833243280160177 0 0 0
1800 0 1 0.5897 -6.889745532388936 7.9372484313545915 14.4792914567142 0 0 0
1320 0 1 0.5897 -13.92280727411598 10.76288778346151 15.32655380988226 0 0 0
1327 0 2 -1.1794 -10.484960752162321 10.058814236562016 15.218586064746962 0 0 0
1328 0 1 0.5897 -11.162271926112165 10.106481699166803 15.893278180186083 0 0 0
1329 0 1 0.5897 -10.966638122254992 9.908845373019858 14.405134095751766 0 0 0
936 0 1 0.5897 -1.1571575144372996 5.511876742388244 9.19588988242237 0 0 0
1778 0 1 0.5897 -7.461820529679779 10.444490408676309 13.074289165972935 0 0 0
1335 0 1 0.5897 -9.026474392778438 8.930935211847308 15.516492490371709 0 0 0
1343 0 1 0.5897 -9.34302185138324 11.642927406707535 14.98222188359156 0 0 0
1763 0 1 0.5897 -14.202724468569993 6.929414317425282 14.032321227887284 0 0 0
1732 0 2 -1.1794 -11.941585108464569 9.373293241823273 12.881406503225849 0 0 0
1733 0 1 0.5897 -12.737150525450287 8.940861775560087 13.19171084893111 0 0 0
1734 0 1 0.5897 -12.198677609350506 9.78582981508853 12.056821310949847 0 0 0
1735 0 2 -1.1794 -6.676801948974804 7.161741386411355 11.165900228735195 0 0 0
1736 0 1 0.5897 -6.815817470738651 6.2263891376397895 11.314293593406193 0 0 0
1737 0 1 0.5897 -6.74379692017666 7.555309813658363 12.035871409911982 0 0 0
934 0 2 -1.1794 -0.5186357727939566 5.104440089394773 8.610638751325666 0 0 0
935 0 1 0.5897 -0.3955295402691785 4.223974344664628 8.965401212847095 0 0 0
1103 0 1 0.5897 -7.376630004905558 9.118641785316964 8.802875856328642 0 0 0
898 0 2 -1.1794 -7.978927905941362 5.131315686791514 8.902657962370025 0 0 0
1756 0 2 -1.1794 -9.603680904482305 8.006370947683155 12.549704595622861 0 0 0
1757 0 1 0.5897 -9.010718864144415 8.740371171526963 12.71047494316405 0 0 0
1758 0 1 0.5897 -10.478207703901461 8.36903991567072 12.69072106701393 0 0 0
1762 0 2 -1.1794 -14.350525734495873 7.809622450873828 13.686460114960676 0 0 0
1298 0 1 0.5897 -15.967546300728213 9.554296067806455 16.264324177350257 0 0 0
1764 0 1 0.5897 -15.024629285795328 8.181025059004778 14.255562019087492 0 0 0
1344 0 1 0.5897 -7.9087310035563 12.122591507390055 14.91484648273061 0 0 0
1291 0 2 -1.1794 -12.544951253527922 7.391393263913246 9.693469439547641 0 0 0
1118 0 1 0.5897 -2.017492138592708 6.697088781396454 11.144383744061408 0 0 0
1128 0 1 0.5897 -1.8278059652258776 9.704905435110945 9.500245680745575 0 0 0
1092 0 1 0.5897 -9.724851390033852 9.264294816497774 9.304890634282877 0 0 0
1090 0 2 -1.1794 -10.60948187845219 9.62874121701679 9.333461560832195 0 0 0
1319 0 1 0.5897 -13.597420395207298 11.83524858673535 14.308681593086847 0 0 0
1334 0 1 0.5897 -7.816586964647895 9.211296178339417 16.382151921429582 0 0 0
470 0 1 0.5897 0.6743936422032153 11.126288572401979 5.223569223998868 0 0 0
1096 0 2 -1.1794 -6.0099439129966115 10.122630935982475 8.054419427350318 0 0 0
1108 0 2 -1.1794 -6.628892642720819 12.599835918711655 6.816311788849814 0 0 0
1084 0 2 -1.1794 -9.13572100560788 13.757537693905267 7.306426743448505 0 0 0
221 0 1 0.5897 -3.8328514877732762 10.963587737752045 2.2333416699316944 0 0 0
884 0 1 0.5897 -3.4592625546801576 8.698882305330216 6.354717316964524 0 0 0
225 0 1 0.5897 2.34080493947665 9.94485413313644 1.0951815792086512 0 0 0
232 0 2 -1.1794 -0.35737263217681114 7.603806785580811 2.6412373900996244 0 0 0
233 0 1 0.5897 -0.6124852691563114 8.43378616079536 2.2383958852371597 0 0 0
883 0 2 -1.1794 -4.187096198160232 9.204193838906619 5.992603134861003 0 0 0
243 0 1 0.5897 -7.455908839811555 9.11726050749741 5.396365127375186 0 0 0
244 0 2 -1.1794 -0.7685813372406907 9.971689760396604 1.416761296333266 0 0 0
1097 0 1 0.5897 -6.298660251586293 10.971583213794899 7.719528236659479 0 0 0
246 0 1 0.5897 -1.463478063834729 10.629504241404891 1.441661102666281 0 0 0
250 0 2 -1.1794 -5.000549630145567 9.704477099162316 2.8386515369037304 0 0 0
251 0 1 0.5897 -5.023670791251497 8.793944608285747 3.1329774557359196 0 0 0
252 0 1 0.5897 -5.695925180400228 10.13514309104479 3.335854175639197 0 0 0
19 0 2 -1.1794 1.963502440338297 6.924204275550604 0.8078020325183831 0 0 0
1098 0 1 0.5897 -5.244225042407535 9.903088631825183 7.523663487900959 0 0 0
256 0 2 -1.1794 4.713049434907731 11.04934354814315 1.7354178796215631 0 0 0
278 0 1 0.5897 0.02346368577530722 7.545093191470935 4.4794550918495 0 0 0
20 0 1 0.5897 2.6943562010370607 6.558869889925405 1.306386782041901 0 0 0
279 0 1 0.5897 0.019352070998746917 8.86224130615523 5.22577917695792 0 0 0
286 0 2 -1.1794 2.601545300952243 9.709007684683057 3.1029938466725615 0 0 0
287 0 1 0.5897 2.713240956016801 8.77111472519579 3.2582794991621187 0 0 0
288 0 1 0.5897 1.8582244743502088 9.956470843912978 3.652961845953304 0 0 0
433 0 2 -1.1794 -6.786281911589509 10.760775601640438 4.794591738154802 0 0 0
434 0 1 0.5897 -6.564953258060797 11.396849075346022 5.474772789351486 0 0 0
435 0 1 0.5897 -7.569556906203207 11.118857850621715 4.376909438693624 0 0 0
1109 0 1 0.5897 -6.092220034726166 13.36816771489876 7.010887493990548 0 0 0
1121 0 1 0.5897 -2.333593073693156 13.203394056177753 7.612779862227104 0 0 0
464 0 1 0.5897 -2.206116601937259 12.26034202771466 4.508067595562923 0 0 0
1110 0 1 0.5897 -7.528420778285309 12.926901585923531 6.825396192477499 0 0 0
469 0 2 -1.1794 0.46035548016063643 10.457928377588292 4.572643025548966 0 0 0
463 0 2 -1.1794 -1.5507874024284067 12.37043361332995 3.81911652408012 0 0 0
471 0 1 0.5897 -0.1449270653057706 10.89293576011277 3.9721347270569227 0 0 0
257 0 1 0.5897 4.012356231600986 10.661570308007319 2.259710204107303 0 0 0
1269 0 1 0.5897 -11.474173592273027 11.717710011326808 6.425062597868308 0 0 0
234 0 1 0.5897 0.5032041680493986 7.410968714199471 2.2691644839713216 0 0 0
245 0 1 0.5897 0.02919466256870229 10.471775059525667 1.2445012238082966 0 0 0
885 0 1 0.5897 -4.624491940293377 8.599338352652378 5.393398821627919 0 0 0
1087 0 2 -1.1794 -3.8439459947262344 11.992350346782075 5.608091219208655 0 0 0
1088 0 1 0.5897 -4.0806490287992805 11.066604220867479 5.664590745924307 0 0 0
1089 0 1 0.5897 -3.9989900240022225 12.333880154990347 6.48874783013341 0 0 0
1120 0 2 -1.1794 -1.6145232783682655 13.63268941975638 7.1492450408404435 0 0 0
262 0 2 -1.1794 3.0780895329974802 7.255883466754511 3.929723956561758 0 0 0
1085 0 1 0.5897 -9.799840335171453 13.277458480814552 7.801089872781853 0 0 0
241 0 2 -1.1794 -7.660719549327457 8.184423051103456 5.46035193468865 0 0 0
131 0 1 0.5897 -4.795950067364831 9.263699094986094 0.8167107587436284 1 0 1
223 0 2 -1.1794 2.24579487482775 9.583543668319985 0.2139007994602421 0 0 1
21 0 1 0.5897 1.7045658692984733 6.221444340876017 0.21173038466495395 0 0 0
242 0 1 0.5897 -7.604344212622854 7.864043785118564 4.560122462576822 0 0 0
643 0 2 -1.1794 -9.072537061865741 12.0860100007129 3.817382137258817 0 0 0
224 0 1 0.5897 2.201649817763471 8.636565671045785 0.3462458115873034 0 0 0
226 0 2 -1.1794 -4.697741678579393 7.2897558616861 4.0809882110000855 0 0 0
644 0 1 0.5897 -9.715944283519985 12.083336572226663 4.5260800493468905 0 0 0
220 0 2 -1.1794 -3.1045566641452575 11.43138752663937 1.8247268527793636 0 0 0
277 0 2 -1.1794 0.15454538871071222 7.922707597683274 5.349197125170064 0 0 0
465 0 1 0.5897 -1.9857889026309885 12.064970488739023 3.023078404899671 0 0 0
1152 0 1 0.5897 -4.27909922824435 12.761475395099687 9.031968704999725 0 0 0
649 0 2 -1.1794 -13.054975709014322 13.502907542385222 10.391753235509407 0 0 0
650 0 1 0.5897 -12.953642422083059 14.14431322210585 11.095002501223256 0 0 0
651 0 1 0.5897 -13.813648880880825 13.809284090208827 9.895015564129 0 0 0
679 0 2 -1.1794 -7.411629797844255 14.848183842388925 9.420341569742607 0 0 0
680 0 1 0.5897 -8.081480216627686 14.864595935319603 10.103907799746104 0 0 0
1545 0 1 0.5897 -14.346300271908976 16.9711418726603 14.009825779888939 0 0 0
685 0 2 -1.1794 -5.503377853438254 13.3220279402787 10.264738331239611 0 0 0
1321 0 2 -1.1794 -20.0828419727202 13.267888635841652 16.080979911631072 0 0 0
687 0 1 0.5897 -6.336372207764396 13.711401070010979 9.99882266280962 0 0 0
1116 0 1 0.5897 -11.948856166936277 12.50141958471119 8.955670624630457 0 0 0
1550 0 1 0.5897 -11.323424739450642 16.363517398887645 16.078243135462937 0 0 0
1107 0 1 0.5897 -13.505883919433959 11.644215158714157 10.84030863452701 0 0 0
1314 0 1 0.5897 -11.522960469471037 12.28746329863418 12.71552920838884 0 0 0
1358 0 1 0.5897 -11.690217060646036 12.617676496293058 15.235090973045494 0 0 0
1336 0 2 -1.1794 -7.299754208273679 16.314523807222727 12.549894155079528 0 0 0
1359 0 1 0.5897 -11.872533571544757 13.86358024474785 16.07555996962816 0 0 0
1337 0 1 0.5897 -7.959436098223812 15.80344622577106 13.018766457360115 0 0 0
1143 0 1 0.5897 -5.673271163645139 11.59883191739684 10.68178911102439 0 0 0
1549 0 2 -1.1794 -11.708834490223738 15.674324551806201 15.53723797636158 0 0 0
1106 0 1 0.5897 -13.646922711956503 10.368243806726028 10.037879448046112 0 0 0
1151 0 1 0.5897 -3.166420525701249 11.734994072349187 9.044257957889261 0 0 0
1749 0 1 0.5897 -10.369730855811685 10.718488614523242 10.72553571162416 0 0 0
1300 0 2 -1.1794 -15.263618789658647 16.30567302610097 12.529165628788972 0 0 0
1303 0 2 -1.1794 -9.716004703828538 14.263219847189191 11.0769126038575 0 0 0
1304 0 1 0.5897 -9.745178831961924 13.306593785486104 11.092637729884283 0 0 0
1305 0 1 0.5897 -9.857087963379977 14.522621630242138 11.987430500908525 0 0 0
1312 0 2 -1.1794 -12.073694455716522 12.683859196928442 13.390658275295056 0 0 0
1313 0 1 0.5897 -12.088454104733565 13.615590447729627 13.171818091162041 0 0 0
1544 0 1 0.5897 -14.750728306372421 17.099486318965468 15.463055695112326 0 0 0
1342 0 2 -1.1794 -8.81326415528975 12.430120173581924 14.856123087140654 0 0 0
1142 0 1 0.5897 -5.590733683626157 10.354368359799578 9.823652323102632 0 0 0
1515 0 1 0.5897 -20.183952015055738 16.35166392925719 15.09705935240806 0 0 0
1324 0 2 -1.1794 -12.669087248691437 15.290236322410086 12.268493941032942 0 0 0
1323 0 1 0.5897 -19.923285274522282 14.205689855035939 16.187274256784296 0 0 0
1326 0 1 0.5897 -13.580443524473694 15.563753535582244 12.372541994291941 0 0 0
1330 0 2 -1.1794 -17.571203670023102 15.002513755195537 13.733127296809384 0 0 0
1331 0 1 0.5897 -17.271480249373205 14.201085181065933 14.162202896527601 0 0 0
1332 0 1 0.5897 -18.346820210948366 15.264591857890508 14.229072069573778 0 0 0
1105 0 2 -1.1794 -13.347804507003382 10.701169115857729 10.883992028157541 0 0 0
1551 0 1 0.5897 -12.516770567368674 16.059319297787557 15.197797526079713 0 0 0
1325 0 1 0.5897 -12.164514252415916 16.09911452991522 12.354142618101083 0 0 0
1747 0 2 -1.1794 -10.1995041855445 11.299198998236594 11.467171024665587 0 0 0
1126 0 2 -1.1794 -2.6618441064005562 10.08601709449118 9.77475104440428 0 0 0
1306 0 2 -1.1794 -16.76564697711802 12.553070017821824 15.052491740819248 0 0 0
1366 0 2 -1.1794 -9.80244235703654 14.900028175041488 13.667436246533798 0 0 0
1367 0 1 0.5897 -9.375969006920853 14.100082665762082 13.974736472896426 0 0 0
1368 0 1 0.5897 -10.450974373906583 15.100669989302329 14.342256654040012 0 0 0
1513 0 2 -1.1794 -19.445734880034244 15.998245220664609 15.593378204048477 0 0 0
1141 0 2 -1.1794 -5.614676254658837 10.644930404405306 10.735373344521827 0 0 0
1115 0 1 0.5897 -11.146904157034852 11.271937856342625 8.585339980724209 0 0 0
1543 0 2 -1.1794 -13.986242456163115 16.996330714123296 14.896357990681908 0 0 0
1322 0 1 0.5897 -20.080679573352946 13.129932317445077 15.133775886442974 0 0 0
1150 0 2 -1.1794 -3.6564445395520044 12.31318417942042 8.459629889207548 0 0 0
1301 0 1 0.5897 -15.965166893310425 15.969215565133402 13.086705243838153 0 0 0
686 0 1 0.5897 -5.17458764600655 13.903636465863325 10.950190577534766 0 0 0
1748 0 1 0.5897 -9.41971004560325 10.93318713407066 11.884493172275025 0 0 0
1357 0 2 -1.1794 -11.701888566273176 12.924049745726709 16.141860815011572 0 0 0
1114 0 2 -1.1794 -11.506794776163519 12.079639421478685 8.21883798536641 0 0 0
681 0 1 0.5897 -7.860063700220457 14.491975859048186 8.653378488141648 0 0 0
672 0 1 0.5897 -10.729165205909649 15.238454161721663 9.803289964001118 0 0 0
1944 0 1 0.5897 -17.61225111014023 15.099993478822269 11.504575245148091 1 0 0
1308 0 1 0.5897 -15.894247913100648 12.23641018768433 14.814574573887437 0 0 0
1514 0 1 0.5897 -19.315471495111453 16.62266835951546 16.30706845292692 0 0 0
222 0 1 0.5897 -3.512623157663273 11.956289292780761 1.1361195665115145 0 0 0
480 0 1 0.5897 1.1428984034594114 14.08257133424409 4.150325680100474 0 0 0
666 0 1 0.5897 -8.450944101138827 16.982373226374232 7.525976661295725 0 0 0
1086 0 1 0.5897 -9.623361795072348 14.448174971162835 6.857598566665649 0 0 0
1131 0 1 0.5897 -4.268613930966179 14.871029212494875 6.30195943430163 0 0 0
440 0 1 0.5897 -1.0767034567361764 15.679198473331905 0.14802036568674326 0 0 0
664 0 2 -1.1794 -9.165876913764354 17.27913511041094 8.089036238436458 0 0 0
1095 0 1 0.5897 -12.05158299397685 14.840631786347723 6.418934270083692 0 0 0
665 0 1 0.5897 -9.44084318433887 18.113190993803734 7.708282730293578 0 0 0
230 0 1 0.5897 -5.976278742743658 12.614338010469092 2.326353768449606 0 0 0
236 0 1 0.5897 -0.2797229758388262 13.947118046608093 1.1234264885871408 0 0 0
468 0 1 0.5897 -8.595927188805241 17.456130841134925 3.4650252507592847 0 0 0
1129 0 2 -1.1794 -4.960745038453362 14.821723003191387 6.961317245767121 0 0 0
466 0 2 -1.1794 -7.9815725228597785 16.936486339549038 2.9465926542847636 0 0 0
458 0 1 0.5897 -10.600756651989041 14.874214948619283 4.419980473136435 0 0 0
267 0 1 0.5897 1.9576648656137756 12.42672140412277 0.9409482582916457 0 0 0
266 0 1 0.5897 1.6648023838116925 12.413182822735799 2.4261943577275797 0 0 0
231 0 1 0.5897 -5.889920988246478 12.531677770925265 0.8171786290804524 0 0 0
258 0 1 0.5897 4.279453615193694 11.73082201044046 1.2218000420886739 0 0 0
442 0 2 -1.1794 -7.6566910574593035 14.52070623929789 4.357726164260263 0 0 0
443 0 1 0.5897 -8.161235973279975 13.734519181136138 4.149026114955353 0 0 0
444 0 1 0.5897 -6.742766040978626 14.245862592973461 4.284186579099154 0 0 0
448 0 2 -1.1794 -3.0777506929765313 15.063753943073 2.7753809160694756 0 0 0
449 0 1 0.5897 -3.115974975484801 15.93488768413924 2.380543214310346 0 0 0
450 0 1 0.5897 -2.528194188997958 14.554256276494083 2.1798672850609395 0 0 0
454 0 2 -1.1794 -5.135734394594777 13.565998887329194 3.718570990940178 0 0 0
455 0 1 0.5897 -4.50075286555875 14.048204227358141 3.188948983560846 0 0 0
457 0 2 -1.1794 -10.633773867334575 15.281966598006273 5.285360104736131 0 0 0
1130 0 1 0.5897 -4.536687495440905 15.093685001813919 7.775210560610066 0 0 0
459 0 1 0.5897 -10.649769721456304 16.22229259355219 5.1071361453409905 0 0 0
265 0 2 -1.1794 1.25100734339267 12.289859789720886 1.5719246561700673 0 0 0
467 0 1 0.5897 -7.901741862609194 16.111359405674804 3.425157669741587 0 0 0
1094 0 1 0.5897 -12.782797128625713 14.772959944804056 7.742813593929741 0 0 0
478 0 2 -1.1794 0.325687713196106 14.563044415688074 4.017960098930581 0 0 0
479 0 1 0.5897 -0.3421922999828535 13.882371208452957 3.935341088257159 0 0 0
1093 0 2 -1.1794 -12.930186333104409 14.81992577011418 6.798198927250181 0 0 0
493 0 2 -1.1794 -2.6395404852227253 15.621472636071559 5.529710336708167 0 0 0
494 0 1 0.5897 -2.704033511178075 15.376140030605667 4.606735728489485 0 0 0
495 0 1 0.5897 -2.4882256847830044 16.566547375152805 5.516812760350482 0 0 0
235 0 2 -1.1794 -1.1850906550111788 14.018868673240569 0.8211809998824668 0 0 0
503 0 1 0.5897 0.02767947343064403 16.249896723542705 3.219282811265161 0 0 0
229 0 2 -1.1794 -6.385458238933122 12.200732642702656 1.5662787069199398 0 0 0
1099 0 2 -1.1794 -7.200522711336526 16.423432397597264 6.396389105833137 0 0 0
656 0 1 0.5897 -6.719396259231485 18.291579966079546 5.272177960155704 0 0 0
1101 0 1 0.5897 -7.514553450201866 15.754037203904412 5.788513665357003 0 0 0
37 0 2 -1.1794 -2.228431016352956 18.279672023277822 4.650772071901577 0 0 0
1100 0 1 0.5897 -6.4566580591306035 16.015281239756597 6.839425763451994 0 0 0
1122 0 1 0.5897 -2.044598262691596 14.255587585301814 6.563366244520977 0 0 0
502 0 2 -1.1794 -0.25143868925972424 17.08982384134009 2.8548041838280485 0 0 0
1 0 2 -1.1794 -10.091007737877025 18.187126311280032 4.6305058963450065 0 0 0
504 0 1 0.5897 -0.8655337427029011 17.43942954605323 3.5004809168930193 0 0 0
718 0 2 -1.1794 -6.690938571063435 19.676240486259147 8.18118113947179 0 0 0
237 0 1 0.5897 -1.347704865782486 13.199508129923208 0.35381527704157206 0 0 0
456 0 1 0.5897 -4.601602261084584 13.037274545033341 4.311333961609138 0 0 0
1703 0 1 0.5897 -8.482668853745313 16.641533511100164 1.232363464874805 1 0 1
1573 0 2 -1.1794 3.523241201502602 12.87750852428726 0.005326826609659045 0 0 1
1575 0 1 0.5897 3.4756807997002417 13.83005684567068 0.08670689720421773 0 0 1
658 0 2 -1.1794 -13.703125412736625 16.93587937050775 9.42196321297253 0 0 0
659 0 1 0.5897 -14.295300219430064 16.201052043291032 9.262072076884628 0 0 0
660 0 1 0.5897 -12.848376082233523 16.5288904895221 9.563273352465961 0 0 0
901 0 2 -1.1794 -8.573913556038718 20.245026769804625 10.113938725602965 0 0 0
671 0 1 0.5897 -10.566629499765426 16.26800234377707 8.705332532300746 0 0 0
1583 0 1 0.5897 -12.791375895233896 21.00267303916829 14.250218538030024 0 0 0
696 0 1 0.5897 -4.737669772255817 16.85207025390458 9.495101065690147 0 0 0
675 0 1 0.5897 -16.634467027122476 18.476720367671405 10.476535179124815 0 0 0
719 0 1 0.5897 -6.340976778660844 18.97501092968353 8.730752019705772 0 0 0
902 0 1 0.5897 -8.20360708130998 20.797719789596197 10.802137462469398 0 0 0
866 0 1 0.5897 -16.159570220643545 20.83608068618209 11.181341673028522 0 0 0
694 0 2 -1.1794 -5.6163332413956715 17.217949983815615 9.596561720858796 0 0 0
695 0 1 0.5897 -6.2032206078579915 16.47431966726158 9.45950204638925 0 0 0
1560 0 1 0.5897 -11.598258312084724 18.91045838253119 15.3556810469349 0 0 0
709 0 2 -1.1794 -8.765017918092932 17.631047682740274 10.717977277456296 0 0 0
710 0 1 0.5897 -8.705118237239336 17.250162274871624 9.84186496255239 0 0 0
711 0 1 0.5897 -8.643050366703374 18.570385457011337 10.580140314506275 0 0 0
1520 0 1 0.5897 -13.13845333501325 20.554541287085026 11.065176901218528 0 0 0
1338 0 1 0.5897 -7.80142937834136 16.839172676336563 11.925970453228878 0 0 0
1310 0 1 0.5897 -18.837657305328356 17.332097328763986 12.999541777036232 0 0 0
1582 0 2 -1.1794 -12.886848482396669 21.88908638530389 13.901810537808034 0 0 0
670 0 2 -1.1794 -11.220328121602595 15.716455138314751 9.135091783860704 0 0 0
684 0 1 0.5897 -15.218818470627008 19.62855975345654 9.248203221590078 0 0 0
1311 0 1 0.5897 -18.552375843577163 16.988044529558728 11.553114675918572 0 0 0
1534 0 2 -1.1794 -17.61538454325183 18.31838197996453 14.23582527313889 0 0 0
1765 0 2 -1.1794 -14.649005549838144 23.009503405964786 15.797895958827336 0 0 0
1537 0 2 -1.1794 -22.846513601629596 20.53421082763419 16.20757171949931 0 0 -1
1539 0 1 0.5897 -22.574003855164946 21.413631505068782 15.945683968720813 0 0 0
1574 0 1 0.5897 -14.963082850494908 20.277536340909947 15.45901447146803 0 0 0
1315 0 2 -1.1794 -13.437426197718118 18.76478819092425 11.551864755672119 0 0 0
1316 0 1 0.5897 -12.6134780082846 18.423995742044774 11.899958721690643 0 0 0
1317 0 1 0.5897 -13.758272943220806 18.072604906232236 10.973800782097795 0 0 0
1657 0 2 -1.1794 -21.39646195520341 17.560604198538602 14.377042406096267 1 0 0
1538 0 1 0.5897 -23.245534161624647 20.162406651653278 15.420961261119432 0 0 0
1546 0 2 -1.1794 -20.658867085702923 22.108271157740887 13.785388483594314 0 0 0
1347 0 1 0.5897 -10.237131289786195 17.508328731594023 11.745423977349699 0 0 0
865 0 2 -1.1794 -16.409817212909488 20.245113709227038 10.471161954617532 0 0 0
720 0 1 0.5897 -7.260248261505851 20.177358144685492 8.765136055750508 0 0 0
1522 0 2 -1.1794 -19.979044835454086 19.73487160994493 15.172097518195956 0 0 0
1523 0 1 0.5897 -20.67570131810688 19.100939089850325 15.001802508514846 0 0 0
1524 0 1 0.5897 -19.21530892875283 19.380157655205323 14.717001646324109 0 0 0
1528 0 2 -1.1794 -15.4679606719232 19.739135504263952 13.808843119303003 0 0 0
1529 0 1 0.5897 -15.776283634001981 20.582590865337515 13.477559704843237 0 0 0
1530 0 1 0.5897 -14.682139742037176 19.552311320352207 13.295221872283895 0 0 0
1309 0 2 -1.1794 -19.26931070703013 17.09966690884638 12.177433589262085 0 0 0
1535 0 1 0.5897 -16.933642563879673 18.91379024059932 13.924487187636638 0 0 0
673 0 2 -1.1794 -16.79337428801385 17.5328078845001 10.478999233492885 0 0 0
682 0 2 -1.1794 -14.509921201261768 19.50231967872054 8.617522596680322 0 0 0
1345 0 2 -1.1794 -10.965426000808254 17.591751257505535 12.36093689853325 0 0 0
683 0 1 0.5897 -14.104940258780642 18.67390427503643 8.874321584056657 0 0 0
1547 0 1 0.5897 -20.34762530485667 21.31028188931969 14.212669435653675 0 0 0
1346 0 1 0.5897 -10.585822837776028 18.026817584165677 13.12437101477063 0 0 0
1558 0 2 -1.1794 -12.45864590578239 19.284694492138993 15.16625272064815 0 0 0
1559 0 1 0.5897 -13.057976231506647 18.539276185387482 15.203220661001447 0 0 0
1302 0 1 0.5897 -15.715952498848907 16.805228123092085 11.849419149571109 0 0 0
674 0 1 0.5897 -16.840281650850166 17.294925833511222 9.55301768698305 0 0 0
867 0 1 0.5897 -17.11560115162517 20.703417493351548 10.015056006787479 0 0 0
1536 0 1 0.5897 -17.302222627021482 18.020569647703446 15.089908016452352 0 0 0
1548 0 1 0.5897 -21.19889459252694 22.53997292821487 14.447386493509276 0 0 0
1584 0 1 0.5897 -13.370071261498978 22.362399833533544 14.579091189552992 0 0 0
1766 0 1 0.5897 -14.352804259450387 23.70070580747416 16.390114341208545 0 0 0
32 0 1 0.5897 -4.988707720913037 19.72374571825056 4.709670730701156 0 0 0
10 0 2 -1.1794 -10.938553987425564 21.911088429180687 3.996451535196261 0 0 0
11 0 1 0.5897 -11.66049713416415 21.285135316833788 4.052896437391221 0 0 0
12 0 1 0.5897 -10.153457887372479 21.38678497470589 4.1543783955577105 0 0 0
16 0 2 -1.1794 -6.235554089343648 22.006765432571196 2.5081812533719283 0 0 0
18 0 1 0.5897 -5.603475442064891 21.63682359687051 1.8918580224362165 0 0 0
22 0 2 -1.1794 -8.495848896887154 20.694428366464038 3.476124992301715 0 0 0
23 0 1 0.5897 -7.7630954416053 21.030676200056952 2.96014935132432 0 0 0
24 0 1 0.5897 -8.087403971624557 20.135440838232945 4.137127977090839 0 0 0
25 0 2 -1.1794 -13.684828547079356 22.72478582029854 5.36653093261606 0 0 0