LAMMPS data file via write_data, version 30 Jul 2021, timestep = 5500000

1920 atoms
2 atom types
1280 bonds
1 bond types
640 angles
1 angle types

-0.055952817400406474 24.785953817400568 xlo xhi
-0.09091722022740001 24.82091822022305 ylo yhi
-0.12245960816961698 22.932459608171058 zlo zhi

Masses

1 1.008
2 15.999

Pair Coeffs # lj/cut/tip4p/long/omp

1 0 0
2 0.21084 3.1668

Bond Coeffs # harmonic/omp

1 450 0.9572

Angle Coeffs # harmonic/omp

1 55 104.52

Atoms # full

1 1 2 -1.1794 4.732737560018722 1.4806788300342297 3.964318897017338 0 0 0
2 1 1 0.5897 4.922543419284045 2.22590615954306 4.53421267606977 0 0 0
3 1 1 0.5897 5.456247694048433 1.4672983887962696 3.3378034356472623 0 0 0
4 2 2 -1.1794 2.882297848008522 1.495667096281053 1.7488641628342911 0 0 0
5 2 1 0.5897 3.3619785227949612 1.4866914953171693 2.5771138471512045 0 0 0
6 2 1 0.5897 1.9608072894134825 1.5292935658811901 2.005569546730952 0 0 0
10 4 2 -1.1794 3.4241556362881433 4.602574622640433 3.0239241593556074 0 0 0
11 4 1 0.5897 3.022153420504808 5.150613484706925 3.6978760251508134 0 0 0
12 4 1 0.5897 2.7694912220543193 4.5603696638892295 2.3269324038405634 0 0 0
13 5 2 -1.1794 1.673876409127502 3.027885456196493 4.689809021011989 0 0 0
14 5 1 0.5897 2.416243872453071 3.3064283721245293 4.1536450783926 0 0 0
15 5 1 0.5897 1.7588499250563225 2.0758898814606632 4.7413022556704965 0 0 0
22 8 2 -1.1794 1.3605925251186977 4.506173611724581 1.1705350279364481 0 0 0
24 8 1 0.5897 1.2110148502059142 5.092059882664193 0.4285615275240854 0 0 0
21 7 1 0.5897 5.451236309585167 3.0512435866655188 0.8047450577487694 0 0 0
23 8 1 0.5897 0.5755377085381613 4.59747516713123 1.7104647892651703 0 0 0
20 7 1 0.5897 3.9408724461450686 2.9488160661478435 0.7965247266295539 0 0 0
19 7 2 -1.1794 4.668253448377507 3.440861559718237 0.41576157805983827 0 0 0
9 3 1 0.5897 5.180416240981007 4.489973096847568 3.11351465399565 0 0 0
27 9 1 0.5897 4.521692255556371 5.093292136161404 0.3843031748847935 0 0 0
98 33 1 0.5897 0.3540294139768087 5.621922355665856 3.5475507682990544 1 0 0
28 10 2 -1.1794 1.4426726754657313 0.21617217665239208 4.765448788228334 0 0 0
99 33 1 0.5897 0.15675673331246778 4.188165443563617 3.9915788707612005 1 0 0
387 129 1 0.5897 3.9511458800806816 0.4009868814927389 0.7420764202330216 0 1 0
25 9 2 -1.1794 4.523864943888693 6.045213378716421 0.28421934028471607 0 0 0
16 6 2 -1.1794 0.2396970260183462 1.5708488434876324 1.981793618705784 0 0 0
47 16 1 0.5897 5.832233249069605 1.1645114644949865 1.4368236447551637 0 0 0
17 6 1 0.5897 -0.03657506159453687 1.6086021580503358 2.8974387555776313 0 0 0
7 3 2 -1.1794 6.134228146434441 4.5273700617476695 3.184443729509826 0 0 0
150 50 1 0.5897 1.4500388314900945 6.114685151022043 5.497308929729731 0 0 0
385 129 2 -1.1794 4.753567998419641 0.050644526984223254 0.3553595045714253 0 1 0
497 166 1 0.5897 0.1741696829807238 0.9630131219761198 7.189666665209049 0 0 0
1347 449 1 0.5897 4.8235121776245915 -0.05297344160483796 11.284594447838364 0 1 0
492 164 1 0.5897 2.6614757884961904 4.011292928624226 9.561005366842474 0 0 0
508 170 2 -1.1794 1.6319074192272958 0.17371959293751404 10.544282484829598 0 0 0
505 169 2 -1.1794 4.576946780369495 5.980897079156719 6.006992960159864 0 0 0
578 193 1 0.5897 0.2753121755518825 3.753076275485927 9.705016808741739 1 0 0
487 163 2 -1.1794 5.829113542268301 4.607787753013212 9.067569966480919 0 0 0
629 210 1 0.5897 2.1012630316119476 5.846624041144839 10.401702096115564 0 0 0
500 167 1 0.5897 4.3290089002580485 2.82461869928779 6.596256400459221 0 0 0
503 168 1 0.5897 0.7580592434074097 4.736401396257134 7.762945120650245 0 0 0
496 166 2 -1.1794 0.3085983021080347 1.7469606504905066 7.722136326903406 0 0 0
483 161 1 0.5897 4.988476225518793 1.7771638288573426 10.517357192761963 0 0 0
482 161 1 0.5897 5.454891682917734 1.1411276753654123 9.225212313763294 0 0 0
502 168 2 -1.1794 1.4177102700241604 4.870853735558577 7.082540325941697 0 0 0
484 162 2 -1.1794 3.1192336950464297 1.6556336709750066 7.464276613297601 0 0 0
490 164 2 -1.1794 3.131558152585126 4.774358580276824 9.224966946122482 0 0 0
499 167 2 -1.1794 5.014778425979902 3.2710447284795134 6.0996734142040685 0 0 0
501 167 1 0.5897 4.672144572032727 4.153350741956679 5.957124215520877 0 0 0
498 166 1 0.5897 1.255786096387219 1.8845186744592577 7.711880026548514 0 0 0
504 168 1 0.5897 1.2543561429538446 4.172572361608018 6.448598253238417 0 0 0
489 163 1 0.5897 4.872961901408387 4.580631971028111 9.102472597236563 0 0 0
486 162 1 0.5897 3.3622720700170667 0.897038316571689 6.933583334289463 0 0 0
493 165 2 -1.1794 1.4953777142831313 3.057057276237977 10.704566141795064 0 0 0
491 164 1 0.5897 2.720426220933324 4.956550620176823 8.38001667673532 0 0 0
485 162 1 0.5897 3.6691653090855363 1.588567705503672 8.24481543766935 0 0 0
481 161 2 -1.1794 4.7173316001204295 1.163274522280161 9.834874448372958 0 0 0
494 165 1 0.5897 1.473031109357819 2.1225421954264423 10.910362779960106 0 0 0
528 176 1 0.5897 5.991220289991899 2.1891880545782496 7.050207528857131 0 0 0
527 176 1 0.5897 6.009275843941473 0.6785814926663997 6.952840657653347 0 0 0
488 163 1 0.5897 6.108338775922735 3.8080948563149106 9.513324254685426 0 0 0
961 321 2 -1.1794 4.343900741311527 1.7234338022048128 15.678316547700724 0 0 0
962 321 1 0.5897 5.019961935081272 1.5667350480615558 15.019106546626361 0 0 0
963 321 1 0.5897 4.389130870300601 0.9604622242646166 16.25450947552013 0 0 0
964 322 2 -1.1794 2.649885046470138 1.1495307881151107 13.306977149674111 0 0 0
965 322 1 0.5897 3.04782776312384 1.2102897551955363 14.17537198941473 0 0 0
966 322 1 0.5897 1.708117384119177 1.1995148276730925 13.470531345237337 0 0 0
970 324 2 -1.1794 3.113431213618042 4.566571197294055 14.970208155659897 0 0 0
971 324 1 0.5897 4.064633156860814 4.542506663056945 14.866238170952869 0 0 0
972 324 1 0.5897 2.90161536122693 3.7540671475474547 15.429707116311858 0 0 0
973 325 2 -1.1794 1.219145249048565 2.558637741577305 16.051143700380372 0 0 0
975 325 1 0.5897 0.654894242726695 3.2492036125860464 15.703422764117212 0 0 0
982 328 2 -1.1794 1.1874557199800935 4.509677620398402 12.93265175616334 0 0 0
983 328 1 0.5897 1.2838862310573973 5.248605731715385 12.331938817537505 0 0 0
984 328 1 0.5897 1.8793101688011722 4.63631085413728 13.581857643111686 0 0 0
990 330 1 0.5897 1.0121951766744943 0.8462302930361039 16.146118156083777 0 0 0
980 327 1 0.5897 3.72475294954693 2.7363071270221817 12.225138834293404 0 0 0
981 327 1 0.5897 5.188818100655349 2.771536350483641 12.608588100152758 0 0 0
986 329 1 0.5897 4.409574843849521 4.948333142195074 11.934603948685233 0 0 0
979 327 2 -1.1794 4.53926188241927 3.2111356264000737 12.05995134268648 0 0 0
495 165 1 0.5897 1.3598917053834947 3.4915275134284034 11.546615495590592 0 0 0
967 323 2 -1.1794 5.851390499333153 4.664848665891185 14.689727164574625 0 0 0
1109 370 1 0.5897 0.728909858671206 5.958681556432008 16.082322639132812 0 0 0
985 329 2 -1.1794 4.509254754784776 5.890369552530679 12.071724401224756 0 0 0
1346 449 1 0.5897 3.813431137457945 0.08350725857769953 12.403896142689149 0 1 0
1058 353 1 0.5897 0.12424794940534889 4.640137400958467 14.442176166680444 1 0 0
1460 487 1 0.5897 4.552234732903417 2.9408480835129174 16.941808735879267 0 0 0
1110 370 1 0.5897 2.229508594183536 5.8027794661979994 16.207424942888107 0 0 0
974 325 1 0.5897 1.366900908737639 2.806307090157259 16.963825197958162 0 0 0
1008 336 1 0.5897 5.836649653473127 0.6362545339950026 13.164655401995962 0 0 0
1006 336 2 -1.1794 6.0320804506719785 1.5224342099921475 13.469070200794212 0 0 0
1456 486 2 -1.1794 0.1286822052223042 1.4218234551008864 19.082474521009004 0 0 0
1462 488 2 -1.1794 1.368914712690647 4.329352657123865 18.384945681473912 0 0 0
1468 490 2 -1.1794 1.7467822196486424 0.09407317921175601 21.933948244230475 0 0 0
1538 513 1 0.5897 0.3378348548416681 3.831840744079495 21.087144134892878 1 0 0
1464 488 1 0.5897 0.9308378581572841 4.573747347650437 19.200128260838163 0 0 0
1447 483 2 -1.1794 5.910136625388021 4.5075014822030015 20.69631080829618 0 0 0
1590 530 1 0.5897 2.1962200796600295 5.934839810229383 21.772049441955062 0 0 0
1826 609 1 0.5897 4.028025761157964 0.3589484359591384 18.326048092114615 0 1 0
1539 513 1 0.5897 0.09806514879971429 5.325487696632097 21.144311887504873 1 0 0
1446 482 1 0.5897 3.3985312548474855 2.1597452306778537 18.680495622680557 0 0 0
1451 484 1 0.5897 4.110244837436776 4.535404552276623 20.744586901549198 0 0 0
1469 490 1 0.5897 1.543918075277348 1.013961983293555 22.103706411504184 0 0 0
1461 487 1 0.5897 5.496322331928526 3.266775725138414 18.07944469010746 0 0 0
1443 481 1 0.5897 4.661809102070221 2.599655036798126 21.74589470270505 0 0 0
1459 487 2 -1.1794 4.604097068150878 3.420196123020738 17.768671323104765 0 0 0
1454 485 1 0.5897 2.287324511712726 3.3835322326501074 21.668307546537804 0 0 0
1453 485 2 -1.1794 1.619773117437054 2.8025312762284895 22.032982255114835 0 0 0
1466 489 1 0.5897 4.437880671785182 5.2546305990342175 17.36884066338746 0 0 0
1450 484 2 -1.1794 3.1551949980094895 4.598147918802833 20.75546515988044 0 0 0
1444 482 2 -1.1794 3.096111707585977 1.4941033226198779 19.298257121125864 0 0 0
1445 482 1 0.5897 2.1430576460563158 1.5827782210065635 19.2990750930616 0 0 0
1452 484 1 0.5897 2.891115760516496 4.395034724389982 19.85815367736295 0 0 0
1442 481 1 0.5897 4.3425917638746165 1.7137675467335307 20.560558356789613 0 0 0
1463 488 1 0.5897 1.525936315922253 5.161162119288417 17.93817418255446 0 0 0
1441 481 2 -1.1794 5.01014322626597 1.8743629534131754 21.227453748842013 0 0 0
1455 485 1 0.5897 1.4595187766129047 3.1435713972686687 22.912853067434686 0 0 0
1487 496 1 0.5897 6.10036371980981 1.607768556024574 19.916761643287693 0 0 0
386 129 1 0.5897 4.920789683014079 0.6128972662377303 22.653924469723904 0 1 -1
1825 609 2 -1.1794 4.659746696170368 -0.07667297627408055 17.753914725902636 0 1 0
1488 496 1 0.5897 6.122173149764516 0.708334434724823 18.699280632584927 0 0 0
121 41 2 -1.1794 4.670179257933389 7.661019214166785 4.031371425065561 0 0 0
122 41 1 0.5897 3.8746962945289605 7.65379403310232 3.4990876334514573 0 0 0
123 41 1 0.5897 5.384298981852032 7.6991099867341575 3.395173520407667 0 0 0
124 42 2 -1.1794 2.97755917072506 7.648689421091155 1.8941873859500862 0 0 0
125 42 1 0.5897 3.3265237136287262 6.899824290877927 1.4108748772550088 0 0 0
126 42 1 0.5897 3.3991570574893957 8.409593527725864 1.4948789188333123 0 0 0
129 43 1 0.5897 5.294369395510407 10.908781476318508 2.805901724042597 0 0 0
130 44 2 -1.1794 3.282071228852895 10.75714036927088 3.2406737174732076 0 0 0
132 44 1 0.5897 3.0377659416835447 9.994806419045247 3.765388960106399 0 0 0
133 45 2 -1.1794 1.9214761250302066 9.023421192486616 4.9290150581577326 0 0 0
135 45 1 0.5897 1.0286932099395896 9.179111194470858 4.621002343395382 0 0 0
137 46 1 0.5897 1.0066887563703635 7.623316163903326 2.0096867142315595 0 0 0
139 47 2 -1.1794 4.634901200041297 9.430944223736683 0.4329091335348061 0 0 0
142 48 2 -1.1794 1.196247094849933 10.935395529923145 1.4913928545489465 0 0 0
143 48 1 0.5897 2.0493643755003172 10.819672677808047 1.909705199843685 0 0 0
144 48 1 0.5897 1.3935737384229598 11.363237761185013 0.6582201515220293 0 0 0
149 50 1 0.5897 1.9110508749199029 7.318264803349058 4.703207878574997 0 0 0
131 44 1 0.5897 3.008782163317891 11.508375603517042 3.7671000010453937 0 0 0
140 47 1 0.5897 4.7102795562123845 10.382277925938237 0.5067330317659364 0 0 0
621 207 1 0.5897 4.831275143741884 9.082360309141958 5.464311519150638 0 0 0
168 56 1 0.5897 5.963503693375169 8.301905765767065 1.2690775520065145 0 0 0
136 46 2 -1.1794 0.09597986282400273 7.911930003131259 1.9506112156643183 0 0 0
148 50 2 -1.1794 1.6294248525249082 6.40882879029476 4.604302567835456 0 0 0
218 73 1 0.5897 0.18251828812563545 10.921827862282852 3.0027391923443285 1 0 0
507 169 1 0.5897 4.621274220715849 6.519291202532063 5.216840195048094 0 0 0
270 90 1 0.5897 1.188837369945395 12.287769724120889 4.220161780802149 0 0 0
1574 525 1 0.5897 1.359432081523832 9.387992236010662 0.07301610782078266 0 0 1
26 9 1 0.5897 5.263078867830247 6.340702312378211 0.8156491002209498 0 0 0
145 49 2 -1.1794 4.6210781884879 12.216082498543017 0.7799341819400556 0 0 0
604 202 2 -1.1794 2.825784300564526 7.460120865270296 7.647970444083161 0 0 0
134 45 1 0.5897 1.9560571659056132 9.445026817263162 5.78762586988769 0 0 0
616 206 2 -1.1794 0.026070903165873474 8.005820441322058 7.954574328032715 0 0 0
607 203 2 -1.1794 6.097276706014662 10.487396647325541 9.717321308741926 0 0 0
1101 367 1 0.5897 4.519250598395119 9.180599238760422 11.171277025499089 0 0 0
646 216 2 -1.1794 6.101996163047924 7.581524416815988 7.593841352743216 0 0 0
698 233 1 0.5897 0.26525572355059934 11.484636206942241 9.896945278335618 1 0 0
628 210 2 -1.1794 1.3493120190695682 6.232618841666172 10.850866750936426 0 0 0
606 202 1 0.5897 1.8705468956689784 7.5131989543843805 7.677619354769991 0 0 0
623 208 1 0.5897 2.2113612951715784 11.075853500471672 7.527642712390801 0 0 0
630 210 1 0.5897 1.3621879735364402 7.154027703289918 10.592002609841055 0 0 0
610 204 2 -1.1794 3.25316470058297 10.646030663484078 9.114049529777413 0 0 0
647 216 1 0.5897 5.7848133394837165 7.582085452464346 8.496921626356638 0 0 0
699 233 1 0.5897 0.26781610742181744 10.92526078765713 8.49024074224403 1 0 0
615 205 1 0.5897 0.8393485197777644 9.495190600272363 10.151427421140614 0 0 0
620 207 1 0.5897 5.081654612940323 8.89356836685587 6.945327549785137 0 0 0
614 205 1 0.5897 2.3468415549272867 9.389512377092402 10.06166411283056 0 0 0
605 202 1 0.5897 3.106591916784844 8.335341748309462 7.380943746497007 0 0 0
601 201 2 -1.1794 4.796626421249706 7.490574662778698 9.946625583900426 0 0 0
612 204 1 0.5897 2.738602979615279 11.35065451777099 9.507628373318623 0 0 0
624 208 1 0.5897 1.7259686536013314 11.54173550403725 6.171522693681187 0 0 0
611 204 1 0.5897 4.162146511659213 10.876957598458748 9.305381053680955 0 0 0
602 201 1 0.5897 4.86355633767402 6.8969454351852635 10.694484312951213 0 0 0
626 209 1 0.5897 4.625080526460919 11.419644301265645 6.359196540472799 0 0 0
613 205 2 -1.1794 1.586684424430025 9.012655904016103 10.504733072339926 0 0 0
603 201 1 0.5897 3.9891318829625906 7.229072219183868 9.504190036513236 0 0 0
619 207 2 -1.1794 4.6833002041490275 9.494298751961814 6.315528800185344 0 0 0
622 208 2 -1.1794 1.4901753187908626 10.975533518719285 6.906356346583092 0 0 0
648 216 1 0.5897 5.497658846585927 7.0039703378818166 7.127601358828672 0 0 0
625 209 2 -1.1794 4.453164080403081 12.36121965433524 6.36622060594653 0 0 0
506 169 1 0.5897 3.8857540217407798 6.383099334871572 6.532981500130778 0 0 0
1081 361 2 -1.1794 4.484729968819901 8.181197607593596 15.597705535555287 0 0 0
1082 361 1 0.5897 4.774581727923985 8.821400078040016 16.247551622230567 0 0 0
1083 361 1 0.5897 4.400268937418294 7.363291868660592 16.08767555961804 0 0 0
1084 362 2 -1.1794 2.755053620958422 7.652461606354049 13.547250241128362 0 0 0
1085 362 1 0.5897 3.2191150587320547 7.830009736631803 14.365355225082126 0 0 0
1086 362 1 0.5897 3.039303376595126 8.348001843850817 12.954297602463942 0 0 0
1089 363 1 0.5897 4.961217055333328 10.874342315669116 15.092123665826191 0 0 0
1090 364 2 -1.1794 3.0712906829711737 10.845706652859983 15.113902606977542 0 0 0
1091 364 1 0.5897 2.667487607009592 11.59314766649801 15.55485918137421 0 0 0
1092 364 1 0.5897 2.629288968957165 10.081456816906167 15.483664538216301 0 0 0
1095 365 1 0.5897 0.4791504002166017 9.270024603443982 15.974777491837497 0 0 0
1097 366 1 0.5897 1.0090406934102243 7.614154100987801 13.576897996387771 0 0 0
1099 367 2 -1.1794 4.354330323903521 9.403493496055503 12.08740115305698 0 0 0
1102 368 2 -1.1794 1.4479507922378456 11.010268297191944 12.813000793923521 0 0 0
1104 368 1 0.5897 2.1766203738606067 10.917564452916043 13.42669066390449 0 0 0
1093 365 2 -1.1794 1.2110801168339846 9.048353484894218 16.550370747910584 0 0 0
1103 368 1 0.5897 1.450428875795227 10.19437682410462 12.312519670221086 0 0 0
1100 367 1 0.5897 5.0769493181561165 8.998308270091295 12.566796368686557 0 0 0
1094 365 1 0.5897 1.1777635345898447 8.094644744421261 16.62451082303105 0 0 0
1107 369 1 0.5897 4.45756125332668 11.080083695492117 12.463120238581396 0 0 0
1128 376 1 0.5897 5.725866185482674 6.883953057220786 13.198444586450751 0 0 0
1179 393 1 0.5897 0.265177345187811 11.152692460663031 14.134828048009505 1 0 0
1108 370 2 -1.1794 1.510540215379077 6.399435724089815 16.41543155095107 0 0 0
1105 369 2 -1.1794 4.646389630112161 12.018415879370446 12.469908770602803 0 0 0
1087 363 2 -1.1794 5.892670125434559 10.680876420430621 15.197675510740876 0 0 0
1126 376 2 -1.1794 6.146091929167598 7.6477800084461975 13.593609531495822 0 0 0
750 250 1 0.5897 1.5652140030509798 12.193307796743934 11.448594518191422 0 0 0
1178 393 1 0.5897 0.21278709191711143 11.694338836982793 15.547486428987941 1 0 0
1096 366 2 -1.1794 0.05661743877559337 7.646130215985702 13.487225159401055 0 0 0
1127 376 1 0.5897 5.587873927272768 7.870165153952896 14.338680295855502 0 0 0
1106 369 1 0.5897 4.36888986213634 12.325303984330533 11.606784887569686 0 0 0
987 329 1 0.5897 3.726277322010939 6.146083193285913 12.559297820014477 0 0 0
1579 527 2 -1.1794 4.895386103277848 9.502417957086715 18.24634640171296 0 0 0
1467 489 1 0.5897 5.107364224041961 6.492498557922844 17.926707277000034 0 0 0
1585 529 2 -1.1794 4.631581183820998 12.2514627107985 17.93489773472591 0 0 0
1588 530 2 -1.1794 1.4726999385182487 6.371670982552669 22.221350253733963 0 0 0
1230 410 1 0.5897 1.9406859968544807 12.34967332719467 17.461864951499873 0 0 0
1570 524 2 -1.1794 3.564817765055023 10.736774489024125 20.92335090317245 0 0 0
1566 522 1 0.5897 3.3004378945569557 6.987499246842603 18.678693174400962 0 0 0
1608 536 1 0.5897 5.969060427461609 7.266633697269126 19.9250226317365 0 0 0
1580 527 1 0.5897 4.081244290641515 9.014541519606881 18.37012618412109 0 0 0
1573 525 2 -1.1794 1.4109370007306636 9.101081337953305 22.216236947966998 0 0 0
1576 526 2 -1.1794 0.021426623147280402 7.591634544090191 19.05104565114666 0 0 0
1575 525 1 0.5897 2.0494772458941317 9.690453922802156 21.814894897177425 0 0 0
1584 528 1 0.5897 1.5873660814423345 10.079816566199788 18.227582209355635 0 0 0
1589 530 1 0.5897 1.643711252387353 7.305582657611327 22.099977623565376 0 0 0
1587 529 1 0.5897 4.865119781093324 11.33397764172318 18.075796069009705 0 0 0
1561 521 2 -1.1794 4.826113565662223 7.758616237591245 21.272512345048227 0 0 0
1581 527 1 0.5897 5.558765631419965 8.980833142611644 18.698065495957348 0 0 0
1563 521 1 0.5897 4.063674388859189 7.591919969491477 20.718372936211328 0 0 0
1562 521 1 0.5897 4.767748963438868 7.1006829541552365 21.965250535428837 0 0 0
1565 522 1 0.5897 1.9646944967056514 7.605374614874363 19.03333990540554 0 0 0
1571 524 1 0.5897 3.365290055175324 10.463221521541092 20.028075358769655 0 0 0
1583 528 1 0.5897 1.218937280776502 10.928764125628051 19.42561017325881 0 0 0
1564 522 2 -1.1794 2.8418498243984325 7.446886655248929 19.382131163230483 0 0 0
1572 524 1 0.5897 4.518650103804887 10.814005354824346 20.94374163729755 0 0 0
1582 528 2 -1.1794 1.9098118020405968 10.794233364290747 18.776948799913203 0 0 0
1658 553 1 0.5897 0.03179155920389934 10.113485219394938 21.342413137052766 1 0 0
1710 570 1 0.5897 2.3788085796883105 12.140977335901487 21.659390659461494 0 0 0
1709 570 1 0.5897 0.8673913294045382 12.092514374827461 21.73023251137678 0 0 0
141 47 1 0.5897 4.468758364963598 9.274797067221282 22.558218668242926 0 0 -1
1465 489 2 -1.1794 4.36253408327649 6.2084158315933085 17.396899692825613 0 0 0
241 81 2 -1.1794 4.704735365370811 14.045642635026573 4.10241741511207 0 0 0
242 81 1 0.5897 4.417421233343734 13.495827482063897 4.83133825887646 0 0 0
243 81 1 0.5897 3.9861752919500537 14.002539952073281 3.471561118806943 0 0 0
244 82 2 -1.1794 2.9044585693035017 14.077097899590195 2.05341375190077 0 0 0
245 82 1 0.5897 1.9520850137215544 14.096514691750178 2.147131162571717 0 0 0
246 82 1 0.5897 3.133835077064324 14.9558981075619 1.7513114684085183 0 0 0
250 84 2 -1.1794 3.457546345328611 17.07336150512491 3.5591437303347404 0 0 0
251 84 1 0.5897 2.908582105941533 17.217922868737066 2.78849030720133 0 0 0
252 84 1 0.5897 4.349144225972473 17.029072130968697 3.2137868970495487 0 0 0
253 85 2 -1.1794 1.6797910073897824 15.323222803737362 4.596459886108387 0 0 0
255 85 1 0.5897 2.42699061369719 15.868835834298984 4.351158952039475 0 0 0
259 87 2 -1.1794 4.798423806522358 15.80718232523171 0.6492036195912032 0 0 0
262 88 2 -1.1794 1.729557152476047 17.24727811406558 1.5097557405589452 0 0 0
263 88 1 0.5897 1.6650313583961034 16.51966822642869 0.8912189264402051 0 0 0
264 88 1 0.5897 1.6285931690613664 18.031042728195192 0.9696777241545569 0 0 0
269 90 1 0.5897 1.863528000189599 13.524689682512607 4.773850923674066 0 0 0
254 85 1 0.5897 0.9681495747112603 15.622374834166605 4.030553336994376 0 0 0
288 96 1 0.5897 5.882566866199016 14.678662183735394 1.431494248743505 0 0 0
287 96 1 0.5897 6.0898439103731254 13.930150602521351 2.730910070174764 0 0 0
268 90 2 -1.1794 1.9950519898860786 12.58591672313091 4.641231368027115 0 0 0
740 247 1 0.5897 4.9500925146958865 15.186785866310945 5.57115928868438 0 0 0
258 86 1 0.5897 -0.030804726554912065 13.161099110325853 1.6398725144002215 0 0 0
339 113 1 0.5897 0.21610576250175023 17.83393306682268 4.276412992545949 1 0 0
256 86 2 -1.1794 0.06678552972369209 14.014318676633888 2.0625516110645545 0 0 0
147 49 1 0.5897 5.367343824790531 12.6617854541257 1.1807035423163812 0 0 0
260 87 1 0.5897 4.772636023579255 16.716754857636143 0.3522369176506772 0 0 0
338 113 1 0.5897 0.3960711800202153 17.44860626217989 2.8235356103677804 1 0 0
146 49 1 0.5897 3.855354878651398 12.686289399669198 1.109698503395212 0 0 0
727 243 2 -1.1794 5.865849402962456 16.8637904327217 8.934826128625888 0 0 0
724 242 2 -1.1794 2.7880171490402526 13.98357490033195 7.892211570172918 0 0 0
817 273 2 -1.1794 0.05168568017288805 17.07699093770764 8.995040259256692 1 0 0
818 273 1 0.5897 0.46780522986317585 16.89842304757642 8.151758741562013 1 0 0
741 247 1 0.5897 4.894802070106418 16.56712420410091 6.190309498882505 0 0 0
736 246 2 -1.1794 0.22951859624768772 14.016355862004566 7.799397320258791 0 0 0
744 248 1 0.5897 1.6163510568070425 16.190876211615084 6.258165925301769 0 0 0
722 241 1 0.5897 3.6186091033837626 13.617260131018565 9.509882138952031 0 0 0
733 245 2 -1.1794 1.4313482525257668 15.200607859289669 10.353196636749312 0 0 0
768 256 1 0.5897 5.754721000362148 14.727455541046035 7.666990044548915 0 0 0
737 246 1 0.5897 1.1639516134568835 13.816111682552123 7.853393517395603 0 0 0
721 241 2 -1.1794 4.410232341928518 13.441145253419723 10.018297142147158 0 0 0
726 242 1 0.5897 3.223553770193646 13.298802725923208 7.384706426009567 0 0 0
725 242 1 0.5897 3.2231571800675707 14.793359276443272 7.625618801511111 0 0 0
749 250 1 0.5897 1.5497825707595625 13.510336761150125 10.702319821179248 0 0 0
728 243 1 0.5897 4.921304339357845 16.773109954280965 9.060462948375672 0 0 0
627 209 1 0.5897 5.2452731161444515 12.747009480287517 6.740256431088012 0 0 0
731 244 1 0.5897 2.8551105812709747 17.00251185664532 8.207462173983307 0 0 0
730 244 2 -1.1794 3.2688525448172183 16.925252695102973 9.06711819065815 0 0 0
732 244 1 0.5897 2.6687731791033227 16.37825458057729 9.573958292772314 0 0 0
742 248 2 -1.1794 1.8211094935660925 16.95721088207352 6.793867655946879 0 0 0
743 248 1 0.5897 1.6818883665671143 17.702531123894722 6.209673133979318 0 0 0
723 241 1 0.5897 5.113250849080978 13.422448873613032 9.36900309816067 0 0 0
745 249 2 -1.1794 4.78340263219166 18.414902393859396 6.118085004311336 0 0 0
735 245 1 0.5897 0.8303568413306521 15.667642975162916 9.772798319918106 0 0 0
739 247 2 -1.1794 4.725369465147069 15.644602381810545 6.381138849556721 0 0 0
869 290 1 0.5897 1.042107783282559 18.173372076155296 10.218175524105257 0 0 0
729 243 1 0.5897 6.138684609109665 17.487364518582968 9.607788659708174 0 0 0
748 250 2 -1.1794 1.635614652650782 12.566266886202719 10.569900115999907 0 0 0
734 245 1 0.5897 1.1963040060398094 15.49840840524726 11.231961837462883 0 0 0
1221 407 1 0.5897 4.700348668259282 14.831455348017045 11.102637055566612 0 0 0
1201 401 2 -1.1794 4.367147568849884 14.171609632696152 15.846293571002056 0 0 0
1202 401 1 0.5897 5.085977959053409 14.016654887662472 15.233561002267402 0 0 0
1203 401 1 0.5897 4.4008841635638305 13.428524523492776 16.448667116338584 0 0 0
1204 402 2 -1.1794 2.9414972438954585 14.11162979547105 13.404515081821351 0 0 0
1205 402 1 0.5897 3.2239115038390835 14.269816447659872 14.305280754598321 0 0 0
1206 402 1 0.5897 3.551811075823275 13.452537799176508 13.073912354859422 0 0 0
1210 404 2 -1.1794 3.4696758010071673 17.112445014786104 14.887997530353804 0 0 0
1211 404 1 0.5897 2.9243333561158273 17.73917744843847 15.363374624301214 0 0 0
1212 404 1 0.5897 4.35981449363929 17.452867363891844 14.977123398473042 0 0 0
1213 405 2 -1.1794 1.3971123211133605 15.25914645060901 16.383600654137975 0 0 0
1214 405 1 0.5897 0.694436839989566 15.64457689057688 15.860281090401443 0 0 0
1215 405 1 0.5897 2.197620225228241 15.655216213280465 16.039375962967448 0 0 0
1218 406 1 0.5897 1.1388590647291856 14.044510844116862 13.67523362753796 0 0 0
1222 408 2 -1.1794 1.8698825558185739 16.761404129360702 12.827440940432043 0 0 0
1223 408 1 0.5897 1.89417985741312 17.4390184010791 12.151852338079378 0 0 0
1224 408 1 0.5897 2.547008079996731 17.021005603684195 13.452165244335568 0 0 0
1229 410 1 0.5897 1.5430382309565311 13.526076700541495 16.596025848186713 0 0 0
1220 407 1 0.5897 3.853542420042274 15.21270076562572 12.298170693070979 0 0 0
1219 407 2 -1.1794 4.613279053555519 15.493670890617434 11.788245050762084 0 0 0
1227 409 1 0.5897 4.661635362933979 17.45397791241456 12.2755288241822 0 0 0
1225 409 2 -1.1794 4.574861322640687 18.393923329658293 12.11695709773493 0 0 0
1248 416 1 0.5897 5.9086036470156325 13.257898246737012 13.33169132045202 0 0 0
1700 567 1 0.5897 4.779455324187663 15.57896577703981 16.973315734585 0 0 0
1298 433 1 0.5897 0.08307478468787582 17.187923679793556 14.008699560621528 1 0 0
1247 416 1 0.5897 5.695841742063544 14.73392281798991 13.071246689640608 0 0 0
1216 406 2 -1.1794 0.19630214236202792 13.96301989176648 13.820557058552538 0 0 0
1228 410 2 -1.1794 1.5360134331309092 12.569307579389479 16.622721880044306 0 0 0
1350 450 1 0.5897 0.8544737792341847 18.365000399747913 15.929370390281562 0 0 0
1246 416 2 -1.1794 6.051415521777621 14.122673599120695 13.7163146820187 0 0 0
1830 610 1 0.5897 2.2161801557361316 18.49922416401902 21.856948317229637 0 0 0
1688 563 1 0.5897 6.035394549355761 17.47139568229329 20.109478909234124 0 0 0
1708 570 2 -1.1794 1.6378534170702563 12.403296018285666 22.20559737538677 0 0 0
1705 569 2 -1.1794 4.648150302070441 18.462302440994076 18.151295428237166 0 0 0
1778 593 1 0.5897 0.5242533360511538 16.742791193267877 20.087301982282522 1 0 0
1687 563 2 -1.1794 5.706883444472369 17.38016143401893 21.003859680601675 0 0 0
1779 593 1 0.5897 0.4625476894870816 17.52882694097245 21.379607500772 1 0 0
1686 562 1 0.5897 3.3915208926699014 14.24206956908619 20.167367176616473 0 0 0
1701 567 1 0.5897 3.988267778498093 15.56569594369423 18.263883285672645 0 0 0
1694 565 1 0.5897 0.805625115962147 15.310173416252214 22.20902508108134 0 0 0
1693 565 2 -1.1794 1.6437172600745242 15.181632969961806 22.65315260684033 0 0 0
1728 576 1 0.5897 6.047393950025327 14.695899333564705 19.062758476701465 0 0 0
1684 562 2 -1.1794 2.8929746661098252 14.185861273263273 19.352226574549558 0 0 0
1691 564 1 0.5897 2.69587768372833 16.24696854074302 21.57799807088672 0 0 0
1683 561 1 0.5897 4.578379873472737 13.178406579090842 22.223280233586426 0 0 0
1682 561 1 0.5897 5.161934862220841 13.672547384857483 20.916756397510998 0 0 0
1702 568 2 -1.1794 1.5359308518886454 16.972852416287406 18.638213178605046 0 0 0
1697 566 1 0.5897 1.194418037600815 14.034293371301192 19.46637737048538 0 0 0
1681 561 2 -1.1794 4.494415817071872 13.874977813164515 21.572201960018788 0 0 0
1696 566 2 -1.1794 0.2498594890512787 13.880041504281582 19.452361743561394 0 0 0
1703 568 1 0.5897 1.4253087518225416 16.26471374769213 18.003810216432697 0 0 0
1707 569 1 0.5897 4.8353647647566556 17.54907827275639 17.934167130603615 0 0 0
1699 567 2 -1.1794 4.829709447670555 15.833630226983042 17.894611276283616 0 0 0
1689 563 1 0.5897 4.768324421156222 17.22366293794141 20.899984820083418 0 0 0
1685 562 1 0.5897 3.1893759208289305 13.37178222584448 18.945294974916333 0 0 0
261 87 1 0.5897 4.814639711253316 15.291817374240223 22.897713236405426 0 0 -1
1692 564 1 0.5897 2.6164836107508 16.835030318131615 20.185297606245456 0 0 0
1690 564 2 -1.1794 3.108481911291331 16.892587494426653 21.004317655533992 0 0 0
1704 568 1 0.5897 1.5564627460686433 17.76928635648437 18.107708477268385 0 0 0
1695 565 1 0.5897 1.814114048339684 14.242829561488342 22.577093414043038 0 0 0
1777 593 2 -1.1794 0.03374517241898092 16.816126051656465 20.905949928893197 1 0 0
1586 529 1 0.5897 5.278693054897247 12.744055354529399 18.439644314112694 0 0 0
361 121 2 -1.1794 4.846201127743133 20.17280508719182 3.8739534562139606 0 0 0
362 121 1 0.5897 4.113684007015608 20.21606549773486 3.2593690693322053 0 0 0
364 122 2 -1.1794 3.0754931919282105 20.21749642490162 1.809346026799414 0 0 0
365 122 1 0.5897 3.2900699443804347 21.007803681209175 1.3138295536212117 0 0 0
370 124 2 -1.1794 3.4517237600657382 23.224987645973627 3.1016923464646844 0 0 0
371 124 1 0.5897 4.407471844858509 23.20119488021667 3.055282129052304 0 0 0
372 124 1 0.5897 3.2278823388649225 22.579659680977095 3.7722221108677214 0 0 0
373 125 2 -1.1794 1.8434860948992577 21.78789999829338 4.742604805757023 0 0 0
381 127 1 0.5897 5.308445898489331 21.821879599987007 0.7113677721421564 0 0 0
382 128 2 -1.1794 1.5102544695933597 23.40596955424236 1.1863981313188166 0 0 0
383 128 1 0.5897 2.282543087140337 23.270114280933548 1.7352893080247709 0 0 0