LAMMPS data file via write_data, version 30 Jul 2021, timestep = 13000000

864 atoms
2 atom types
576 bonds
1 bond types
288 angles
1 angle types

0.426391604838086 17.781180795160758 xlo xhi
1.5937642588365364 22.035413541168545 ylo yhi
0.5201967619662469 21.692999038027263 zlo zhi

Masses

1 1.00794
2 15.9994

Pair Coeffs # lj/cut/tip4p/long/omp

1 0 0
2 0.21084 3.1668

Bond Coeffs # harmonic/omp

1 450 0.9572

Angle Coeffs # harmonic/omp

1 55 104.52

Atoms # full

686 1 1 0.5897 1.8471712140350867 5.356418450076707 2.8843321305375635 7 -9 -8
420 1 1 0.5897 2.692260118690462 2.626207742399862 3.3258238430578806 -6 -5 4
651 1 1 0.5897 4.262224922242689 4.56669335219295 2.8279781054763413 -1 -1 3
705 1 1 0.5897 7.417175653824607 3.53615397509535 5.635612170028625 -3 3 -3
795 1 1 0.5897 6.8755269731584265 3.2077149761145227 3.2963454174576206 -3 3 3
793 1 2 -1.1794 6.857053141491296 2.6649428966844586 2.508091054552351 -3 3 3
715 1 2 -1.1794 5.416179657116902 2.697381676213168 5.445507991483473 0 -9 -3
650 1 1 0.5897 5.545779380579472 5.321579395352404 2.5550690081592453 -1 -1 3
703 1 2 -1.1794 8.256243963716273 3.71767872829296 5.212271500512056 -3 3 -3
716 1 1 0.5897 4.839549899143982 2.730513985448181 4.682212065953412 0 -9 -3
864 1 1 0.5897 8.939795019811067 1.9855426272167827 4.7972451684997495 4 1 2
418 1 2 -1.1794 3.6489343289892284 2.6556918788255786 3.3134867759595537 -6 -5 4
794 1 1 0.5897 6.87025836308599 1.765628842680024 2.8357185076589193 -3 3 3
419 1 1 0.5897 3.8965828716497866 2.1009387236470904 2.5738056126421687 -6 -5 4
861 1 1 0.5897 7.125565293232405 2.344993716901449 0.6128998735957771 -1 -2 7
447 1 1 0.5897 4.451623168335052 6.550860529954119 4.549443026934034 2 4 -1
685 1 2 -1.1794 1.6009039353737002 6.112868761082611 2.352038578646521 7 -9 -8
649 1 2 -1.1794 4.674653650803084 5.423369599382255 2.9384763915737193 -1 -1 3
188 1 1 0.5897 7.861514712922606 5.336313704682099 1.8203747908061167 -2 5 4
187 1 2 -1.1794 6.99153409479967 5.645422848014792 1.567796681646572 -2 5 4
582 1 1 0.5897 1.0057446541622905 3.790773378748533 4.472129854602418 2 -1 2
580 1 2 -1.1794 0.9037394707213852 3.5163162562420514 3.560803468530222 2 -1 2
141 1 1 0.5897 1.5645709960235141 5.0608259441763455 0.5479561260125698 -1 3 2
189 1 1 0.5897 7.008945207902849 6.585252870897779 1.7485044709885982 -2 5 4
245 1 1 0.5897 6.656014297935785 3.0280780154472633 8.68286322550248 -8 5 3
802 1 2 -1.1794 8.751592961090026 5.935627679658852 7.386658072633953 4 4 0
820 1 2 -1.1794 3.720768425048187 3.7006668834705314 7.324570321733256 1 3 5
799 1 2 -1.1794 1.1618301320897761 3.8243407780892986 6.235508639639674 -2 1 6
800 1 1 0.5897 2.05881450569098 3.8696193107736563 6.566535310134003 -2 1 6
818 1 1 0.5897 1.4131895753879664 6.544957005035249 8.808167360604337 -3 -4 0
822 1 1 0.5897 3.325033582020553 3.4520008361043963 8.159896035542452 1 3 5
181 1 2 -1.1794 6.423579400083128 4.7162125427793296 8.560704837623062 -7 1 -5
149 1 1 0.5897 1.531664882776116 2.7988083318477277 9.952201712851949 -3 2 3
246 1 1 0.5897 6.608781084775697 1.9745614455362048 9.769032682462042 -8 5 3
817 1 2 -1.1794 2.178692961157555 6.119428479356923 9.194356245007729 -3 -4 0
354 1 1 0.5897 5.7508412576097205 6.356774665293825 8.259666847538362 10 3 -2
182 1 1 0.5897 7.248311272759843 5.1418824407535295 8.326513183364867 -6 1 -5
821 1 1 0.5897 4.319084542783749 4.414423141272575 7.5455103092991695 1 3 5
244 1 2 -1.1794 6.870824162793612 2.1120147674604657 8.858722223853938 -8 5 3
801 1 1 0.5897 0.9656640271533082 2.8881011678561235 6.201200880111805 -2 1 6
150 1 1 0.5897 2.7046693959922306 2.5674270278218403 10.880855448911799 -3 2 3
183 1 1 0.5897 6.331806407300334 4.8715702665717515 9.500733256390527 -7 1 -5
717 1 1 0.5897 4.889699253010605 3.0563592313187136 6.159768671289307 0 -9 -3
148 1 2 -1.1794 2.3951803132265908 3.142575151034933 10.181114595656318 -3 2 3
704 1 1 0.5897 8.757486467137115 4.199854603436371 5.869894424286983 -3 3 -3
574 1 2 -1.1794 2.6034982103493927 3.5682903231819063 14.290882801698956 3 5 -3
480 1 1 0.5897 8.169377204214426 5.525189981403834 14.097876313535252 -6 5 -7
43 1 2 -1.1794 6.083641946628885 2.350204969237354 11.407153989939717 -4 6 0
745 1 2 -1.1794 3.554053058826165 4.7272417478483515 12.017929568652162 4 4 -10
42 1 1 0.5897 7.218095613234264 3.477446046987442 15.16165606935565 -2 1 4
575 1 1 0.5897 3.267675058672901 3.3433150473006976 14.942411492324883 3 5 -3
521 1 1 0.5897 6.851268469782051 5.090338887732154 11.4341721458132 -6 -3 -2
479 1 1 0.5897 8.295465618759327 4.597341078321963 12.908320173068029 -6 5 -7
44 1 1 0.5897 5.260511722851802 2.122885754268241 11.83957671127946 -4 6 0
478 1 2 -1.1794 7.721604217064717 4.81129928797302 13.643927442251808 -6 5 -7
522 1 1 0.5897 6.102104751489831 6.405003426918874 11.386924036915664 -6 -3 -2
41 1 1 0.5897 8.211014547718548 2.3416052509915395 15.035792954201671 -2 1 4
563 1 1 0.5897 4.501651017747272 5.37033956469339 13.476160748871921 3 -3 3
562 1 2 -1.1794 5.024154867246946 5.3768098342813175 14.278127122077223 3 -3 3
576 1 1 0.5897 3.102535608317346 3.8964997727633452 13.542921109898558 3 5 -3
825 1 1 0.5897 3.7472507643434456 5.30110290219084 15.913895790349107 -4 6 2
213 1 1 0.5897 2.464747492780038 6.118736368407035 12.682481182809846 1 -1 3
40 1 2 -1.1794 7.357479183848855 2.5630760805419435 15.40812796192655 -2 1 4
78 1 1 0.5897 0.8764464563841141 3.160874325334701 13.357312392445829 -2 -4 -5
520 1 2 -1.1794 6.040783220591038 5.488722212335034 11.116969464770618 -6 -3 -2
786 1 1 0.5897 5.784282503993621 1.9279166575634612 14.844209940176636 4 6 3
564 1 1 0.5897 5.89058876517957 5.077638626932908 14.002464769144629 3 -3 3
45 1 1 0.5897 6.762798505503449 2.016478688276235 11.993305994749607 -4 6 0
746 1 1 0.5897 4.391079983452505 4.888786851820045 11.582620853920943 4 4 -10
517 1 2 -1.1794 0.48563931971595053 6.214420334880583 15.300322240293834 1 1 -4
747 1 1 0.5897 3.033926941506505 4.252773195789423 11.369425619059575 4 4 -10
475 1 2 -1.1794 9.04048688859357 4.9277209578342624 11.251848700532829 2 -4 -2
518 1 1 0.5897 0.9785481843077357 6.37446111070668 14.495546383395489 1 1 -4
485 1 1 0.5897 8.224851583857006 2.153387509483178 17.333644132709882 -3 6 0
308 1 1 0.5897 5.763546299943305 4.5916392392724585 19.07498497455517 2 2 -4
107 1 1 0.5897 2.596528270245749 3.669519906335522 17.60228394950556 -3 -1 5
106 1 2 -1.1794 2.09674734815792 3.021897805711042 18.099293570729085 -3 -1 5
140 1 1 0.5897 0.697381782527646 3.822503819709842 21.640777697548458 -1 3 1
139 1 2 -1.1794 1.3942632273697795 4.289632742059706 21.179927484160064 -1 3 1
432 1 1 0.5897 6.682458878651993 5.141563822309637 17.206988255722315 -9 -1 -5
307 1 2 -1.1794 5.908496784360155 4.053659167375766 18.296662677071144 2 2 -4
806 1 1 0.5897 6.0266962278880705 5.82756704782096 20.889821215101794 2 0 -6
484 1 2 -1.1794 7.920314903205965 2.0451089503068713 18.23463319176517 -3 6 0
430 1 2 -1.1794 7.150925823035864 5.690280883184062 16.57796494726288 -9 -1 -5
309 1 1 0.5897 5.110862916522681 4.161287030562782 17.77858676007467 2 2 -4
824 1 1 0.5897 3.238903635830755 5.933567107657734 17.191942968654576 -4 6 2
860 1 1 0.5897 7.451666655782881 1.873059601167079 20.38469077736467 -1 -2 6
108 1 1 0.5897 2.3744483147518967 3.1490793364361553 19.006436789748783 -3 -1 5
608 1 1 0.5897 3.2262513201416048 3.5674855688182516 20.942623397205377 3 0 5
767 1 1 0.5897 9.102479775477502 3.6406154206924866 20.157043415711303 2 0 6
486 1 1 0.5897 7.097259233102761 2.5324963340184494 18.269936535698076 -3 6 0
859 1 2 -1.1794 7.856537542164 2.081805312781485 21.226557654557816 -1 -2 6
823 1 2 -1.1794 3.740339333581141 5.186986435951901 16.86423099919654 -4 6 2
607 1 2 -1.1794 4.089918358421683 3.2704225418838946 20.656202062427948 3 0 5
805 1 2 -1.1794 5.255649895027029 5.795315377050811 20.32355727850405 2 0 -6
431 1 1 0.5897 7.420031470727356 6.457767752647526 17.082699084610276 -9 -1 -5
410 1 1 0.5897 8.673740784333502 4.727886363872983 16.681519677317734 5 0 -5
609 1 1 0.5897 4.660639291269675 4.027051070574089 20.790415660684065 3 0 5
249 1 1 0.5897 4.394722455561325 1.845812155184277 19.74843192543197 -3 1 -3
433 1 2 -1.1794 9.096967854536809 6.656799693336328 20.596318483287163 -1 5 -6
125 1 1 0.5897 3.99252721201832 8.713505784448198 2.9250370193046757 3 0 5
231 1 1 0.5897 7.733044190025139 8.965057045236769 1.9924147372373189 -2 1 2
230 1 1 0.5897 6.513830913570186 8.936862786951268 1.095449187734131 -2 1 2
371 1 1 0.5897 0.7124013353255505 10.038248622613702 3.749373703534896 6 3 -1
229 1 2 -1.1794 6.911242788256672 8.496412088221444 1.846642607010364 -2 1 2
138 1 1 0.5897 6.151353342035495 7.915993224794421 5.015582491291573 10 -9 0
445 1 2 -1.1794 4.498292340499795 6.983237217938304 5.402129200177864 1 4 -1
37 1 2 -1.1794 1.8310644325246057 7.613100629268134 5.670435178772703 0 -2 -5
131 1 1 0.5897 4.659267056971232 10.482798109595327 3.700800274243642 -6 4 -1
130 1 2 -1.1794 3.9956491567839802 10.026960865849308 4.21852230903381 -6 4 -1
132 1 1 0.5897 4.20448988162936 10.249406120953356 5.1257764454169426 -6 4 -1
446 1 1 0.5897 3.604923380519405 7.284351694644869 5.567731716596477 1 4 -1
124 1 2 -1.1794 3.694146516111007 8.125628678121132 2.231074806612611 3 0 5
532 1 2 -1.1794 5.8617434537002335 11.457710102154893 2.83702788560683 -3 -2 0
126 1 1 0.5897 4.2492197539983 7.350669213874196 2.3179088640170313 3 0 5
372 1 1 0.5897 2.1369508969433633 10.200101257003194 4.235477004230023 6 3 -1
370 1 2 -1.1794 1.2637643392999163 10.585314631729517 4.308765146906861 6 3 -1
507 1 1 0.5897 0.8247723565802609 7.756030495264573 2.5007006434993686 5 0 1
137 1 1 0.5897 6.785833035669528 8.293229923195792 3.6938355816551653 10 -9 0
136 1 2 -1.1794 6.919470369306243 8.34644445738261 4.640163514240262 10 -9 0
756 1 1 0.5897 8.557605394651045 7.974001613087243 5.105688372876462 -6 -5 -5
279 1 1 0.5897 7.346926793806062 9.585130613248353 5.785318143348758 3 -1 2
260 1 1 0.5897 0.48493809772692753 11.25984393232795 0.6777782648750671 1 -1 10
39 1 1 0.5897 1.4974913419564322 8.465007742797694 5.38896484247023 0 -2 -5
380 1 1 0.5897 8.65293771953329 11.622209217832506 2.160378149854682 3 0 1
258 1 1 0.5897 1.715288328666651 11.459188616147546 2.861407445060016 4 -2 2
533 1 1 0.5897 5.395440227099957 11.786910302522934 2.068652555962665 -3 -2 0
687 1 1 0.5897 2.307076821155943 6.743991744410564 2.490681777244369 7 -9 -8
819 1 1 0.5897 2.7837829691358573 6.837294022946208 9.380752886361384 -3 -5 0
205 1 2 -1.1794 2.223359318799056 10.39913897950428 7.760627268356183 -5 3 -3
160 1 2 -1.1794 4.740176752658919 10.737475319110679 6.791359356335398 5 4 2
313 1 2 -1.1794 3.6026782737925744 8.465243041197517 9.272776070825474 -1 -3 0
152 1 1 0.5897 5.442063036868352 10.90365451016082 10.057712938747658 2 2 -5
151 1 2 -1.1794 5.6311251618015525 10.000868436076301 10.313526220849816 2 2 -4
38 1 1 0.5897 1.5199364582820565 7.519133530633675 6.570761448631431 0 -2 -5
353 1 1 0.5897 5.303763090677974 7.045691161138229 6.98790967066151 10 3 -2
153 1 1 0.5897 4.928751965835034 9.486573388325125 9.915542258935035 2 2 -4
841 1 2 -1.1794 7.664986249968636 8.829750728817395 8.8192004348662 -10 2 0
314 1 1 0.5897 3.1156029958150446 9.18655533579523 8.874415118766251 -1 -3 0
315 1 1 0.5897 4.194681908152202 8.165564692710934 8.58287677157812 -1 -3 0
207 1 1 0.5897 3.069498577488277 10.558218562184054 7.342333725553275 -5 3 -3
277 1 2 -1.1794 7.382875685754768 10.244644288542462 6.478106623426955 3 -1 2
278 1 1 0.5897 7.747390322762783 9.781067271730436 7.232058458395084 3 -1 2
161 1 1 0.5897 5.691463270416863 10.657454519989727 6.72157944102186 5 4 2
352 1 2 -1.1794 5.428346639099731 7.193695781604764 7.9253429632618655 10 3 -2
332 1 1 0.5897 8.438639780723674 11.58343953929525 7.317865350631243 1 -4 -3
843 1 1 0.5897 7.001248483801991 8.288755357293155 8.391438332009887 -10 2 0
206 1 1 0.5897 2.2633310978652266 10.894169848728069 8.578904571074878 -5 3 -3
842 1 1 0.5897 7.163847428283454 9.45937091458065 9.337519779605488 -10 2 0
162 1 1 0.5897 4.571672496671518 11.676158663024447 6.7095976402641755 5 4 2
503 1 1 0.5897 5.857806962990524 7.652622365240047 13.8624863675642 0 0 3
502 1 2 -1.1794 6.076873317513095 8.000871834037724 12.998231495494114 0 0 3
557 1 1 0.5897 4.497764068436971 7.828834265111879 15.94091928473923 5 1 2
690 1 1 0.5897 8.052817425673645 8.540558127364534 12.40695793207072 0 -3 4
558 1 1 0.5897 5.7735303756491465 7.01379154631828 15.948774201627357 5 1 2
809 1 1 0.5897 3.321265756549111 10.68621968364071 12.367204530265873 5 -1 1
405 1 1 0.5897 7.052857252440629 10.545606698192737 14.59109300417243 6 -2 -2
298 1 2 -1.1794 2.910900093964725 9.628021043144958 15.588954858096843 -7 0 -1
404 1 1 0.5897 6.857358552627817 9.580811139348665 15.741217612257692 6 -2 -2
617 1 1 0.5897 6.272553320971208 10.724282124944034 12.308631710580006 -4 1 2
403 1 2 -1.1794 7.518686739235107 10.125060776815083 15.313845901322678 6 -2 -2
184 1 2 -1.1794 0.5721456784944681 11.425750703327589 13.513946944241324 1 3 1
300 1 1 0.5897 2.7470227270561134 10.46290242349271 15.150286397046935 -7 0 -1
586 1 2 -1.1794 3.444867983113229 8.857257966803616 12.213617842154793 0 2 5
556 1 2 -1.1794 5.4510796840154985 7.915013812733764 15.941878325003321 5 1 2
588 1 1 0.5897 2.852650797536121 8.19587928557397 12.571474190482588 0 2 5
616 1 2 -1.1794 6.2378241974446 11.330365973270103 13.048670265288534 -4 1 2
504 1 1 0.5897 5.288952676176469 8.468417760254878 12.721126592182877 0 0 3
688 1 2 -1.1794 8.802845881908434 9.13378591920015 12.448779338610956 0 -3 4
810 1 1 0.5897 4.583567079501601 11.44487825700059 12.717775537002513 5 -1 1
808 1 2 -1.1794 3.649748405322116 11.567172719102212 12.546799888535032 5 -1 1
566 1 1 0.5897 0.48660121625525016 9.597376889752638 15.500371902775521 -4 2 -5
299 1 1 0.5897 3.8120975527998158 9.695525368615282 15.904401974797157 -7 0 -1
438 1 1 0.5897 8.981200486002582 8.092897707482662 14.411076910909209 -4 3 0
211 1 2 -1.1794 1.9282534369077275 6.757894878710972 13.15138015877102 1 -1 3
212 1 1 0.5897 1.092724016978318 6.75857326804784 12.68437128664908 1 -1 3
587 1 1 0.5897 3.371956189984367 8.756354316372605 11.264563507134435 0 2 5
297 1 1 0.5897 0.6436128934771332 9.355623783974464 11.208208439933093 3 3 -1
634 1 2 -1.1794 5.961428126968783 10.099487189087935 20.959618920324925 -6 1 2
635 1 1 0.5897 5.414485612021494 9.517736219729183 20.43176514755475 -6 1 2
709 1 2 -1.1794 4.43220154966232 8.298205264642483 19.53486243594826 0 -2 -2
554 1 1 0.5897 2.4789992740192037 10.792763427426621 19.26824956881489 -7 -9 3
217 1 2 -1.1794 8.157691082229746 7.933442634445246 18.073357860553887 3 -1 1
710 1 1 0.5897 4.204116350759664 8.171421196961862 18.613927844692807 0 -2 -2
536 1 1 0.5897 6.31940055033683 10.873457362198549 18.179543231676984 5 6 1
572 1 1 0.5897 1.1968266297223515 7.386420208398071 20.96105197448415 1 2 -5
51 1 1 0.5897 4.777567557724948 11.45174865406423 16.810266495500358 6 -3 -2
537 1 1 0.5897 7.0243630266326855 10.43123145580325 19.444194395322725 5 6 1
636 1 1 0.5897 5.364509643304988 10.786483916329683 21.256152536802155 -6 1 2
50 1 1 0.5897 3.9925187387109684 11.313272120841921 18.097256781012742 6 -3 -2
468 1 1 0.5897 1.0652371644635148 8.877421366654158 19.202330647757964 1 0 6
711 1 1 0.5897 3.6295955953446617 8.087680583865613 20.01206087102971 0 -2 -2
219 1 1 0.5897 7.741164400347903 8.79490975317097 18.09745491260094 3 -1 1
535 1 2 -1.1794 7.190343949166584 10.751439453836007 18.55754764965025 5 6 1
487 1 2 -1.1794 2.0924665090468064 7.485090537220799 17.184733398076588 3 -5 0
488 1 1 0.5897 2.2366975125472415 8.306287078459516 16.714537582290394 3 -5 0
571 1 2 -1.1794 1.9581142580602031 7.958937616310514 20.866807828952744 1 2 -5
553 1 2 -1.1794 2.9032730777733478 11.604707831856961 19.54563798870006 -7 -9 3
466 1 2 -1.1794 0.5923836202834449 9.68051332893326 18.98397248664812 1 0 6
105 1 1 0.5897 8.94567230778451 11.17890339472027 17.899505839742854 1 0 5
573 1 1 0.5897 2.441591865565968 7.852128507540669 21.68598976843888 1 2 -5
49 1 2 -1.1794 4.602241303413266 10.843508582588834 17.528255107569706 6 -3 -2
218 1 1 0.5897 8.980290149423137 8.0776109341273 17.605647651787496 3 -1 1
434 1 1 0.5897 8.760954284139544 7.03060295186253 19.781720640089954 -1 5 -6
489 1 1 0.5897 1.4530269127981914 7.012553209803008 16.651777104667026 3 -5 0
807 1 1 0.5897 5.055061994068937 6.712827824553409 20.138770796002493 2 0 -6
104 1 1 0.5897 8.944474130369779 10.769584593813951 16.442003030697308 1 0 5
462 1 1 0.5897 5.994572766564203 16.203697950241242 2.727245024759564 -1 2 -4
552 1 1 0.5897 5.5794361876932825 14.814100594775384 0.5817070660259757 1 3 -3
460 1 2 -1.1794 6.744237798293383 15.923950318627183 3.252548860724419 -1 2 -4
441 1 1 0.5897 4.154677975421874 15.607839490925704 2.4082843544707204 -1 3 0
439 1 2 -1.1794 4.38263277242093 15.959780950155432 1.5478163759570833 -1 3 0
346 1 2 -1.1794 6.535404780114007 13.447131702149631 4.726134146536199 -4 1 -5
262 1 2 -1.1794 3.8090332422922573 14.954878637445844 4.1659347519033965 3 -1 3
508 1 2 -1.1794 1.5991372707902325 16.456984366470813 1.2466339801433741 2 -2 6
381 1 1 0.5897 8.625074002140087 13.114833390547483 1.9091394842902323 3 0 1
348 1 1 0.5897 6.843737204036519 14.203994319831748 4.227839121427956 -4 1 -5
316 1 2 -1.1794 4.137003118217972 12.29747088201243 0.8069782510871568 -1 -2 -1
347 1 1 0.5897 6.162915936110142 12.861445515180957 4.067021013204728 -4 1 -5
263 1 1 0.5897 2.9682300737365126 15.374320724327394 4.348519968793951 3 -1 3
257 1 1 0.5897 2.4889095906326264 12.00625678617714 1.680690832139234 4 -2 2
510 1 1 0.5897 0.9102985528604941 15.809462294156399 1.3963993415269607 2 -2 6
440 1 1 0.5897 3.6781594688779786 16.575600399189163 1.3460971943421243 -1 3 0
775 1 2 -1.1794 3.202986292568458 12.7845519114905 5.602825906331128 0 -7 -2
776 1 1 0.5897 2.5870235363494394 12.247521931706503 5.104434670117433 0 -7 -2
264 1 1 0.5897 3.739147138332542 14.090578255697878 4.571376122734526 3 -1 3
178 1 2 -1.1794 1.3683170768633168 16.11316916614794 4.696790204429088 -11 4 -1
461 1 1 0.5897 6.755432489325102 16.527587279585816 3.9953231113556544 -1 2 -4
379 1 2 -1.1794 8.43254816226046 12.455778897800299 2.5760611035044456 3 0 1
179 1 1 0.5897 0.5750889806995774 16.440153544591546 4.2724358264217965 -11 4 -1
122 1 1 0.5897 0.5424454647102124 13.365175293703398 1.784740362191054 3 -4 0
551 1 1 0.5897 6.928790688768925 14.127907989154025 0.59618861662755 1 3 -3
256 1 2 -1.1794 1.6033896594694346 11.931272767366499 2.0362641345513532 4 -2 2
760 1 2 -1.1794 8.832831016454572 14.346650952784668 0.7931039984612738 2 1 3
761 1 1 0.5897 8.724578138314254 15.28281114840963 0.6254539223480298 2 1 3
180 1 1 0.5897 1.7038463886469752 16.862735157472514 5.188497763188735 -11 4 -1
534 1 1 0.5897 6.7171182246859225 11.885737232596512 2.8002812148645644 -3 -2 0
317 1 1 0.5897 4.587465247366073 13.097302255533132 0.5357502437052375 -1 -2 -2
442 1 2 -1.1794 4.649847204846618 16.106815174055715 6.554822073751144 3 3 -1
730 1 2 -1.1794 5.219762453183333 12.607148615577335 9.804068920974387 -1 -2 -5
770 1 1 0.5897 8.23317675333385 13.985560263128722 8.678397518940777 4 1 0
777 1 1 0.5897 2.6491026289177126 13.323201936998153 6.167872138342263 0 -7 -2
749 1 1 0.5897 2.723932216525033 16.209057565322944 10.631567047309192 0 5 -1
464 1 1 0.5897 2.8177354509375445 14.618038544410933 8.642764034652187 3 0 2
463 1 2 -1.1794 2.2353190415567714 13.991862090287423 8.212745908586385 3 0 2
320 1 1 0.5897 6.254496482037734 13.679322228044933 6.531111914533746 4 -2 4
771 1 1 0.5897 8.022826090425685 15.465436073418704 8.91832938926646 4 1 0
443 1 1 0.5897 3.95893782335297 16.700771527306458 6.848192649114004 3 3 -1
319 1 2 -1.1794 6.1050942630590574 13.939397837700602 7.440099115391693 4 -2 4
732 1 1 0.5897 5.7826990634753 12.869138347072145 10.532549693593776 -1 -2 -5
236 1 1 0.5897 7.782110704418132 13.900765399987545 11.05867996841325 0 -5 -2
731 1 1 0.5897 5.4369643063673365 13.219094703216403 9.100812781095941 -1 -2 -5
769 1 2 -1.1794 8.32027416297369 14.663666122837771 9.348325313726422 4 1 0
321 1 1 0.5897 5.652886169370086 14.7807433405235 7.377786302070459 4 -2 4
748 1 2 -1.1794 3.20589344542145 15.610235267761935 10.061189061875451 0 5 -1
331 1 2 -1.1794 8.844764365091656 12.320935113201376 7.7733016197289135 1 -4 -3
750 1 1 0.5897 4.008424280677161 16.082904764693133 9.840358287608254 0 5 -1
239 1 1 0.5897 5.898263882333759 16.88893178669756 11.020430501836286 -9 -3 1
629 1 1 0.5897 2.5670067887543335 12.166148332460203 10.923655397538576 -2 -5 3
465 1 1 0.5897 2.1892862066264396 13.251980894152572 8.818285740601883 3 0 2
9 1 1 0.5897 0.744525604837343 15.182557804806038 8.126045694768234 7 3 2
630 1 1 0.5897 1.1461371608664974 12.247056034628153 10.407492179118172 -2 -5 3
696 1 1 0.5897 6.119773321322817 16.79654685435367 6.031291800989467 2 -2 1
628 1 2 -1.1794 2.008434036754304 11.888423953707159 10.197654296380287 -2 -5 3
444 1 1 0.5897 4.2457380668507865 15.596693402767862 5.852909800725062 3 3 -1
128 1 1 0.5897 6.1082403720143 13.03878219455452 15.768533855393091 -3 1 -9
267 1 1 0.5897 7.289839666573849 16.367147114301005 12.881950344750376 -4 -2 0
237 1 1 0.5897 6.453757745726263 14.181178520654106 11.728603801097552 0 -5 -2
358 1 2 -1.1794 3.572989817184729 16.104647558147384 14.187779719644308 6 5 -6
788 1 1 0.5897 8.366759796587392 12.696907360562442 14.373484906099918 5 -3 3
548 1 1 0.5897 0.6200368186581883 14.856330819426942 13.339322721434383 11 -1 1
780 1 1 0.5897 4.119782667800346 14.659984024240192 11.30878001622294 -3 1 1
591 1 1 0.5897 0.7619292867414655 12.520724118603267 15.395161902736236 6 2 3
265 1 2 -1.1794 6.341331827811809 16.489450038518555 12.841993488405723 -4 -2 0
98 1 1 0.5897 3.657100254150473 12.79686220666244 15.382564777083854 0 -5 -1
778 1 2 -1.1794 4.477839080394837 14.300166680772804 12.120280818315353 -3 1 1
789 1 1 0.5897 8.2646333792289 14.006775817927215 15.12563735104322 5 -3 3
549 1 1 0.5897 1.804644771641731 13.97926334501119 13.684787926026432 11 -1 1
254 1 1 0.5897 2.7632867584029057 15.89092679056989 15.781051712463148 -1 4 -5
359 1 1 0.5897 4.202272067411425 15.641307338959985 13.635036373877153 6 5 -6
779 1 1 0.5897 4.199819741466776 13.384245217747523 12.119900472259538 -3 1 1
235 1 2 -1.1794 7.113471153647082 13.497379035257678 11.612216403502613 0 -5 -2
787 1 2 -1.1794 7.743893835145613 13.257730477647018 14.835791813935327 5 -3 3
618 1 1 0.5897 6.624980029623395 12.13949436532735 12.714571002323597 -4 1 2
99 1 1 0.5897 3.2103541886086786 12.18184360045393 14.07332420078409 0 -5 -1
547 1 2 -1.1794 1.1888047643840667 14.176010813440088 12.978911323101835 11 -1 1
672 1 1 0.5897 5.646909480220833 15.615910971675778 15.425385594529732 6 -3 1
97 1 2 -1.1794 2.882489910340035 12.469369914768231 14.925421930901159 0 -5 -1
670 1 2 -1.1794 6.0732246885131005 16.01977770808901 16.18127382099974 6 -3 1
360 1 1 0.5897 2.7376526071233664 16.012513989367264 13.729592854031608 6 5 -6
127 1 2 -1.1794 5.243514940232366 13.09154128105678 16.175568564837604 -3 1 -9
671 1 1 0.5897 5.573965766185471 16.82116102304927 16.338552913199173 6 -3 1
186 1 1 0.5897 0.6011131217727187 12.371464662872077 13.369065795332634 1 3 1
159 1 1 0.5897 7.660699988281983 16.59640771264295 15.37752532487692 4 3 -2
657 1 1 0.5897 0.6387711656670391 16.824336819674336 13.111931493735128 -7 4 1
157 1 2 -1.1794 8.501765722732717 16.852427242853302 14.999012397955758 4 3 -2
202 1 2 -1.1794 7.54536863046951 15.442954287762323 18.799380391926174 -1 3 -1
269 1 1 0.5897 1.8289216755336057 14.467292122527441 17.832133557457478 1 0 2
253 1 2 -1.1794 2.290819350773825 15.848451636294557 16.612431173020102 -1 4 -5
255 1 1 0.5897 1.641213757445679 16.549140316507025 16.555366012817995 -1 4 -5
274 1 2 -1.1794 5.006666037149974 13.99258717948051 18.876813751383647 -4 2 2
129 1 1 0.5897 5.406951314054883 13.474383169934283 17.037498890656543 -3 1 -9
204 1 1 0.5897 6.6155556688973345 15.218344232538188 18.764726591843253 -1 3 -1
64 1 2 -1.1794 8.749107125317481 13.043255317438023 19.330181301565908 5 2 -1
268 1 2 -1.1794 1.4314109667785244 13.733149829556957 18.300350842829697 1 0 2
590 1 1 0.5897 0.7953058953715237 13.06747656940225 16.80648389095729 6 2 3
275 1 1 0.5897 5.3258924936318595 14.073151154830907 19.775604752842735 -4 2 2
270 1 1 0.5897 0.825219490168178 14.142318204847719 18.917860514978834 1 0 2
66 1 1 0.5897 8.110003047466213 12.391900299851956 19.04124271139546 5 2 -1
193 1 2 -1.1794 4.109391535874941 16.637182282228842 18.92493718202144 1 -5 -2
65 1 1 0.5897 8.331576066247385 13.88552119259976 19.15000217571494 5 2 -1
203 1 1 0.5897 7.823164402049264 15.456965878637916 17.883489519427233 -1 3 -1
276 1 1 0.5897 4.378861989986088 14.708707120806904 18.779972364048554 -4 2 2
762 1 1 0.5897 9.01506748851805 13.96831471188008 21.10574416690168 2 1 2
550 1 2 -1.1794 6.041181300321465 14.045073971569064 21.420433991385327 1 3 -4
555 1 1 0.5897 2.377527936018528 12.298392587641198 19.14736771057505 -7 -9 3
318 1 1 0.5897 3.6048424741698066 12.053211735821922 21.222583934279843 -1 -2 -2
471 1 1 0.5897 2.3317488672619833 21.22679417623239 0.9544037218245595 2 1 3
365 1 1 0.5897 7.938484223048441 20.676890944081837 3.809553866017615 4 3 6
399 1 1 0.5897 8.956481767782355 17.64149153461878 0.8551700175802511 5 1 -6
366 1 1 0.5897 6.669230719075989 19.96493046092152 4.22663261949485 4 3 6
814 1 2 -1.1794 4.4025397618673985 18.229909454877443 4.131222453573114 -2 10 -5
559 1 2 -1.1794 5.525064587411973 19.105882534131386 1.7499787769636928 6 0 2
774 1 1 0.5897 1.9688962549852682 19.128957433835275 3.5603916259017363 2 -1 5
798 1 1 0.5897 8.834730703227027 18.375294685064677 3.6254262261639094 0 -3 -4
560 1 1 0.5897 5.1611252419924005 18.672864606407238 2.522155590887023 6 0 2
364 1 2 -1.1794 7.040734597203716 20.502316414640468 3.527057091893863 4 3 6
772 1 2 -1.1794 1.2880030971594738 18.798643773123604 2.9742871264565647 2 -1 5
561 1 1 0.5897 6.270340052750465 19.605289559106204 2.0837972775013363 6 0 2
816 1 1 0.5897 5.023798001288541 17.842414501166786 4.747747786569243 -2 10 -5
773 1 1 0.5897 1.2001670004535205 19.47533066758973 2.3030216675410315 2 -1 5
145 1 2 -1.1794 2.6189957937196726 20.618273169452042 4.583935720013269 -2 4 -4
797 1 1 0.5897 8.051829658778448 17.274338120941263 2.942209678343084 0 -3 -4
509 1 1 0.5897 1.3988883509395833 17.16607943264762 1.8576066596794463 2 -2 6
815 1 1 0.5897 3.998577541550318 18.948660000050726 4.617451437311337 -2 10 -5
796 1 2 -1.1794 8.493760886663209 18.106255877228957 2.7724547937249993 0 -3 -4
469 1 2 -1.1794 1.4942869165243475 20.763254972904832 0.9565996754588433 2 1 3
652 1 2 -1.1794 4.123614642418801 21.55078715814655 1.2122509656641678 1 -3 3
719 1 1 0.5897 8.817288676907287 19.97846044112743 1.8459927389746578 -1 1 4
654 1 1 0.5897 4.557108519418076 20.799964217959452 1.6179063687055564 1 -3 3
147 1 1 0.5897 3.2680585633479096 21.32167758184991 4.596760321619331 -2 4 -4
720 1 1 0.5897 8.923580241579636 21.17302896590817 0.9221005960161456 -1 1 4
146 1 1 0.5897 2.02299329426728 20.828567565841652 5.3028058480750255 -2 4 -4
694 1 2 -1.1794 6.830207651632713 17.2927933436555 5.6247221223407315 2 -2 1
470 1 1 0.5897 0.8365808688627914 21.455663969036056 0.8917400072713957 2 1 3
512 1 1 0.5897 5.579169603181199 20.789260392485062 8.998424963536547 0 2 1
511 1 2 -1.1794 5.131103757851307 20.000503720293754 8.692903914078999 0 2 1
232 1 2 -1.1794 2.150584058446112 17.647806242669503 6.750585617915549 -3 -2 0
374 1 1 0.5897 7.38947436947972 18.3115066362173 7.846105904142452 2 3 -3
743 1 1 0.5897 1.782681027148319 19.807007730612167 9.619572263391557 1 0 3
792 1 1 0.5897 8.842034282191415 19.65802183812858 6.126935451398166 5 2 3
742 1 2 -1.1794 2.1653326654962823 19.66872648091238 8.753140580990982 1 0 3
744 1 1 0.5897 3.1058150515749183 19.594878011318254 8.915149961024431 1 0 3
375 1 1 0.5897 8.210540868003173 18.20304901811882 9.113349888014575 2 3 -3
457 1 2 -1.1794 5.412739918730683 20.484889310677776 6.037507554052206 -4 0 -1
240 1 1 0.5897 6.405940317691911 17.378127221265885 9.68068885612182 -9 -3 1
373 1 2 -1.1794 7.650979574748298 17.692723557078235 8.527972468154214 2 3 -3
234 1 1 0.5897 2.311631424060219 18.46792559097073 7.217148147674991 -3 -2 0
513 1 1 0.5897 5.267327825016985 19.998894661355756 7.7454622968569184 0 2 1
391 1 2 -1.1794 0.973582058772003 21.256329956479558 6.794213607710576 5 -7 -2
498 1 1 0.5897 4.532643109946405 18.52062600614576 10.57208471268014 4 2 -1
238 1 2 -1.1794 5.620238463082017 17.051350413953415 10.11900207501744 -9 -3 1
392 1 1 0.5897 1.5437203799605907 20.933429042104734 7.491998043827755 5 -7 -2
458 1 1 0.5897 6.316089971162671 20.311552140750454 6.302379693988123 -4 0 -1
791 1 1 0.5897 8.851271891530152 20.266215037435977 7.513246019702689 5 2 3
790 1 2 -1.1794 8.26452020693156 19.90299023801198 6.849895649186066 5 2 3
233 1 1 0.5897 1.449262284220419 17.223987808673773 7.245300716028042 -3 -2 0
695 1 1 0.5897 7.606061927206757 17.06425094409552 6.136650907610849 2 -2 1
459 1 1 0.5897 5.388226262887851 21.42705427825148 5.8703172476754535 -4 0 -1
92 1 1 0.5897 8.704923942294835 21.912513653595397 8.521835559835278 0 -6 -3
349 1 2 -1.1794 6.277304655891875 19.47176180685529 13.249871077293475 -11 1 -1
156 1 1 0.5897 3.2173175718322997 18.325858161649304 13.734200562847365 4 2 -4
610 1 2 -1.1794 8.804190257275256 20.016896025970222 14.859083902860855 4 -1 -1
154 1 2 -1.1794 3.431229522077663 19.155680155017006 14.16063190659928 4 2 -4
497 1 1 0.5897 4.796542850481709 19.149210189289796 11.923785676809993 4 2 0
682 1 2 -1.1794 1.8517671188964697 17.43855390568386 11.633875711830061 0 0 -5
155 1 1 0.5897 2.647302083935056 19.37604439369226 14.663723444269193 4 2 -4
784 1 2 -1.1794 5.081340046824809 21.792955285172624 14.54484577629102 4 5 3
158 1 1 0.5897 8.54773298336092 17.798888505938592 15.134429001547522 4 3 -2