LAMMPS data file via write_data, version 30 Jul 2021, timestep = 3000000

972 atoms
2 atom types
648 bonds
1 bond types
324 angles
1 angle types

-0.16631586439826407 20.166316864397913 xlo xhi
0.0055763915990016955 19.9944246084008 ylo yhi
-0.29471887418375076 20.99471687418371 zlo zhi

Masses

1 1.008
2 15.999

Pair Coeffs # lj/cut/tip4p/long/omp

1 0 0
2 0.21084 3.1668

Bond Coeffs # harmonic/omp

1 450 0.9572

Angle Coeffs # harmonic/omp

1 55 104.52

Atoms # full

10 4 2 -1.1794 1.1668922610264305 4.079698119041139 3.950710730901881 0 0 0
11 4 1 0.5897 1.2409193763966568 3.327954942408826 3.362789093965302 0 0 0
12 4 1 0.5897 2.0561391897737216 4.429926504921538 4.005588537752336 0 0 0
16 6 2 -1.1794 3.9314608889375924 4.26934321027797 3.2747260657282666 0 0 0
18 6 1 0.5897 4.061901263303432 3.35083432645807 3.038885614957373 0 0 0
20 7 1 0.5897 1.1107382390010168 5.129610714393259 2.2112710717242083 0 0 0
113 38 1 0.5897 4.706483089183516 7.651162645023406 3.9160709936733094 0 0 0
31 11 2 -1.1794 0.9901046472944586 2.120343897649889 1.9084784140919941 0 0 0
1 1 2 -1.1794 2.883582238329282 2.4270456056962244 -0.0018401311175831325 0 0 0
110 37 1 0.5897 2.4010910681254325 8.639225008745683 0.33349152781032854 0 0 0
21 7 1 0.5897 -0.0329355935894203 5.443516723753456 1.270160786137926 0 0 0
5 2 1 0.5897 4.131332981692713 0.9073940194971692 2.4767527730432914 0 0 0
14 5 1 0.5897 4.340042793541661 5.819688957665057 0.3378396077327216 0 0 0
4 2 2 -1.1794 4.362258199308348 1.5355511023765973 3.161127868356451 0 0 0
139 47 2 -1.1794 0.9744450899318233 8.204075916832979 1.6780438456547826 0 0 0
33 11 1 0.5897 1.6967586465907116 2.282522696644233 1.283421189868107 0 0 0
23 8 1 0.5897 2.746796649271131 0.8588088139836795 4.690045973796186 0 0 0
19 7 2 -1.1794 0.9206830065455616 5.485057015118755 1.3430646910314885 0 0 0
141 47 1 0.5897 0.9364217080555675 7.247784814479333 1.6593272500968448 0 0 0
17 6 1 0.5897 3.9668642776999334 4.73852492782477 2.4411581515649283 0 0 0
112 38 2 -1.1794 4.014742692358964 7.771052787347217 3.2653528194041477 0 0 0
9 3 1 0.5897 4.897133174997772 4.430804958005518 4.636961042666702 0 0 0
114 38 1 0.5897 3.200760174036931 7.667937327050731 3.758464730570652 0 0 0
111 37 1 0.5897 3.8148925164985905 9.009251244999444 -0.062289396284442716 0 0 0
13 5 2 -1.1794 4.829025187084928 5.852424209247139 1.1600885425548755 0 0 0
15 5 1 0.5897 4.543414720238156 6.665424123626975 1.5769244962993725 0 0 0
3 1 1 0.5897 3.806515677576522 2.2637746915256454 0.19300374975471912 0 0 0
140 47 1 0.5897 0.9806041139230677 8.425838480174237 2.609186010297712 0 0 0
236 79 1 0.5897 0.9500831035480595 0.22597996896002784 1.7738677386054702 0 1 0
32 11 1 0.5897 0.18796288306378373 2.227093388883227 1.397046512264093 0 0 0
126 42 1 0.5897 3.908397990234217 9.614379184704353 3.3126776642899025 0 0 0
325 109 2 -1.1794 2.5502956025904524 2.5199241216929367 7.51775664803229 0 0 0
326 109 1 0.5897 2.2769652881929936 2.2245625172459045 6.649243892938823 0 0 0
327 109 1 0.5897 3.4798606939926215 2.2962206499270192 7.5658494953802045 0 0 0
355 119 2 -1.1794 0.5561848425797966 1.9648544906841086 9.374254778767485 0 0 0
356 119 1 0.5897 1.156322819209979 2.0057621803139365 8.629621907688577 0 0 0
25 9 2 -1.1794 2.245133204030737 5.232971474662928 6.82610934595184 0 0 0
131 44 1 0.5897 2.1071376441019867 6.665406728823978 5.632244438578818 0 0 0
27 9 1 0.5897 2.3487771825187345 4.2952188513065295 6.987880620388881 0 0 0
437 146 1 0.5897 4.054628353243406 7.173523631127757 9.958390244572628 0 0 0
342 114 1 0.5897 3.5424292695815667 4.590999353660517 9.678787386364409 0 0 0
337 113 2 -1.1794 4.283956618734822 6.15291676270285 8.506905436163127 0 0 0
26 9 1 0.5897 1.6956032973936734 5.541527531761645 7.546613571670629 0 0 0
330 110 1 0.5897 3.4985530669019833 0.6522744862485249 9.921657259702645 0 0 0
339 113 1 0.5897 3.836221071175358 5.801743561949018 7.7371696259865015 0 0 0
435 145 1 0.5897 1.951924283527804 8.744355278341155 6.438494505888536 0 0 0
468 156 1 0.5897 4.19945108387659 9.11702058597369 7.3097695330006225 0 0 0
24 8 1 0.5897 2.133200455606561 0.12153680940691901 5.861353628268639 0 0 0
463 155 2 -1.1794 0.4414293953396575 8.851808425754022 9.14935174010426 0 0 0
345 115 1 0.5897 0.37837566880224793 7.09041247523048 8.68098774379214 0 0 0
433 145 2 -1.1794 2.204186951111349 9.3455518759743 7.139341031914132 0 0 0
464 155 1 0.5897 1.072825594444357 9.092178960307107 8.471207763343006 0 0 0
344 115 1 0.5897 0.6117279488585644 5.691808813093468 9.211551798386486 0 0 0
343 115 2 -1.1794 0.29988239075691125 6.166998310575459 8.441342072051398 0 0 0
22 8 2 -1.1794 2.015726563143382 0.8930636588949937 5.307074314977835 0 0 0
130 44 2 -1.1794 1.92871691315474 7.414547511561674 5.0637059504171935 0 0 0
132 44 1 0.5897 0.9791680948510617 7.528161182147798 5.107273588076245 0 0 0
102 34 1 0.5897 0.0038843892242038935 1.1634460188489784 5.074522240813644 1 0 0
649 217 2 -1.1794 2.477641886365838 2.2352475196362063 14.346171520878682 0 0 0
650 217 1 0.5897 2.207914175283666 1.883972187980038 13.497574782206646 0 0 0
668 223 1 0.5897 1.0775131744389728 5.438053695506147 15.312313385752072 0 0 0
758 253 1 0.5897 2.6645509143584767 9.931504013319826 14.011269756269648 0 0 0
757 253 2 -1.1794 2.6812898606073756 9.051468789674667 14.387485318229384 0 0 0
348 116 1 0.5897 2.1378521081882202 0.9251512025468626 11.458993119146584 0 0 0
350 117 1 0.5897 2.499491411379183 4.224317005885488 14.095786908140417 0 0 0
533 178 1 0.5897 0.14692378985990662 7.4933631683098625 12.2606581576469 1 0 0
683 228 1 0.5897 4.4300350322734285 2.6372665853875064 14.609342650803239 0 0 0
456 152 1 0.5897 2.1735158058128836 6.521431904544832 12.819514071211566 0 0 0
347 116 1 0.5897 0.7931087296118425 0.6849096930859366 12.111845471551764 0 0 0
334 112 2 -1.1794 0.8460819791279577 4.393737521171092 10.650177722981581 0 0 0
351 117 1 0.5897 3.253965648207941 5.370161924497696 14.736050426011836 0 0 0
759 253 1 0.5897 2.488034586497771 8.47175394583531 13.650727310750076 0 0 0
349 117 2 -1.1794 2.5473277641088306 5.180070497076173 14.118890301490165 0 0 0
651 217 1 0.5897 1.80250222252214 1.9360261096547324 14.955273167165117 0 0 0
454 152 2 -1.1794 1.9633684537228748 7.359342897705877 12.407169554345812 0 0 0
455 152 1 0.5897 2.621793485647032 7.460287773205709 11.719702695678434 0 0 0
346 116 2 -1.1794 1.7282314613505632 0.7496007591758597 12.306148671172828 0 0 0
336 112 1 0.5897 1.7613927916285008 4.48246628253731 10.916197103379101 0 0 0
329 110 1 0.5897 4.379257376522386 1.3232107064004952 10.954184268540313 0 0 0
792 264 1 0.5897 4.507410313679994 8.822055748903184 14.730121189768541 0 0 0
340 114 2 -1.1794 3.6271309988903124 4.232324133943839 10.56219826631189 0 0 0
438 146 1 0.5897 4.116867312960476 8.481958368994588 10.717298546302706 0 0 0
789 263 1 0.5897 1.2262560540301237 8.625757493190838 15.484618461014517 0 0 0
328 110 2 -1.1794 3.5739446434751807 1.445907307552328 10.451479403277206 0 0 0
436 146 2 -1.1794 4.21901455460671 7.5367644025618645 10.8285961464731 0 0 0
332 111 1 0.5897 4.826549574436944 4.598748387739637 11.837769419346866 0 0 0
341 114 1 0.5897 3.7554301677151174 3.293180920791304 10.428645197635003 0 0 0
335 112 1 0.5897 0.7576470343218492 3.474740024550495 10.397360644042134 0 0 0
652 218 2 -1.1794 4.177874318280851 1.032045068113298 17.219840842694655 0 0 0
653 218 1 0.5897 3.3278790459070673 0.8675763581200556 17.62832952230716 0 0 0
658 220 2 -1.1794 1.1904170840093475 3.9084495244195177 17.802824166766147 0 0 0
654 218 1 0.5897 4.163792304992015 0.5096567437944792 16.417878189873456 0 0 0
664 222 2 -1.1794 4.051741645203315 3.8141226871924436 18.041603118111986 0 0 0
666 222 1 0.5897 4.184269259814441 2.980066507142236 17.59096849382567 0 0 0
671 224 1 0.5897 2.334532324355391 1.241298140188915 19.61689804874166 0 0 0
670 224 2 -1.1794 1.8630225455378167 0.7965513215899258 18.912496134313656 0 0 0
788 263 1 0.5897 0.6481930695297753 9.172959833478581 16.77240866422392 0 0 0
109 37 2 -1.1794 2.915545098793287 8.997095684672844 20.899353404536736 0 0 -1
675 225 1 0.5897 2.8271273338180096 6.0038556365284155 19.89054879904824 0 0 0
679 227 2 -1.1794 0.4396646374841334 1.559723375745984 16.213019452165067 0 0 0
2 1 1 0.5897 2.8600712376524977 3.3327598129344764 20.978768607292164 0 0 -1
669 223 1 0.5897 0.6329709711465467 6.526789145225421 16.26576634754229 0 0 0
665 222 1 0.5897 3.104373784284635 3.871438804710496 18.166740790188648 0 0 0
660 220 1 0.5897 1.0130933091939323 4.534357813150309 17.100643823462093 0 0 0
681 227 1 0.5897 0.8043401327688061 2.1416126859929117 16.879884093982746 0 0 0
663 221 1 0.5897 4.766227601582536 6.429757934983282 16.46800015268586 0 0 0
659 220 1 0.5897 0.4351582025167017 3.9821766839721926 18.386356176613816 0 0 0
780 260 1 0.5897 3.475710098603833 7.447750241263518 18.270262990185383 0 0 0
779 260 1 0.5897 2.590030359648245 8.167526437691308 19.26503304898115 0 0 0
778 260 2 -1.1794 2.6388327210922156 7.375687851539742 18.72943242606395 0 0 0
761 254 1 0.5897 4.634639209405296 8.796039783349272 17.2951973761061 0 0 0
672 224 1 0.5897 0.9470848986190079 0.8105511267602461 19.1905024099066 0 0 0
858 286 1 0.5897 0.7384927602601999 7.111924862788054 18.826211740244652 1 0 0
667 223 2 -1.1794 0.3690641852078287 5.678400639441254 15.90955340095293 0 0 0
787 263 2 -1.1794 0.5445519728239451 8.464567661034046 16.13702577657497 0 0 0
662 221 1 0.5897 4.5487876458912915 4.93273793035998 16.52812873942292 0 0 0
673 225 2 -1.1794 2.7879062498399705 5.331835860617692 20.571071703194963 0 0 0
661 221 2 -1.1794 4.676692362473271 5.654961736680508 15.913097317602919 0 0 0
674 225 1 0.5897 1.9225890664969794 5.440278769787583 20.96586735616644 0 0 0
228 76 1 0.5897 0.3302492633629532 17.668661088345708 4.274252750090796 0 0 0
120 40 1 0.5897 0.6435761426907599 10.904491503235027 3.1088661589812014 0 0 0
129 43 1 0.5897 0.3237982946432358 13.233104153174542 1.9884812687630675 0 0 0
890 297 1 0.5897 1.434930836981713 18.93906767848273 0.07358132261638772 0 0 1
123 41 1 0.5897 3.8250337286063862 12.112686943220416 0.4971886776501364 0 0 0
221 74 1 0.5897 3.895924323914125 15.300864285408348 3.2688366667377493 0 0 0
124 42 2 -1.1794 3.730927261870001 10.547727670010167 3.429565861868753 0 0 0
119 40 1 0.5897 1.9526286019744314 10.348023821851397 3.62756316714285 0 0 0
125 42 1 0.5897 4.288813742490472 10.80812410205204 4.16255602382021 0 0 0
219 73 1 0.5897 3.031860852138939 15.846041440800452 0.09747484828787123 0 0 0
248 83 1 0.5897 0.5437611567275237 15.630398991374728 2.5591876093593537 0 0 0
232 78 2 -1.1794 3.6612912258473593 17.092690827682738 3.2587292449958727 0 0 0
118 40 2 -1.1794 1.0040746385241355 10.235338019646932 3.6907031284871223 0 0 0
247 83 2 -1.1794 0.5564304143947197 14.959797516294255 1.8762519875995247 0 0 0
233 78 1 0.5897 3.720060987442945 17.74724084482041 2.5627842766675983 0 0 0
238 80 2 -1.1794 1.5925215295010715 14.20335738826564 4.858692943047669 0 0 0
229 77 2 -1.1794 4.04330083765688 19.37563842767196 1.4501311628206308 0 0 0
122 41 1 0.5897 3.9463380043474974 11.79315269309798 1.9719505545128104 0 0 0
249 83 1 0.5897 1.3039537589783807 15.19239426026328 1.3253646704490147 0 0 0
127 43 2 -1.1794 0.30112146486960323 12.30978969803178 1.7369526472192987 0 0 0
222 74 1 0.5897 4.563942174204165 14.246229919716503 2.4123462116708585 0 0 0
235 79 2 -1.1794 0.6527964433418395 19.305130977999568 1.7547510619093565 0 0 0
226 76 2 -1.1794 0.8914251526346504 17.270155319155457 3.609012616978282 0 0 0
227 76 1 0.5897 0.788874392065529 17.831856524566618 2.8407685165625702 0 0 0
234 78 1 0.5897 2.8091158973531374 17.25043831393839 3.665246549991114 0 0 0
240 80 1 0.5897 2.3221379868495164 14.255703560748406 4.241220884253833 0 0 0
121 41 2 -1.1794 4.377519108033218 12.270095843711719 1.26285608996001 0 0 0
220 74 2 -1.1794 4.126846409888568 14.372011026194517 3.254608422176313 0 0 0
783 261 1 0.5897 1.5137517242328304 12.09179814495748 0.3000230334405454 0 0 1
230 77 1 0.5897 3.7013182816938266 19.113200902666826 0.5954776521344249 0 0 0
782 261 1 0.5897 2.233368609263509 10.834379187650981 -0.1394412838252066 0 0 1
133 45 2 -1.1794 2.1658949783628425 12.472095194334663 6.935116577817968 0 0 0
134 45 1 0.5897 1.502795494127256 12.60754850056065 7.612077876072872 0 0 0
135 45 1 0.5897 2.995811956923993 12.455203326986174 7.411900523381698 0 0 0
543 181 1 0.5897 2.0784387714010713 15.102455945995843 6.310776180806831 0 0 0
450 150 1 0.5897 3.9011180423681244 10.851337383999605 9.941501278173194 0 0 0
443 148 1 0.5897 0.7852030421185119 10.108131521829721 10.324502430680804 0 0 0
453 151 1 0.5897 0.8103731997176166 12.347308820822207 9.51451407672825 0 0 0
242 81 1 0.5897 1.997133695935314 17.68284840330707 6.611387050262541 0 0 0
571 191 2 -1.1794 0.49424475487061326 15.862763720656313 8.870474356601461 0 0 0
239 80 1 0.5897 1.8246071280366059 13.482160154655993 5.4437457691980535 0 0 0
559 187 2 -1.1794 0.07309142990713222 19.119538563677892 8.470259520730568 0 0 0
542 181 1 0.5897 1.904414152861504 15.799771166219026 7.643184610797486 0 0 0
451 151 2 -1.1794 0.5386296269993591 13.05344248644902 8.9281830505301 0 0 0
573 191 1 0.5897 0.865576120894018 15.072922962364967 9.263553903408534 0 0 0
446 149 1 0.5897 3.916425486659718 13.23683255024617 9.299231458041696 0 0 0
551 184 1 0.5897 0.4961234292837632 18.40767390284728 10.123581879847317 0 0 0
576 192 1 0.5897 4.250588016325078 15.858914509410319 7.0821913864622825 0 0 0
553 185 2 -1.1794 4.070587526313171 19.24643808901827 8.758009743917434 0 0 0
241 81 2 -1.1794 2.1235459755207056 18.59444536116372 6.8746020152436635 0 0 0
243 81 1 0.5897 1.3005679445640057 18.83814421531153 7.298525443589039 0 0 0
541 181 2 -1.1794 2.395155231845011 15.846699237572732 6.822673326331967 0 0 0
572 191 1 0.5897 0.37327562546926296 16.462956472649182 9.606257674710891 0 0 0
555 185 1 0.5897 3.5142313119290995 19.01580548721317 8.01398350109011 0 0 0
445 149 2 -1.1794 4.076340840896483 12.38939306308287 8.883825589776174 0 0 0
558 186 1 0.5897 3.719701514934256 18.250518972503734 10.170439281886715 0 0 0
434 145 1 0.5897 2.213786260736421 10.207895477809018 6.723966113412347 0 0 0
561 187 1 0.5897 0.25594847590376213 19.9915373464885 8.820206751815267 0 0 0
457 153 2 -1.1794 2.672194036232388 11.576465047564882 13.531094571654041 0 0 0
458 153 1 0.5897 2.0143725340718293 11.9952024322507 14.086322924049574 0 0 0
459 153 1 0.5897 3.5083315723295962 11.79562045627674 13.94249449939554 0 0 0
449 150 1 0.5897 4.49913218100435 10.708317133681645 11.324947980436235 0 0 0
867 289 1 0.5897 2.328907524689052 15.670362372176228 14.495709802913087 0 0 0
563 188 1 0.5897 1.8450489512921013 13.196434278103071 12.535890204776857 0 0 0
546 182 1 0.5897 4.34802277809029 14.529259985597033 10.705263724409674 0 0 0
562 188 2 -1.1794 1.6141132789707333 14.044465861223346 12.15669929937483 0 0 0
550 184 2 -1.1794 0.7039017170268856 17.80844330694218 10.840532332083171 0 0 0
564 188 1 0.5897 2.078581678749518 14.683531816047521 12.697227045718048 0 0 0
448 150 2 -1.1794 3.8950313029683885 10.28618570339081 10.71404497109051 0 0 0
776 259 1 0.5897 -0.058410792213468524 12.448009842091537 15.479433547449267 0 0 0
879 293 1 0.5897 3.683748821698435 18.777780935533038 14.92909053899237 0 0 0
556 186 2 -1.1794 3.5228231977214217 17.70804690420278 10.934130563101307 0 0 0
565 189 2 -1.1794 2.1453301363610198 18.548035761076335 14.101390877848353 0 0 0
567 189 1 0.5897 2.169736222729737 19.16850766460918 13.372913957315399 0 0 0
444 148 1 0.5897 2.0551576069971293 10.670780116590214 10.926945505262443 0 0 0
566 189 1 0.5897 2.5111030248921096 17.740196706342545 13.740952500902287 0 0 0
865 289 2 -1.1794 2.9487950601779023 15.782072114309248 13.774897354376606 0 0 0
866 289 1 0.5897 3.809859368057597 15.681636014154565 14.180971943514297 0 0 0
442 148 2 -1.1794 1.1586622690753194 10.909681829518496 10.691041323100361 0 0 0
885 295 1 0.5897 0.9475609617008882 18.652890491861157 15.292310436489817 0 0 0
552 184 1 0.5897 1.66019932190197 17.80937126544123 10.88464632886915 0 0 0
769 257 2 -1.1794 4.700370917454959 12.419903167340768 15.370316196302596 0 0 0
775 259 2 -1.1794 0.8524816968830526 12.742157467191928 15.465691163340445 0 0 0
548 183 1 0.5897 4.908831943608099 18.03507889801658 11.991417559137648 0 0 0
544 182 2 -1.1794 3.5185841779185396 14.861087706829286 10.361413498630242 0 0 0
877 293 2 -1.1794 4.385287033458148 18.920492383264914 15.564558626407027 0 0 0
557 186 1 0.5897 3.549957668980826 16.809952948658314 10.604016817887114 0 0 0
545 182 1 0.5897 2.8553446913356275 14.514115485438666 10.958116811663379 0 0 0
896 299 1 0.5897 0.1393414177935804 15.725232565384177 15.548301877830289 0 0 0
777 259 1 0.5897 0.8056434044815182 13.677454234431613 15.663972588342794 0 0 0
889 297 2 -1.1794 2.1224025305217884 18.625020259205876 20.775551956040218 0 0 0
768 256 1 0.5897 1.1923124720887095 11.531308631421458 16.914317945182507 0 0 0
888 296 1 0.5897 2.13284689484018 13.080904230869097 19.651832296602752 0 0 0
887 296 1 0.5897 2.0938646138367845 14.591341955749613 19.747251197315524 0 0 0
886 296 2 -1.1794 2.1657954559684565 13.87426523833818 19.117257801579814 0 0 0
882 294 1 0.5897 3.8666830135660115 16.18675092624374 17.466929659698277 0 0 0
868 290 2 -1.1794 4.217801029310481 14.33963224722242 17.312771934156352 0 0 0
774 258 1 0.5897 4.089373678912352 11.196426765569397 16.653383379044566 0 0 0
772 258 2 -1.1794 3.917885301805928 10.635910312863393 17.410133641715667 0 0 0
897 299 1 0.5897 1.071013331179997 15.877657038334357 16.731875914142574 0 0 0
773 258 1 0.5897 2.9639566562702933 10.625037854743471 17.48951266098315 0 0 0
767 256 1 0.5897 0.8239736754896833 10.968342372980871 18.270542372889505 0 0 0
874 292 2 -1.1794 1.0630433079745407 17.07604150700884 18.11794474185134 0 0 0
869 290 1 0.5897 3.4805788335053918 14.034807250580592 17.84186931931449 0 0 0
880 294 2 -1.1794 3.8719478250567194 17.118565545550275 17.68597287274985 0 0 0
766 256 2 -1.1794 1.265234994591586 10.742501337940093 17.451658100989423 0 0 0
876 292 1 0.5897 1.1441425756174781 17.700621778227834 17.39712765592758 0 0 0
881 294 1 0.5897 3.0234250416987485 17.27218328420033 18.101664428189306 0 0 0
895 299 2 -1.1794 0.9971825888283996 15.455061724315735 15.876183609617893 0 0 0
891 297 1 0.5897 1.9791043280872218 19.105379540047764 19.96009338700172 0 0 0
875 292 1 0.5897 0.3804955365408734 17.444362403081378 18.679004518439758 0 0 0
965 322 1 0.5897 0.11093604452936306 13.749350779846182 18.819980611511873 1 0 0
878 293 1 0.5897 4.176678521719214 18.330422768645377 16.28882396250145 0 0 0
883 295 2 -1.1794 0.2938604764750622 18.95802574340651 15.921511111883639 0 0 0
771 257 1 0.5897 4.585887109809676 13.290811006766894 15.750648472277646 0 0 0
218 73 1 0.5897 2.007915507314845 16.835406781615255 20.872234407683337 0 0 -1
884 295 1 0.5897 0.4369114725409461 19.90286606626715 15.977023935529502 0 0 0
873 291 1 0.5897 4.859316779912522 17.67299891834508 18.95403908105764 0 0 0
217 73 2 -1.1794 2.1663868506261608 15.897679930699507 20.98109811249402 0 0 -1
781 261 2 -1.1794 2.171618693169881 11.772792571895504 20.971586213288358 0 0 0
142 48 2 -1.1794 5.677871485647859 9.24185113989141 -0.12312230639737531 0 0 0
67 23 2 -1.1794 7.715210351818976 1.8251799994697846 1.7406762109933474 0 0 0
48 16 1 0.5897 7.186687164454731 4.043800060494058 4.262006532131241 0 0 0
155 52 1 0.5897 7.796031188161642 9.62604915677183 3.468122382711103 0 0 0
46 16 2 -1.1794 7.906342180022685 3.8061851181630466 3.6771973947409475 0 0 0
69 23 1 0.5897 6.95210008865876 2.1655276236364256 1.273564742308419 0 0 0
68 23 1 0.5897 8.465846368071164 2.1557109159265138 1.2471935888113723 0 0 0
47 16 1 0.5897 7.604039427214147 3.013033768352935 3.2347089132070126 0 0 0
34 12 2 -1.1794 5.676091783100044 2.5511420815493664 -0.008278262495990618 0 0 0
55 19 2 -1.1794 7.559989919433084 5.899179935332497 1.824859920732453 0 0 0
177 59 1 0.5897 8.536305723114083 8.816019079780508 1.3347648726683186 0 0 0
57 19 1 0.5897 7.760911368734492 5.12304797703214 2.347857848475181 0 0 0
143 48 1 0.5897 6.177060819737409 9.16371753845978 0.6898596701565665 0 0 0
175 59 2 -1.1794 7.755742276769163 8.71945504294377 1.8804507442456355 0 0 0
56 19 1 0.5897 6.633633860243899 5.805448995327679 1.6023525174250042 0 0 0
176 59 1 0.5897 7.686908371933293 7.777511408580971 2.036316686291234 0 0 0
41 14 1 0.5897 9.879283313806736 0.827498657228486 3.6882295502287086 0 0 0
166 56 2 -1.1794 8.562961925841458 7.247012294252634 4.676734033837177 0 0 0
53 18 1 0.5897 9.66163166559863 3.7857534169031095 3.686997157868789 0 0 0
710 237 1 0.5897 8.478407012927088 5.438501134648101 0.30340309170365076 0 0 1
58 20 2 -1.1794 8.669789624189674 1.0346002620803307 5.0029159910610765 0 0 0
138 46 1 0.5897 6.894616945912788 7.364134794156602 4.919446318238773 0 0 0
145 49 2 -1.1794 9.934433598320252 9.326883605541777 0.26107894133426335 0 0 0
37 13 2 -1.1794 9.792976747402479 2.5471256277345304 -0.1874953409534566 0 0 0
6 2 1 0.5897 5.038535127904111 1.0934252772159658 3.6744362197705436 0 0 0
29 10 1 0.5897 6.633048597626026 0.5809881492368891 5.003835801160565 0 0 0
36 12 1 0.5897 5.654156430874368 3.4672944462670263 -0.28481281464945596 0 0 0
63 21 1 0.5897 9.814080774461946 5.378130838342267 7.093060834819996 0 0 0
62 21 1 0.5897 8.32202683384939 5.634894727630754 7.109757679184936 0 0 0
358 120 2 -1.1794 5.337819582401601 2.7446594238961226 7.01524048373635 0 0 0
8 3 1 0.5897 5.62921349432981 3.9375493402203343 5.866923111805356 0 0 0
469 157 2 -1.1794 8.81919675989047 9.082494401014914 6.812246017125512 0 0 0
338 113 1 0.5897 5.211018067796227 5.975514469722693 8.347151625863246 0 0 0
359 120 1 0.5897 5.904665097990162 2.750470989247069 7.786565577373853 0 0 0
393 131 1 0.5897 7.085143037420468 1.108233649548422 8.82457398900569 0 0 0
168 56 1 0.5897 8.494127749569477 8.042036082117045 5.205371891924756 0 0 0
391 131 2 -1.1794 7.13239113764034 2.0550092843117347 8.957499544976647 0 0 0
392 131 1 0.5897 7.826913378146924 2.3459916006396653 8.366471749577304 0 0 0
500 167 1 0.5897 7.186828111158827 9.050671564580734 9.704179423124652 0 0 0
499 167 2 -1.1794 7.129779783861308 8.44184297847927 8.967746032314606 0 0 0
380 127 1 0.5897 7.031592709148986 6.597961025820333 8.756433696219185 0 0 0
381 127 1 0.5897 7.19492863120089 5.196892588855886 9.30629319378654 0 0 0
466 156 2 -1.1794 5.129026270300087 8.928607711442972 7.1800679277199455 0 0 0
467 156 1 0.5897 5.149937135896535 8.322117169983972 6.439809736173174 0 0 0
362 121 1 0.5897 8.941632965789825 3.577453467334284 6.9210048102345105 0 0 0
61 21 2 -1.1794 9.041525021543244 5.389704396032883 6.527925315755818 0 0 0
361 121 2 -1.1794 9.056980736629582 2.6672553523616642 7.193996333253902 0 0 0
470 157 1 0.5897 8.363065519843431 8.923505703090816 7.638622521336351 0 0 0
360 120 1 0.5897 5.587170695263005 1.9519269958045995 6.540192176387947 0 0 0
379 127 2 -1.1794 6.923444983284287 5.675882520880169 8.523272345473156 0 0 0
501 167 1 0.5897 6.353572924524214 8.723243483919092 8.483293395679302 0 0 0
59 20 1 0.5897 8.511093623399503 1.793290401508434 5.564560456193634 0 0 0
137 46 1 0.5897 5.701378520322735 6.51885729719885 5.3118473799653785 0 0 0
7 3 2 -1.1794 5.67298404646835 4.595434735357379 5.172993804256333 0 0 0
28 10 2 -1.1794 5.765832797139269 0.4139134027243815 5.373164205084191 0 0 0
60 20 1 0.5897 8.664423636620462 0.28760087357738723 5.6013677516069285 0 0 0
371 124 1 0.5897 7.408811883474908 3.4473341445602332 10.13171417508602 0 0 0
167 56 1 0.5897 8.686744065622882 6.544387974537799 5.314905024915188 0 0 0
136 46 2 -1.1794 5.948492239945186 7.40826793972429 5.058531640640987 0 0 0
471 157 1 0.5897 9.748016121385243 9.013658209675175 7.033527830482812 0 0 0
790 264 2 -1.1794 5.406274101726116 9.036875517645857 14.480511016493713 0 0 0
331 111 2 -1.1794 5.611247425844238 4.4440056634674985 12.363762145488602 0 0 0
462 154 1 0.5897 5.575953617762835 7.269869722101396 11.986522984720088 0 0 0
685 229 2 -1.1794 9.236848915646835 3.0110925875938395 13.717972647903212 0 0 0
386 129 1 0.5897 9.090305024027375 4.846237559095879 13.784945636870523 0 0 0
372 124 1 0.5897 7.056318737611693 4.219307558234237 11.385394300004 0 0 0
383 128 1 0.5897 8.714179066707985 2.046056397627831 12.150466739006328 0 0 0
354 118 1 0.5897 5.687468339597817 1.4668819545221743 13.08937046092501 0 0 0
370 124 2 -1.1794 7.70776955230448 4.1682363476570785 10.685960473326487 0 0 0
353 118 1 0.5897 6.746582840599502 1.1940952193960503 12.042468627286867 0 0 0
686 229 1 0.5897 8.647552848805931 2.589778732234376 14.343696762839224 0 0 0
382 128 2 -1.1794 8.329455040786538 1.4254720059936088 11.531468294371598 0 0 0
384 128 1 0.5897 9.021925205327511 1.2658423949198239 10.890096922391457 0 0 0
684 228 1 0.5897 5.49830808144312 3.3578775864418287 13.81455471624273 0 0 0
705 235 1 0.5897 8.022978716145607 6.082763021283948 15.471730010122204 0 0 0
794 265 1 0.5897 9.612677783174139 8.542977156101566 13.440647981416081 0 0 0
717 239 1 0.5897 6.7794920020555525 2.2257630777380295 15.487099211171973 0 0 0
793 265 2 -1.1794 9.740137890363888 9.120107134455713 14.193592518585554 0 0 0
333 111 1 0.5897 5.947319403690602 5.319279070844728 12.5566609617839 0 0 0
490 164 2 -1.1794 9.042716373267616 7.573334386782535 11.983139842865512 0 0 0
385 129 2 -1.1794 9.25087512506882 5.715820283808964 14.151455155434773 0 0 0
387 129 1 0.5897 9.185410312772747 6.307912723411991 13.402187792756022 0 0 0
461 154 1 0.5897 6.006399073147889 7.729165540330683 13.3633778856319 0 0 0
460 154 2 -1.1794 6.217464007326419 7.097563453170285 12.675778372536676 0 0 0
791 264 1 0.5897 5.922345262256712 8.861642231383865 15.267424964662384 0 0 0
492 164 1 0.5897 8.110465515930995 7.776506632488599 11.905245458834106 0 0 0
352 118 2 -1.1794 5.839703953163373 0.9915881769758134 12.272569105092314 0 0 0
491 164 1 0.5897 9.417269144020366 7.838953472154801 11.143247943748467 0 0 0
377 126 1 0.5897 9.49859127677053 4.388481661013675 10.408535010243922 0 0 0
682 228 2 -1.1794 5.361126746279638 2.604825097586859 14.389334439204692 0 0 0
795 265 1 0.5897 9.546543864906143 9.996159532845635 13.85997617190715 0 0 0
824 275 1 0.5897 8.408731165963738 8.733117268477448 15.360208063593431 0 0 0
715 239 2 -1.1794 7.655979789242101 2.146256372799403 15.863725530621263 0 0 0
657 219 1 0.5897 7.016657444204339 4.457698111380519 19.742483760349007 0 0 0
696 232 1 0.5897 7.8634582498302645 4.732735443203939 17.170027149671295 0 0 0
704 235 1 0.5897 6.558042834368945 6.032743601269575 15.850960412864485 0 0 0
656 219 1 0.5897 5.543454408672022 4.544286538119992 19.403957627473797 0 0 0
708 236 1 0.5897 7.764235764158869 0.9732122374267517 19.0603091172206 0 0 0
677 226 1 0.5897 5.289724369539665 0.7157866858579526 18.568639756450317 0 0 0
694 232 2 -1.1794 8.192906099011497 4.055397866008358 17.760714087087923 0 0 0
695 232 1 0.5897 8.147522949732501 3.2477965793333126 17.24887033996921 0 0 0
706 236 2 -1.1794 8.69556469756731 0.7697019006917091 19.147785793523425 0 0 0
716 239 1 0.5897 7.727926283500728 1.2245032071712514 16.11169369564792 0 0 0
655 219 2 -1.1794 6.192209196841512 4.84080834732338 20.042327468862865 0 0 0
784 262 2 -1.1794 6.909019609832688 7.358945404913032 19.19992280846731 0 0 0
38 13 1 0.5897 9.509341526362634 2.0558115841427544 20.33095358426835 0 0 -1
825 275 1 0.5897 7.65157617393008 7.74707214053802 16.22419606734677 0 0 0
785 262 1 0.5897 6.759724715522647 6.519456492576201 19.634908536656162 0 0 0
823 275 2 -1.1794 7.721212066954496 8.680538157092105 16.024213287373037 0 0 0
786 262 1 0.5897 7.854748266189386 7.389091379828752 19.0545397081844 0 0 0
709 237 2 -1.1794 8.965228749360211 5.26306373458839 20.78754858233736 0 0 0
816 272 1 0.5897 9.962937319054811 8.122226111839371 20.09789296170419 0 0 0
815 272 1 0.5897 9.668771604118138 6.647003789948876 19.927026204337597 0 0 0
814 272 2 -1.1794 9.769579586420573 7.460907720574239 19.433412518552586 0 0 0
707 236 1 0.5897 8.724797807634864 0.041300700922890864 19.768144693821295 0 0 0
676 226 2 -1.1794 5.953356771760526 0.6275134357648589 19.252842609996645 0 0 0
762 254 1 0.5897 5.745910392008919 7.926668714351954 17.84424953439045 0 0 0
35 12 1 0.5897 5.812233621656334 2.0592040559207767 20.471393053368715 0 0 -1
144 48 1 0.5897 6.059231756067623 8.582795418124892 20.586251846615752 0 0 -1
703 235 2 -1.1794 7.433049366579587 6.1435666733339795 16.223108790826153 0 0 0
711 237 1 0.5897 9.169432144988502 4.328811975152604 20.829244637137318 0 0 0
760 254 2 -1.1794 4.987408453421431 7.906855801459064 17.260606769297333 0 0 0
246 82 1 0.5897 5.086434417206822 13.964210675324127 4.543132278418572 0 0 0
819 273 1 0.5897 8.195564086261129 12.267607651090922 0.3861744952931554 0 0 1
154 52 2 -1.1794 7.7629323098928715 10.249480052040882 4.193725399427532 0 0 0
285 95 1 0.5897 7.3844209790294295 14.392255732785406 2.0355786622812695 0 0 0
276 92 1 0.5897 8.803157014934897 14.254606654467723 4.677007084779956 0 0 0
263 88 1 0.5897 7.8909154533016626 17.36145533223562 4.210998782982764 0 0 0
163 55 2 -1.1794 7.052848742910191 12.351912938901942 2.4144003227932465 0 0 0
164 55 1 0.5897 6.109604009411996 12.299056087243518 2.2597312543742034 0 0 0
165 55 1 0.5897 7.279013059887633 11.509425730646173 2.8085485824972785 0 0 0
284 95 1 0.5897 7.843517820148662 15.816453017573092 2.265599211248593 0 0 0
156 52 1 0.5897 8.680732673505268 10.417050978050204 4.408205817520169 0 0 0
146 49 1 0.5897 9.672863249103816 10.212806841603722 0.010033081591446003 0 0 0
264 88 1 0.5897 9.204234449879188 17.438627984074238 3.4616688315165884 0 0 0
251 84 1 0.5897 6.18257898867892 15.8360824397373 0.7521323012914023 0 0 0
283 95 2 -1.1794 7.596102891460563 15.203338016730616 1.5734017676457406 0 0 0
927 309 1 0.5897 8.147221631853052 18.654673143276824 0.2784544240440463 0 0 1
271 91 2 -1.1794 6.846464112228774 18.891251170751907 1.5746342030923302 0 0 0