LAMMPS data file via write_data, version 30 Jul 2021, timestep = 14750000

1296 atoms
2 atom types
864 bonds
1 bond types
432 angles
1 angle types

-10.47317189370234 12.45317189370234 xlo xhi
-9.068892024594852 12.058890024594852 ylo yhi
0.2909165789245023 21.569082421080562 zlo zhi
-9.079769138071038 1.7501408048919784 2.7033488370089365 xy xz yz

Masses

1 1.008
2 15.999

Pair Coeffs # lj/cut/tip4p/long/omp

1 0 0
2 0.21084 3.1668

Bond Coeffs # harmonic/omp

1 450 0.9572

Angle Coeffs # harmonic/omp

1 55 104.52

Atoms # full

282 94 1 0.5897 -10.32392671065445 -4.051057210297138 1.7447696915996511 1 1 0
280 94 2 -1.1794 -9.46164886209993 -4.461669319141942 1.6806276563176115 1 1 0
299 100 1 0.5897 -6.5253853892192115 -7.803639408195307 4.249954646329607 1 1 0
163 55 2 -1.1794 -7.043328569634015 -7.830615602327445 1.0896278925337093 1 1 0
164 55 1 0.5897 -6.246269919738579 -8.243508386587907 1.4219896463947919 1 1 0
270 90 1 0.5897 -8.335336391937048 -7.301332044310142 2.2302016813715726 1 1 0
269 90 1 0.5897 -9.179502427143715 -6.060796327394158 2.43093263392352 1 1 0
268 90 2 -1.1794 -9.028784333490648 -6.938658995068459 2.7814553942154094 1 1 0
324 108 1 0.5897 -7.008687777492479 -4.251239682453983 3.708833895576423 1 1 0
73 25 2 -1.1794 -8.29251459105406 -3.7029639003260977 4.846691965332314 1 0 0
298 100 2 -1.1794 -5.878957717992085 -7.098141339346869 4.227186835085094 1 1 0
314 105 1 0.5897 -8.686129183652426 -6.656641749477485 4.534565061447491 1 1 0
323 108 1 0.5897 -6.200302036305575 -5.5098773741973694 3.476088800142527 1 1 0
259 87 2 -1.1794 -6.6395233722800375 -5.175801209803778 0.464110736427053 1 1 0
261 87 1 0.5897 -6.6017323618166035 -4.866133403214633 1.3690750950512471 1 1 0
315 105 1 0.5897 -8.483494707446571 -5.415069891004189 5.376628685020321 1 1 0
313 105 2 -1.1794 -8.619044626130965 -6.360296373503447 5.442287305562217 1 1 0
260 87 1 0.5897 -6.787004548461495 -6.118539248307936 0.5391430618606864 1 1 0
275 92 1 0.5897 -10.35080066636919 -7.864356812810962 3.4702380022927066 1 1 0
300 100 1 0.5897 -5.037862893337559 -7.5461075507770055 4.137034593630304 1 1 0
281 94 1 0.5897 -8.84530485004647 -3.7296152482492895 1.6986852472414664 1 1 0
322 108 2 -1.1794 -6.324529004018893 -4.618820977411235 3.149285438135661 1 1 0
75 25 1 0.5897 -9.090569221977134 -3.3075920697765095 4.495925746005544 1 0 0
243 81 1 0.5897 -0.8677516122296982 -5.3839038673099004 5.399203092641275 0 1 0
317 106 1 0.5897 -1.2169682290258983 -3.732320493505487 1.6532999874920422 1 1 0
165 55 1 0.5897 -7.3427923057068085 -8.413758553144753 0.3921872144080396 1 1 0
3 1 1 0.5897 -1.427042436396567 -3.2887438743859354 4.528519895045887 0 0 0
241 81 2 -1.1794 -1.0012624233518999 -6.330835492329243 5.439547291345893 0 1 0
305 102 1 0.5897 -1.549252025959687 -6.0125515054233025 2.4074422387281103 1 1 0
293 98 1 0.5897 -4.9831268093880885 -3.6672782548817384 2.4180582061014757 1 1 0
306 102 1 0.5897 -0.7287854172829924 -7.2700117689694315 2.213893109996112 1 1 0
304 102 2 -1.1794 -1.411640671815091 -6.889251973088765 2.766170402752801 1 1 0
318 106 1 0.5897 -2.695727712073735 -4.0561568773633185 1.6659678735404608 1 1 0
310 104 2 -1.1794 -3.453204407947741 -8.366009142526293 3.878204683238824 1 1 0
242 81 1 0.5897 -1.1017043665711945 -6.598078283809423 4.525886075741902 0 1 0
311 104 1 0.5897 -2.746842576176155 -7.896399863105384 3.434630419209043 1 1 0
316 106 2 -1.1794 -1.8328832160584874 -4.46102115250708 1.5775135460196714 1 1 0
201 67 1 0.5897 0.2667513586179915 -8.443670018561987 0.3641447339341906 1 1 0
199 67 2 -1.1794 0.5426776278486578 -7.859715220159529 1.0705610725592805 1 1 0
420 140 1 0.5897 -9.069802099828342 -6.474445934545868 9.847280431466837 1 0 0
414 138 1 0.5897 -6.704620090767005 -4.883621814485362 7.559146195515697 1 0 0
413 138 1 0.5897 -7.537721245267237 -3.6389848788324084 7.779728640487783 1 0 0
412 138 2 -1.1794 -7.3774349805981725 -4.514686477091157 8.13141465962085 1 0 0
350 117 1 0.5897 -7.141088697674879 -4.2407550680550425 9.915618754784761 0 0 0
429 143 1 0.5897 -6.320039735145202 -7.183449616842783 8.667407754536422 1 0 0
428 143 1 0.5897 -6.545694697503704 -7.084209349399336 10.161202748546907 1 0 0
427 143 2 -1.1794 -5.8757715301979365 -6.967906086281609 9.48740988823194 1 0 0
627 209 1 0.5897 -10.164469402569678 -6.713056989846068 6.31104862331051 1 1 0
618 206 1 0.5897 -7.718255923886581 -7.316239324403967 6.6524436453802585 1 1 0
419 140 1 0.5897 -8.771699353322324 -5.448535772922222 8.77456273574164 1 0 0
418 140 2 -1.1794 -9.492493686852288 -5.922779792804957 9.189022763274059 1 0 0
616 206 2 -1.1794 -7.294535092086948 -7.852423157602417 7.322725295642238 1 1 0
349 117 2 -1.1794 -7.066624866112204 -3.946278187462487 10.82337405883996 0 0 0
351 117 1 0.5897 -6.889574471523364 -3.007963990591544 10.757397726637915 0 0 0
631 211 2 -1.1794 -5.459857486186931 -5.468865434223268 6.373414310513613 1 1 0
555 185 1 0.5897 -2.4802577805375883 -6.694384621046954 6.364908765488678 0 1 0
626 209 1 0.5897 -10.408893709617049 -6.632773055020971 7.803029596464535 1 1 0
554 185 1 0.5897 -2.7421765390767607 -6.631422408473341 7.854752574211652 0 1 0
544 182 2 -1.1794 0.38868803855030976 -7.842091238005216 7.265145615963181 0 1 0
335 112 1 0.5897 -4.906123229934835 -5.451887055291719 9.49417059798044 0 0 0
546 182 1 0.5897 -0.07211185343720672 -7.306940521875303 6.618940751225747 0 1 0
553 185 2 -1.1794 -3.1560096475721453 -6.8598415649970494 7.022404551167564 0 1 0
348 116 1 0.5897 -1.4071300784060625 -6.46594770053327 9.92646105460436 0 0 0
347 116 1 0.5897 -1.1387039759029811 -5.468672959945356 8.819443204650506 0 0 0
404 135 1 0.5897 -5.221853249404052 -3.7414671092300393 5.793410365473022 1 0 0
336 112 1 0.5897 -3.4265624056570223 -5.131497042744465 9.490383371768846 0 0 0
334 112 2 -1.1794 -4.289974690781204 -4.720486531394151 9.533152968732722 0 0 0
346 116 2 -1.1794 -1.8479980806107115 -5.929401350448877 9.26763013071125 0 0 0
632 211 1 0.5897 -4.639207999966615 -5.850861514168164 6.6846315158967835 1 1 0
356 119 1 0.5897 1.0728756821204328 -7.051384060565974 10.14807247684308 0 0 0
359 120 1 0.5897 -4.607578366400321 -3.1339359904458384 8.777596900745008 0 0 0
633 211 1 0.5897 -5.720455806051867 -6.025300716487855 5.639492613027703 1 1 0
652 218 2 -1.1794 -5.683292408059051 -5.537996832319485 12.6172533941113 0 0 0
788 263 1 0.5897 -5.011488407423137 -4.620262662677534 15.482020575569743 0 0 0
780 260 1 0.5897 -7.486614647348757 -3.991213520696835 15.254490665757913 0 0 0
779 260 1 0.5897 -7.221900022506672 -2.998474563693419 14.14251467512616 0 0 0
778 260 2 -1.1794 -7.930968516483988 -3.4170826669730303 14.63061402605148 0 0 0
768 256 1 0.5897 -9.498517901266293 -2.672765889078704 14.816880702434943 0 0 0
654 218 1 0.5897 -6.1058982853561545 -4.967815990679959 11.974912002784793 0 0 0
653 218 1 0.5897 -6.407919699004624 -5.9831624643822385 13.056550062313624 0 0 0
766 256 2 -1.1794 -10.354270973500698 -2.2483054771274773 14.878203924936477 0 0 0
740 247 1 0.5897 -10.721620370832179 -3.3923395699782946 12.080402446868867 1 0 0
729 243 1 0.5897 -8.108532277854334 -7.12887168593131 11.948974388630033 1 0 0
684 228 1 0.5897 -8.438601175033309 -6.495675794135378 14.26235416748481 0 0 0
682 228 2 -1.1794 -7.764178748480712 -6.891090774567152 13.710013572449155 0 0 0
663 221 1 0.5897 -8.533626760560924 -4.278637968571677 11.749814141674005 0 0 0
662 221 1 0.5897 -8.815688245775197 -4.1950663257670335 13.234959535160076 0 0 0
661 221 2 -1.1794 -9.226832357691372 -4.407922071840092 12.397166597753133 0 0 0
727 243 2 -1.1794 -8.134320008228872 -7.416335981402055 11.036292238425984 1 0 0
767 256 1 0.5897 -10.981155261802138 -2.9715703181538853 14.882335767794402 0 0 0
802 268 2 -1.1794 -2.704283764054111 -2.274555732460419 14.891640861426689 0 0 0
757 253 2 -1.1794 -9.640766081194856 -5.897041583037913 15.47995769669427 0 0 0
689 230 1 0.5897 1.293973201193861 -5.920064575983967 13.12095175206779 0 0 0
789 263 1 0.5897 -4.794281018451377 -4.741974056558079 13.98863741436554 0 0 0
793 265 2 -1.1794 -2.0875928324099746 -5.863214145702747 15.487647539385694 0 0 0
795 265 1 0.5897 -2.9025616826956817 -5.490875087448373 15.150850181664598 0 0 0
655 219 2 -1.1794 -0.4212027550823745 -7.41514066642771 11.108295697409153 0 0 0
720 240 1 0.5897 -0.7613771024224967 -6.440045541336183 14.361999202179323 0 0 0
718 240 2 -1.1794 -0.07527297482310047 -6.8170297560581075 13.811158401951387 0 0 0
678 226 1 0.5897 -4.0778635113683785 -6.282205554577253 12.375940101026261 0 0 0
698 233 1 0.5897 -1.172037651582901 -4.160351674103462 13.200320287900018 0 0 0
657 219 1 0.5897 -0.39262920691595227 -7.124333538197084 12.019834542850482 0 0 0
667 223 2 -1.1794 -3.8911724861883226 -3.0732731416390733 11.701665030730359 0 0 0
774 258 1 0.5897 -5.156367527201802 -2.437114860905611 12.857803663150019 0 0 0
668 223 1 0.5897 -3.0672519867370402 -3.4336165463462924 12.029613904367196 0 0 0
676 226 2 -1.1794 -3.1963047007631626 -6.652335605775564 12.33015081069141 0 0 0
787 263 2 -1.1794 -4.359608905006404 -4.470751902503188 14.797169060334504 0 0 0
699 233 1 0.5897 -0.901335618620358 -4.306222897200386 11.717881032879212 0 0 0
697 233 2 -1.1794 -1.5925324770451734 -4.397568729694638 12.373792913481479 0 0 0
677 226 1 0.5897 -2.6156610065461416 -5.8915467091514895 12.342713422926215 0 0 0
816 272 1 0.5897 0.1882126612126278 -3.9780081214348746 15.251490448872252 0 0 0
814 272 2 -1.1794 -0.25308746550045136 -3.447560635799938 14.588024528887582 0 0 0
804 268 1 0.5897 -1.847254901699193 -2.694786332013349 14.81989253452001 0 0 0
803 268 1 0.5897 -3.32985031916893 -2.998264512351894 14.859711739711422 0 0 0
758 253 1 0.5897 -9.392887325733776 -5.318939309947563 16.20143071446191 0 0 0
669 223 1 0.5897 -4.11800982556684 -3.6313838348936764 10.957866247484967 0 0 0
794 265 1 0.5897 -1.8185490789177265 -5.262605504061632 16.182660556978657 0 0 0
1089 363 1 0.5897 -6.490514623617756 -4.655853316450337 17.298675035369204 0 0 0
1152 384 1 0.5897 -6.905238383781541 -3.9999510183931353 19.644703725817482 0 0 0
1225 409 2 -1.1794 -8.173999544743609 -3.4687691088262094 20.789664402848327 0 0 0
1227 409 1 0.5897 -8.979930275156047 -3.082911215886142 20.446392994468887 0 0 0
1109 370 1 0.5897 -8.678330275517284 -3.4436073818983353 17.629643239375657 0 0 0
1219 407 2 -1.1794 -10.395379837494442 -2.008577545671802 20.139536528531405 0 0 0
1108 370 2 -1.1794 -9.277156980314015 -4.190107113545984 17.645730774362605 0 0 0
1129 377 2 -1.1794 -7.691216986434147 -1.927885463923106 17.674624621314138 0 0 0
1151 384 1 0.5897 -6.082214708226525 -5.245901754116422 19.395562053118184 0 0 0
1150 384 2 -1.1794 -6.228761850351798 -4.3578715388670375 19.069762132456056 0 0 0
1248 416 1 0.5897 -5.907708946958225 -1.5557084004992898 20.552637175660244 0 0 0
1097 366 1 0.5897 -8.935215185201173 -5.769270782447374 18.41178774844501 0 0 0
1130 377 1 0.5897 -7.2446898136705045 -1.7109742758152162 18.49303708901735 0 0 0
1143 381 1 0.5897 -8.47643269715926 -5.131570778860373 21.36594709566421 0 0 0
1088 363 1 0.5897 -6.622599527870536 -5.944858734000074 16.515955671723393 0 0 0
1087 363 2 -1.1794 -6.506243930113579 -5.001181632704691 16.406051187095084 0 0 0
1110 370 1 0.5897 -10.148705067686146 -3.7975904454627916 17.69646976665337 0 0 0
1141 381 2 -1.1794 -8.600590330785431 -6.0773473085385294 21.444876373799946 0 0 0
1121 374 1 0.5897 -4.8473108160923335 -3.4716340022853487 18.367492467336312 0 0 0
1131 377 1 0.5897 -7.028111650793788 -1.7957868035450009 16.997010653797826 0 0 0
1186 396 2 -1.1794 1.4508804364822403 -4.400568727706123 19.079903907302207 0 0 0
1142 381 1 0.5897 -8.57999819969473 -6.398073498285122 20.54321236389594 0 0 0
1178 393 1 0.5897 -0.9145108744191575 -6.448514590800458 20.514104106616152 0 0 0
1132 378 2 -1.1794 -1.2089627542380903 -6.690186342336794 18.724157364700357 0 0 0
1256 419 1 0.5897 -3.422561182251785 -2.119876220463796 20.76930311478348 0 0 0
1188 396 1 0.5897 0.737582941344165 -4.027562501970419 19.59793032441068 0 0 0
1255 419 2 -1.1794 -2.7594350608789977 -2.0320200211902426 20.084567680584804 0 0 0
1123 375 2 -1.1794 1.1481098522603528 -4.949681697160246 16.43271004762059 0 0 0
1177 393 2 -1.1794 -0.8973429214688924 -6.110736276724959 21.409586546677684 0 0 0
1125 375 1 0.5897 1.1798368256630436 -4.65913514013152 17.344227280133744 0 0 0
1261 421 2 -1.1794 -0.5243490515200868 -3.4621638165351936 20.759359695194 0 0 0
1263 421 1 0.5897 -1.335352944805484 -3.0690222363100244 20.436935170426025 0 0 0
1145 382 1 0.5897 -1.0562672610348862 -3.4891219968774543 17.67743678305073 0 0 0
1179 393 1 0.5897 -0.7896081202992882 -5.165184260501865 21.307261373316724 0 0 0
1187 396 1 0.5897 1.5690274166125295 -5.2820078355053415 19.43391836279085 0 0 0
1124 375 1 0.5897 1.0734886254279292 -5.9023706438897445 16.487073855390253 0 0 0
1146 382 1 0.5897 -2.5407628415759067 -3.785636959575136 17.688579883618857 0 0 0
1133 378 1 0.5897 -1.356289576077554 -5.8067256470029065 18.386497136522895 0 0 0
1144 382 2 -1.1794 -1.6843784286430115 -4.210259605087172 17.638164955651277 0 0 0
1120 374 2 -1.1794 -4.121529582377157 -3.0234081651160345 17.933239988445813 0 0 0
1122 374 1 0.5897 -4.539920004877938 -2.4813483333516704 17.26433917861174 0 0 0
1257 419 1 0.5897 -3.217191953753529 -2.262322246825783 19.276081800420457 0 0 0
1165 389 2 -1.1794 -0.03948863482755627 -2.0221972403418063 17.719464292252628 0 0 0
1226 409 1 0.5897 -7.888680756444223 -2.861155015424483 21.47197774759053 0 0 0
1096 366 2 -1.1794 -8.819086613407674 -6.666912361615202 18.723183631679408 0 0 0
1262 421 1 0.5897 -0.24408331868670174 -2.88547862941419 21.470027541957194 0 0 0
84 28 1 0.5897 -8.019539481116057 -0.4961564388464783 4.177614814883251 1 0 0
258 86 1 0.5897 -12.300958723119065 -2.6722820757204095 1.3077847585469962 1 1 0
54 18 1 0.5897 -11.365233402881834 -0.25571021343870726 2.214950357085557 1 0 0
59 20 1 0.5897 -13.408102067995406 -0.8405851870501362 3.498431716124351 1 0 0
53 18 1 0.5897 -12.19120051417442 0.9925740489070574 2.4416623851852104 1 0 0
52 18 2 -1.1794 -12.0442323050401 0.11005289634092819 2.781926198572489 1 0 0
82 28 2 -1.1794 -8.879211037972983 -0.07925788212496698 4.2359299641030725 1 0 0
107 36 1 0.5897 -9.19260291615333 1.5015728106513677 3.477919877907513 1 0 0
301 101 2 -1.1794 -7.841267212852337 -2.249418411339196 1.7366668210522236 1 1 0
98 33 1 0.5897 -11.769421555455864 0.3707715396168343 4.550812939792866 1 0 0
256 86 2 -1.1794 -11.889516996381992 -3.233927880279036 1.9647306019273625 1 1 0
67 23 2 -1.1794 -10.554177078375698 -2.2831316674550344 4.187211559953484 1 0 0
97 33 2 -1.1794 -11.691483107577923 0.6508251492766846 5.462832336130012 1 0 0
83 28 1 0.5897 -9.498990530382173 -0.80846488418271 4.251567491993216 1 0 0
68 23 1 0.5897 -11.219641301359513 -2.4614864561061998 4.851790219170383 1 0 0
99 33 1 0.5897 -11.565030444687963 1.5982675065730092 5.412855276706448 1 0 0
271 91 2 -1.1794 -10.050200195272541 -0.768714032505466 1.0147966111343574 1 1 0
272 91 1 0.5897 -9.270846722639652 -1.1972322011676964 1.3686756153607849 1 1 0
69 23 1 0.5897 -10.973072449997634 -2.5174648639190194 3.35904997000267 1 0 0
44 15 1 0.5897 -9.765477716684122 0.9205785463809342 0.5002036971058572 1 0 0
25 9 2 -1.1794 -4.087808549237932 0.6420402163981169 5.4305794997511345 0 0 0
302 101 1 0.5897 -7.411876671241264 -2.004602383641295 2.5563741226782257 1 1 0
103 35 2 -1.1794 -2.90947502725221 -2.325655925788925 4.172325359195343 1 0 0
294 98 1 0.5897 -4.6991570709630155 -2.675905845995807 1.3096163054074004 1 1 0
27 9 1 0.5897 -3.9738937424330185 1.590810511412462 5.375847449780722 0 0 0
89 30 1 0.5897 -4.576781031200435 1.0041069361042823 2.4316397712631654 1 0 0
292 98 2 -1.1794 -4.266059904537288 -3.228720260480366 1.9600990934447418 1 1 0
105 35 1 0.5897 -3.3320787936748175 -2.550307591232338 3.343364142433618 1 0 0
26 9 1 0.5897 -4.143079331088937 0.3541016430845314 4.519359657453424 0 0 0
95 32 1 0.5897 -5.763868610371708 -0.8455345398366774 3.4818641462983253 1 0 0
88 30 2 -1.1794 -4.430573374271033 0.11656040012549695 2.7589044121967814 1 0 0
96 32 1 0.5897 -6.0521371712528955 -1.8416530371528772 4.584925729727657 1 0 0
90 30 1 0.5897 -3.765493455348534 -0.24798107877918696 2.1748971960280215 1 0 0
94 32 2 -1.1794 -6.479528584231622 -1.3180117508077647 3.9071018673623468 1 0 0
104 35 1 0.5897 -3.585969298944275 -2.4709354873214364 4.833813095186902 1 0 0
303 101 1 0.5897 -7.181043479694588 -2.0886682728967596 1.0624382234721197 1 1 0
273 91 1 0.5897 -10.332928384580724 -1.3378922691548318 0.29906849340443875 1 1 0
309 103 1 0.5897 -2.724527922352097 -1.4233055817974574 0.3298072307162819 1 1 0
307 103 2 -1.1794 -2.451099700651671 -0.8350462103297787 1.033617892580969 1 1 0
74 25 1 0.5897 -8.020177987946656 -3.1117127072004447 5.548415216904072 1 0 0
526 176 2 -1.1794 -12.483560834252694 1.0812221504717705 9.227335090001585 1 0 0
425 142 1 0.5897 -7.289496221119771 -1.3113486489374493 7.037048777301944 1 0 0
401 134 1 0.5897 -11.022063581596077 -1.2348137342141428 7.780010852061445 1 0 0
537 179 1 0.5897 -9.310618087078051 -0.13473877358158504 8.70447183888822 1 0 0
536 179 1 0.5897 -9.590741439068692 -0.011382845756156001 10.187207408186627 1 0 0
535 179 2 -1.1794 -8.900567296020757 0.10779355778464073 9.534696049557999 1 0 0
528 176 1 0.5897 -12.043088641968772 0.5502385169544084 9.890921369734803 1 0 0
424 142 2 -1.1794 -7.883401101407397 -2.061786404267531 7.021977909635173 1 0 0
435 145 1 0.5897 -7.45558241456046 -0.9206440260678477 9.888617851082145 0 0 0
411 137 1 0.5897 -13.205389124236323 0.3186789203514433 6.397906313327267 1 0 0
400 134 2 -1.1794 -10.28368956692071 -0.8276955278317022 7.326906414334216 1 0 0
402 134 1 0.5897 -10.68778810270432 -0.274386769808574 6.65842770001959 1 0 0
527 176 1 0.5897 -11.772619421020128 1.5209250744475256 8.76100135081283 1 0 0
522 174 1 0.5897 -9.74128390300263 2.129970639153127 7.527685861240841 1 0 0
426 142 1 0.5897 -8.758079255532294 -1.6767372213497271 7.075960822961624 1 0 0
417 139 1 0.5897 -8.75812426063016 1.010885287779466 5.648044699228392 1 0 0
415 139 2 -1.1794 -8.483920341362953 1.5848809732273317 6.363241897322743 1 0 0
433 145 2 -1.1794 -6.630908930308259 -1.2877351395698637 10.207052900956462 0 0 0
358 120 2 -1.1794 -4.740919623822756 -2.2414420207666943 8.458394496519468 0 0 0
330 110 1 0.5897 -3.138928771788944 -0.3359012181186749 6.615984959870912 0 0 0
405 135 1 0.5897 -5.075880327839434 -2.53639718409819 6.69793356041877 1 0 0
443 148 1 0.5897 -7.850869425357534 1.569693003314427 9.578390064433037 0 0 0
360 120 1 0.5897 -5.430292532118263 -1.886379877947597 9.019625218564697 0 0 0
416 139 1 0.5897 -7.686019471832509 1.18006086019167 6.703421664928716 1 0 0
339 113 1 0.5897 -5.60029922258577 0.2551126553072258 6.39164765586958 0 0 0
464 155 1 0.5897 -1.9954532028868428 -0.05123848938145237 10.171584504061276 0 0 0
337 113 2 -1.1794 -6.268828261376527 0.15415734972858708 7.069288192476726 0 0 0
456 152 1 0.5897 -4.422769057044624 0.5401328671694099 9.875096389308403 0 0 0
403 135 2 -1.1794 -5.079842650693348 -2.795069378679658 5.7763197711962615 1 0 0
328 110 2 -1.1794 -2.6933355588690535 -0.8598924288037786 7.281708277965283 0 0 0
442 148 2 -1.1794 -7.247225830507682 2.3100269709103767 9.518062454467811 0 0 0
455 152 1 0.5897 -4.139752557987105 1.5340977301960024 8.768732516774719 0 0 0
454 152 2 -1.1794 -4.855875719041691 1.0854794645819794 9.218345096202356 0 0 0
338 113 1 0.5897 -5.827702578544034 0.40479579661330867 7.880963478418016 0 0 0
444 148 1 0.5897 -6.376955560280724 1.9115910647184968 9.528860680396214 0 0 0
329 110 1 0.5897 -3.3985372431662118 -1.3208974222246663 7.736029478232939 0 0 0
410 137 1 0.5897 -13.433451946534014 0.36920502998476223 7.893779877088243 1 0 0
434 145 1 0.5897 -6.364664406461004 -0.70121249998137 10.915054977928905 0 0 0
465 155 1 0.5897 -1.7663308498416193 -0.12265869210411573 8.676726430021617 0 0 0
520 174 2 -1.1794 -10.425254538423603 2.4843818490649294 8.095894527346097 1 0 0
791 264 1 0.5897 -10.61026601991332 -0.658517370179668 14.089448407142752 0 0 0
865 289 2 -1.1794 -12.683551142377212 1.1740422345830304 15.481823674469304 0 0 0
836 279 1 0.5897 -11.252141438525026 -1.3321741573691384 11.184521006013558 1 0 0
770 257 1 0.5897 -11.844587901008795 2.988698278198548 13.18241683696693 0 0 0
769 257 2 -1.1794 -12.28636368123785 2.7092852350593493 12.380554759873974 0 0 0
790 264 2 -1.1794 -10.748868320924938 0.23329592325383075 13.77058283845436 0 0 0
761 254 1 0.5897 -9.409644433851218 1.1450945161029669 13.024007887319577 0 0 0
888 296 1 0.5897 -10.493114731839515 3.0892613207860204 15.1785540939263 0 0 0
762 254 1 0.5897 -9.136818160038318 2.1456215921991166 11.92100808456712 0 0 0
792 264 1 0.5897 -11.429503293440757 0.5892788094506809 14.341808493107592 0 0 0
760 254 2 -1.1794 -8.697874995898141 1.5990784714455426 12.572868841518124 0 0 0
837 279 1 0.5897 -11.065608186414984 -0.08130575612428892 12.016486966306825 1 0 0
835 279 2 -1.1794 -11.091330318655446 -0.391477681473301 11.111271241387175 1 0 0
896 299 1 0.5897 -8.039706942738114 2.4874749961114926 15.414806763057626 0 0 0
771 257 1 0.5897 -11.622150528946419 2.7982546066225265 11.697014048863785 0 0 0
772 258 2 -1.1794 -5.846527447396737 -2.0850422306210525 13.419951014779196 0 0 0
897 299 1 0.5897 -7.762095020765754 2.352585072421192 13.932605465958156 0 0 0
818 273 1 0.5897 -5.544497174778324 -1.7596484587373196 15.174087684202213 0 0 0
895 299 2 -1.1794 -7.343966424658998 2.5780496898992045 14.763613497669478 0 0 0
819 273 1 0.5897 -5.350739653152196 -0.5173441283882028 16.017161289769888 0 0 0
764 255 1 0.5897 -3.6198739375552966 -1.3619967030756026 11.154409545951673 0 0 0
786 262 1 0.5897 -7.103369442321828 0.827535449234027 12.338197011201862 0 0 0
763 255 2 -1.1794 -3.485720308908501 -0.4162486391133573 11.093587148762856 0 0 0
901 301 2 -1.1794 -5.079012168780747 1.1616695905819956 15.4796778596543 0 0 0
924 308 1 0.5897 -2.7657069721091876 3.047183207445448 15.216974727325558 0 0 0
805 269 2 -1.1794 -4.602321647291539 2.634761199378616 12.382035547236793 0 0 0
765 255 1 0.5897 -3.398474374842513 -0.12742311831094 12.002019217275896 0 0 0
797 266 1 0.5897 -1.761600644652395 1.1319364480527128 13.06080194940693 0 0 0
806 269 1 0.5897 -4.195838284849495 2.859270717934457 13.21905864722349 0 0 0
817 273 2 -1.1794 -5.5211322501889635 -1.4569763678720218 16.08190288858611 0 0 0
826 276 2 -1.1794 -3.1122807798026466 0.20260518664762017 13.733647363404193 0 0 0
827 276 1 0.5897 -2.963749731593074 -0.6684258678215205 14.101712275875018 0 0 0
773 258 1 0.5897 -5.983898684559655 -1.1930088327576254 13.101167650128515 0 0 0
903 301 1 0.5897 -5.880737182223166 1.5606838171707587 15.141637660869508 0 0 0
784 262 2 -1.1794 -6.24692202366507 0.4010469059864814 12.309121559846604 0 0 0
828 276 1 0.5897 -3.7841410981474874 0.5890657967314628 14.295371354979286 0 0 0
807 269 1 0.5897 -3.9117202923074004 2.7756036210380355 11.734310905755091 0 0 0
785 262 1 0.5897 -5.618429337396893 1.1218366515398088 12.348689097384131 0 0 0
866 289 1 0.5897 -12.411938907915747 1.7809649423366167 16.170320431612023 0 0 0
902 301 1 0.5897 -4.798317128408127 1.746329117897119 16.183627155987416 0 0 0
1011 337 1 0.5897 -11.905165117068744 3.998685397655379 20.454356948842577 0 -1 0
1229 410 1 0.5897 -7.828139571646894 3.546410701325856 18.32417038375582 0 0 0
1217 406 1 0.5897 -11.6747118622329 3.608353315632902 17.612696201843452 0 0 0
1251 417 1 0.5897 -11.37374116189655 1.922771496918184 21.3589985049964 0 0 0
1218 406 1 0.5897 -13.154262372247075 3.2912493008244184 17.659052539969508 0 0 0
1195 399 2 -1.1794 -9.5152087806542 2.143677781327195 16.340899001860148 0 0 0
1249 417 2 -1.1794 -11.548198232344296 0.9830683182190185 21.41050692353169 0 0 0
1204 402 2 -1.1794 -11.873029342378608 0.3987408762975946 18.73418865387677 0 0 0
1196 399 1 0.5897 -9.649509950557816 1.1979536495428196 16.40174837842708 0 0 0
1246 416 2 -1.1794 -6.346051553875754 -1.0398200709239411 19.87586196771929 0 0 0
1250 417 1 0.5897 -11.55851974278767 0.6906820824062088 20.49908306818699 0 0 0
1009 337 2 -1.1794 -11.106113368400532 3.610270893136766 20.81058230397164 0 -1 0
1260 420 1 0.5897 -9.84444661231662 3.081208009530597 19.633990961362908 0 0 0
1259 420 1 0.5897 -9.091549539717608 1.7913686237277417 19.38645249705702 0 0 0
1258 420 2 -1.1794 -9.211455362763335 2.6760301279640206 19.041172299392652 0 0 0
1100 367 1 0.5897 -9.14762927560805 -0.9084053920691559 17.319926986743248 0 0 0
1236 412 1 0.5897 -7.883928835317441 -0.1707464868196702 20.137399431157146 0 0 0
1235 412 1 0.5897 -9.355563660155251 -0.5226576113827512 20.184474554530844 0 0 0
1234 412 2 -1.1794 -8.755106137782814 0.22269524617889935 20.187333350174214 0 0 0
1205 402 1 0.5897 -12.00737264727481 1.2949382625242318 18.42597362415815 0 0 0
1197 399 1 0.5897 -9.506955341710906 2.4437774965990293 17.249833059757297 0 0 0
1216 406 2 -1.1794 -12.292793576478452 2.877590264451527 17.604301023295484 0 0 0
1206 402 1 0.5897 -11.18532990055206 0.05040357885063784 18.16672310032571 0 0 0
1099 367 2 -1.1794 -9.945895223922452 -0.5145394037540605 16.967948634776658 0 0 0
1136 379 1 0.5897 -1.4769522110581192 -0.971614428479457 17.36261344064577 0 0 0
1135 379 2 -1.1794 -2.2941646049108595 -0.6090577500702246 17.020618325313684 0 0 0
1294 432 2 -1.1794 -1.5611600331205793 2.6504881467358157 19.075525656547107 0 0 0
1047 349 1 0.5897 -4.314758527662594 4.025223676253404 20.47378279822856 0 -1 0
1252 418 2 -1.1794 -4.6478509183854975 2.8265329110746986 17.660442314413764 0 0 0
1241 414 1 0.5897 -4.380976134997519 1.2418610152487766 18.41127023192112 0 0 0
1272 424 1 0.5897 -0.26149387241450306 -0.22590941111950968 20.130915684699993 0 0 0
1247 416 1 0.5897 -5.6385737016330735 -0.5638525667063732 19.440927441582286 0 0 0
1271 424 1 0.5897 -1.7399720715034945 -0.5511824393387492 20.13893922154934 0 0 0
1253 418 1 0.5897 -4.046563657542915 3.571027770963605 17.677462554784313 0 0 0
1286 429 1 0.5897 -3.9489464395375213 0.6451362378400063 20.50599606138084 0 0 0
1295 432 1 0.5897 -1.431209554203562 1.7620609902616255 19.40723308741285 0 0 0
1254 418 1 0.5897 -5.518936923626811 3.220422704983145 17.70839272208225 0 0 0
1270 424 2 -1.1794 -1.125848863919309 0.18126772390980328 20.188681628923185 0 0 0
1285 429 2 -1.1794 -3.925490252495731 0.9731628085913382 21.404955481852834 0 0 0
1233 411 1 0.5897 -1.8016630140953946 2.3133576353044187 17.329765632533142 0 0 0
1045 349 2 -1.1794 -3.5099410737408716 3.6286897625555703 20.807363555924915 0 -1 0
1231 411 2 -1.1794 -1.8275290520775513 2.0144678178493756 16.420764769182952 0 0 0
1242 414 1 0.5897 -3.6058629097627843 -0.038453200539564136 18.183641344320257 0 0 0
1296 432 1 0.5897 -2.1945886982292286 3.0411171951073523 19.677572762269477 0 0 0
1287 429 1 0.5897 -3.7851240615066466 1.9154759492363382 21.312859412403043 0 0 0
1232 411 1 0.5897 -2.002410257706476 1.0754207185550353 16.48191625180574 0 0 0
1240 414 2 -1.1794 -4.274470699569636 0.35170926544790326 18.74668506822376 0 0 0
1137 379 1 0.5897 -2.52792861050347 -1.187277439779976 16.29454142992986 0 0 0
1101 367 1 0.5897 -10.22629604466933 -1.1160100365748704 16.278192012233088 0 0 0
40 14 2 -1.1794 -14.92987549269657 3.751799219051092 1.9559097357568898 1 0 0
177 59 1 0.5897 -14.008074787140183 4.466800777721529 3.3404627072837916 1 0 0
42 14 1 0.5897 -15.383204144831527 4.286264674701279 1.3038786418524853 1 0 0
85 29 2 -1.1794 -10.85711073707472 4.841109541151264 1.738300475458552 1 0 0
55 19 2 -1.1794 -13.161200046252915 6.186745476480176 1.0662553055686734 1 0 0
56 19 1 0.5897 -12.363523235351675 5.792502410073466 1.4191430241269878 1 0 0
66 22 1 0.5897 -13.368539951269137 2.9853443541415654 1.7465550881822907 1 0 0
65 22 1 0.5897 -11.895562764480854 3.328510582012999 1.6806001051896262 1 0 0
64 22 2 -1.1794 -12.500483799699513 2.5867785738852636 1.68439522324062 1 0 0
191 64 1 0.5897 -12.571921411327843 6.258007267093699 4.1952621335196945 1 0 0
190 64 2 -1.1794 -11.933679867977435 6.970117519435554 4.235921627475484 1 0 0
183 61 1 0.5897 -12.088478072053755 3.6858285746281503 4.494010417923047 1 0 0
181 61 2 -1.1794 -11.299993592784428 3.28812791191673 4.86330097304159 1 0 0
176 59 1 0.5897 -14.189223946939599 4.584255200385947 4.838985965763471 1 0 0
175 59 2 -1.1794 -13.546487146831861 4.714341232211794 4.1416405765401105 1 0 0
108 36 1 0.5897 -10.0286909201379 2.742831276267818 3.706107011017928 1 0 0
162 54 1 0.5897 -14.412996441587858 6.791657321056004 2.2117885148646312 1 0 0
45 15 1 0.5897 -9.631087993050585 2.167933589481496 1.3473713282649875 1 0 0
167 56 1 0.5897 -16.417886368828093 6.1890084187733745 3.495121310217952 1 0 0
43 15 2 -1.1794 -9.651039551282151 1.8688442603273927 0.43828663308798965 1 0 0
192 64 1 0.5897 -11.08355192401084 6.534087601784835 4.177608190870563 1 0 0
106 36 2 -1.1794 -9.361268305259038 2.375755484448879 3.1263772445291296 1 0 0
86 29 1 0.5897 -10.422595421738736 5.043012194395914 2.566958470182766 1 0 0
76 26 2 -1.1794 -7.333361843882511 3.8396000254215625 2.0421235411084306 1 0 0
100 34 2 -1.1794 -4.874909290650128 2.624686681976872 1.6965589900246933 1 0 0
203 68 1 0.5897 -8.772939012432506 6.202477031104685 3.5179989251317334 1 0 0
77 26 1 0.5897 -8.04725549321866 3.3648739194011235 2.467829466944873 1 0 0
78 26 1 0.5897 -7.764087675202271 4.37053462378711 1.3721311002802457 1 0 0
102 34 1 0.5897 -5.732934873917545 3.0454863499159934 1.7509562846917608 1 0 0
202 68 2 -1.1794 -9.490576585505952 5.7372749461535495 3.947902452569275 1 0 0
213 71 1 0.5897 -6.36951890106275 4.4606098889316055 3.414944855473115 1 0 0
87 29 1 0.5897 -10.192792312110768 5.012707896618206 1.0708036237358307 1 0 0
198 66 1 0.5897 -6.746498685278889 6.758684856955185 2.2729780080238013 1 0 0
212 71 1 0.5897 -6.605974533909991 4.569360393464358 4.906404615733895 1 0 0
211 71 2 -1.1794 -5.932679343729059 4.68655065879711 4.236137575246124 1 0 0