LAMMPS data file via write_data, version 30 Jul 2021, timestep = 25500000

1296 atoms
2 atom types
864 bonds
1 bond types
432 angles
1 angle types

-10.565480853257293 12.545480853257294 xlo xhi
-9.127704908451676 12.117702908451676 ylo yhi
0.19471225450786456 21.66528674548801 zlo zhi
-9.279157868870104 1.868651339974571 2.769557218087354 xy xz yz

Masses

1 1.008
2 15.999

Pair Coeffs # lj/cut/tip4p/long/omp

1 0 0
2 0.21084 3.1668

Bond Coeffs # harmonic/omp

1 450 0.9572

Angle Coeffs # harmonic/omp

1 55 104.52

Atoms # full

282 94 1 0.5897 -10.404789359248248 -4.1822839799189815 1.5652660253136368 1 1 0
298 100 2 -1.1794 -5.973482035967579 -7.295854292882809 3.936999052495205 1 1 0
280 94 2 -1.1794 -9.54752754991983 -4.608087407083211 1.5643438946460069 1 1 0
299 100 1 0.5897 -6.49799427801821 -8.064998587032331 4.15947138452557 1 1 0
270 90 1 0.5897 -8.182237034468113 -7.259261972407602 2.289328567865673 1 1 0
163 55 2 -1.1794 -7.0525419286304665 -7.817290905923848 1.1271605180545148 1 1 0
164 55 1 0.5897 -6.249092113637386 -8.23646423196565 1.4353331397428264 1 1 0
269 90 1 0.5897 -9.155552894447741 -6.106494729718008 2.414355691871998 1 1 0
268 90 2 -1.1794 -8.908861899599854 -6.936509644927803 2.8223037309250274 1 1 0
281 94 1 0.5897 -8.92819523031623 -3.9010443992737933 1.7452199016000407 1 1 0
324 108 1 0.5897 -7.004104451456655 -4.309252631282132 3.8922637997558036 1 1 0
73 25 2 -1.1794 -8.41806551526415 -3.785752111749302 4.925762849608042 1 0 0
314 105 1 0.5897 -8.604723093681676 -6.76005961917344 4.625003825943425 1 1 0
275 92 1 0.5897 -10.478705986501922 -7.969977661315849 3.3636865514520093 1 1 0
313 105 2 -1.1794 -8.604822397761572 -6.506772793948786 5.548077685303814 1 1 0
323 108 1 0.5897 -6.129823264899087 -5.50170814856217 3.567404129025342 1 1 0
261 87 1 0.5897 -6.634501055170942 -4.879576929812531 1.3846489062489575 1 1 0
315 105 1 0.5897 -8.53932931453241 -5.5519229923421705 5.5349379507590335 1 1 0
75 25 1 0.5897 -9.28244142132385 -3.4693297071302522 4.663197568553699 1 0 0
300 100 1 0.5897 -5.067903787868222 -7.6033797888950225 3.9763411491826384 1 1 0
633 211 1 0.5897 -5.73771440140483 -6.186019376444632 5.500580428111929 1 1 0
1141 381 2 -1.1794 -10.267396651265786 -8.78652608751246 0.34843004469480965 0 0 1
1143 381 1 0.5897 -10.0920122171792 -7.849156369535341 0.26612967978084984 0 0 1
165 55 1 0.5897 -7.418671690601732 -8.4358080742476 0.49502290687354733 1 1 0
259 87 2 -1.1794 -6.709303925185251 -5.06814249564685 0.44920132802386437 1 1 0
260 87 1 0.5897 -7.013270519716592 -5.97496204510857 0.41073965560957804 1 1 0
429 143 1 0.5897 -6.388706146475074 -7.316414451585596 8.642800587952447 1 0 0
428 143 1 0.5897 -6.454091185012702 -6.862072011815696 10.085425489516043 1 0 0
427 143 2 -1.1794 -5.850222027632654 -6.959704421348183 9.349202426088684 1 0 0
419 140 1 0.5897 -8.947628540648529 -5.512182428045577 8.676404884542633 1 0 0
418 140 2 -1.1794 -9.651038655116153 -5.991317778589902 9.114400439015046 1 0 0
413 138 1 0.5897 -7.502819748008409 -3.6998458756437262 7.813940160887721 1 0 0
627 209 1 0.5897 -10.193020204591335 -6.665984381438457 6.3175144445085625 1 1 0
420 140 1 0.5897 -9.21528283158069 -6.459449728467047 9.826567359034714 1 0 0
618 206 1 0.5897 -7.578899129180208 -7.2436597804065785 6.626180629618917 1 1 0
350 117 1 0.5897 -7.340626223836926 -4.343564635161357 9.87296833857507 0 0 0
414 138 1 0.5897 -6.794086379987606 -5.023877160661429 7.622912477481633 1 0 0
412 138 2 -1.1794 -7.5087412514189555 -4.610858696774116 8.1075710045525 1 0 0
616 206 2 -1.1794 -7.171946370734217 -7.839330434564454 7.255281296999662 1 1 0
626 209 1 0.5897 -10.673211222041624 -6.3947292836204905 7.727369159558526 1 1 0
351 117 1 0.5897 -7.331492427025233 -3.13651932405625 10.786651736323691 0 0 0
349 117 2 -1.1794 -7.368887776194519 -4.092925105769689 10.796333839478114 0 0 0
74 25 1 0.5897 -8.134121038776424 -3.173101060670737 5.604177340580371 1 0 0
684 228 1 0.5897 -8.322849360824243 -6.443785704956801 14.57272324288932 0 0 0
740 247 1 0.5897 -10.995653592783512 -3.420074674594825 11.90218293553022 1 0 0
652 218 2 -1.1794 -5.728412893229335 -5.39307266657506 12.70136752748591 0 0 0
682 228 2 -1.1794 -7.782705241620998 -6.785263709200655 13.8600888000453 0 0 0
780 260 1 0.5897 -7.529307486248224 -4.138234518715462 15.227181788364076 0 0 0
779 260 1 0.5897 -7.179399872714077 -3.0456694840903493 14.23941362003344 0 0 0
778 260 2 -1.1794 -7.895289068898324 -3.620501088522385 14.510090168588993 0 0 0
768 256 1 0.5897 -9.595406074789356 -2.8211498843145737 15.068488627233977 0 0 0
654 218 1 0.5897 -6.146322205374929 -4.783415791814661 12.09318905709719 0 0 0
653 218 1 0.5897 -6.4560906738923896 -5.797175281514178 13.17400296423566 0 0 0
661 221 2 -1.1794 -9.568955731829671 -4.310167628096333 12.449418162663685 0 0 0
766 256 2 -1.1794 -10.4364416873877 -2.364388313716228 15.083950748390938 0 0 0
662 221 1 0.5897 -9.158319406214003 -4.091456635711219 13.285926368619393 0 0 0
663 221 1 0.5897 -8.842136952820352 -4.347090313430013 11.827671909430958 0 0 0
788 263 1 0.5897 -4.841771539647166 -4.650901267146283 15.53177847119697 0 0 0
767 256 1 0.5897 -11.085153270439115 -3.0506772049017306 14.927819125857805 0 0 0
729 243 1 0.5897 -7.947217614300279 -7.078023965436941 12.08767282590692 1 0 0
727 243 2 -1.1794 -7.907960389709059 -7.269504190701863 11.150647802534422 1 0 0
1121 374 1 0.5897 -4.630899109071314 -3.692326122973048 18.496324971103846 0 0 0
1110 370 1 0.5897 -10.150957407114293 -3.8860666210812926 17.81258679985382 0 0 0
1248 416 1 0.5897 -5.772992128169793 -1.3616983100281583 20.634029174069923 0 0 0
1088 363 1 0.5897 -6.406835839026785 -6.040415574348298 16.366497468748015 0 0 0
1152 384 1 0.5897 -6.6644518066409715 -4.051456933458699 19.663854062638023 0 0 0
1225 409 2 -1.1794 -7.9042790917768855 -3.468393386753874 20.86367032349488 0 0 0
1227 409 1 0.5897 -8.791159145599575 -3.2852105700093954 20.553681639757954 0 0 0
1109 370 1 0.5897 -8.69601298668648 -3.467983909106133 17.800379724520575 0 0 0
1108 370 2 -1.1794 -9.261865539552769 -4.239927993675371 17.7901794041547 0 0 0
1089 363 1 0.5897 -6.224579169386792 -4.848068502783198 17.281343853496452 0 0 0
1129 377 2 -1.1794 -7.542069438441354 -1.976034196404263 17.781884853301946 0 0 0
1219 407 2 -1.1794 -10.376052995456362 -2.3553552892581227 20.177967623244307 0 0 0
1131 377 1 0.5897 -6.864515705314783 -1.7087735393910926 17.1608415106094 0 0 0
1151 384 1 0.5897 -5.851915458961242 -5.325417070375753 19.570853878879795 0 0 0
1150 384 2 -1.1794 -6.098512015133854 -4.5467813247428435 19.07175166186186 0 0 0
1097 366 1 0.5897 -8.483306535380665 -5.797547095555335 18.74853199586368 0 0 0
1142 381 1 0.5897 -8.228834716521543 -6.3704832029115295 20.94586941994168 0 0 0
1226 409 1 0.5897 -7.76831809634721 -2.849737206043054 21.581299373964292 0 0 0
1087 363 2 -1.1794 -6.290915863064013 -5.090316939053327 16.35769004709249 0 0 0
1130 377 1 0.5897 -7.204594109912618 -1.7063052212320233 18.63603702156628 0 0 0
758 253 1 0.5897 -9.575066118893945 -5.411602605466378 16.437369132809835 0 0 0
44 15 1 0.5897 -9.976106021358026 0.8542496392619015 0.5494154268147174 1 0 0
69 23 1 0.5897 -11.179574748799643 -2.469404496361973 3.2694870406837935 1 0 0
272 91 1 0.5897 -9.306266892935769 -1.216007118720924 1.4618046161155078 1 1 0
271 91 2 -1.1794 -10.047306623566293 -0.8888104698585817 0.9518920821740027 1 1 0
82 28 2 -1.1794 -8.984145883757398 -0.0814949346057876 4.13813797306465 1 0 0
107 36 1 0.5897 -9.41476805637326 1.6549430739322997 3.5115467278727075 1 0 0
258 86 1 0.5897 -12.372221338517004 -2.8022475772476456 1.1624596797981193 1 1 0
83 28 1 0.5897 -9.570743443401104 -0.830071402706551 4.24642293722954 1 0 0
67 23 2 -1.1794 -10.629581498403192 -2.4042657675251506 4.050176588281128 1 0 0
256 86 2 -1.1794 -11.957761259303805 -3.4842395602601037 1.6909635189452403 1 1 0
68 23 1 0.5897 -11.246345358321546 -2.4351210540895876 4.781516336854242 1 0 0
52 18 2 -1.1794 -12.06659211567007 0.10784874158618685 2.5517161571602482 1 0 0
98 33 1 0.5897 -11.85211138787126 0.3986163142910417 4.2264996534882 1 0 0
53 18 1 0.5897 -12.230029828974494 1.0209726565454353 2.3157151867941868 1 0 0
54 18 1 0.5897 -11.372025307220445 -0.17333601094806106 1.9561272059824943 1 0 0
84 28 1 0.5897 -8.12146817757927 -0.471181935365923 3.996237254459163 1 0 0
301 101 2 -1.1794 -7.896757482338038 -2.418023632941356 1.722465180250155 1 1 0
59 20 1 0.5897 -13.60654013759234 -0.9296272274936523 3.0907488780390033 1 0 0
273 91 1 0.5897 -10.189344089832757 -1.5555735196946348 0.2799762222080604 1 1 0
417 139 1 0.5897 -8.690649252113886 0.8760557027589719 5.532083465257567 1 0 0
97 33 2 -1.1794 -11.86552728505559 0.6118517134618582 5.159544763394848 1 0 0
99 33 1 0.5897 -11.662636189658404 1.546612762657377 5.195036209324128 1 0 0
1249 417 2 -1.1794 -13.454067948545347 -1.6671320968464807 0.19499307618734005 0 0 1
527 176 1 0.5897 -11.755580175189987 1.4120578302837057 8.671622121776792 1 0 0
526 176 2 -1.1794 -12.470551803024682 0.9241132849532114 9.080174072384551 1 0 0
426 142 1 0.5897 -8.835433860345933 -1.7299863309876002 7.183195905991329 1 0 0
411 137 1 0.5897 -13.467096572978468 0.2581630554931653 6.031557647404193 1 0 0
424 142 2 -1.1794 -7.95899316455476 -2.0899112189837012 7.047122125765307 1 0 0
402 134 1 0.5897 -10.93857984881229 -0.37758908481932885 6.473617556049088 1 0 0
401 134 1 0.5897 -11.309464924282517 -1.2454123449848176 7.657320968760852 1 0 0
400 134 2 -1.1794 -10.557666585055369 -0.8600235056617471 7.207355266365028 1 0 0
537 179 1 0.5897 -9.558700435823017 0.08345977331181942 8.566195687208412 1 0 0
536 179 1 0.5897 -9.65850524237243 -0.10518085067925043 10.064965559936253 1 0 0
535 179 2 -1.1794 -9.045668078826678 0.14126653698084723 9.372218051757502 1 0 0
528 176 1 0.5897 -12.048590930670565 0.41374474107606574 9.771319307087767 1 0 0
435 145 1 0.5897 -7.513935401304764 -1.054106231549362 9.888774201146402 0 0 0
522 174 1 0.5897 -9.717708619484451 1.9909505838592505 7.42545558723126 1 0 0
433 145 2 -1.1794 -6.7626428648606725 -1.4953470619946856 10.285101329636134 0 0 0
425 142 1 0.5897 -7.373731636531304 -1.3382982723722439 7.140611553597106 1 0 0
458 153 1 0.5897 -10.353713508037911 2.6794950164709146 9.846762596972788 0 0 0
520 174 2 -1.1794 -10.336172758211559 2.4311477535477675 8.0085047562014 1 0 0
410 137 1 0.5897 -13.571032580655666 0.36660023019452304 7.537979228347777 1 0 0
790 264 2 -1.1794 -11.039574428207237 0.02069821586788123 13.789287894589036 0 0 0
771 257 1 0.5897 -11.74023590375632 2.9480620578072294 11.786089532178224 0 0 0
762 254 1 0.5897 -9.315470533545788 2.1189568660765836 11.943646452093077 0 0 0
761 254 1 0.5897 -9.599487733580142 0.9976877559019606 12.920327127081917 0 0 0
760 254 2 -1.1794 -8.909486586105265 1.5968786738243264 12.635615946359884 0 0 0
769 257 2 -1.1794 -12.366222124970061 2.71967735126783 12.473248383909127 0 0 0
792 264 1 0.5897 -11.6905461108774 0.4425044643156486 14.350118434943012 0 0 0
836 279 1 0.5897 -11.307261414934054 -1.3385763850918053 11.107655942578885 1 0 0
837 279 1 0.5897 -11.204063304294088 -0.10156885908824087 11.974267596546238 1 0 0
791 264 1 0.5897 -10.834579613593055 -0.8008853269139244 14.235563890811093 0 0 0
896 299 1 0.5897 -8.28018927711227 2.347851305006335 15.594752200746893 0 0 0
770 257 1 0.5897 -11.929246951296944 2.967540640853496 13.288008293178907 0 0 0
888 296 1 0.5897 -10.60247417801151 3.0634040077452855 15.417697774953863 0 0 0
835 279 2 -1.1794 -11.087855087459012 -0.40746055947427706 11.074740591603627 1 0 0
865 289 2 -1.1794 -12.806026092091443 1.1239264955640547 15.5342976593869 0 0 0
857 286 1 0.5897 -13.157870122182645 1.0926148850117148 12.272186323839506 1 0 0
897 299 1 0.5897 -8.135065741981942 2.3144844112641163 14.088203195171726 0 0 0
1009 337 2 -1.1794 -11.07673313423964 3.6658336810000147 20.978644220510958 0 -1 0
1260 420 1 0.5897 -9.931428983691372 2.9409430861146397 19.796638032315215 0 0 0
1217 406 1 0.5897 -11.751446200225654 3.493084282423119 17.555973159947833 0 0 0
1259 420 1 0.5897 -9.084795590685584 1.710059426392057 19.55176235541454 0 0 0
1258 420 2 -1.1794 -9.290935631453639 2.571432488013137 19.18881791713543 0 0 0
1196 399 1 0.5897 -9.562350760924874 0.9706671160895404 16.701785413603574 0 0 0
1218 406 1 0.5897 -13.232924668972625 3.2624251047558523 17.76526828009016 0 0 0
1246 416 2 -1.1794 -6.296561837712712 -0.8592993427415898 20.009785140853943 0 0 0
1236 412 1 0.5897 -7.859760780478499 -0.2270764005846715 20.226741238185795 0 0 0
1216 406 2 -1.1794 -12.388924301159706 2.810914220059203 17.76680862498425 0 0 0
1235 412 1 0.5897 -9.299938226264146 -0.6828556137102488 20.326447126912285 0 0 0
1234 412 2 -1.1794 -8.754565092061748 0.10348741407549866 20.305833210078006 0 0 0
1099 367 2 -1.1794 -9.902015750345065 -0.7102408284353672 17.24664357744598 0 0 0
1100 367 1 0.5897 -9.063602253012053 -1.1087180534235568 17.480063580195143 0 0 0
1206 402 1 0.5897 -11.344815871705224 0.016546207886227293 18.406890006637695 0 0 0
1205 402 1 0.5897 -12.077441546427563 1.3239561093079537 18.620880851773904 0 0 0
1197 399 1 0.5897 -9.537021245926788 2.1772291746097174 17.6158025840708 0 0 0
1251 417 1 0.5897 -11.539873889577752 2.0390942122715785 21.473796080393207 0 0 0
1250 417 1 0.5897 -11.567768252854986 0.6804592934351064 20.80658356824538 0 0 0
1229 410 1 0.5897 -8.149524090854657 3.8064717006571858 18.3826839656698 0 0 0
1011 337 1 0.5897 -11.875276764035846 4.060295550724973 20.628018632683556 0 -1 0
866 289 1 0.5897 -12.583244174619214 1.6158738882823727 16.324598080185638 0 0 0
1195 399 2 -1.1794 -9.608751042085341 1.9267004046060965 16.69476757196599 0 0 0
1101 367 1 0.5897 -10.201200468314948 -1.2087153073555443 16.48623052510242 0 0 0
40 14 2 -1.1794 -15.118130991090691 3.88844711740329 1.7987142903663456 1 0 0
177 59 1 0.5897 -14.10690792800077 4.671479815394017 3.354257553939679 1 0 0
42 14 1 0.5897 -15.638902454835332 4.410529130412879 1.1884371998785652 1 0 0
190 64 2 -1.1794 -12.011410259517618 7.126303094508991 4.157792113879761 1 0 0
175 59 2 -1.1794 -13.665220958748144 5.005049404834601 4.135187606070037 1 0 0
55 19 2 -1.1794 -13.444537015101314 6.481991563224614 0.8833319104177012 1 0 0
56 19 1 0.5897 -12.678703100099805 6.069684908909167 1.2829718054865324 1 0 0
66 22 1 0.5897 -13.36505300638129 3.0358391300841685 1.3346349510936066 1 0 0
65 22 1 0.5897 -11.913943207674807 3.4085291397738686 1.5518721646582028 1 0 0
64 22 2 -1.1794 -12.500719763814642 2.654868327036514 1.4895434014774143 1 0 0
43 15 2 -1.1794 -9.786758305207226 1.783847137137748 0.4221477277624588 1 0 0
85 29 2 -1.1794 -11.01742202577779 5.034702652810056 1.6383604746416802 1 0 0
191 64 1 0.5897 -12.545408758403482 6.384086396595228 4.440856117659937 1 0 0
108 36 1 0.5897 -10.255341626345212 2.8615514170866536 3.871241925188459 1 0 0
183 61 1 0.5897 -12.318020704749316 3.831062668668567 4.57138903766149 1 0 0
181 61 2 -1.1794 -11.509975711953613 3.431525473900411 4.893325352397325 1 0 0
176 59 1 0.5897 -14.241942183121843 4.761911350669589 4.859392963148341 1 0 0
45 15 1 0.5897 -9.787975614225047 2.1521620898738547 1.3056440017963862 1 0 0
167 56 1 0.5897 -16.65370650851075 6.130382334087548 3.367594284452977 1 0 0
162 54 1 0.5897 -14.867796541745001 6.835023430310422 2.0486284835944746 1 0 0
206 69 1 0.5897 -15.163831236881958 7.2308488462711935 4.528485609849937 1 0 0
106 36 2 -1.1794 -9.58731539160681 2.5608712238904907 3.2551740646233096 1 0 0
508 170 2 -1.1794 -13.601642934683714 6.242412706420373 7.312315184852358 1 0 0
645 215 1 0.5897 -12.688171664546626 7.179255104672819 8.657585455532415 1 0 0
644 215 1 0.5897 -12.908246834706361 7.083893580397245 10.152349680075849 1 0 0
643 215 2 -1.1794 -12.225991476256644 7.219490756994652 9.494826966630045 1 0 0
509 170 1 0.5897 -14.28003764335812 5.847546199368644 7.860090244996246 1 0 0
457 153 2 -1.1794 -10.37222753125143 3.053733255756585 10.727571528642928 0 0 0
532 178 2 -1.1794 -11.077039421893247 4.995906552617173 7.094444842927822 1 0 0
459 153 1 0.5897 -10.120133990338694 3.968926921515923 10.60482088962294 0 0 0
510 170 1 0.5897 -14.084442732244199 6.6876883182440015 6.616010348300172 1 0 0
534 178 1 0.5897 -11.905899222811607 5.469805749679207 7.1624231440145545 1 0 0
521 174 1 0.5897 -10.451640432797916 3.3000650305626813 7.623986661548311 1 0 0
543 181 1 0.5897 -10.609015655022 6.050764383267023 9.703421005017704 0 0 0
533 178 1 0.5897 -10.427173717776515 5.674192504358629 6.910609070553709 1 0 0
636 212 1 0.5897 -15.084117414447125 7.757969825944837 9.939557996417062 1 0 0
518 173 1 0.5897 -16.598257594551853 7.507297110064453 7.933283018443336 1 0 0
519 173 1 0.5897 -16.4786781888575 7.372452501527285 6.430159721198566 1 0 0
182 61 1 0.5897 -11.213675295195506 4.017218674608499 5.590018479857603 1 0 0
887 296 1 0.5897 -10.18249747231317 3.9787472239098634 14.287397703180309 0 0 0
874 292 2 -1.1794 -13.36838375515993 4.900100557901071 15.071531955921971 0 0 0
876 292 1 0.5897 -12.463985534987756 4.588697577579845 15.03557106313053 0 0 0
848 283 1 0.5897 -13.9778959023844 3.743017916295363 12.208865765384537 1 0 0
945 315 1 0.5897 -14.285573803365864 6.981422064378975 12.14100208175009 1 0 0
943 315 2 -1.1794 -14.255780089402515 6.758279725824396 11.210658925559585 1 0 0
900 300 1 0.5897 -14.78053836022126 7.647531246093532 14.332491440418 0 0 0
899 300 1 0.5897 -13.964171447334351 6.375377077239186 14.248742049850678 0 0 0
898 300 2 -1.1794 -14.061028763567123 7.240230448202151 13.850180407815802 0 0 0
875 292 1 0.5897 -13.898018342773378 4.103574856466503 15.03645656782866 0 0 0
886 296 2 -1.1794 -10.95533196990812 3.618721753691462 14.722482800545407 0 0 0
944 315 1 0.5897 -14.445673095248015 5.820542200226921 11.18257455289499 1 0 0
869 290 1 0.5897 -12.673280992701862 8.204749897223216 12.96631338791595 0 0 0
649 217 2 -1.1794 -15.836357123375453 8.20026701776722 15.723565875924148 0 -1 0
1018 340 2 -1.1794 -11.731617558313975 7.2035185851854955 20.399488005375694 0 -1 0
1019 340 1 0.5897 -12.299982755668692 6.433828211571804 20.4265206221068 0 -1 0
1020 340 1 0.5897 -10.843549613776107 6.846691684560977 20.414162038208147 0 -1 0
1043 348 1 0.5897 -12.207777170036016 8.750406667081894 19.358906046602137 0 -1 0
1237 413 2 -1.1794 -10.590446278646448 4.989258647022002 17.75730141948172 0 0 0
1033 345 2 -1.1794 -14.8292880246982 8.061246889867 21.583439648789856 0 -1 0
1030 344 2 -1.1794 -9.313689829027787 6.104875024969704 20.08940673706551 0 -1 0
1032 344 1 0.5897 -8.833424575049055 5.550861670897945 20.704726399305265 0 -1 0
989 330 1 0.5897 -15.226294579412482 8.27618118248482 18.479828431462522 0 -1 0
1207 403 2 -1.1794 -13.044814050017585 6.523975348060063 17.305111515007496 0 0 0
1208 403 1 0.5897 -12.228147893207693 6.139253796579165 17.62331735331236 0 0 0
1239 413 1 0.5897 -10.07477814060641 5.2872876377383164 17.007987571813892 0 0 0
1238 413 1 0.5897 -10.121987466799952 5.327055916945211 18.520619447622153 0 0 0
990 330 1 0.5897 -14.331521384630785 7.057559529234933 18.401224820681705 0 -1 0
1003 335 2 -1.1794 -13.44247560685264 4.993411404862272 20.344240796128354 0 -1 0
1034 345 1 0.5897 -14.793957884212222 7.798452490266769 20.66370528089884 0 -1 0
988 330 2 -1.1794 -14.978644732358273 7.486645833544205 18.96097826575494 0 -1 0
1035 345 1 0.5897 -14.636419054656578 8.998735219936112 21.572745048789635 0 -1 0
980 327 1 0.5897 -12.99268982951023 8.189788626491413 16.589659426460322 0 -1 0
1209 403 1 0.5897 -13.29268295710921 5.977856820660955 16.55909963725462 0 0 0
1010 337 1 0.5897 -10.739797915993806 4.3147107287901765 21.59642022940251 0 -1 0
57 19 1 0.5897 -11.762879871944898 8.714829361750088 21.583721374678554 1 0 -1
650 217 1 0.5897 -15.678515198939976 8.721527630662347 16.51070884244239 0 -1 0
291 97 1 0.5897 -15.465685983274618 10.638604831085267 4.6262382794431645 1 0 0
174 58 1 0.5897 -16.53727428570741 10.144403763556117 1.539075491808602 1 0 0
173 58 1 0.5897 -15.091160632044236 10.589396154688288 1.4886324008954483 1 0 0
172 58 2 -1.1794 -15.642907389277198 9.807239630526688 1.4877181344878558 1 0 0
283 95 2 -1.1794 -16.89284261417338 11.791119535864297 4.373323345117845 1 0 0
161 54 1 0.5897 -15.580139372059863 8.149415375237236 2.286947203741489 1 0 0
207 69 1 0.5897 -14.711656490423778 8.504900940077924 5.209774043324921 1 0 0
193 65 2 -1.1794 -13.989848642347322 11.993633707486222 1.5600727562334606 1 0 0
285 95 1 0.5897 -17.242916618628648 11.636530089294752 3.4959585536792446 1 0 0
148 50 2 -1.1794 -18.154430865148104 10.870578513532564 2.1150970682106798 1 0 0
289 97 2 -1.1794 -14.584193943111108 10.358534421456113 4.872694608609981 1 0 0
150 50 1 0.5897 -18.554479353051313 11.45377935385865 1.4700925002905274 1 0 0
284 95 1 0.5897 -17.621742593224035 11.592312502666505 4.961014353515715 1 0 0
153 51 1 0.5897 -12.844242675272664 9.344881636874025 1.2146110402516648 1 0 0
216 72 1 0.5897 -13.15655078882795 9.956715364647327 3.765638620672364 1 0 0
205 69 2 -1.1794 -15.082363643279333 7.640926143055712 5.389540583749861 1 0 0
160 54 2 -1.1794 -15.545652472416604 7.241612171912543 2.588456579795581 1 0 0
215 72 1 0.5897 -12.40470858655154 8.708654317329021 3.354630559307166 1 0 0
290 97 1 0.5897 -14.28102083401493 11.030160973171302 5.483609949208343 1 0 0
214 72 2 -1.1794 -12.577289682430916 9.611157698139433 3.0864755886662643 1 0 0
151 51 2 -1.1794 -12.767183875834972 9.045362928363684 0.3087575322091698 1 0 0
152 51 1 0.5897 -13.085175990529294 8.142721069008594 0.3265718009664328 1 0 0
640 214 2 -1.1794 -14.06046687616903 12.07599762629778 6.863204701381515 1 0 0
630 210 1 0.5897 -13.163735002211235 9.353027403571115 7.398234294915298 1 0 0
629 210 1 0.5897 -13.890053190931386 10.639012850684828 7.730725842793627 1 0 0
628 210 2 -1.1794 -13.728966194126755 9.754198415502948 8.058379692732682 1 0 0
566 189 1 0.5897 -13.196955634646454 9.94426818940465 9.924549689422667 0 0 0
635 212 1 0.5897 -14.956575400451285 8.8430393167016 8.891618534799289 1 0 0
565 189 2 -1.1794 -13.268859312791767 10.340978673046173 10.792686767882149 0 0 0
567 189 1 0.5897 -13.271926881563507 11.283581249731153 10.626290128742903 0 0 0
642 214 1 0.5897 -14.931917270332352 12.42820247488011 7.04413639353276 1 0 0
646 216 2 -1.1794 -18.518797063194675 12.063088735184511 8.41310130837005 1 0 0
523 175 2 -1.1794 -11.850864154063387 8.728423279781598 6.432182292887136 1 0 0
327 109 1 0.5897 -13.653035911831589 13.335101614340253 9.709520686639681 0 -1 0
641 214 1 0.5897 -13.480474365993903 12.836161588559296 6.90742093585406 1 0 0
617 206 1 0.5897 -17.185917727940264 13.031041212113113 7.74065547119542 1 0 0
634 212 2 -1.1794 -15.57806411352546 8.214156663225172 9.258294059835377 1 0 0
525 175 1 0.5897 -11.948175334081451 8.091379144771864 5.724422110026676 1 0 0
658 220 2 -1.1794 -16.421928010934153 11.868257085508333 14.927292085514752 0 -1 0
870 290 1 0.5897 -12.424522201649811 9.442332305648314 12.130654849537846 0 0 0
683 228 1 0.5897 -16.781067137262955 13.597065872105976 14.164142802687529 0 -1 0
671 224 1 0.5897 -13.264062882199688 11.056585164132922 14.05512778780655 0 -1 0
670 224 2 -1.1794 -14.01109998597969 10.76237717309812 14.576257523506985 0 -1 0
672 224 1 0.5897 -13.664193344649057 10.048539138101518 15.111326838688418 0 -1 0
956 319 1 0.5897 -16.768269568063793 10.719619553609135 12.235772167914744 1 0 0
660 220 1 0.5897 -15.52594669660413 11.578791448934258 14.755153717166383 0 -1 0
879 293 1 0.5897 -14.89883611518283 9.856967430427968 11.8547584997101 0 0 0
878 293 1 0.5897 -15.039645563136496 9.921357971629767 13.360710667281568 0 0 0
877 293 2 -1.1794 -15.477522640779803 9.59993119587239 12.572571175001041 0 0 0
728 243 1 0.5897 -17.193940685722097 13.020055948870919 11.10053006794664 1 -1 0
868 290 2 -1.1794 -11.996231076749911 8.843067688224217 12.741931754827844 0 0 0
955 319 2 -1.1794 -17.46905901335251 11.247916236705166 11.853665998521397 1 0 0
659 220 1 0.5897 -16.89254096784893 11.067520171231653 15.158665811343923 0 -1 0
680 227 1 0.5897 -11.457482099707459 9.558452004033214 15.691397649175235 0 -1 0
681 227 1 0.5897 -11.135317630333283 9.368221665491824 14.224466631057997 0 -1 0
1140 380 1 0.5897 -12.057077757805324 12.743396963354996 20.685342047486138 0 -1 0
1138 380 2 -1.1794 -12.457511115199114 13.265625114794666 19.990260646918877 0 -1 0
1128 376 1 0.5897 -14.091111794436749 13.955389687807635 20.577051257410602 0 -1 0
1127 376 1 0.5897 -15.571597254439226 13.64906939759896 20.49869391817584 0 -1 0
1022 341 1 0.5897 -13.296580939978089 12.540377157131992 18.46212226130328 0 -1 0
1119 373 1 0.5897 -15.001659283744015 11.175602478395117 20.500023146442324 0 -1 0
1117 373 2 -1.1794 -14.264351043224991 10.664724925807157 20.834077395555425 0 -1 0
1044 348 1 0.5897 -12.937517493456344 10.0065027688246 19.785000372856473 0 -1 0
1042 348 2 -1.1794 -12.327665949403888 9.671478005117052 19.12769137874639 0 -1 0
1111 371 2 -1.1794 -16.49367843752954 12.133756246062706 20.34349582373919 0 -1 0
1126 376 2 -1.1794 -14.952449597056415 14.372425396939992 20.596708548471973 0 -1 0
981 327 1 0.5897 -13.052286592460781 9.45930761030333 17.412233489336913 0 -1 0
991 331 2 -1.1794 -16.038670792667332 13.522096495976157 17.11354819181875 0 -1 0
992 331 1 0.5897 -15.177338520410661 13.214588663156537 17.39595243156927 0 -1 0
1002 334 1 0.5897 -16.364700286968493 10.351057325729364 17.829620312564458 0 -1 0
1023 341 1 0.5897 -13.077728560339125 12.358814468042375 16.975177674215097 0 -1 0
1021 341 2 -1.1794 -13.75093723180656 12.304231758999578 17.65341894950238 0 -1 0
1001 334 1 0.5897 -14.903945778137103 10.667841398318693 17.589505150163077 0 -1 0
1000 334 2 -1.1794 -15.490580769795768 9.962398300325177 17.862276245062745 0 -1 0
1013 338 1 0.5897 -10.985601204942224 10.747517964166754 18.410958408460147 0 -1 0
979 327 2 -1.1794 -12.997155390360977 9.143665406416112 16.510262072708926 0 -1 0
1096 366 2 -1.1794 -17.719233184221785 14.52231574879703 18.988739527912756 0 -1 0
1098 366 1 0.5897 -17.179058799637318 14.122460170614119 18.30716234897961 0 -1 0
993 331 1 0.5897 -16.2670047378017 12.953899377525712 16.377864632598694 0 -1 0
1113 371 1 0.5897 -16.783585907123715 12.092764533657654 19.432183405388336 0 -1 0
1118 373 1 0.5897 -13.915828280664652 11.189373020864647 21.554833154040942 0 -1 0
305 102 1 0.5897 -1.451519442157018 -5.943483753661042 2.289553155915635 1 1 0
311 104 1 0.5897 -2.6063011932324214 -7.740008462482422 3.61322897466935 1 1 0
310 104 2 -1.1794 -3.309972417019708 -8.298915573113153 3.9428713528971744 1 1 0
241 81 2 -1.1794 -1.0033488885405433 -6.348670205959622 5.548363716830046 0 1 0
318 106 1 0.5897 -2.6273942787285005 -4.089105120300065 1.527955459922889 1 1 0
304 102 2 -1.1794 -1.2379663619149728 -6.750191608780914 2.7583995189301462 1 1 0
316 106 2 -1.1794 -1.7342878158396786 -4.421721353600068 1.4388803097343692 1 1 0
242 81 1 0.5897 -0.8972286496841928 -6.537989103248268 4.616101310623515 0 1 0
306 102 1 0.5897 -0.6283287609491452 -7.2093188220893545 2.1806833777330654 1 1 0
293 98 1 0.5897 -4.973477118980759 -3.72814594002305 2.4143495984267003 1 1 0
195 65 1 0.5897 -4.10517789119232 -8.897532782740367 0.9088702236370376 1 1 0
322 108 2 -1.1794 -6.303614512617621 -4.597191946141924 3.3069283414446318 1 1 0
3 1 1 0.5897 -1.477861251608818 -3.3418794970337977 4.514760418750667 0 0 0
404 135 1 0.5897 -5.276342451116265 -3.825293508720442 5.544434827922111 1 0 0
544 182 2 -1.1794 0.49145123376395006 -7.8257459660226125 7.221487155924829 0 1 0
555 185 1 0.5897 -2.620383393375925 -6.755718892754092 6.402934697109506 0 1 0
554 185 1 0.5897 -2.8404886093813673 -6.809437039698924 7.899771171078158 0 1 0
553 185 2 -1.1794 -3.3072677632420024 -6.837156612374692 7.064573512037499 0 1 0
546 182 1 0.5897 0.04384377704029241 -7.37966490399874 6.502552305025507 0 1 0
356 119 1 0.5897 1.374926127907914 -7.08254600686649 10.001901815136206 0 0 0
632 211 1 0.5897 -4.734582793529676 -5.94758625933231 6.609058416040485 1 1 0
348 116 1 0.5897 -1.1750334134622555 -6.411730572003693 9.686081335221706 0 0 0
347 116 1 0.5897 -0.9216387810332254 -5.367203304942045 8.619977259986014 0 0 0
346 116 2 -1.1794 -1.6236938335399156 -5.857991835923405 9.047108630759162 0 0 0
336 112 1 0.5897 -3.2794520318246994 -5.0714192907519955 9.191530271623131 0 0 0
334 112 2 -1.1794 -4.143620644291567 -4.725646536124027 9.414833964846501 0 0 0
359 120 1 0.5897 -4.64736454588922 -3.310988756903641 8.657758424293283 0 0 0
335 112 1 0.5897 -4.69816092606237 -5.501321885420737 9.498546095044665 0 0 0
326 109 1 0.5897 -3.3065417687333243 -7.728869157440808 10.767683859655136 0 0 0
631 211 2 -1.1794 -5.462167161017443 -5.533806025032885 6.144713570653988 1 1 0
243 81 1 0.5897 -0.998497946669568 -5.3929572044491625 5.601245506549284 0 1 0
657 219 1 0.5897 -0.37061416168368666 -7.051158994116378 11.780834032035418 0 0 0
793 265 2 -1.1794 -1.8848177377755189 -5.942467729669679 15.611449447125773 0 0 0
795 265 1 0.5897 -2.606213643131638 -5.505226913599562 15.159106843818687 0 0 0
803 268 1 0.5897 -3.346247368483322 -2.942268645102855 14.801539896226437 0 0 0
774 258 1 0.5897 -5.21030528962651 -2.4545333650383183 12.829829451449342 0 0 0
802 268 2 -1.1794 -2.7188208092686317 -2.2205749307806766 14.842566250775638 0 0 0
718 240 2 -1.1794 -0.14469999658717647 -6.99383084337464 13.65397405484973 0 0 0
699 233 1 0.5897 -0.7676332753179587 -4.219461147296294 11.681159136688025 0 0 0
697 233 2 -1.1794 -1.4623056668667225 -4.323719044024979 12.33136356490318 0 0 0
677 226 1 0.5897 -2.675962387767889 -5.86117575769012 12.29937462301232 0 0 0
676 226 2 -1.1794 -3.272308829103995 -6.608595160674294 12.255443134812388 0 0 0
698 233 1 0.5897 -1.0603338279529666 -4.054516171981638 13.157293889655813 0 0 0
668 223 1 0.5897 -3.0632381769217725 -3.47320857819936 11.987657376712031 0 0 0
667 223 2 -1.1794 -3.921796314940023 -3.123904636324787 11.7487550808776 0 0 0