LAMMPS (30 Jul 2021)
  using 1 OpenMP thread(s) per MPI task
package omp 0
using multi-threaded neighbor list subroutines
echo both

include		in.partitions
variable        pid world 0
include		in.temp
variable        temperature equal 269.73
variable	tempDamp equal 100.0
include		in.pressure
variable        pressure equal 11625.0
variable        pressureDamp equal 1000.0 # This is 1 ps
include		in.seed
variable        seed world 745823

units		real
atom_style	full
read_restart    restart.lmp.${pid}
read_restart    restart.lmp.0
Reading restart file ...
  restart file = 30 Jul 2021, LAMMPS = 30 Jul 2021
  restoring atom style full from restart
  triclinic box = (-3.0394444 -0.33641407 0.065910146) to (14.649443 22.916413 19.164088) with tilt (0.018924238 -6.3657912 -0.18883434)
  4 by 4 by 4 MPI processor grid
  restoring pair style lj/cut/tip4p/long/omp from restart
  restoring bond style harmonic/omp from restart
  restoring angle style harmonic/omp from restart
  1008 atoms
  672 bonds
  336 angles
Finding 1-2 1-3 1-4 neighbors ...
  special bond factors lj:    0        0        0       
  special bond factors coul:  0        0        0       
     2 = max # of 1-2 neighbors
     1 = max # of 1-3 neighbors
     1 = max # of 1-4 neighbors
     2 = max # of special neighbors
  special bonds CPU = 0.154 seconds
  read_restart CPU = 0.455 seconds

include 	in.setup
variable	out_freq equal 1000
variable	out_freq2 equal 10000
variable	out_freq3 equal 1000

timestep	2.0

neigh_modify    delay 7 every 1

include		in.tip4p
# This is TIP4P/Ice

# create groups ###
group ox type 2
336 atoms in group ox
group hy type 1
672 atoms in group hy

# set charges - beside manually ###
set group ox charge -1.1794
Setting atom values ...
  336 settings made for charge
set group hy charge 0.5897
Setting atom values ...
  672 settings made for charge

# ### TIP3P Potential Parameters ###
pair_style lj/cut/tip4p/long/omp 2 1 1 1 0.1577 8.5
pair_coeff 1 1*2 0.000 0.000
pair_coeff 2 2 0.21084 3.1668
bond_style  harmonic
bond_coeff  1 450 0.9572
angle_style harmonic
angle_coeff 1 55 104.52
kspace_style pppm/tip4p/omp 1.0e-5
pair_modify tail yes

thermo          ${out_freq}
thermo          1000
thermo_style    custom step temp pe etotal epair emol press lx ly lz vol pxx pyy pzz pxy pxz pyz enthalpy

restart 	${out_freq3} restart.lmp.${pid} restart2.lmp.${pid}
restart 	1000 restart.lmp.${pid} restart2.lmp.${pid}
restart 	1000 restart.lmp.0 restart2.lmp.${pid}
restart 	1000 restart.lmp.0 restart2.lmp.0


include         in.dump
dump            myDump all atom ${out_freq2} dump.water.${pid}
dump            myDump all atom 10000 dump.water.${pid}
dump            myDump all atom 10000 dump.water.0
dump            myDump2 all dcd ${out_freq2} dump.dcd
dump            myDump2 all dcd 10000 dump.dcd
dump_modify     myDump append yes
dump_modify     myDump2 append yes


variable natoms 	equal  "count(all)"                        # NUMBER ATOMS
variable H      	equal  "enthalpy/v_natoms"                 # ENTHALPY-per-atom
variable Vol      	equal  "vol/v_natoms"                 # volume-per-atom
fix AVG all 		ave/time ${out_freq} 1 ${out_freq} v_Vol v_H file vol_enthalpy.dat
fix AVG all 		ave/time 1000 1 ${out_freq} v_Vol v_H file vol_enthalpy.dat
fix AVG all 		ave/time 1000 1 1000 v_Vol v_H file vol_enthalpy.dat



fix 		1 all shake 1e-6 200 0 b 1 a 1
       0 = # of size 2 clusters
       0 = # of size 3 clusters
       0 = # of size 4 clusters
     336 = # of frozen angles
  find clusters CPU = 0.046 seconds
fix             2 all nph tri ${pressure} ${pressure} ${pressureDamp}
fix             2 all nph tri 11625 ${pressure} ${pressureDamp}
fix             2 all nph tri 11625 11625 ${pressureDamp}
fix             2 all nph tri 11625 11625 1000
fix             3 all temp/csvr ${temperature} ${temperature} ${tempDamp} ${seed}
fix             3 all temp/csvr 269.73 ${temperature} ${tempDamp} ${seed}
fix             3 all temp/csvr 269.73 269.73 ${tempDamp} ${seed}
fix             3 all temp/csvr 269.73 269.73 100 ${seed}
fix             3 all temp/csvr 269.73 269.73 100 745823


run             250000
PPPM initialization ...
  extracting TIP4P info from pair style
  using 12-bit tables for long-range coulomb (../kspace.cpp:340)
  G vector (1/distance) = 0.38351647
  grid = 24 30 32
  stencil order = 5
  estimated absolute RMS force accuracy = 0.0019471502
  estimated relative force accuracy = 5.863785e-06
  using double precision FFTW3
  3d grid and FFT values/proc = 3825 384
Last active /omp style is kspace_style pppm/tip4p/omp
Neighbor list info ...
  update every 1 steps, delay 7 steps, check yes
  max neighbors/atom: 2000, page size: 100000
  master list distance cutoff = 10.8154
  ghost atom cutoff = 10.8154
  binsize = 5.4077, bins = 5 5 4
  1 neighbor lists, perpetual/occasional/extra = 1 0 0
  (1) pair lj/cut/tip4p/long/omp, perpetual
      attributes: half, newton on, omp
      pair build: half/bin/newton/tri/omp
      stencil: half/bin/3d/tri
      bin: standard
Per MPI rank memory allocation (min/avg/max) = 9.329 | 9.335 | 9.339 Mbytes
Step Temp PotEng TotEng E_pair E_mol Press Lx Ly Lz Volume Pxx Pyy Pzz Pxy Pxz Pyz Enthalpy 
18750000    280.92046   -4791.4442   -4229.5686   -4791.4442            0      10965.7    17.688888    23.252827    19.098178    7855.3985    10174.394    12100.011    10622.696   -234.04388    459.37406     790.1698   -2973.3058 
18751000    268.42147   -4806.7831    -4269.907   -4806.7831            0    9758.9531    17.607477    23.317298     19.11594    7848.2172     11449.79    8425.5215    9401.5482   -1996.1051   -910.68755   -91.659528   -3152.9148 
18752000    265.66471   -4790.0658   -4258.7036   -4790.0658            0    10318.642    17.759513    23.001423     19.18504    7836.9748    11264.989    10665.587    9025.3499   -1536.8641   -1005.6788   -656.01845   -3079.3422 
18753000    267.19498   -4808.2992   -4273.8762   -4808.2992            0    10624.333    17.953386    22.630088    19.348401    7860.9981    9282.4839    12476.535    10113.981     180.0923    285.44302    617.17202   -3055.8538 
18754000    254.16285   -4820.5424   -4312.1853   -4820.5424            0    10764.041    18.031205    22.669773    19.236044    7862.9894    11426.238    11238.061    9627.8229   -1599.1379   -1177.9677   -1541.4539   -3077.8337 
18755000    265.40307   -4799.6386   -4268.7997   -4799.6386            0    11832.583    17.852971    22.767669    19.326482    7855.6455    10130.011    13617.041    11750.697    1291.8447    2428.8877    675.92457   -2913.1817 
18756000    273.66908   -4797.7313   -4250.3594   -4797.7313            0    11590.376    17.826944    22.924661    19.194473    7844.3327    12443.898    11742.768    10584.464    606.95717    521.41015    525.27166   -2924.4024 
18757000    261.35876   -4787.6246   -4264.8748   -4787.6246            0    12463.803    17.843377    22.731061    19.248064    7806.9935    13337.435     11568.98    12484.995      1783.66   -440.14858   -60.358725   -2845.7837 
18758000    275.72702   -4807.9978   -4256.5097   -4807.9978            0    12284.332    17.946191    22.684205    19.202468    7817.2302    9630.6956    13326.939    13895.362    59.439245     1110.891   -840.90282   -2856.0187 
18759000    284.35792   -4795.5583   -4226.8073   -4795.5583            0    13332.754    17.858945    22.896009    19.094522    7807.7223      14689.2    13491.879    11817.183   -549.23483   -187.50951    164.42873   -2708.6384 
18760000    280.26151   -4802.7949   -4242.2373   -4802.7949            0    11648.264    17.731971    22.935748    19.240816    7825.1637    12476.194    12013.272    10455.326    401.79302   -20.018555    2433.0605   -2912.9143 
18761000    261.11448   -4787.2444   -4264.9832   -4787.2444            0    11226.909    17.768299    23.103142    19.067746    7827.3772    9078.1156    11659.809    12942.803    1061.3436   -208.73643    1367.1074   -2983.3836 
18762000    292.79427   -4802.7806   -4217.1559   -4802.7806            0    12153.399    17.921415    22.927281    19.100656    7848.2555    12418.872    12688.183    11353.141    106.03028    294.24344    315.83473    -2826.093 
18763000    271.17547   -4761.6003   -4219.2159   -4761.6003            0    12245.475    17.730061    22.893412    19.274141    7823.4046    13063.377    13553.167    10119.879    1067.4495    1271.9067    1257.2986   -2822.0521 
18764000    275.10163   -4825.3485   -4275.1113   -4825.3485            0    10326.793     17.87115    22.875166    19.237296     7864.313    10819.441    9898.0023    10262.935    870.97365    386.86029    274.13922    -3090.701 
18765000    255.06627   -4776.3817   -4266.2177   -4776.3817            0    11098.591    17.948997    22.740102    19.278681     7868.825    10887.516    12012.864    10395.393   -637.28481    10.713354    912.36719   -2992.5574 
18766000    267.80433   -4788.1189   -4252.4771   -4788.1189            0    12750.937    17.775377    22.881358    19.193619    7806.5199    11161.312      13962.3      13129.2    235.50315   -13.624584    1006.8831   -2800.7818 
18767000    281.49051   -4815.6801   -4252.6643   -4815.6801            0    12669.921    17.753715    22.869564    19.192727    7792.6255    14168.007    12602.579    11239.178   -562.50634     921.9657   -442.13039     -2812.76 
18768000    252.70601   -4804.3008   -4298.8576   -4804.3008            0    10237.209    17.721165    23.028268    19.320401    7884.4188    10874.285    10557.947    9279.3959   -1726.4382   -1494.4808   -1224.0303   -3121.7202 
18769000    268.77365   -4804.3377   -4266.7572   -4804.3377            0    11689.519    17.727906    23.148529    19.084306     7831.721    12100.865    11933.619    11034.074   -1314.9462   0.23042462   -353.16267   -2931.6082 
18770000    272.54083   -4812.1766   -4267.0613   -4812.1766            0    12790.942    17.580524    23.116742    19.166426    7789.3205    13249.307    11746.635    13376.883    872.22544    1067.0233    2691.2588   -2814.0199 
18771000    267.73101   -4830.1635   -4294.6684   -4830.1635            0    10696.578    17.798517    23.181483    19.001741    7840.0423    11311.809    10818.044    9959.8796    -361.1436    233.59521   -1386.5266   -3071.6327 
18772000    268.63603   -4785.6366   -4248.3314   -4785.6366            0    14222.222    17.532968    23.300219    18.998193    7761.1796    15226.333    13504.392     13935.94   -796.49449    1554.7261   -1027.1132   -2638.5346 
18773000    277.91373   -4845.9832   -4290.1214   -4845.9832            0    10988.173     17.54125    23.419302    18.955756    7787.0972    10045.598    10455.741    12463.179    192.92056    194.96941   -441.27694   -3042.2295 
18774000    281.71508   -4779.1453   -4215.6803   -4779.1453            0    10608.923    17.683594    23.245397     19.09465     7849.088    9285.9888    10638.265    11902.515   -985.07737     446.7658   -1689.1557   -3001.2674 
18775000    282.91429   -4796.7881   -4230.9246   -4796.7881            0    10227.585    17.695023    23.289958    19.084065     7864.855    10841.421    10154.767    9686.5665    1571.4782    1823.1053    193.61096    -3057.812 
18776000    279.78599   -4793.8182   -4234.2116   -4793.8182            0    12120.853    17.617713    23.290316    18.997118    7794.9371    11390.837    12520.042     12451.68    986.44278    1192.8739    332.73031    -2856.299 
18777000    293.89632   -4807.3036   -4219.4746   -4807.3036            0    11978.259    17.639604    23.025535    19.183975    7791.7884    12034.438    11850.582    12049.757   -1920.8371    -556.9573   -362.84821   -2858.3223 
18778000    255.75163   -4786.1183   -4274.5835   -4786.1183            0    12693.454    17.934035    22.638609    19.248821    7815.0525    13519.988     13388.82    11171.553    645.29265    -201.2941     127.5025   -2827.8532 
18779000    274.82741   -4813.0395   -4263.3507   -4813.0395            0    11999.364     17.92274    22.710606    19.244919    7833.3804    10724.696    12034.874    13238.522   -5.1546137    539.03089   -730.84165   -2892.5216 
18780000     282.6062   -4805.6797   -4240.4323   -4805.6797            0    10214.089    17.848254    22.908244    19.298607    7890.6633    10486.424    11577.987    8577.8557   -282.05511    900.03459   -1098.3099   -3065.0233 
18781000    277.54307   -4787.0417   -4231.9213   -4787.0417            0    10779.003    17.880159    22.893446    19.211831    7864.1414    8803.2878    12794.704    10739.018   -506.40124    209.53833   -2162.5036   -2995.6727 
18782000    276.60254   -4797.1787   -4243.9394   -4797.1787            0    13045.705    17.904188    22.767412    19.127257    7796.8828    14675.418    10802.226    13659.471   -132.15292   -709.43091    1746.4609   -2760.5184 
18783000    270.33262   -4808.0995   -4267.4009   -4808.0995            0    11457.199    17.808979    22.825221    19.276681    7835.8527    10593.783    11993.092    11784.723   -305.25018    766.48183    553.45795   -2958.0965 
18784000    269.36819   -4839.4689   -4300.6993   -4839.4689            0    9100.2355    17.744485    23.109053    19.238065     7888.727    10198.934    8102.1691    8999.6034   -697.20828   -561.98383    592.04902   -3253.7263 
18785000    278.87716     -4859.12   -4301.3312     -4859.12            0    10753.847     17.75743      23.3581    18.897234    7838.1913    11117.987    9451.1354    11692.419   -1442.3783    38.895845    492.04458   -3072.0377 
18786000      252.137   -4800.8967   -4296.5916   -4800.8967            0    10099.326    17.533887    23.259746    19.182382     7823.223    11120.231    10027.063    9150.6848   -79.334496   -831.95039    1688.2173   -3144.3222 
18787000    267.37329   -4785.1976   -4250.4179   -4785.1976            0    13213.129     17.73169    23.267415      18.8773    7788.2191    10258.435    14123.842    15257.109   -694.82456    816.31875   -259.00478   -2749.6287 
18788000    276.77568   -4820.3195    -4266.734   -4820.3195            0     11710.21    17.580851    23.448714    19.006704    7835.4822    11406.709    11539.149    12184.772   -1251.7274    2104.0725    -1407.162   -2928.5793 
18789000    270.36547   -4813.5589   -4272.7945   -4813.5589            0    10616.796    17.567465    23.303448    19.152965    7840.8888     10381.59    10815.271    10653.528   -835.89108    385.07754   -1260.2343   -3058.7499 
18790000    272.90776   -4801.4286   -4255.5794   -4801.4286            0    10975.724    17.781211    23.278057    18.942337    7840.4612    11622.035    9569.9826    11735.154   -1217.9207   -1097.0167   -1261.9132   -3000.5593 
18791000    276.81117    -4817.122   -4263.4655    -4817.122            0    10819.781     17.75412     23.28622    18.993665    7852.4815    10252.984       9191.2     13015.16   -76.182138    296.31911    1679.0167   -3024.3799 
18792000    277.26878   -4827.9352   -4273.3634   -4827.9352            0     9892.134    17.738975    23.045793    19.258425    7873.0126    9395.4785     8508.345    11772.578   -388.23346    629.69544    1863.1745   -3137.5504 
18793000    274.83866   -4787.1227   -4237.4114   -4787.1227            0    11435.373    17.990548     22.63158    19.192179    7814.1826    10415.968    12076.781    11813.371   -460.66646    300.66884   -1531.8153   -2934.2153 
18794000    270.83598   -4834.5821   -4292.8766   -4834.5821            0    12168.052    17.851532    22.745844    19.216463    7802.8092    14071.166    11772.176    10660.814   -136.55039   -351.13581   -323.48986   -2908.2014 
18795000    263.00397   -4828.1285   -4302.0881   -4828.1285            0    11737.232    17.793952    22.792802    19.284575    7821.3228    11470.249    11771.486    11969.962    624.31724   -854.93195   -104.39033   -2963.2693 
18796000    259.53143   -4818.3142   -4299.2193   -4818.3142            0    10067.453    17.974524    22.720575    19.316215    7888.5788    8497.3607    10459.382    11245.615   -531.95404   -367.90681   -1651.3796   -3140.9908 
18797000    265.43497   -4789.5631   -4258.6604   -4789.5631            0    11219.814    17.796742    23.023786    19.160406    7850.9456    11625.515    10795.742    11238.185    566.87617   -682.14096   -175.10334   -2974.0142 
18798000    272.38224   -4828.8618   -4284.0636   -4828.8618            0    12556.983    17.766468    22.849221    19.194595    7792.0451    11629.054    14114.153    11927.743    1447.9709    86.465349    82.340024   -2857.1008 
18799000    277.94592   -4809.3347   -4253.4085   -4809.3347            0    10370.757    17.951962    22.887915    19.152568     7869.464    10644.114    9046.4393    11421.718    263.01142   -657.03116    511.89657   -3063.1768 
18800000    268.38559   -4818.9032   -4282.0989   -4818.9032            0    11309.819    17.670247    22.945015    19.303474    7826.4795    13197.076    12220.235    8512.1457   -1711.6421    345.10392    408.70606   -2991.1828 
18801000    275.26511   -4754.1066   -4203.5424   -4754.1066            0    9698.6813    17.754734    23.286024    19.102987    7897.8848     9005.507     9325.748    10764.789   -898.62727   -471.64962   -33.605013   -3086.4236 
18802000    269.97714   -4836.2388   -4296.2512   -4836.2388            0    11542.018    17.852163    22.975441    19.141574    7851.1333    11404.743    12561.281    10660.029   -670.92964    984.03751    1524.4437   -2974.6817 
18803000    268.04207   -4838.0328   -4301.9155   -4838.0328            0    12411.795    17.663783    22.977867    19.238444    7808.4239    12250.738    12791.733    12192.913   -464.58954    812.27076    1231.1502    -2888.487 
18804000    277.49006   -4792.8022   -4237.7878   -4792.8022            0    9911.1684     17.76588    23.379588    18.966491    7877.9018    8798.4608    8633.7195    12301.325   -328.94979    67.814372    767.64896   -3099.0826 
18805000    279.43673    -4797.527    -4238.619    -4797.527            0    12342.095    17.503396    23.226455    19.183271    7798.8021    13964.294    10984.212    12077.779    1228.5296   -193.22976    479.26602   -2834.8596 
18806000    283.84333   -4791.5395   -4223.8178   -4791.5395            0    9952.6716    17.870346    23.199042    19.047765    7896.7255    9910.4034     8974.583    10973.028   -1694.8973     193.2108    1416.9962   -3077.6119 
18807000    254.61463   -4802.6883   -4293.4276   -4802.6883            0    11697.039    17.537114    23.222423    19.147857     7798.047    12220.128    11823.458    11047.533   -524.94045    188.50831    869.88826    -2963.164 
18808000    273.82642   -4805.1254   -4257.4388   -4805.1254            0    10253.493    17.640662    23.416587    18.955457    7830.1974     10744.22     9856.317    10159.942    149.30138   -129.88637   -1318.0507   -3086.5371 
18809000    263.44838   -4790.9585   -4264.0292   -4790.9585            0    11905.924    17.519931    23.267939    19.207374    7829.9375    13450.004    10966.441    11301.326    2887.5662    466.74551    800.61006   -2904.4726 
18810000    271.66404   -4810.6824   -4267.3208   -4810.6824            0    10430.571    17.716904    23.265327    19.001658    7832.2854    10384.524    10364.367     10542.82    540.99686   -223.39239   -119.53933     -3075.88 
18811000    280.69319   -4817.4916   -4256.0706   -4817.4916            0    9866.3353     17.66295    23.346447     19.15607    7899.3334    11525.713    7945.3551    10127.938    479.04365   -1311.9966   -464.20145   -3119.4325 
18812000    279.85698    -4765.948   -4206.1994    -4765.948            0    12311.059    17.877809    23.072637     18.98191    7829.8137    13621.841    10990.242    12321.092    681.16789   -410.84147    1285.6962   -2800.4021 
18813000    279.91266    -4792.457   -4232.5971    -4792.457            0    11475.425    17.719486     23.00885    19.250876    7848.6782    12925.207    11348.387    10152.679     839.2703    451.82583    1220.8194   -2919.0636 
18814000    266.25705   -4814.2913   -4281.7443   -4814.2913            0    10037.799      17.9848    22.889777     19.11776    7870.1715     9738.844    10352.526    10022.027   -335.35747   -821.22116   -1833.5835    -3129.622 
18815000    269.43259   -4822.1839   -4283.2855   -4822.1839            0    11063.053    17.736238    22.870511    19.291169    7825.2084    10662.095    11313.012    11214.052    488.24611   -79.577212   -1022.5054   -3020.7407 
18816000    274.46946   -4777.7536   -4228.7808   -4777.7536            0    11631.545     17.98838    22.827109    19.109509    7846.7985     12834.63    11489.378    10570.626   -1915.0714   -878.28502   -630.73127   -2897.6958 
18817000    278.91178   -4845.5969   -4287.7389   -4845.5969            0    9774.5242     17.76309    22.970832    19.269101    7862.4283     9088.058    9672.5743     10562.94    793.65412   -545.85838    77.469446   -3166.9386 
18818000    272.06286   -4781.5458   -4237.3865   -4781.5458            0    14833.011    17.685041    22.843569    19.131316    7728.8499    12920.571    15326.879    16251.584    632.05029   -58.893595    1005.3785   -2565.4488 
18819000     262.7511   -4806.4636   -4280.9289   -4806.4636            0    14348.315    17.721638    22.755704    19.159007    7726.2214    14410.559    14336.055    14298.331    16.905436   -737.33259   -1332.0844   -2664.1749 
18820000    267.00857   -4782.6711    -4248.621   -4782.6711            0    10760.729    17.819188    22.787972    19.388345    7872.8927    10566.276    11283.131    10432.781   -791.70902    128.25183   -1736.0567   -3013.0948 
18821000    270.00293   -4802.4837   -4262.4444   -4802.4837            0    11439.874    17.959002    22.761073    19.198074    7847.5225    11747.853    11938.762    10633.008    -688.1349   -346.37881   -289.13845   -2953.1729 
18822000    281.33801   -4767.7456   -4205.0348   -4767.7456            0    11356.988    17.754446    23.048145    19.254873    7879.2299    11598.073    10922.016    11550.876   -635.11861    -374.2499   -923.08159   -2899.9978 
18823000    270.57899   -4839.2865   -4298.0951   -4839.2865            0    11659.336    17.788714    23.012148    19.059626    7802.1821    12265.738    9966.1519    12746.119   -901.12331    113.95751    1356.1293   -2971.4162 
18824000    271.24291   -4845.6594   -4303.1401   -4845.6594            0    12104.468    17.696134       23.203    19.053741    7823.5306    10863.343    12448.082    13001.979    1023.5199    818.53717    912.26782   -2922.0425 
18825000     263.8002    -4800.034    -4272.401    -4800.034            0    11145.763    17.440617    23.516412    19.082282    7826.4215    12768.262    10296.837     10372.19    1265.7365    304.94548     1704.902     -3000.22 
18826000    266.38301   -4780.6744   -4247.8755   -4780.6744            0    12065.154    17.553965    23.326516    19.091623     7817.501    14130.802    10827.237    11237.422    1242.2558    452.28286    1432.0229   -2872.3245 
18827000    261.26393   -4836.4026   -4313.8425   -4836.4026            0    10964.803     17.80301    23.032922    19.134552     7846.225    10142.953    12467.186     10284.27   -501.84121    1101.1585   -220.67816   -3059.1494 
18828000    297.33354    -4810.693   -4215.9892    -4810.693            0    11444.523    17.892109    22.837087    19.162617    7829.9154    9905.7073    11943.389    12484.473    210.67014    -30.82126    301.66177   -2909.1244 
18829000    257.42824   -4794.1585   -4279.2702   -4794.1585            0     12701.43    17.624606    23.063078    19.268187    7832.0876    12717.236    12101.389    13285.665    689.72689   -499.07661   -1134.2127   -2828.4753 
18830000    280.41648   -4784.9028   -4224.0352   -4784.9028            0     13259.35    17.781145    22.886866    19.110636    7777.1628    13203.697    13157.075    13417.277    244.28381   -1925.7319    92.479011    -2720.134 
18831000    271.45812   -4801.2179   -4258.2681   -4801.2179            0     12085.67    17.644722    22.850024    19.439925    7837.8339    11946.085    13012.245     11298.68    1067.8975    987.03655   -1355.3315   -2876.7942 
18832000    261.94569   -4814.6032   -4290.6794   -4814.6032            0    10594.071    18.054055    22.794544    19.019471    7827.1576    9074.9527    10351.592    12355.667   -168.45118   -928.77715     235.8313    -3081.355 
18833000    272.27663   -4780.8359    -4236.249   -4780.8359            0    11588.008    17.656484    23.000714         19.3    7837.9568    14719.051    10216.353    9828.6201    43.188984   -140.84959    199.65113   -2911.6405 
18834000    282.05809   -4785.7018   -4221.5508   -4785.7018            0    11513.191    17.841769    23.150152    18.935884    7821.2714     10866.66    10533.992     13138.92     896.6666   -671.64359   -1504.1254   -2908.2961 
18835000    273.28854   -4818.8471   -4272.2362   -4818.8471            0    12277.682    17.456119    23.074258    19.290967    7770.1506    12758.836    12599.377    11474.831    1199.9032   -647.66391    257.58769   -2880.9333 
18836000    266.04711    -4806.063   -4273.9359    -4806.063            0    11123.495    17.772699    23.192937    18.953654    7812.7166    11135.998    10486.749    11747.739    572.92949   -1011.3891    1773.4283   -3006.5198 
18837000    256.93229   -4791.1176   -4277.2213   -4791.1176            0    11038.091    17.788517    22.932824    19.254566     7854.726    10387.302    11495.499    11231.471    701.19251    1320.5099     3274.042   -3012.7736 
18838000    267.43152   -4803.8413   -4268.9452   -4803.8413            0    9349.3821    17.878278    22.966155    19.168858    7870.6435    8733.9922    9233.5049    10080.649   -1519.0614     323.0106   -327.06756   -3195.7739 
18839000    261.16506   -4843.8744    -4321.512   -4843.8744            0    12732.453    17.734442    22.693539    19.408394    7811.0485    10750.537    14086.569    13360.252   -639.09005    424.86723    1687.7153   -2871.0803 
18840000    263.97369   -4807.8192   -4279.8392   -4807.8192            0    11753.622     18.02482    22.639142    19.183947    7828.3252    11129.929    12167.497     11963.44   -1986.6227   -718.53162    94.052239   -2937.9506 
18841000    268.36293   -4829.6456   -4292.8866   -4829.6456            0    11524.579     17.86249    22.745853    19.291172    7837.9563    12775.254    11295.446    10503.038    627.91883     234.9206   -1078.5471   -2975.5286 
18842000    270.55217   -4815.1961   -4274.0583   -4815.1961            0    12127.368     18.02497    22.684492     19.10942    7813.5989    8953.5319    13181.518    14247.053   -2128.3986    367.36011   -327.05223   -2892.1044 
18843000    271.56501   -4791.2121   -4248.0486   -4791.2121            0    10551.789    17.749704     22.87699     19.45877     7901.424    11129.158    10484.633    10041.575    40.925086   -556.81049    409.38367    -3032.122 
18844000      269.676   -4810.1117   -4270.7264   -4810.1117            0    12112.057     18.05174    22.733955    19.100344    7838.5412    10009.238    13646.445    12680.488    580.58916    1067.5478   -1789.9184   -2886.1114 
18845000    255.75247   -4807.1558   -4295.6193   -4807.1558            0    12936.977    17.623539    22.938387    19.215726    7768.0642    11593.608    14354.916    12862.406   -234.12729   -1570.3381    1134.2289   -2829.9989 
18846000    279.27709   -4821.4754   -4262.8868   -4821.4754            0    11313.744    17.929648     23.05857    18.972482    7843.8321     8929.405    11899.132    13112.694   -1481.6108    530.63017   -1420.3884   -2968.6596 
18847000    272.91442    -4800.886   -4255.0235    -4800.886            0    13454.481    17.416233    23.121465     19.26665     7758.465     17397.05    11194.064    11772.329   -563.05019    33.962575    -423.7773    -2732.659 
18848000    267.15518   -4805.0229   -4270.6795   -4805.0229            0    10652.123    17.775607    23.342375    18.912674    7847.3391    11753.904     9051.019    11151.447    737.96102    315.55464    2884.6497   -3051.5931 
18849000    266.14083    -4814.466   -4282.1515    -4814.466            0    10035.248    17.584534      23.2344    19.237287    7859.7031    10897.642    10925.927    8282.1743    -1076.752    1079.6265    1343.6581   -3131.8541 
18850000    268.49541   -4799.1031   -4262.0791   -4799.1031            0    11380.986    17.632118     23.48324    18.827357    7795.6414    12315.926    10333.487    11493.543   -658.51778    -608.1316    2123.3413   -2968.1586 
18851000    253.16097   -4813.6249   -4307.2717   -4813.6249            0    11541.928    17.681245     23.35046    18.965065    7830.0152    9784.0787    11408.389    13433.316   -453.55137    635.23928   -1889.6416   -2989.2674 
18852000    265.18735   -4800.9625    -4270.555   -4800.9625            0    10470.305    17.750461    23.194001    19.146158    7882.5537     11986.26    8481.1491    10943.506    1258.9193   -929.13341    338.21765   -3066.8997 
18853000    274.84183   -4796.5145   -4246.7969   -4796.5145            0    12415.062    17.809326    23.072053    19.012478    7812.1835    11693.985    12449.177    13102.023    280.68179    915.50309    1662.3637   -2832.3156 
18854000    270.23688   -4784.0585   -4243.5514   -4784.0585            0    13368.724    17.768162    22.978493    19.063814    7783.4803    15059.182    12931.915    12115.073   -98.786039   -653.79441   -1268.2036   -2726.0131 
18855000    272.38771   -4744.1679   -4199.3588   -4744.1679            0    13282.511    17.561747    22.914318    19.374988    7796.7945    13011.369    13924.208    12911.957    1202.8604    210.02301   -817.36705   -2689.0277 
18856000    259.28749   -4810.1234   -4291.5164   -4810.1234            0    11489.471    18.022043    22.799203    18.997031    7805.6562    10358.208     11738.02    12372.184   -211.47228    -839.3454   -2864.1795   -2983.5839 
18857000     263.4476   -4772.9389   -4246.0111   -4772.9389            0    14154.975    17.733574    22.747769    19.255422    7767.6227    13605.436    15210.217    13649.272   -2293.0278    2.8481079   -3359.0713   -2642.4958 
18858000    263.10011   -4781.8877    -4255.655   -4781.8877            0    9109.9848    18.135694    22.811169    19.172914    7931.7653    6745.4583     10929.69    9654.8059    789.53434    405.49263    394.96264   -3201.8423 
18859000    265.15245   -4819.7725   -4289.4348   -4819.7725            0    10669.044    17.789994     22.74422     19.49487    7888.0053    10795.563    11641.113    9570.4566    -666.2677    465.18178     127.5853   -3062.0844 
18860000    286.32905   -4814.5757   -4241.8823   -4814.5757            0     9899.707    17.856895    23.013126     19.18525    7884.0437      10263.3    10032.438    9403.3828   -883.65161   -245.14487    231.42579   -3103.6071 
18861000      280.986   -4786.7239   -4224.7172   -4786.7239            0     12172.86    17.744183    23.079418    19.102761    7823.0661      14149.6    12271.822    10097.157   -271.38988    465.26231   -799.97605   -2835.8986 
18862000    273.92984   -4813.3057   -4265.4122   -4813.3057            0    11516.347    17.780468    23.148097     19.11938    7869.2306    12189.037    10228.147    12131.859   -169.24913    614.22313    1367.5467   -2943.7425 
18863000    263.11307   -4797.8701   -4271.6115   -4797.8701            0    13462.368    17.588387    23.196161    19.019402    7759.5937     13348.45    13419.186    13619.467   -1480.3382    1625.5788   -2137.1502    -2748.133 
18864000    264.29247   -4776.4676     -4247.85   -4776.4676            0    11281.686    17.590056    23.296397     19.10234    7827.8513    13128.188    9483.3951    11233.474    58.630966    400.92505   -821.24051   -2959.9194 
18865000    255.90371   -4789.0893   -4277.2502   -4789.0893            0    10592.991    17.658557    23.441806    18.986332    7859.3632    12163.359     9622.552     9993.063   -1576.5079   -177.65481   -588.39622   -3063.0736 
18866000    260.98394   -4814.2475   -4292.2474   -4814.2475            0    10415.569    17.540279    23.438299    19.083117    7845.3422    11891.977    10183.892    9170.8375    4.2677106    314.32066    696.26887   -3100.5368 
18867000    254.81586   -4819.3662    -4309.703   -4819.3662            0    12130.553    17.777817    23.283493    18.861978    7807.5324    10716.013    11741.644    13934.001    -642.1137    502.23127    847.04268   -2928.4594 
18868000    261.44829   -4802.8851   -4279.9562   -4802.8851            0    13293.242     17.62564    23.019539    19.149439    7769.5807     12613.94    13598.852    13666.935    506.42291    756.13041   -155.54632   -2773.6808 
18869000     271.7807   -4823.6699   -4280.0749   -4823.6699            0    13000.904    17.862972     22.90168    19.045969    7791.5551    11431.092    13665.333    13906.286    1096.3184   -158.52701   -891.25571   -2802.7583 
18870000    270.26807   -4820.9564   -4280.3868   -4820.9564            0    10495.723    17.871136    22.871786    19.262955    7873.6326    10866.972    9967.2593    10652.936   -261.60381    350.98156   -1559.0455    -3075.175 
18871000    258.71256   -4810.7171     -4293.26   -4810.7171            0    10493.008    17.695334     23.09657    19.182337    7839.8501    9791.0766     10509.42    11178.528    779.70855   -126.17139   -1377.1314   -3093.5296 
18872000    276.46036   -4794.8512   -4241.8964   -4794.8512            0    11096.415    17.743084    23.009576    19.218848    7846.3031    11462.398    11160.806     10666.04   -699.38615   -291.06215    287.63297   -2972.1305 
18873000    265.62951   -4812.3016   -4281.0097   -4812.3016            0    8876.5907    17.916255     23.00879    19.174292    7904.2443    8142.6098    9597.0178    8890.1446   -304.58826     707.0383    458.07577   -3257.7581 
18874000    267.08693   -4796.7683   -4262.5615   -4796.7683            0      11611.5    17.854476    22.878785     19.25533    7865.5853    11325.962    11694.543    11813.995    1212.5483    1401.2735   -998.02234    -2930.589 
18875000    275.19427   -4779.6247   -4229.2021   -4779.6247            0    12600.054    17.861505    23.007817    19.036886    7823.2892     11618.96    13234.799    12946.402   -880.22539    649.94297   -1414.0439   -2791.6034 
18876000    272.62584   -4823.0185   -4277.7331   -4823.0185            0    9712.5405    17.715436    23.129438     19.11111    7830.7406    9734.5401    9878.6949    9524.3864    50.656274   -564.59629   -304.17561   -3168.5287 
18877000    262.80095   -4817.9207   -4292.2864   -4817.9207            0    11474.809    17.804939    23.121334    19.086903    7857.5803    10792.282    12134.655    11497.489    227.24462    550.83171   -2036.6274   -2977.3335 
18878000    267.77285   -4821.3695   -4285.7908   -4821.3695            0    11744.324    17.700813    23.168808    19.050315    7812.6624    10814.429    10704.207    13714.336    724.58961    139.76214   -985.72684   -2947.6464 
18879000    284.99357   -4784.7676   -4214.7453   -4784.7676            0    10340.873    17.649506    23.245714    19.247256    7896.6752    9828.6819    10639.394    10554.542   -761.20851    1468.2135    1770.0079   -3023.8396 
18880000    253.74009   -4818.8964   -4311.3848   -4818.8964            0    11174.389    17.609214    23.297691    19.025751    7805.3909    10223.539    11924.563    11375.065    184.96877   -267.55194     244.2812   -3039.3637 
18881000    258.38588   -4822.4789   -4305.6752   -4822.4789            0    11979.886    17.738122    23.203839    18.966436    7806.4432    11222.182    11162.263    13555.213   -354.44002   -193.65466   -741.65999   -2941.7776 
18882000     276.1916   -4785.0511   -4232.6337   -4785.0511            0    10400.799    17.581258    23.279763    19.162116    7842.8152    8535.0181    11127.519    11539.859   -1224.5127   -243.65817   -111.88147   -3042.9965 
18883000    273.80186   -4792.1521   -4244.5146   -4792.1521            0    11276.736     17.67783    23.327138    19.063246    7861.1714     10497.21    10226.257     13106.74    441.06273    316.96701    -930.6546   -2951.6693 
18884000    265.67432   -4825.3573   -4293.9759   -4825.3573            0    10750.021    17.571369     23.25032    19.142139    7820.3286    11551.495     10746.88    9951.6889    512.67846    -592.2421    291.81237   -3067.9201 
18885000     259.8029   -4790.5486   -4270.9107   -4790.5486            0    15146.654    17.610475    23.074277     19.06033    7745.1455    15952.579     15021.08    14466.302    -596.3716     744.6517   -464.56481   -2560.0203 
18886000    280.11887   -4800.5047   -4240.2323   -4800.5047            0    12233.488    17.671419    23.060879    19.182761    7817.3294    13008.739    12335.599    11356.127    805.28585   -161.88534    49.100107   -2845.5201 
18887000    260.37234   -4801.6902   -4280.9133   -4801.6902            0    10977.458    17.848263    22.907689    19.184452    7843.8023    10954.248    10369.561    11608.566    178.24928   -719.02755     1531.768   -3025.1601 
18888000    264.13808   -4805.0617   -4276.7529   -4805.0617            0    12547.423    17.945215    22.789733    19.147705    7830.7729    10840.822    13045.528    13755.918   -352.13196    1058.0838   -568.34036   -2843.7897 
18889000    266.39716   -4827.9683   -4295.1411   -4827.9683            0    12572.443    17.711799    22.746347    19.350425    7795.8744    14139.629     13059.17    10518.529   -337.83038    744.61286   -763.21329   -2865.7193 
18890000    268.26658   -4786.1823    -4249.616   -4786.1823            0    12694.955     18.00427    22.922142    19.027681    7852.6558    11849.225    12210.403    14025.237    454.53729   -809.12265    2141.5445   -2795.7525 
18891000    275.19988   -4825.5696   -4275.1359   -4825.5696            0    12839.323     17.64514    22.929833    19.256506    7791.1847    14083.154    12990.698    11444.117   -1285.6938    4.0535481   -578.10088   -2816.2493 
18892000    261.71467   -4794.6694   -4271.2077   -4794.6694            0     10594.23    17.907045    23.142893    18.997131    7872.8067    8846.8648    10524.248    12411.578    843.27853   -422.17544   -458.80357    -3054.812 
18893000    265.99414   -4818.5399   -4286.5188   -4818.5399            0    10601.564    17.602169    23.225676    19.211544    7854.1073    13226.722    9704.7667    8873.2045   -1154.6555    -197.3779   -505.50793   -3072.1722 
18894000    280.16289   -4819.1241   -4258.7637   -4819.1241            0    12297.381    17.845955    23.010957    18.946898    7780.5911    10411.105    12539.096    13941.942   -1933.0032   -280.56384    796.68468    -2863.356 
18895000    264.02644   -4798.1688   -4270.0833   -4798.1688            0    10652.759    17.595253    22.877789    19.564082    7875.3352    11842.436    10873.103    9242.7365    1380.5541    1862.5972    1703.2141   -3046.5746 
18896000    272.26296   -4814.4019   -4269.8423   -4814.4019            0    12771.114     17.97755      22.8257    19.032762    7810.0971    10662.044      13477.9    14173.399    -761.0321    164.30352   -1048.6711   -2815.1836 
18897000    253.12762   -4810.2588   -4303.9723   -4810.2588            0    11802.081    17.875827    22.648969    19.324363    7823.8363    11877.355    11757.105    11771.783    1181.6319    195.62414   -966.14749   -2957.3238 
18898000    268.15689    -4814.225   -4277.8781    -4814.225            0    13035.169    17.786916    22.867428    19.168787    7796.7321    11601.278    13447.266    14056.962    2307.5869      30.8757    293.70531   -2795.6837 
18899000    276.75669   -4797.3927   -4243.8452   -4797.3927            0    10240.709    17.847989    22.945538     19.23627    7877.8625    10105.922    9423.7782    11192.427   -150.84575   -63.017595   -2451.9606   -3067.2845 
18900000    264.08892   -4812.3574    -4284.147   -4812.3574            0    11637.648    17.788092     22.98718    19.147127    7829.2231    11662.462    10569.147    12681.335     1954.039   -102.11639   -700.10156   -2955.3465 
18901000     280.8807    -4778.935   -4217.1389    -4778.935            0    12703.135    17.768603    22.874885    19.281261    7836.9598    13199.904    12502.929     12406.57    308.47326   -430.06284   -2215.3323   -2765.2466 
18902000    268.58025   -4793.0397    -4255.846   -4793.0397            0    12941.187    17.906028    22.758887    19.116085     7790.211    12336.518    12729.937    13757.107    244.61854    611.90968   -563.21738   -2785.5687 
18903000    273.64955   -4807.3518   -4260.0189   -4807.3518            0    11473.591    17.781985    22.926163    19.234681    7841.4543    9673.0298    12891.693     11856.05    1317.2627    262.21169    1916.7395    -2947.904 
18904000    272.15637   -4822.9751   -4278.6288   -4822.9751            0    10500.012    17.791262     22.97994    19.144983    7827.2758    10790.771    9971.9184    10737.345    927.21645   -1523.6709   -1381.0402   -3080.0232 
18905000    276.01558   -4834.8431   -4282.7778   -4834.8431            0    10324.111    17.881027    22.850932    19.208876    7848.7109    10778.153    10446.036    9748.1437     87.12066    1530.1398   -1926.2248   -3101.0244 
18906000    270.90896   -4852.4203   -4310.5689   -4852.4203            0     11105.48     17.73976    23.031619    19.240183    7861.0656    10602.896    10701.675    12011.868   -1214.4731    278.02821    1235.2805   -3037.3748 
18907000    261.58874   -4792.7567   -4269.5469   -4792.7567            0    12398.026    17.685003     23.13823    19.087648    7810.6593    11594.923    12648.562    12950.592    322.88053    1219.4102   -92.366303   -2857.2822 
18908000    258.64079   -4828.4866   -4311.1731   -4828.4866            0    10865.183    17.763706    22.894927    19.243222    7826.1941    9100.1563     12078.52    11416.872    -79.68653   -301.41296    807.32979   -3071.0536 
18909000    254.80678   -4791.7971    -4282.152   -4791.7971            0     13323.56    17.677234    23.116006    19.047281    7783.2344    14943.908     12279.36    12747.411   -346.30209   -469.69023   -1357.4367   -2769.7882 
18910000     286.1519   -4837.3616   -4265.0224   -4837.3616            0    10261.266     17.91501    23.243579    18.926538      7881.18    9673.6649     9800.194    11309.939    533.30124    1437.5247    3018.3552   -3085.6035 
18911000    261.36043   -4814.5324   -4291.7793   -4814.5324            0    11507.447    17.535025    23.150644    19.258652    7817.9946    12497.554    11645.213    10379.573   -1568.9692   -847.89225   -147.03495   -2979.7298 
18912000    264.62143   -4803.0517   -4273.7761   -4803.0517            0    9338.2864    18.018427    23.013288    19.091337    7916.4762    9525.5096    9384.7882    9104.5615   -1250.9214    649.47171    506.95042   -3195.6365 
18913000    268.50034   -4824.9738     -4287.94   -4824.9738            0    8317.6587    17.828385    22.885868    19.358441    7898.5936    8844.5225    7811.8447    8296.6088   -1151.6887   -309.36967   -484.37812   -3329.8049 
18914000     270.0829   -4829.8002    -4289.601   -4829.8002            0     11543.13    17.891047    22.884325    19.138054    7835.5892    9797.6615    12667.202    12164.528   -1162.9069    503.33148   -1018.1636   -2970.5209 
18915000    270.60375   -4816.7298   -4275.4889   -4816.7298            0    12294.427    17.698093    22.670771     19.40867    7787.3291    12182.856    13213.847    11486.577   -2338.6239   -228.36082    114.50462   -2879.2083 
18916000    282.76449   -4786.6676   -4221.1037   -4786.6676            0    11211.449    17.916904    22.949801    19.076615    7844.1012    8995.7725    12081.158    12557.417   -681.39714    327.48901   -415.52367   -2938.5344 
18917000    262.35153   -4805.7784   -4281.0429   -4805.7784            0    10950.824    17.799054    23.012663    19.174187    7853.8169    11799.972     10724.85    10327.649   -1589.1907     347.0478   -2498.8315    -3026.737 
18918000    280.27416   -4812.9682   -4252.3853   -4812.9682            0    10922.975    17.826836    23.113356    19.085284    7863.8625    11266.012    11284.543    10218.369   -1591.6858    619.38696    466.13703   -2999.6689 
18919000    282.31607   -4786.4526   -4221.7856   -4786.4526            0    11985.516    17.687663    23.014464    19.189495     7811.508    13066.144    11298.447    11591.957   -395.44561    -26.02898    689.07832   -2856.3617 
18920000    275.37008   -4807.5655   -4256.7913   -4807.5655            0    11594.893    17.603574    23.321813    19.062426    7826.0271     13413.04    10920.421    10451.216    10.093585   -604.89285   -547.55334   -2933.4131 
18921000    276.51541   -4810.0365   -4256.9715   -4810.0365            0    11356.659    17.814333    23.116001    19.033307     7837.842    10540.849    11993.708    11535.422    132.47844    815.76981   -551.06988   -2958.8272 
18922000    266.05999   -4820.1553   -4288.0025   -4820.1553            0    12159.311    17.778258    22.895698    19.199161    7814.9345    12485.379    13076.871    10915.683    455.65908    1031.2297    1895.4067   -2902.1717 
18923000    262.33602    -4815.138   -4290.4335    -4815.138            0    12718.734    17.912434    22.849207    19.032272    7789.6216    12445.637    13178.414    12532.151    347.89906   -123.74692    1474.6398    -2845.539 
18924000    266.22573   -4813.8368   -4281.3525   -4813.8368            0    7988.5081     17.78973    22.904931    19.456226    7927.8778    8570.9214    7729.5362    7665.0666    67.074651   -729.68785    930.83835   -3357.7214 
18925000    260.58987   -4806.5308   -4285.3189   -4806.5308            0    11529.407    17.812023     22.69657    19.369029     7830.353    13095.261    10661.586    10831.374    439.69241   -1456.4545    986.91691   -2968.6875 
18926000    270.69882    -4816.627   -4275.1959    -4816.627            0    11741.194    17.929003    22.730123     19.19608    7822.9487    8574.7633    14354.543    12294.275    47.733538    2043.7109    1603.8652   -2935.6469 
18927000    270.20713   -4789.0519   -4248.6043   -4789.0519            0    11460.849    17.828367    22.958878    19.233949    7872.8265    10976.359    11840.421    11565.768    695.32904    508.05791   -1550.0626   -2932.7028 
18928000    277.94833   -4819.6551   -4263.7241   -4819.6551            0    10791.279    17.742202    23.077053     19.16768    7847.9713    11718.942    10177.816    10477.079    890.81034   -1359.2291    1139.0928   -3028.6125 
18929000    270.84867   -4785.5257   -4243.7949   -4785.5257            0    12583.301    17.596243    23.148404    19.123189    7789.3516    14620.595    11797.193    11332.117    312.84089    1104.4167    241.53915   -2814.3356 
18930000    260.16896   -4788.7968   -4268.4268   -4788.7968            0    10619.969    17.726087    23.195647    19.156594    7876.5796    12641.348    9893.5062    9325.0523    489.87492      191.089    58.944742   -3048.4914 
18931000    267.89789    -4810.835   -4275.0062    -4810.835            0     11897.08     17.62111    23.389024    19.012101    7835.6581    12344.387    9873.9827    13472.871    817.40286    11.972183    2312.6267   -2915.4669 
18932000    282.43585    -4824.085   -4259.1785    -4824.085            0    10479.538    17.742127    22.970848    19.193561    7822.3685    11366.366    10232.633    9839.6135   -2036.2502   -704.30812   -1795.4262     -3063.66 
18933000    277.07202   -4847.0924   -4292.9141   -4847.0924            0    11241.529    17.779538    22.891725      19.2028    7815.6221     11104.57    10732.215    11887.802   -1674.4033    67.237849    511.02393   -3011.5729 
18934000    260.65396   -4823.2604   -4301.9203   -4823.2604            0    11277.026    17.854976    22.923198    19.201238    7858.9351    10908.352    10709.708    12213.018   -748.26881    -434.7492    1349.2797   -3009.4095 
18935000    285.10896   -4804.2402   -4233.9871   -4804.2402            0    11873.001    17.752593    22.812236    19.312638    7821.1614     14062.05    11748.762    9808.1913   -1773.3169   -879.34741   -303.85965   -2879.7096 
18936000    278.51839   -4810.8873   -4253.8161   -4810.8873            0    9926.6475    17.934973    22.773382     19.24389    7859.9744    9629.2643    10521.809    9628.8691    1028.5006   -819.20116    126.81097   -3115.9279 
18937000    261.02094   -4801.2129   -4279.1388   -4801.2129            0    11072.673    17.899954    22.788605    19.274272    7862.2639    11493.504    11183.639    10540.877   -621.90404   -830.82333    -3095.353   -3009.5122 
18938000     279.8682   -4809.1022   -4249.3313   -4809.1022            0    12380.908    17.822721    22.928073     19.17771    7836.7921    10937.077    13543.096    12662.552   -249.88329    710.00652    582.18527   -2834.2978 
18939000    270.01439   -4834.2684   -4294.2062   -4834.2684            0    12472.533    17.487328    23.306364    19.171753    7813.7554    13672.936    12112.757    11631.904    458.33325   -38.782093     1336.677   -2872.8912 
18940000     273.2612   -4773.4599   -4226.9037   -4773.4599            0    9188.2519    17.785112    23.216118    19.183308    7920.8121    8042.4042     9678.873    9843.4786   -667.58339    163.50511    1166.1376   -3165.5051 
18941000     266.8937   -4786.0911   -4252.2708   -4786.0911            0    13158.179     17.50798    23.246155    19.133373    7787.1533    14629.781    13390.842    11453.913    1421.9729    1241.1649   -714.27627   -2757.9274 
18942000    278.55303   -4808.7885    -4251.648   -4808.7885            0    11076.248    17.739905    22.989265      19.2089    7833.9151    9542.1568    11748.816    11937.771    -363.1242    79.385236    2002.9673   -2986.1909 
18943000    261.05873   -4802.0959   -4279.9462   -4802.0959            0    11505.866    17.734698    23.087097    19.124167    7830.2508    12575.353    10426.675    11515.569    519.12848   -1064.3945   -152.25724   -2966.0204 
18944000    265.35237   -4784.2705   -4253.5329   -4784.2705            0    11832.344    17.689662    23.137726    19.085857    7811.8137    10541.206    11761.766    13194.059    727.91294   -571.17759    1279.7511   -2905.5061 
18945000    266.38948   -4787.4259    -4254.614   -4787.4259            0    11885.901    17.719307    23.063342    19.146083    7824.3617    12530.307    11208.271    11919.126    -42.83185   -813.21356   -2372.4218   -2898.3104 
18946000    280.17154   -4851.6242   -4291.2465   -4851.6242            0    8821.4466     17.72539    23.062866    19.326626    7900.6918    8911.2757    8010.4096    9542.6544    746.83347    134.71967   -65.326686   -3274.8087 
18947000    257.19982   -4792.8843   -4278.4529   -4792.8843            0    12771.992    17.780832    23.111139    19.060045    7832.4449    13965.083    11981.361    12369.532    -84.97128   -341.66181    394.08742   -2819.5316 
18948000    270.23073   -4797.4389   -4256.9441   -4797.4389            0    12880.544    17.532013    23.150363    19.201071    7793.1859    13679.758    12545.532    12416.342    53.450501   -923.03027    45.432578   -2792.9979 
18949000    272.18153   -4783.3488   -4238.9521   -4783.3488            0    12276.584    17.919325    23.075569     18.89854    7814.5201    11857.227    11297.502    13675.024   -652.74416   -266.68573   -718.27026   -2839.8296 
18950000    271.46363   -4819.3446   -4276.3838   -4819.3446            0    11857.116    17.641293    23.037222    19.244562    7821.1125      12664.7    12052.761    10853.888   -90.418198   -142.63593    423.42345   -2923.9267 
18951000    271.85892   -4818.5706   -4274.8191   -4818.5706            0     11189.48    17.716743    23.056554    19.191174    7839.3459      12006.7    11677.742    9883.9988    1781.6077   -246.08583    893.89146   -2995.5391 
18952000    265.87744   -4806.2119   -4274.4242   -4806.2119            0    12102.612    17.852375    23.006428    19.058301    7827.6137    14365.376    10224.282    11718.179    1594.7526   -1389.7298   -6.8024946   -2892.8176 
18953000    267.78093    -4827.665     -4292.07    -4827.665            0    13627.684    17.645339    22.922523    19.176519    7756.4359    14028.651    13293.951    13560.449   -661.41772    457.13189    -1505.594   -2750.5111 
18954000    252.15252   -4811.4665   -4307.1303   -4811.4665            0    11059.902    17.970715    22.846769    19.088892    7837.3793    10486.504    11518.458    11174.743    1097.8267    908.11145    2630.0721    -3042.982 
18955000    266.54628    -4843.328   -4310.2025    -4843.328            0    10680.383    17.840907    22.853303    19.293504    7866.4178    10800.254    11299.618    9941.2757   -289.87202    -180.6718    -988.0867   -3084.9101 
18956000    270.80616   -4831.0316   -4289.3858   -4831.0316            0    11785.274    17.778017    22.845044    19.219891    7805.9584    9687.9588    12238.926    13428.938    1162.4574   -15.140338   -619.33125   -2947.7279 
18957000    275.95334   -4819.7909   -4267.8501   -4819.7909            0    10674.826    17.698851    22.765492    19.486976    7851.7515    12007.614    11107.149    8909.7163    1112.6553   -768.47026   -487.11057   -3045.4785 
18958000    277.03696   -4801.6734   -4247.5653   -4801.6734            0    11158.826    17.830265    22.837289    19.243492    7835.8522    11175.802    11214.986     11085.69   -177.05745   -720.14965    246.28841   -2972.3584 
18959000    272.60619   -4826.9453   -4281.6992   -4826.9453            0     8922.095    17.840993    23.012522    19.272596    7912.6775    9027.7798    9459.0474    8279.4578    -749.0502   -1157.3144   -245.51562   -3252.1047 
18960000    282.44035   -4799.1521   -4234.2364   -4799.1521            0     14011.79    17.549197    23.208161    19.057427    7761.7964    13129.339    13622.684    15283.346    1201.6199    272.95047    377.36812   -2648.1321 
18961000    282.36204   -4814.0027   -4249.2438   -4814.0027            0    13922.578    17.495548    23.095651    19.168703    7745.5182    15088.018    14211.964    12467.751    983.36991    102.88583   -1306.9906   -2676.5433 
18962000    276.03318   -4817.5625    -4265.462   -4817.5625            0    11931.261    17.860738    23.073376    18.993488    7827.3593    12289.443    11374.282    12130.057    1689.0122   -1150.4068    -452.8673   -2903.4608 
18963000    266.54478   -4793.6079   -4260.4854   -4793.6079            0    12254.939    17.516772    23.037683    19.300404    7788.5974    12306.421    12766.369    11692.027    1068.3917    1507.8952    1521.3412   -2868.4628 
18964000    269.50919   -4802.9679   -4263.9162   -4802.9679            0    13871.412    17.819707    23.132249     18.91342    7796.2991    12502.578    12395.491    16716.167    523.02582   -996.25763   -731.57964   -2686.7225 
18965000    265.86858   -4849.6846   -4317.9146   -4849.6846            0    12707.851    17.712866    22.922266    19.213665    7801.1134    11872.406     13015.28    13235.867    1583.4058   -1515.5574   -577.86959   -2872.1267 
18966000    269.81362   -4805.3832   -4265.7226   -4805.3832            0      13558.2    17.782578    22.879789    19.114605    7776.9993    12839.548    14047.183     13787.87    393.52612    464.19522    401.10359   -2727.9575 
18967000    260.72285   -4829.2928   -4307.8149   -4829.2928            0    13008.666    17.834421    22.837919    19.127161    7790.5133    11224.378    13686.498    14115.122    -137.6371    70.577159   -511.08404   -2829.8139 
18968000    280.80938   -4810.4142   -4248.7607   -4810.4142            0    10444.897    17.747269    23.026425    19.218483    7853.7515    9965.3963    10326.901    11042.392    917.24916   -659.50711    1624.2542   -3052.4137 
18969000    278.16561   -4815.6626    -4259.297   -4815.6626            0    14103.372    17.702283    22.992164    19.093552    7771.3391    15499.689      12861.5    13948.929    280.57153    1465.3785   -1317.1084    -2660.863 
18970000    258.42661   -4810.2951     -4293.41   -4810.2951            0     13544.21    17.477825    23.193315    19.105412    7744.7361    13390.707    11823.111    15418.812    1143.4576   -386.31969    357.29849   -2763.6045 
18971000    271.27048   -4821.7467   -4279.1722   -4821.7467            0    12083.761    17.718992    23.177253    18.964998    7788.4995    13268.151    10809.243    12173.889   -204.80427    275.35703   -191.80192   -2906.6107 
18972000     265.6761   -4834.5693   -4303.1842   -4834.5693            0    11923.905    17.664607    23.045496    19.133544    7789.0675    11418.762     11411.91    12941.045   -1052.0192    479.23653   -436.44213   -2948.6815 
18973000    256.37094   -4811.1945    -4298.421   -4811.1945            0    11124.411    17.794871      23.0145     19.12651    7833.0724    11033.743     10991.08    11348.412    1989.2219   -482.57925    1893.6675    -3027.598 
18974000     281.4904   -4818.1821   -4255.1665   -4818.1821            0    13715.133    17.753383     22.83671    19.162655    7769.0936    14734.033    13307.427    13103.937   -1531.9162    851.27494   -698.98769   -2701.1836 
18975000    278.65926   -4853.6766   -4296.3236   -4853.6766            0    11705.881    17.959658    22.796429    19.099779    7819.7563     10654.94    12794.353     11668.35    456.08178   -36.015039      3228.69   -2961.3484 
18976000    267.63214   -4814.8331   -4279.5357   -4814.8331            0    10793.645    17.748256    22.998963    19.288651    7873.4631    10588.731    10824.988    10967.218    69.232982   -665.38837   -501.42568   -3040.1405 
18977000     283.5515   -4774.9805   -4207.8424   -4774.9805            0    11564.769    17.906414    22.833316    19.178318    7841.3007    8337.0612    12748.031    13609.214   -181.09484    503.53149   -824.26291   -2885.3264 
18978000    273.55029   -4790.6512   -4243.5168   -4790.6512            0    13023.069    17.766987    22.905122    19.209274      7817.31    13118.564    13393.568    12557.075    1211.1794    2112.4694    2802.7417     -2758.79 
18979000    271.27412   -4801.6528    -4259.071   -4801.6528            0    10486.479    17.841358    23.002751    19.159536    7863.0796    10759.297    10297.453    10402.687    504.13393   -341.99976   -612.24618   -3056.5345 
18980000    283.14511   -4787.8927   -4221.5675   -4787.8927            0    10986.576    17.558406    22.940487    19.433589    7827.8185    11155.618    12301.797    9502.3115   -551.61309   -591.32354    1975.1128   -2967.3323 
18981000    278.28688   -4794.0502    -4237.442   -4794.0502            0    14022.781    17.956693     22.65166    19.143932    7786.7734    12076.472    15166.692     14825.18   -1171.8607   -228.92858    624.07671   -2644.9855 
18982000    269.29163   -4799.0122   -4260.3957   -4799.0122            0     12541.86    17.737674    22.997373    19.139298     7807.301    11027.985    12399.429    14198.166   -507.33926    704.96784    403.04352    -2832.361 
18983000    274.41994   -4820.4064   -4271.5326   -4820.4064            0    12704.143    17.641497    23.246038    18.969215    7779.1783     12976.45    12014.203    13121.777   -90.955606   -256.49944    993.29382   -2830.2306 
18984000    272.64229   -4775.4893    -4230.171   -4775.4893            0    12387.966    17.489867    23.361719    19.122103    7813.1644    12795.112    12509.016     11859.77   -166.79487    -1049.721    84.359985   -2818.5996 
18985000    265.94888   -4824.3616    -4292.431   -4824.3616            0    11596.766    17.652216    23.279651      19.0028     7808.962     11522.96    11700.495    11566.844    102.62809    527.75883   -1153.1566   -2971.7251 
18986000    271.84048   -4828.6624   -4284.9479   -4828.6624            0    11236.369    17.697699    23.145561     19.10787    7827.0261    11894.041    10299.387     11515.68   -105.96045    115.62296    -1122.129   -3002.3259 
18987000    260.05747   -4786.3653   -4266.2183   -4786.3653            0    14023.809    17.810901    22.802233     19.11468     7763.013     11582.84    14686.653    15801.935    373.06477   -301.32803    1009.4536   -2678.5045 
18988000    270.16156   -4787.4306   -4247.0741   -4787.4306            0    11722.341    17.768326    23.005972    19.186922    7843.1845    11039.656    10736.728     13390.64   -1481.2136   -798.65842    1499.7373   -2906.2164 
18989000    262.73654   -4798.8043   -4273.2988   -4798.8043            0    11617.589    17.836007    22.569009    19.507806    7852.6919    11815.072    12464.811    10572.885    171.35226    1786.6776   -1146.0651   -2942.8123 
18990000    274.96605   -4807.7343   -4257.7683   -4807.7343            0    10192.735    17.884257    23.137038     19.05905    7886.4204    9958.4346    10278.183    10341.588    1560.7783     386.9268   -81.151261   -3085.4472 
18991000    263.09946   -4815.1417   -4288.9103   -4815.1417            0    12170.889    17.725192    23.082126    19.114794    7820.5333    12517.976    11963.259    12031.431    578.90019   -1094.8986    -336.0291   -2900.7662 
18992000    269.18139   -4812.4337   -4274.0377   -4812.4337            0    11275.124    17.601847    23.173096    19.137477    7805.9719    9765.6052    12426.041    11633.726   -1063.6474    322.92241    295.93494   -2990.4539 
18993000    271.78243   -4780.5798   -4236.9813   -4780.5798            0    10065.666    17.728833    23.254193    19.083428    7867.5196    9899.2893    11080.841    9216.8679   -955.86607    778.22698    2972.4127   -3082.0498 
18994000    275.90702   -4794.7032    -4242.855   -4794.7032            0    13454.026    17.661807     23.08123    19.084928    7780.0899    14166.388    12561.375    13634.314   -862.61787    784.80544    1265.9065    -2716.299 
18995000    283.65052    -4789.356   -4222.0199    -4789.356            0    11886.316    17.717619    23.011761    19.215806     7834.546    13819.319    11735.125    10104.504   -1749.2333    248.54038    890.47567   -2863.9035 
18996000     265.9985   -4808.4561   -4276.4262   -4808.4561            0    10028.824    17.732518    23.050431    19.219387    7855.7743     11603.87    8645.8549    9836.7465   -920.12422   -412.08721    142.84875   -3127.4398 
18997000    271.00944   -4803.8363    -4261.784   -4803.8363            0     12729.47    17.730975    23.023572    19.133019    7810.6793    11310.184    12134.276     14743.95    -176.9523   -926.38848    238.90118   -2811.7605 
18998000    278.48637   -4802.9508   -4245.9437   -4802.9508            0     12734.11    17.820837     22.98338    19.202425    7864.9879    11636.091    14736.754    11829.485   -404.95422    2114.9989   -1630.7051   -2785.3058 
18999000    274.51173   -4840.1373   -4291.0799   -4840.1373            0    9533.1509    17.794629    23.113129    19.212009    7901.6986     10114.61    9588.7723    8896.0705   -1084.1434   -728.54752   -317.21977   -3192.4971 
19000000    266.58874   -4764.4281   -4231.2177   -4764.4281            0     10771.08    17.836766    22.926447    19.272549    7881.1943    10447.638    11105.274    10760.327   -15.829436   -189.46137    1130.5546   -2993.1991 
Loop time of 521.92 on 64 procs for 250000 steps with 1008 atoms

Performance: 82.771 ns/day, 0.290 hours/ns, 479.001 timesteps/s
99.2% CPU use with 64 MPI tasks x 1 OpenMP threads

MPI task timing breakdown:
Section |  min time  |  avg time  |  max time  |%varavg| %total
---------------------------------------------------------------
Pair    | 28.111     | 32.426     | 35.959     |  32.1 |  6.21
Bond    | 0.28259    | 0.29156    | 0.30305    |   0.8 |  0.06
Kspace  | 239.63     | 251.75     | 267.97     |  51.4 | 48.24
Neigh   | 4.3127     | 5.3357     | 6.8824     |  34.8 |  1.02
Comm    | 91.745     | 108.76     | 124.37     |  88.1 | 20.84
Output  | 1.1264     | 1.1286     | 1.1332     |   0.1 |  0.22
Modify  | 112.53     | 116.26     | 119.44     |  23.5 | 22.28
Other   |            | 5.973      |            |       |  1.14

Nlocal:        15.7500 ave          20 max          10 min
Histogram: 1 0 2 7 7 13 12 6 9 7
Nghost:        2515.45 ave        2544 max        2488 min
Histogram: 2 5 7 9 11 10 5 5 6 4
Neighs:        5295.59 ave        6686 max        3386 min
Histogram: 1 2 3 11 5 14 8 5 8 7

Total # of neighbors = 338918
Ave neighs/atom = 336.22817
Ave special neighs/atom = 2.0000000
Neighbor list builds = 9948
Dangerous builds = 0

unfix		3
unfix		2
unfix		1

write_data	data.final.${pid}
write_data	data.final.0
System init for write_data ...
PPPM initialization ...
  extracting TIP4P info from pair style
  using 12-bit tables for long-range coulomb (../kspace.cpp:340)
  G vector (1/distance) = 0.37915026
  grid = 24 27 32
  stencil order = 5
  estimated absolute RMS force accuracy = 0.0024726274
  estimated relative force accuracy = 7.4462439e-06
  using double precision FFTW3
  3d grid and FFT values/proc = 3825 384
Last active /omp style is kspace_style pppm/tip4p/omp
WARNING: Not all mixed pair coeffs generated from mixing. Use write_data with 'pair ij' option to store all pair coeffs. (../write_data.cpp:312)

write_restart   restart.lmp.${pid}
write_restart   restart.lmp.0
System init for write_restart ...
PPPM initialization ...
  extracting TIP4P info from pair style
  using 12-bit tables for long-range coulomb (../kspace.cpp:340)
  G vector (1/distance) = 0.37915026
  grid = 24 27 32
  stencil order = 5
  estimated absolute RMS force accuracy = 0.0024726274
  estimated relative force accuracy = 7.4462439e-06
  using double precision FFTW3
  3d grid and FFT values/proc = 3825 384
Last active /omp style is kspace_style pppm/tip4p/omp
Total wall time: 0:08:43
