LAMMPS data file via write_data, version 30 Jul 2021, timestep = 40750000

972 atoms
2 atom types
648 bonds
1 bond types
324 angles
1 angle types

0.15273263865688946 19.847268361334564 xlo xhi
0.15669798625344988 19.843303013731713 ylo yhi
0.1533879369572233 20.546610063047474 zlo zhi

Masses

1 1.008
2 15.999

Pair Coeffs # lj/cut/tip4p/long/omp

1 0 0
2 0.21084 3.1668

Bond Coeffs # harmonic/omp

1 450 0.9572

Angle Coeffs # harmonic/omp

1 55 104.52

Atoms # full

10 4 2 -1.1794 1.4164042700939505 4.32503246235857 3.957357827574912 0 0 0
11 4 1 0.5897 1.2195385986942633 3.5889560123357995 3.3780044873574666 0 0 0
31 11 2 -1.1794 1.1225923061457825 2.334471352139267 2.1260240454174686 0 0 0
33 11 1 0.5897 1.757985342193048 2.5118989915559644 1.4324982730043951 0 0 0
23 8 1 0.5897 2.7628093644715555 1.1443521426831673 4.311513570832736 0 0 0
12 4 1 0.5897 2.370168772779315 4.401650825910584 3.932399257486817 0 0 0
16 6 2 -1.1794 4.088857817927094 4.155363335145545 3.690563025660005 0 0 0
18 6 1 0.5897 4.2374228798541695 3.2596066652513134 3.387606322243796 0 0 0
4 2 2 -1.1794 4.355243931357132 1.4355088185496774 3.4982984018808074 0 0 0
17 6 1 0.5897 4.430295845298143 4.706593173763683 2.9864548564179154 0 0 0
5 2 1 0.5897 4.47053232654655 0.7989650836071288 2.792792406943213 0 0 0
6 2 1 0.5897 4.966508891107649 1.1530993404937067 4.178584539553218 0 0 0
3 1 1 0.5897 3.7168420818088728 2.73665834561898 0.18074553868345383 0 0 0
58 20 2 -1.1794 8.658883656963022 0.9857116500648031 4.9917394036905405 0 0 0
32 11 1 0.5897 0.2712343852436202 2.488632082549136 1.7166551631463256 0 0 0
9 3 1 0.5897 5.179613166508958 4.31362858396487 5.13512392420578 0 0 0
68 23 1 0.5897 8.29158831726957 2.6235568015330393 1.591739642340765 0 0 0
29 10 1 0.5897 6.882921430276512 0.7337692641897838 5.137293705991349 0 0 0
34 12 2 -1.1794 5.353313145076407 2.4627782311874222 0.4168016587963167 0 0 0
47 16 1 0.5897 7.797985300421389 3.503733424031585 3.516448637149262 0 0 0
67 23 2 -1.1794 7.527290214470685 2.416915304384469 2.1296234900131417 0 0 0
46 16 2 -1.1794 8.02500353377172 4.272952917372109 4.038928103669951 0 0 0
48 16 1 0.5897 7.322744801200629 4.339387115370677 4.685920277031706 0 0 0
69 23 1 0.5897 6.783087577315887 2.509953585280999 1.5349094883495245 0 0 0
273 91 1 0.5897 7.525144408827023 0.5692398195679772 1.9874826217927937 0 1 0
236 79 1 0.5897 1.1786332680176685 0.5913279850852743 2.0741871049045932 0 1 0
41 14 1 0.5897 9.954443166765778 1.2116214729594934 3.8788385777172025 0 0 0
22 8 2 -1.1794 2.1103391898705723 1.0378262985540865 5.003691490843169 0 0 0
102 34 1 0.5897 0.30689027681064085 0.8821458432709705 5.221760751188989 1 0 0
325 109 2 -1.1794 2.660991557107096 2.8615283685250943 6.97044051548041 0 0 0
326 109 1 0.5897 2.436963674409412 2.302134963592182 6.226729905299952 0 0 0
327 109 1 0.5897 3.5504337136581032 2.5997986485347764 7.208230075192773 0 0 0
355 119 2 -1.1794 1.1086358979637478 2.127484491884521 9.043690202157366 0 0 0
356 119 1 0.5897 1.716403122375953 2.339632090671445 8.335312912018702 0 0 0
27 9 1 0.5897 2.7323409054767116 4.6369351036154995 6.557387824000281 0 0 0
330 110 1 0.5897 4.167989579206394 0.7624553064965544 9.432965762932389 0 0 0
328 110 2 -1.1794 4.040565666774851 1.470291623501353 10.064586051184895 0 0 0
60 20 1 0.5897 8.80540847298631 0.20377988754845688 5.5240320392967615 0 0 0
335 112 1 0.5897 1.1255033106459806 3.4533286203010425 10.127113082439388 0 0 0
28 10 2 -1.1794 5.9840878941254445 0.5397182378813962 5.4030098769532895 0 0 0
358 120 2 -1.1794 5.28018018244474 2.2807954989047787 7.402301949031842 0 0 0
362 121 1 0.5897 9.251448045214723 3.737185595095797 6.624564560570247 0 0 0
59 20 1 0.5897 8.79714554279856 1.7160047864091021 5.594882128019953 0 0 0
392 131 1 0.5897 8.090456826976268 2.3919560153403436 8.231123414431428 0 0 0
8 3 1 0.5897 5.719243162809401 3.729753586923088 6.423419403196425 0 0 0
393 131 1 0.5897 7.491292939770709 1.1704134279470397 8.894920191435943 0 0 0
391 131 2 -1.1794 7.487305103348058 2.1271066201698607 8.92555581549523 0 0 0
359 120 1 0.5897 6.032733621866549 2.285063764413897 7.99375194223299 0 0 0
361 121 2 -1.1794 9.29032604287897 2.8256257808835104 6.914001612322986 0 0 0
7 3 2 -1.1794 5.866873405040536 4.432610161575074 5.790633718398508 0 0 0
360 120 1 0.5897 5.488913467939057 1.6090292884893227 6.753162832677938 0 0 0
342 114 1 0.5897 4.20835405545187 4.670965564122984 9.91625034550534 0 0 0
561 187 1 0.5897 0.9992830063033693 0.342904879833287 8.971924607973593 0 1 0
24 8 1 0.5897 2.3505803805542023 0.21827007227778977 5.435921728022288 0 0 0
357 119 1 0.5897 0.24257923038033624 2.173870625868769 8.638772579905355 0 0 0
371 124 1 0.5897 7.914706413805464 3.362619835460148 10.216831955098305 0 0 0
649 217 2 -1.1794 2.6282811294999275 2.653228382767719 13.66110054798538 0 0 0
650 217 1 0.5897 2.402646158356018 2.0497307017866024 12.953221466766822 0 0 0
348 116 1 0.5897 2.455133119236662 1.0318408147384428 10.993421284072621 0 0 0
651 217 1 0.5897 2.0122590051461255 2.441526461179777 14.362444792942698 0 0 0
346 116 2 -1.1794 1.9375259032271657 0.7300707823876598 11.739887061893693 0 0 0
683 228 1 0.5897 4.445385914797661 2.747724000433536 14.137493383012334 0 0 0
350 117 1 0.5897 2.683119513304268 4.489340841901136 13.349376897639441 0 0 0
347 116 1 0.5897 1.04921539915145 1.0346785058427095 11.55475101695499 0 0 0
329 110 1 0.5897 4.6173894292991875 1.2468727413168241 10.795025213839125 0 0 0
336 112 1 0.5897 2.2503788170999206 4.278711334073944 10.714629911951562 0 0 0
684 228 1 0.5897 5.596967853882371 3.578881577603717 13.613257861610046 0 0 0
352 118 2 -1.1794 5.756949032540494 1.0010913350298116 12.194189140894194 0 0 0
332 111 1 0.5897 5.386310133486407 4.51883081318608 11.7383510272792 0 0 0
334 112 2 -1.1794 1.2959103230137747 4.216062745113647 10.679764039634936 0 0 0
370 124 2 -1.1794 8.174176796688476 4.1970889778624425 10.607424925780348 0 0 0
682 228 2 -1.1794 5.398369602870421 2.8291575780871008 14.174236932254841 0 0 0
354 118 1 0.5897 5.663987085449697 1.5962559845983435 12.938062758532483 0 0 0
686 229 1 0.5897 8.448173294633795 2.6868734050150076 14.403972875722744 0 0 0
382 128 2 -1.1794 8.403422651047494 1.0123324236554583 11.797585231472024 0 0 0
331 111 2 -1.1794 6.122844436620388 4.751552622620969 12.303625780533887 0 0 0
386 129 1 0.5897 8.964206198395514 4.72942759404994 13.486930685652178 0 0 0
383 128 1 0.5897 8.563771873683507 1.649933679133498 12.49326648570938 0 0 0
685 229 2 -1.1794 8.978000635647353 2.8368555868285976 13.621044289763462 0 0 0
384 128 1 0.5897 9.172254976342458 1.0767962466297454 11.231093989093912 0 0 0
353 118 1 0.5897 6.689190462376088 1.0296160584050198 11.979075330451504 0 0 0
372 124 1 0.5897 7.530653489576984 4.348473936501495 11.29962219090533 0 0 0
340 114 2 -1.1794 4.036078908523686 4.142460625483156 10.695492929901288 0 0 0
341 114 1 0.5897 4.103657842787781 3.2373712252098135 10.391385237908041 0 0 0
687 229 1 0.5897 9.882511735014226 2.774908301780575 13.927921114308969 0 0 0
658 220 2 -1.1794 1.4011794039769006 4.202457915174366 17.303791313586544 0 0 0
664 222 2 -1.1794 4.087105880990115 3.840511240369737 17.085348308022873 0 0 0
671 224 1 0.5897 2.2014195312942504 1.7594508933434299 19.155965624398227 0 0 0
653 218 1 0.5897 3.3499482926946116 1.0563410996861498 17.333428374070856 0 0 0
670 224 2 -1.1794 1.9236493770256056 1.0980904694894047 18.522200653017833 0 0 0
652 218 2 -1.1794 4.236751834919689 1.1876701654962214 16.998021724464458 0 0 0
672 224 1 0.5897 0.9785759854653615 1.0220060696511322 18.653378675450607 0 0 0
665 222 1 0.5897 3.1536787090030116 4.011568669110568 17.210310263489735 0 0 0
666 222 1 0.5897 4.1447486340230455 2.8911937222909994 16.977148418093574 0 0 0
681 227 1 0.5897 1.0383541472491176 2.8245141193876324 16.326922468010284 0 0 0
659 220 1 0.5897 0.8241734718152751 4.29766572698256 18.06154429910211 0 0 0
654 218 1 0.5897 4.357808304220959 0.48586622089909287 16.358460893836654 0 0 0
679 227 2 -1.1794 0.843582391917876 2.1471063843108595 15.679308201296665 0 0 0
677 226 1 0.5897 5.502888919367481 0.8686571226628195 18.232269080390125 0 0 0
656 219 1 0.5897 5.11045869888276 4.415085438436892 18.493439785553782 0 0 0
36 12 1 0.5897 5.549225571551461 3.2639423199123043 20.32427300757349 0 0 -1
702 234 1 0.5897 9.841502992370428 4.25674306545784 17.515808312482235 0 0 0
696 232 1 0.5897 7.848982396151901 4.967302729921069 17.04811225161924 0 0 0
660 220 1 0.5897 1.1111778701053474 4.881350164178684 16.694511248733424 0 0 0
706 236 2 -1.1794 8.828784031820804 0.9929918751730401 18.59779796199618 0 0 0
657 219 1 0.5897 6.615501184722482 4.422013024000887 18.656249661385853 0 0 0
694 232 2 -1.1794 8.006940761246275 4.21178710128681 17.614209821552844 0 0 0
676 226 2 -1.1794 6.1572954077944395 0.6299012770148347 18.888724336073093 0 0 0
708 236 1 0.5897 7.874365250508354 0.9231109309656917 18.578791656485055 0 0 0
715 239 2 -1.1794 7.417957239425459 2.1913446977147286 15.90047181871216 0 0 0
716 239 1 0.5897 7.476949528952661 1.2361971432035925 15.92165190581483 0 0 0
655 219 2 -1.1794 5.8010664525237665 4.554062907497219 19.141457792290254 0 0 0
695 232 1 0.5897 7.830411703670965 3.4535399322157287 17.057324224307962 0 0 0
38 13 1 0.5897 9.150880474401061 2.3914008609433264 19.83622439500769 0 0 -1
710 237 1 0.5897 9.358677646579993 4.7685843437284845 20.03530911692199 0 0 0
884 295 1 0.5897 1.1071732567794759 0.4830436556558091 15.597886260698013 0 1 0
2 1 1 0.5897 2.764093006319031 3.876108459610654 20.28115988535541 0 0 -1
707 236 1 0.5897 9.110977248901378 0.2725163230533273 19.161269751538818 0 0 0
35 12 1 0.5897 5.695506286981704 1.758520683576534 20.25945853909429 0 0 -1
717 239 1 0.5897 6.593647848207042 2.3709086109614272 15.448330739703522 0 0 0
1 1 2 -1.1794 2.798222805193365 2.924835335190378 20.38190960639112 0 0 -1
37 13 2 -1.1794 9.382771969370646 3.0074871561599745 20.53112014011755 0 0 -1
112 38 2 -1.1794 4.192050740441101 7.78986799265541 3.5771027725808664 0 0 0
13 5 2 -1.1794 4.959170698994016 5.902019913937387 1.791288734511464 0 0 0
674 225 1 0.5897 2.081562302675944 5.880004469412832 0.8551418828724753 0 0 1
113 38 1 0.5897 4.830985064370297 7.579969000614003 4.258197281903007 0 0 0
126 42 1 0.5897 4.359317336411505 9.556158614697283 3.5297897779479768 0 0 0
111 37 1 0.5897 3.517692929660806 9.241412378671956 0.5831995606894061 0 0 0
20 7 1 0.5897 1.0472367392351805 5.615189950420893 2.8522978996964237 0 0 0
139 47 2 -1.1794 0.9366271503694481 8.974934427689965 2.18631193759703 0 0 0
141 47 1 0.5897 0.9328662232982128 8.049684316187195 2.4315307785070046 0 0 0
175 59 2 -1.1794 7.427891589802799 8.80742036234104 2.1417235404195107 0 0 0
15 5 1 0.5897 4.67648294205642 6.652793094540183 2.313446233603684 0 0 0
19 7 2 -1.1794 0.8860225359644917 6.2604816402072165 2.1639526129254465 0 0 0
14 5 1 0.5897 4.286255698772788 5.811927697157961 1.1165682176611953 0 0 0
140 47 1 0.5897 1.2423625569206032 9.429938657015915 2.9709812299174736 0 0 0
110 37 1 0.5897 2.0440103996682115 9.215021848750434 0.9285646072642233 0 0 0
114 38 1 0.5897 3.3426603357583553 7.7010294407347715 4.00931832129883 0 0 0
143 48 1 0.5897 5.994284364651244 8.974836276977912 1.1804127668740156 0 0 0
166 56 2 -1.1794 8.61964658314595 7.635654985717802 4.9666335633796574 0 0 0
56 19 1 0.5897 6.769935803373032 5.904506192951272 1.7426565046407445 0 0 0
142 48 2 -1.1794 5.378083863880445 9.046232218875188 0.45145491711213925 0 0 0
57 19 1 0.5897 7.9555222083718 5.536252826426009 2.6089916834708893 0 0 0
176 59 1 0.5897 7.514380080379597 7.856016437189112 2.2016255750496736 0 0 0
177 59 1 0.5897 8.03172734584303 9.059787530214054 1.4432407213903888 0 0 0
55 19 2 -1.1794 7.706170524450371 6.069412538743938 1.8541553742322965 0 0 0
711 237 1 0.5897 8.878112043054093 5.930088076403879 0.4857819671008907 0 0 1
132 44 1 0.5897 0.9811167897144131 7.695603541075259 5.225481945917214 0 0 0
130 44 2 -1.1794 1.9348931245057066 7.664253518855755 5.151403965690078 0 0 0
155 52 1 0.5897 7.905606255859097 9.922367181795133 3.5328423623744474 0 0 0
149 50 1 0.5897 9.987619711509742 7.843454409985723 3.7936991313846216 0 0 0
673 225 2 -1.1794 2.7210490573695174 5.642841925373417 0.1835791157403257 0 0 1
109 37 2 -1.1794 2.64767343404615 9.337647087935459 0.19594055081788397 0 0 0
381 127 1 0.5897 7.631702575406593 5.226257831155845 9.184167972265614 0 0 0
438 146 1 0.5897 4.36069411886506 8.933574932602953 10.040902857389941 0 0 0
464 155 1 0.5897 1.605086461192054 8.967235268401192 8.435962338173605 0 0 0
167 56 1 0.5897 8.926399859415602 6.825527315077524 5.373842727150235 0 0 0
345 115 1 0.5897 1.022304655399802 6.9438167283716625 8.945399822804346 0 0 0
463 155 2 -1.1794 0.9049598331728713 8.659198856423714 9.011388722836305 0 0 0
435 145 1 0.5897 2.472608925239233 8.842829208351437 6.355688458421065 0 0 0
26 9 1 0.5897 2.0978286302715894 5.747894338449812 7.3667101198009055 0 0 0
337 113 2 -1.1794 4.694339217476255 5.799039205087662 8.646939401315995 0 0 0
433 145 2 -1.1794 2.77641246876201 9.276766589408249 7.152930248902758 0 0 0
344 115 1 0.5897 1.1216397788786683 5.55623942068719 9.54259330759915 0 0 0
468 156 1 0.5897 4.506694176825266 9.172228423910482 7.511968044686409 0 0 0
343 115 2 -1.1794 0.9712542114939668 6.015787547415051 8.71651491703386 0 0 0
437 146 1 0.5897 4.424130053493431 7.492509313021432 9.581334925923972 0 0 0
339 113 1 0.5897 4.19969344562032 5.655308905686734 7.840181055155579 0 0 0
25 9 2 -1.1794 2.756844671927576 5.5842925411661 6.6920899844851816 0 0 0
61 21 2 -1.1794 9.358541389788545 5.518556823710408 6.58944163524649 0 0 0
168 56 1 0.5897 8.74988155392558 8.305794619800714 5.637583860709109 0 0 0
470 157 1 0.5897 8.693728008460951 8.98729445319617 7.712531848361116 0 0 0
499 167 2 -1.1794 7.538931534583474 8.458878380436245 9.031118984671869 0 0 0
466 156 2 -1.1794 5.4574836843667045 9.118204781834628 7.415845501215626 0 0 0
137 46 1 0.5897 5.887445220420333 6.306954149776458 5.763898187090605 0 0 0
379 127 2 -1.1794 7.384682538441813 5.746406105565761 8.419552796133909 0 0 0
500 167 1 0.5897 7.704816169529711 9.162483093811883 9.658528917845961 0 0 0
338 113 1 0.5897 5.611616969463459 5.755176349145109 8.377049554773793 0 0 0
62 21 1 0.5897 8.620035712886645 5.5996938314928535 7.192930004690718 0 0 0
469 157 2 -1.1794 9.201511605724692 9.332562164499267 6.978267989256722 0 0 0
501 167 1 0.5897 6.754473559388946 8.73823605235985 8.55914164691638 0 0 0
380 127 1 0.5897 7.479340960176539 6.654693779114794 8.706408963221088 0 0 0
467 156 1 0.5897 5.596926860392231 8.383467322229343 6.818400814764511 0 0 0
131 44 1 0.5897 2.1816137400875877 6.842180865692629 5.575142211413938 0 0 0
136 46 2 -1.1794 5.9779773106904335 7.23896115356747 5.565389765856613 0 0 0
443 148 1 0.5897 1.1788900510832103 9.957376323726116 10.259132383607113 0 0 0
436 146 2 -1.1794 4.191159608476437 8.037835426597134 10.332692032257269 0 0 0
138 46 1 0.5897 6.9049444956391 7.35047603868466 5.354537276413073 0 0 0
533 178 1 0.5897 0.29615788169922147 7.559736373389798 11.859791154550182 1 0 0
757 253 2 -1.1794 2.5861381168449595 9.278824476501123 13.868290984093196 0 0 0
792 264 1 0.5897 4.473159238279966 9.063570090049726 14.190983318928494 0 0 0
456 152 1 0.5897 2.3643974288129646 6.781865741571172 12.31082635031078 0 0 0
455 152 1 0.5897 2.7235412747140435 7.67338317057331 11.14118388558712 0 0 0
454 152 2 -1.1794 2.026297497549016 7.497886720525692 11.773032662538894 0 0 0
351 117 1 0.5897 3.534235625891487 5.564168287831094 13.991393404918401 0 0 0
759 253 1 0.5897 2.339695229916861 8.795803984516743 13.079517465319514 0 0 0
668 223 1 0.5897 1.3735651956618307 5.872295493232749 14.611692502335167 0 0 0
349 117 2 -1.1794 2.7436858451713997 5.437373911839949 13.466865800501067 0 0 0
705 235 1 0.5897 7.935888780785505 6.079395530090501 15.104498874009954 0 0 0
491 164 1 0.5897 9.29883425308862 7.657953865779935 11.027455894202188 0 0 0
793 265 2 -1.1794 9.189570616310384 9.288293222230093 14.026315077809354 0 0 0
791 264 1 0.5897 5.873485783130492 9.125997044244398 14.762748816015673 0 0 0
333 111 1 0.5897 6.0746882146954935 5.704452155207331 12.380453274124317 0 0 0
461 154 1 0.5897 5.9585743352271905 8.060053257637382 12.760867071733163 0 0 0
790 264 2 -1.1794 5.3880492986015565 9.191422320974741 13.940397328216552 0 0 0
492 164 1 0.5897 7.9918325535428805 7.639110784214943 11.791083852543114 0 0 0
385 129 2 -1.1794 9.123076449285286 5.618926580714708 13.802818693833249 0 0 0
462 154 1 0.5897 5.604152368390137 7.648088954671414 11.34789210132255 0 0 0
387 129 1 0.5897 9.086145300733255 6.16312531865944 13.016243419775915 0 0 0
490 164 2 -1.1794 8.940144006721013 7.593257379010525 11.912526303767477 0 0 0
460 154 2 -1.1794 6.218130770078404 7.463611974671464 12.058654146382066 0 0 0
794 265 1 0.5897 9.078625106413426 8.754803844715818 13.23936212663727 0 0 0
789 263 1 0.5897 1.4067785909715862 8.920367230526491 15.216174122071719 0 0 0
661 221 2 -1.1794 4.745594669042327 5.80114085791206 15.267815119698232 0 0 0
824 275 1 0.5897 7.876560382463834 9.14338601737295 15.232137597308224 0 0 0
667 223 2 -1.1794 0.8045446744830442 5.9834944655572535 15.373295967999535 0 0 0
709 237 2 -1.1794 9.437856851742318 5.717567828491499 20.132203145190637 0 0 0
703 235 2 -1.1794 7.383237176083652 6.238395486806296 15.869666479109398 0 0 0
669 223 1 0.5897 0.8951318042899501 6.907109791027999 15.607742756526044 0 0 0
784 262 2 -1.1794 6.034816164448191 7.220550160689208 18.946913670171188 0 0 0
778 260 2 -1.1794 2.1526107347683574 7.489674448114311 18.663691577524247 0 0 0
780 260 1 0.5897 2.8116216831155154 7.617313372853099 17.981345155782762 0 0 0
779 260 1 0.5897 2.3438755669170055 8.167542634683388 19.31186808935747 0 0 0
787 263 2 -1.1794 0.770041424531473 8.68537615335139 15.891102436158818 0 0 0
761 254 1 0.5897 4.397027378790616 8.890927961448437 16.848186748171567 0 0 0
675 225 1 0.5897 2.5569573120683002 6.257341535474563 19.861481970772903 0 0 0
788 263 1 0.5897 0.9572497529518696 9.282018846704009 16.615798233891734 0 0 0
760 254 2 -1.1794 4.302316454027114 7.9469094532252385 16.975065942941892 0 0 0
144 48 1 0.5897 5.624135769994167 8.336023673130734 20.251988829919082 0 0 -1
762 254 1 0.5897 4.931158750147256 7.73311055153656 17.66428980835411 0 0 0
785 262 1 0.5897 5.930129193205989 6.277566563202466 19.07364726610207 0 0 0
662 221 1 0.5897 4.508163941326519 5.1020172828560995 15.876972322851524 0 0 0
814 272 2 -1.1794 8.605651737783731 7.648884077849173 18.432549335874786 0 0 0
858 286 1 0.5897 0.3901885674814006 7.350298910434252 18.495859694412847 1 0 0
786 262 1 0.5897 6.948100050653414 7.327011170829589 18.68093990061916 0 0 0
816 272 1 0.5897 8.712744604385064 8.410003428777436 19.003030387950858 0 0 0
825 275 1 0.5897 7.271582495850807 7.974856074976175 15.980738405631254 0 0 0
663 221 1 0.5897 4.543645569345493 6.60924428888405 15.739421262117737 0 0 0
815 272 1 0.5897 8.886902731673606 6.906572104502206 18.967424670560682 0 0 0
823 275 2 -1.1794 7.201241139552034 8.923465888338427 15.873825924612794 0 0 0
704 235 1 0.5897 6.511198979821588 5.950453013527277 15.599835536777523 0 0 0
145 49 2 -1.1794 9.132894968541512 9.493004554249083 20.472544545384675 0 0 -1
240 80 1 0.5897 2.56389036328955 14.13405207161221 4.408241448180395 0 0 0
129 43 1 0.5897 0.9817554694342747 13.527410391897176 2.353429596258009 0 0 0
120 40 1 0.5897 1.4423192506132012 11.440079086111755 3.386394329081978 0 0 0
118 40 2 -1.1794 1.640811473226193 10.802203534037702 4.071910240839031 0 0 0
119 40 1 0.5897 2.5936261827839315 10.714011007484606 4.049034178596148 0 0 0
127 43 2 -1.1794 0.8733640723298839 12.613807957164473 2.089209395260458 0 0 0
124 42 2 -1.1794 4.2779241248408 10.506969282093742 3.604449643759543 0 0 0
222 74 1 0.5897 4.374640718363839 13.810713890369954 2.5450621293749456 0 0 0
220 74 2 -1.1794 4.116902359474453 14.241004832742215 3.3603108407366555 0 0 0
123 41 1 0.5897 4.276102519918074 12.265069229190471 0.8974504273321977 0 0 0
783 261 1 0.5897 1.9961907758076642 12.216015083472085 0.7161452977033325 0 0 1
125 42 1 0.5897 4.859802048182387 10.741624923548821 4.327317921414623 0 0 0
122 41 1 0.5897 4.726797892996864 11.677119016741406 2.217679940879766 0 0 0
276 92 1 0.5897 9.054744964663783 14.020639931214134 4.616205704401047 0 0 0
275 92 1 0.5897 7.645245158333489 13.937368057068568 5.162193336298566 0 0 0
121 41 2 -1.1794 4.98913081872113 12.29499295702433 1.5353130833823434 0 0 0
819 273 1 0.5897 8.725555359863195 12.342893908916293 0.7415947426374077 0 0 1
246 82 1 0.5897 5.197528221881598 13.985326865816393 4.700301204678567 0 0 0
165 55 1 0.5897 7.79379262467608 12.009653497524678 2.7881863773614803 0 0 0
163 55 2 -1.1794 7.631334258476757 12.664750652006736 2.1094628942401803 0 0 0
154 52 2 -1.1794 8.119980172747098 10.728104974764804 4.003009216527443 0 0 0
285 95 1 0.5897 7.712723986089714 14.580814450480435 2.427354433193265 0 0 0
164 55 1 0.5897 6.711515027397664 12.543459368731833 1.8741318305726558 0 0 0
156 52 1 0.5897 9.069964864381845 10.809484522554794 3.918955083259218 0 0 0
238 80 2 -1.1794 1.8130515766518112 13.97286244946201 4.979587445836493 0 0 0
188 63 1 0.5897 0.26926308369696395 10.898228729981314 5.2381377611108 1 0 0
116 39 1 0.5897 6.75912719132456 10.969005118782635 5.148542945399059 0 0 0
133 45 2 -1.1794 2.5635294339729215 12.006411864394408 6.782564720649673 0 0 0
134 45 1 0.5897 1.9839494491224086 12.23282672003037 7.50989724116728 0 0 0
135 45 1 0.5897 3.4377517331436556 12.248424899538469 7.088070817998151 0 0 0
453 151 1 0.5897 1.17234703538018 12.05184814510053 9.608699134158357 0 0 0
451 151 2 -1.1794 1.0176894577157842 12.679663218138906 8.902903738053931 0 0 0
450 150 1 0.5897 4.2487281188459365 11.452655387681046 9.428504162839813 0 0 0
446 149 1 0.5897 4.5146773841527414 13.43795596493709 8.786116230795528 0 0 0
434 145 1 0.5897 2.70296731352418 10.211502738840135 6.960290806319559 0 0 0
239 80 1 0.5897 2.037745855601923 13.170411782415888 5.45055468168481 0 0 0
445 149 2 -1.1794 4.788369962774515 12.665448595422419 8.291597278259216 0 0 0
487 163 2 -1.1794 7.412002926112666 12.759721886010306 8.980670626950863 0 0 0
573 191 1 0.5897 0.9427661319870074 14.542643856830031 9.19379728819016 0 0 0
488 163 1 0.5897 8.123791698663563 12.71950387969204 8.3419870625605 0 0 0
245 82 1 0.5897 5.808774420540968 12.917153610964974 5.581912596296431 0 0 0
480 160 1 0.5897 7.664215585815059 11.373232444962891 10.07772256763626 0 0 0
447 149 1 0.5897 5.7316053724509715 12.605476583503012 8.442828157803175 0 0 0
117 39 1 0.5897 5.878433767407489 10.46244919487585 6.270851553360568 0 0 0
171 57 1 0.5897 9.219534827364848 11.191880358093652 6.9757682126754395 0 0 0
169 57 2 -1.1794 9.389516891231027 12.102524702235787 7.216732434038239 0 0 0
115 39 2 -1.1794 5.956403659581218 11.169124736043615 5.629949895850665 0 0 0
489 163 1 0.5897 7.361043766565024 13.683719088264025 9.22535482103542 0 0 0
170 57 1 0.5897 9.156597723272462 12.604870813549663 6.435959898235283 0 0 0
244 82 2 -1.1794 5.8272192967511005 13.858605485342599 5.409961383435251 0 0 0
544 182 2 -1.1794 4.107831293692098 14.361894107099575 10.237408279495924 0 0 0
274 92 2 -1.1794 8.56362760894949 13.878726525178623 5.42543503188138 0 0 0
448 150 2 -1.1794 4.018619295608932 10.800745579165126 10.09052682340203 0 0 0
457 153 2 -1.1794 2.5794575753734845 11.954006217116245 13.460547233559607 0 0 0
458 153 1 0.5897 1.949141654088522 12.11119010220642 14.16352476817709 0 0 0
459 153 1 0.5897 3.4245204776898444 12.200487580071993 13.836426764960734 0 0 0
562 188 2 -1.1794 1.9623036917581285 14.094009809016312 11.856836432704988 0 0 0
563 188 1 0.5897 2.1031504358708837 13.284161396693348 12.347280655578086 0 0 0
449 150 1 0.5897 4.543956905647 11.038722035011372 10.854448987501037 0 0 0
795 265 1 0.5897 9.217140464671854 10.18906591218997 13.703696965623601 0 0 0
600 200 1 0.5897 8.97539600584745 14.707131029924946 12.376308939110302 0 0 0
769 257 2 -1.1794 4.8478229974200095 12.453446168122312 14.901187325067923 0 0 0
444 148 1 0.5897 2.34587232819008 10.749183225436163 10.809553106639648 0 0 0
442 148 2 -1.1794 1.391256732479842 10.687075453113989 10.8410800359897 0 0 0
545 182 1 0.5897 3.340329505491429 14.138791477095703 10.764037431491854 0 0 0
546 182 1 0.5897 4.853775430851839 14.147358610099275 10.797512813198182 0 0 0
770 257 1 0.5897 5.7997534934523225 12.371182552685578 14.844518546134728 0 0 0
494 165 1 0.5897 8.678372920193318 12.179664442462027 14.185748911979404 0 0 0
440 147 1 0.5897 6.580661290964912 10.938380891321964 11.76597366754796 0 0 0
478 160 2 -1.1794 7.871555533678764 10.635694889735 10.65154125609498 0 0 0
599 200 1 0.5897 8.966402955846405 13.196061159572292 12.284097544046135 0 0 0
479 160 1 0.5897 8.824754610625204 10.657675219299774 10.735663769216629 0 0 0
439 147 2 -1.1794 5.743796574967 11.174732466622528 12.16593334428591 0 0 0
493 165 2 -1.1794 9.384835844489405 11.943990663090165 13.584465634096796 0 0 0
441 147 1 0.5897 5.61024745943813 10.517693983851348 12.8490747141318 0 0 0
569 190 1 0.5897 5.932946479894803 12.950638098219455 12.283653338626467 0 0 0
570 190 1 0.5897 6.8671157411854775 14.082072465666524 11.910810831972308 0 0 0
598 200 2 -1.1794 8.774850669689735 13.986388664355959 11.779203523031848 0 0 0
568 190 2 -1.1794 5.954467804054069 13.895296327407499 12.13070428731655 0 0 0
564 188 1 0.5897 2.2116927963539084 14.789552229995422 12.465315478501697 0 0 0
758 253 1 0.5897 2.592927527254046 10.196325693637906 13.595570132837329 0 0 0
888 296 1 0.5897 2.269840534451346 13.271950649278176 19.15242435675472 0 0 0
768 256 1 0.5897 1.4902062305934973 11.493558766098788 16.73952576348382 0 0 0
773 258 1 0.5897 3.5275673764809543 10.798487741983303 17.147924839792317 0 0 0
766 256 2 -1.1794 1.760321515304669 10.830488115836122 17.37481472959263 0 0 0
886 296 2 -1.1794 2.085861093007151 14.050905598872838 18.62744307849592 0 0 0
772 258 2 -1.1794 4.472531628227018 10.73650308234897 17.00877943611076 0 0 0
774 258 1 0.5897 4.629106039541524 11.227895656329318 16.202410471569987 0 0 0
767 256 1 0.5897 1.156456658036828 10.941582608427797 18.10910568972325 0 0 0
869 290 1 0.5897 3.370780572677071 14.184265621331605 17.28931774543913 0 0 0
868 290 2 -1.1794 4.197452319153874 14.277990176758017 16.81602994776903 0 0 0
924 308 1 0.5897 9.328253336934933 14.105577871108883 17.805732250220156 0 0 0
146 49 1 0.5897 9.129912610855936 10.437131354031411 20.314904397195686 0 0 -1
777 259 1 0.5897 1.044009273014605 13.445162431769623 15.692343469699086 0 0 0
870 290 1 0.5897 4.869466176446447 14.2369524059524 17.49639430025622 0 0 0
764 255 1 0.5897 5.446659563389919 11.026048795914914 18.44908700874378 0 0 0
810 270 1 0.5897 9.939890212175658 10.865841274970494 17.453061151963077 0 0 0
252 84 1 0.5897 5.552648400775417 14.831740739103559 20.388163400731095 0 0 -1
763 255 2 -1.1794 5.990061658013636 11.260705313621148 19.20130670323409 0 0 0
781 261 2 -1.1794 2.6881240714543333 12.045859724790247 20.470262178012423 0 0 0
782 261 1 0.5897 2.6968228476696128 11.093571082764091 20.373785074148024 0 0 0
803 268 1 0.5897 7.570717500447551 10.96305094974204 18.380867900381894 0 0 0
887 296 1 0.5897 2.2811080643949357 14.784711117918075 19.21021983366313 0 0 0
765 255 1 0.5897 5.767682557170558 10.612465174162773 19.869545894069823 0 0 0
893 298 1 0.5897 6.895611393310559 14.091916101429861 18.70142231442274 0 0 0
818 273 1 0.5897 9.040845848300393 12.805588168041108 19.728287049712257 0 0 0
892 298 2 -1.1794 5.973502656246384 13.939936394112998 18.908255672398557 0 0 0
802 268 2 -1.1794 8.153322661664998 10.773915308035079 17.64534910183771 0 0 0
922 308 2 -1.1794 8.698072718294403 14.075455768709586 18.52555895334183 0 0 0
894 298 1 0.5897 5.942312417838771 13.033285872671357 19.213620468279597 0 0 0
813 271 1 0.5897 7.761609431688183 11.924950996399494 16.271446139005945 0 0 0
804 268 1 0.5897 7.736667044315121 10.041467674559893 17.191330547892125 0 0 0
923 308 1 0.5897 8.945467849273337 14.806427546341027 19.09186052734978 0 0 0
771 257 1 0.5897 4.703257076313766 13.091428947628101 15.599966306652556 0 0 0
812 271 1 0.5897 7.601610305680966 13.331010737781185 15.733579006940404 0 0 0
965 322 1 0.5897 0.2950002663522484 14.101270098465811 18.778727346965326 1 0 0
811 271 2 -1.1794 7.546415908704277 12.410942339881402 15.475382810002987 0 0 0
817 273 2 -1.1794 9.292488575872088 12.157499543596185 20.386219334342336 0 0 0
775 259 2 -1.1794 0.8884787506069509 12.527306077013888 15.469669190035816 0 0 0
250 84 2 -1.1794 5.317734862422978 15.508646474109225 0.6296339678462568 0 0 0
228 76 1 0.5897 0.9913141634189196 17.521350573297482 4.466973177723073 0 0 0
221 74 1 0.5897 4.233648016392877 15.174947142554762 3.1860679808072967 0 0 0
226 76 2 -1.1794 1.7020715760427378 17.467824016662576 3.8281204516726026 0 0 0
247 83 2 -1.1794 1.1181051996152604 15.423376207575645 2.191200813234996 0 0 0
229 77 2 -1.1794 4.725220945369556 19.136704983564385 1.611980861980098 0 0 0
235 79 2 -1.1794 1.118018006956765 19.34168990238888 1.8844216005884409 0 0 0
890 297 1 0.5897 2.168230529999853 18.994167624226996 0.4838210657826241 0 0 1
230 77 1 0.5897 4.286963007997473 18.902545164021234 0.7938807779018187 0 0 0
233 78 1 0.5897 4.575034460287715 17.76920248366097 2.766732495034859 0 0 0
234 78 1 0.5897 3.4770497738897053 17.28104814168394 3.6875539083452926 0 0 0
249 83 1 0.5897 1.6936207425211345 15.630033812715487 1.454816412092815 0 0 0
248 83 1 0.5897 1.2916170704572207 16.112738719447336 2.832212224960877 0 0 0
227 76 1 0.5897 1.551747614064944 18.20739650376084 3.239348324484836 0 0 0
232 78 2 -1.1794 4.393194631212962 17.129677443902416 3.455325626549582 0 0 0
272 91 1 0.5897 7.660412473587384 18.869475963893493 2.58041511194749 0 0 0
263 88 1 0.5897 7.640426676164134 17.431910364795243 4.670684525628903 0 0 0
264 88 1 0.5897 9.044470300463468 17.454131075856573 4.105089265034648 0 0 0