LAMMPS data file via write_data, version 30 Jul 2021, timestep = 34250000

1296 atoms
2 atom types
864 bonds
1 bond types
432 angles
1 angle types

-10.62167060326756 12.60167060326756 xlo xhi
-9.205005037199328 12.195003037199328 ylo yhi
0.1754574739205772 21.68454152608078 zlo zhi
-9.100531230399117 1.904527749602099 2.984695607333654 xy xz yz

Masses

1 1.008
2 15.999

Pair Coeffs # lj/cut/tip4p/long/omp

1 0 0
2 0.21084 3.1668

Bond Coeffs # harmonic/omp

1 450 0.9572

Angle Coeffs # harmonic/omp

1 55 104.52

Atoms # full

280 94 2 -1.1794 -9.586426112637394 -4.579596235618629 1.5006596157879315 1 1 0
270 90 1 0.5897 -8.544119386414298 -7.423677585084642 2.1116692451680583 1 1 0
269 90 1 0.5897 -9.309602854665219 -6.165996066289429 2.464268687851918 1 1 0
268 90 2 -1.1794 -9.231726589644312 -7.09311009452558 2.689695757778258 1 1 0
314 105 1 0.5897 -9.076912615410581 -6.647299186933153 4.527660993714812 1 1 0
299 100 1 0.5897 -6.544850365124935 -7.88575011607281 4.037302595595225 1 1 0
163 55 2 -1.1794 -7.218595140654921 -7.975901870098289 0.9679059441766587 1 1 0
164 55 1 0.5897 -6.431577810961738 -8.354904308741839 1.35926905041615 1 1 0
298 100 2 -1.1794 -5.863692886964273 -7.219101928987984 4.126471301473133 1 1 0
73 25 2 -1.1794 -8.381315453913706 -3.7304862291245486 4.73778832931474 1 0 0
324 108 1 0.5897 -7.12502883599079 -4.420062325801022 3.551849237611629 1 1 0
27 9 1 0.5897 -3.966957080698516 1.868982817301653 5.318902022962791 0 0 0
282 94 1 0.5897 -10.454748290672985 -4.182870628655255 1.5701030668489993 1 1 0
84 28 1 0.5897 -8.106079794980381 -0.33981980412500334 3.9879768289686006 1 0 0
75 25 1 0.5897 -9.151478546186336 -3.3454032900518618 4.319735215651785 1 0 0
281 94 1 0.5897 -8.98176014175563 -3.837602272074318 1.515197086774461 1 1 0
301 101 2 -1.1794 -7.931271670790492 -2.234154918691699 1.6726772807352979 1 1 0
53 18 1 0.5897 -12.2864591656631 1.1671017338230403 2.268340492807094 1 0 0
165 55 1 0.5897 -7.49346277462822 -8.617309157266876 0.3126845349997194 1 1 0
25 9 2 -1.1794 -3.981985288353439 0.9125076088761102 5.355744077097957 0 0 0
322 108 2 -1.1794 -6.505315549255081 -4.827828102927057 2.9469681867843702 1 1 0
300 100 1 0.5897 -5.046252540724525 -7.687072731195638 3.9561903986380096 1 1 0
241 81 2 -1.1794 -0.9123951640515173 -6.2629224021694885 5.374756996891018 0 1 0
256 86 2 -1.1794 -12.103134693209277 -3.3157827102038127 1.7201055813164758 1 1 0
258 86 1 0.5897 -12.56763639821262 -2.7589967162782827 1.0952030473249366 1 1 0
243 81 1 0.5897 -0.7823180821250144 -5.31571528416406 5.326580371581424 0 1 0
90 30 1 0.5897 -3.7979420957651397 -0.13459979056658078 2.133131024760556 1 0 0
69 23 1 0.5897 -11.15365458832161 -2.470445184090762 3.1581789572034906 1 0 0
272 91 1 0.5897 -9.45848182807386 -1.1849451435671075 1.356188965321027 1 1 0
83 28 1 0.5897 -9.585666195430917 -0.6596236118937817 4.009019312093566 1 0 0
82 28 2 -1.1794 -8.967602621274752 0.0686249859435275 4.072494464084256 1 0 0
271 91 2 -1.1794 -10.280501714496577 -0.8544921098458484 0.9938607330895923 1 1 0
98 33 1 0.5897 -11.88245433355958 0.6247544131722815 4.372936436848348 1 0 0
54 18 1 0.5897 -11.437378094631505 -0.0777734005798365 2.1220932108598802 1 0 0
67 23 2 -1.1794 -10.60586149376499 -2.301975764462642 3.9248170779088656 1 0 0
68 23 1 0.5897 -11.200168309701457 -2.3945729582295803 4.669438513663784 1 0 0
52 18 2 -1.1794 -12.146634636002085 0.2976874017351694 2.6438013840763426 1 0 0
261 87 1 0.5897 -6.809391908954651 -5.030388385451822 1.087803960819802 1 1 0
323 108 1 0.5897 -6.311070224318723 -5.678868388973271 3.3398917178831704 1 1 0
313 105 2 -1.1794 -8.863160006001412 -6.356647905038898 5.414237998837985 1 1 0
3 1 1 0.5897 -1.382165092614363 -3.349579362740469 4.395204256765766 0 0 0
103 35 2 -1.1794 -2.782739055995423 -2.269101489088465 3.987802179303916 1 0 0
89 30 1 0.5897 -4.637689580924873 1.1212552937765974 2.231697188216777 1 0 0
97 33 2 -1.1794 -11.804157724354198 0.851181178750716 5.2996500043491 1 0 0
260 87 1 0.5897 -6.96530395566138 -6.310292944382121 0.29428717562848083 1 1 0
88 30 2 -1.1794 -4.483205295756016 0.27842644367537694 2.6585099171046105 1 0 0
302 101 1 0.5897 -7.551508259821803 -1.9430702791176566 2.501684840223117 1 1 0
107 36 1 0.5897 -9.389981556413257 1.6046308729860161 3.341241080515596 1 0 0
306 102 1 0.5897 -0.7930018471869484 -7.3374764293530825 2.1365743367008356 1 1 0
304 102 2 -1.1794 -1.4205857467797163 -6.927458649648049 2.7317422687655557 1 1 0
318 106 1 0.5897 -2.7001075126676986 -4.071104236134066 1.5942044582798343 1 1 0
242 81 1 0.5897 -1.0417837217936174 -6.5339193962899085 4.465905396524332 0 1 0
305 102 1 0.5897 -1.6211745474121546 -6.084257347179277 2.325335743218499 1 1 0
316 106 2 -1.1794 -1.8243526291224121 -4.43994315401742 1.4792934365146406 1 1 0
311 104 1 0.5897 -2.809267898873715 -8.037317289277523 3.3141293100464893 1 1 0
293 98 1 0.5897 -5.103026367643399 -3.8307850690594902 2.2939301549924083 1 1 0
303 101 1 0.5897 -7.266223746255548 -2.0238588605961843 1.0171281445254974 1 1 0
294 98 1 0.5897 -4.855966365137529 -2.9089903570747078 1.1185800550138878 1 1 0
275 92 1 0.5897 -10.598473599766525 -8.003281331360041 3.3337460109407084 1 1 0
96 32 1 0.5897 -5.944743868310053 -1.7587515667001838 4.319628286680431 1 0 0
95 32 1 0.5897 -5.8655483485344275 -0.6019448035869406 3.3460860793466254 1 0 0
105 35 1 0.5897 -3.240400984067194 -2.4386193996579975 3.1643924937386676 1 0 0
94 32 2 -1.1794 -6.489239053146777 -1.1351908812112903 3.8390318479409067 1 0 0
104 35 1 0.5897 -3.4600123449396154 -2.34847564511922 4.659542732096108 1 0 0
26 9 1 0.5897 -4.09515913877916 0.6390373444010997 4.445467017491989 0 0 0
292 98 2 -1.1794 -4.403210639805552 -3.393011407889655 1.8092294405368388 1 1 0
315 105 1 0.5897 -8.601808762920955 -5.441586770396298 5.310371449756811 1 1 0
310 104 2 -1.1794 -3.4905580254712216 -8.545687348962545 3.7542929605366084 1 1 0
99 33 1 0.5897 -11.591312145639554 1.7845253397678125 5.301506756925828 1 0 0
59 20 1 0.5897 -13.499280191665829 -0.872477109568198 3.356735199924346 1 0 0
44 15 1 0.5897 -9.893576155553783 0.9290007290066722 0.25351966798584014 1 0 0
199 67 2 -1.1794 0.3922155398395688 -8.082637949763804 0.8865798751683397 1 1 0
633 211 1 0.5897 -5.68972934295591 -5.979365622291127 5.458943181902748 1 1 0
259 87 2 -1.1794 -6.775475196066777 -5.37712375635013 0.1962734471660203 1 1 0
317 106 1 0.5897 -1.2321473085397017 -3.7023612401755015 1.6264005008022824 1 1 0
307 103 2 -1.1794 -2.561937143866345 -0.8010870613248411 0.9823561249364293 1 1 0
74 25 1 0.5897 -8.080792242767913 -3.0598998002921594 5.3511992856668265 1 0 0
273 91 1 0.5897 -10.467189740051138 -1.4338509300933948 0.25511844014358664 1 1 0
309 103 1 0.5897 -2.7808384630952734 -1.3950226905145913 0.26431988362226827 1 1 0
420 140 1 0.5897 -8.98968198387798 -6.30453996124374 9.94502067661307 1 0 0
618 206 1 0.5897 -7.615357198165213 -7.345137820493599 6.444036222237665 1 1 0
413 138 1 0.5897 -7.6256346856437 -3.61345477916588 7.640777614920495 1 0 0
419 140 1 0.5897 -8.805264326427162 -5.462613770213386 8.70031951135819 1 0 0
418 140 2 -1.1794 -9.47773590367339 -5.875468993911088 9.2422081968506 1 0 0
414 138 1 0.5897 -6.766188897676317 -4.841020638854216 7.425224683955349 1 0 0
350 117 1 0.5897 -7.22600754213847 -4.062649883325664 9.73159135559736 0 0 0
412 138 2 -1.1794 -7.455047057517228 -4.488779721527148 7.9887812345693545 1 0 0
429 143 1 0.5897 -6.160033870790732 -7.387102284324227 8.558806890573573 1 0 0
427 143 2 -1.1794 -5.697117179817558 -7.098489622289748 9.345329488568177 1 0 0
428 143 1 0.5897 -6.374270157295779 -7.0566314241600425 10.020553522195094 1 0 0
417 139 1 0.5897 -8.717873496906643 1.0537041776813432 5.6294612335745855 1 0 0
349 117 2 -1.1794 -7.1586494822413576 -3.8536208662499565 10.66323828360581 0 0 0
330 110 1 0.5897 -3.0415297628902476 -0.29330127836163555 6.564005715642512 0 0 0
435 145 1 0.5897 -7.461365089214919 -0.8809025917806004 9.846821427065338 0 0 0
425 142 1 0.5897 -7.297110898445332 -1.2089057082831483 6.800197369065658 1 0 0
400 134 2 -1.1794 -10.351623671419246 -0.8533768502871162 7.037915339761566 1 0 0
536 179 1 0.5897 -9.670752151602287 0.0038622891929289693 10.017194368165534 1 0 0
402 134 1 0.5897 -10.885200398210404 -0.3611511086220016 6.4140062769182045 1 0 0
526 176 2 -1.1794 -12.580964388585425 1.2813950421010745 9.139581328362393 1 0 0
405 135 1 0.5897 -5.094716461354883 -2.285707164479602 6.432840915558204 1 0 0
537 179 1 0.5897 -9.396627135473176 -0.10749451689268064 8.5325115432282 1 0 0
426 142 1 0.5897 -8.750819792219636 -1.631527485300122 6.808330103370112 1 0 0
401 134 1 0.5897 -10.986891248144898 -1.2784559500787847 7.614162540970655 1 0 0
527 176 1 0.5897 -11.871039771699262 1.7292742579790534 8.67943227586607 1 0 0
535 179 2 -1.1794 -8.979113248852746 0.11438162873632685 9.36476684883604 1 0 0
424 142 2 -1.1794 -7.860767274361655 -1.9809009444161658 6.852347827464912 1 0 0
528 176 1 0.5897 -12.137662365277935 0.708287298742734 9.765131261974776 1 0 0
404 135 1 0.5897 -5.143344159960991 -3.643731210094886 5.765318636160988 1 0 0
337 113 2 -1.1794 -6.193420640143778 0.26839399312501655 6.79577168286269 0 0 0
403 135 2 -1.1794 -4.991608253684275 -2.7160562386696547 5.584090213035948 1 0 0
631 211 2 -1.1794 -5.395628185623047 -5.441572337656817 6.1941507142719505 1 1 0
415 139 2 -1.1794 -8.467391742781697 1.6176784310225614 6.361193802683943 1 0 0
329 110 1 0.5897 -3.3138515038478547 -1.2731712630115757 7.685576987020993 0 0 0
454 152 2 -1.1794 -4.851943949742181 1.2692900095867952 9.184230818948105 0 0 0
335 112 1 0.5897 -4.7973787062321485 -5.391654335446048 9.384683576286731 0 0 0
433 145 2 -1.1794 -6.618576590203912 -1.1705185638970441 10.19613979216155 0 0 0
464 155 1 0.5897 -1.8805510064194628 0.13430294694062717 10.074406095764413 0 0 0
522 174 1 0.5897 -9.7692258462987 2.1312240606203297 7.533578724739418 1 0 0
555 185 1 0.5897 -2.447737422277754 -6.586731598205763 6.384167171448862 0 1 0
416 139 1 0.5897 -7.685843466027126 1.2033538038003648 6.726867966472784 1 0 0
347 116 1 0.5897 -1.1065086507924295 -5.570063327194884 8.728506147339019 0 0 0
348 116 1 0.5897 -1.3583027018051492 -6.617340291025797 9.792489548827511 0 0 0
336 112 1 0.5897 -3.322392898612333 -5.068203929935061 9.492836150759622 0 0 0
359 120 1 0.5897 -4.571228680060457 -3.048637478481475 8.573927546930776 0 0 0
346 116 2 -1.1794 -1.8088280133668135 -6.05340652103849 9.163772840140018 0 0 0
632 211 1 0.5897 -4.670773198103898 -5.935250915433777 6.577677613615277 1 1 0
546 182 1 0.5897 -0.03417057236203114 -7.23983057480894 6.651517654584045 0 1 0
553 185 2 -1.1794 -3.1097897844369546 -6.95104321645988 6.971755791178382 0 1 0
554 185 1 0.5897 -2.740849076804656 -6.839020188409878 7.847840503853293 0 1 0
334 112 2 -1.1794 -4.183632072557399 -4.657670480923748 9.415841275054616 0 0 0
442 148 2 -1.1794 -7.357876592255658 2.4977156936061675 9.468415683185974 0 0 0
338 113 1 0.5897 -5.769640235823849 0.42618808322377966 7.639397244826471 0 0 0
627 209 1 0.5897 -10.387757590098502 -6.759279637740425 6.362200281811497 1 1 0
456 152 1 0.5897 -4.494848887542184 0.7513479077859451 9.905686361371378 0 0 0
360 120 1 0.5897 -5.284684445836863 -1.7759810398295208 8.978138194601055 0 0 0
328 110 2 -1.1794 -2.607594802122641 -0.7871459597975186 7.259764383009847 0 0 0
339 113 1 0.5897 -5.5365947005252965 0.5199769496681661 6.146496535012114 0 0 0
455 152 1 0.5897 -4.087204645993038 1.6841254744927774 8.784987215477488 0 0 0
411 137 1 0.5897 -13.369660912759464 0.5663341116186036 6.258778822169723 1 0 0
444 148 1 0.5897 -6.475304293004758 2.127238833777554 9.471282204974692 0 0 0
358 120 2 -1.1794 -4.729377952985589 -2.147373897271713 8.292644302557035 0 0 0
443 148 1 0.5897 -7.937698307144328 1.7365720272589993 9.497781268840422 0 0 0
356 119 1 0.5897 1.2749590193203026 -7.11399696747203 10.211515301405187 0 0 0
616 206 2 -1.1794 -7.190064498189656 -7.860374369789133 7.129547925691076 1 1 0
544 182 2 -1.1794 0.36746512299755096 -7.792571893819592 7.321927091768198 0 1 0
520 174 2 -1.1794 -10.47382076348026 2.5421637318148775 8.034453000890796 1 0 0
351 117 1 0.5897 -6.984482224748948 -2.912568281003944 10.686076284141546 0 0 0
626 209 1 0.5897 -10.505902170005314 -6.544576721311499 7.856107382931137 1 1 0
410 137 1 0.5897 -13.559524275262286 0.6489590044918501 7.758430802365912 1 0 0
408 136 1 0.5897 -11.04574617765369 -5.023533383433712 9.345293087122341 1 0 0
669 223 1 0.5897 -4.065780216622213 -3.5579271005477437 10.85378183343681 0 0 0
652 218 2 -1.1794 -5.646542993307782 -5.288221990435294 12.581338406250207 0 0 0
780 260 1 0.5897 -7.52965063070651 -3.879318414605179 15.132063122772296 0 0 0
779 260 1 0.5897 -7.200477660044587 -2.9980417975804823 13.945818861584158 0 0 0
778 260 2 -1.1794 -7.936710875997034 -3.350048040379643 14.446170571530711 0 0 0
768 256 1 0.5897 -9.446221213215779 -2.4292958312157475 14.809945506187386 0 0 0
654 218 1 0.5897 -6.034702719743897 -4.862150320426473 11.817108712824632 0 0 0
653 218 1 0.5897 -6.389430575686809 -5.678916702190267 13.041529653525332 0 0 0
662 221 1 0.5897 -8.858030081687769 -4.039049779116034 13.035008928947693 0 0 0
661 221 2 -1.1794 -9.29990341972883 -4.2537607329031815 12.213520712349196 0 0 0
663 221 1 0.5897 -8.621711863017635 -4.15988528597203 11.544581159205064 0 0 0
684 228 1 0.5897 -8.428044088439238 -6.375552695432764 14.262548333369136 0 0 0
682 228 2 -1.1794 -7.696970773589341 -6.7437564461095185 13.766409074785987 0 0 0
807 269 1 0.5897 -3.894428155361771 2.9502298192945844 11.792334058058564 0 0 0
757 253 2 -1.1794 -9.700693637308417 -5.873645435578686 15.41004710914525 0 0 0
729 243 1 0.5897 -7.867499160674054 -7.049542743766903 12.059658596788966 1 0 0
689 230 1 0.5897 1.5169668867576256 -5.913263536041043 13.233803259036318 0 0 0
766 256 2 -1.1794 -10.349931033335142 -2.1387826111250527 14.932832421470845 0 0 0
727 243 2 -1.1794 -7.906963408693526 -7.362773604964568 11.156039554677228 1 0 0
764 255 1 0.5897 -3.62786569792155 -1.180555376233384 11.005126844124296 0 0 0
790 264 2 -1.1794 -10.832490154362521 0.30321310113644984 13.619969840664307 0 0 0
762 254 1 0.5897 -9.085753443808462 2.4421613760149246 11.97687368052443 0 0 0
761 254 1 0.5897 -9.35675140414257 1.413040815784834 13.053778164613313 0 0 0
924 308 1 0.5897 -2.6142572776565824 3.1192195957123214 15.281277523842478 0 0 0
792 264 1 0.5897 -11.482189765967735 0.6973605900937638 14.201981128031305 0 0 0
655 219 2 -1.1794 -0.3131835559593892 -7.517303083637156 11.015008776169262 0 0 0
760 254 2 -1.1794 -8.65457296728472 1.933903088298134 12.663913393714902 0 0 0
837 279 1 0.5897 -11.098860108762237 0.017480048070726895 11.860731550706207 1 0 0
791 264 1 0.5897 -10.730114687337064 -0.5912722978642897 13.945287494778682 0 0 0
769 257 2 -1.1794 -12.39490770303199 2.919364564837144 12.476501250390216 0 0 0
788 263 1 0.5897 -4.981807232244512 -4.758831291662542 15.553773551530819 0 0 0
866 289 1 0.5897 -12.438943538038334 1.7486923048905592 16.22895173251287 0 0 0
896 299 1 0.5897 -7.829846083880149 2.448522670742193 15.535315450491755 0 0 0
797 266 1 0.5897 -1.6830049104712028 1.2416556779462375 13.02975318201601 0 0 0
758 253 1 0.5897 -9.305399013450646 -5.36683414379282 16.119360303360043 0 0 0
767 256 1 0.5897 -10.868057432527255 -2.9427099639696364 14.892200976790187 0 0 0
897 299 1 0.5897 -7.681981107757686 2.5158225846125006 14.030170346459304 0 0 0
678 226 1 0.5897 -4.0720713434554145 -6.165194607628655 12.39735064257258 0 0 0
802 268 2 -1.1794 -2.6076374902278037 -2.2883389650315493 14.895831025151343 0 0 0
816 272 1 0.5897 0.34183458624452356 -4.048122989836482 15.084196151289177 0 0 0
771 257 1 0.5897 -11.733774550916849 3.0050223466609296 11.78962312106743 0 0 0
667 223 2 -1.1794 -3.827986180993122 -2.9109666199515303 11.517984066519453 0 0 0
789 263 1 0.5897 -4.737177752141045 -4.6930821249065575 14.061228045182894 0 0 0
676 226 2 -1.1794 -3.209437676783267 -6.566358256892935 12.291861099046917 0 0 0
814 272 2 -1.1794 -0.07153279545367397 -3.5318076814646533 14.392229295183634 0 0 0
785 262 1 0.5897 -5.679823940224588 1.1738440181872374 12.308827406133352 0 0 0
657 219 1 0.5897 -0.1807606127450736 -7.21078901138487 11.912061806742837 0 0 0
803 268 1 0.5897 -3.265269322061439 -2.981286374531231 14.956803703016677 0 0 0
795 265 1 0.5897 -2.67445156858901 -5.564930520234311 15.199271168891931 0 0 0
720 240 1 0.5897 -0.551859774987312 -6.536324322152108 14.339825049485416 0 0 0
804 268 1 0.5897 -1.7738679024660033 -2.753936406896522 14.830626851915971 0 0 0
698 233 1 0.5897 -1.1993864228393782 -4.1454222757866726 13.064219232674535 0 0 0
699 233 1 0.5897 -0.9759455006474411 -4.15306254459629 11.566934803789085 0 0 0
697 233 2 -1.1794 -1.632163847459985 -4.350131870873872 12.235367811090596 0 0 0
718 240 2 -1.1794 0.013937157346315843 -6.984653676850687 13.711271291816841 0 0 0
677 226 1 0.5897 -2.5933529935293596 -5.840739053086297 12.393287898996299 0 0 0
668 223 1 0.5897 -3.0024312020242405 -3.2319092040231636 11.880823741754561 0 0 0
793 265 2 -1.1794 -1.8042628458089158 -5.830968712148617 15.496219910109318 0 0 0
773 258 1 0.5897 -5.952134044762364 -1.097442970382346 13.01987648509006 0 0 0
774 258 1 0.5897 -5.165291509444006 -2.339043132923087 12.657469537303289 0 0 0
818 273 1 0.5897 -5.674354196834 -1.7226835904992726 15.26750646951998 0 0 0
787 263 2 -1.1794 -4.29298825447212 -4.612986780606956 14.905308372631438 0 0 0
901 301 2 -1.1794 -4.963704423967797 1.1621912063526914 15.532558199428923 0 0 0
772 258 2 -1.1794 -5.83902419323538 -2.0180286037868713 13.256825911936595 0 0 0
827 276 1 0.5897 -2.8451578635775086 -0.5864911882818795 14.13785593443787 0 0 0
765 255 1 0.5897 -3.381595214748007 -0.010316002261777868 11.933549504069621 0 0 0
784 262 2 -1.1794 -6.36740115097098 0.5080474575648903 12.291012976409894 0 0 0
828 276 1 0.5897 -3.7375987662584267 0.629127714370469 14.271479608739375 0 0 0
826 276 2 -1.1794 -3.022216200602614 0.2692972563513827 13.747126985113935 0 0 0
740 247 1 0.5897 -10.838586993897547 -3.3741608884380394 11.921862964024942 1 0 0
895 299 2 -1.1794 -7.1835402946571705 2.591303751888221 14.8438332362326 0 0 0
903 301 1 0.5897 -5.754731278470233 1.6017281981530793 15.220636080747665 0 0 0
786 262 1 0.5897 -7.17398631663387 0.9913010562196156 12.470158389731928 0 0 0
805 269 2 -1.1794 -4.562061318901175 2.6970613221922815 12.429862847872215 0 0 0
836 279 1 0.5897 -11.39087866541745 -1.2589526857160642 11.100728047652826 1 0 0
888 296 1 0.5897 -10.50099260849115 3.2024048244791103 15.325868717454735 0 0 0
806 269 1 0.5897 -4.143535090849414 2.828409023435441 13.280613759636484 0 0 0
770 257 1 0.5897 -11.917108116851857 3.0779821293882126 13.290588742250547 0 0 0
819 273 1 0.5897 -5.400789575285791 -0.49305016014017156 16.10730453246108 0 0 0
865 289 2 -1.1794 -12.721266534262789 1.1484891966215258 15.538797232268385 0 0 0
817 273 2 -1.1794 -5.548071212347144 -1.4367280837635539 16.17220424635851 0 0 0
794 265 1 0.5897 -1.5812354390071306 -5.200436704486837 16.181022662441677 0 0 0
835 279 2 -1.1794 -11.204626548329628 -0.32845085996353873 10.97453150119766 1 0 0
902 301 1 0.5897 -4.595748920947255 1.762246611785642 16.18125773397589 0 0 0
434 145 1 0.5897 -6.470110371880105 -0.6115704209878636 10.958883041366926 0 0 0
763 255 2 -1.1794 -3.5019615029499596 -0.23157667981952912 11.010103462641764 0 0 0
1150 384 2 -1.1794 -6.139818609207257 -4.353341557732637 19.096278539185146 0 0 0
1152 384 1 0.5897 -6.816920619863316 -3.9491882822085227 19.638857675128765 0 0 0
1227 409 1 0.5897 -9.037466951838587 -3.0263436250832028 20.59583742721174 0 0 0
1109 370 1 0.5897 -8.739482885784719 -3.4755236821618274 17.744867012114394 0 0 0
1089 363 1 0.5897 -6.556910020517467 -4.530063577102288 17.218640439076633 0 0 0
1151 384 1 0.5897 -6.007245773715565 -5.218922573656398 19.483059320154748 0 0 0
1108 370 2 -1.1794 -9.325745895433538 -4.222480453603404 17.623507243312037 0 0 0
1225 409 2 -1.1794 -8.185065232778843 -3.3630100822035267 20.871996631549088 0 0 0
1232 411 1 0.5897 -1.7579654067909143 1.183297584196982 16.6836447605773 0 0 0
1226 409 1 0.5897 -7.889274236081395 -2.746700203815263 21.54202640406139 0 0 0
1047 349 1 0.5897 -4.159388010201541 4.190233761490953 20.47129831308671 0 -1 0
1287 429 1 0.5897 -3.618207080954047 1.9759162897976505 21.323718217989423 0 0 0
1130 377 1 0.5897 -7.337498062919041 -1.7639989039602568 18.61294091684227 0 0 0
1248 416 1 0.5897 -5.789804931146998 -1.443703486068145 20.480225219614045 0 0 0
1186 396 2 -1.1794 1.631436222416184 -4.224256319256214 19.137335201464534 0 0 0
1129 377 2 -1.1794 -7.735417881494862 -1.9400755793160016 17.76038526275879 0 0 0
1088 363 1 0.5897 -6.681301165538141 -5.792514378421726 16.392290866159993 0 0 0
1131 377 1 0.5897 -7.0690684200936635 -1.6768611293515816 17.12558937730754 0 0 0
1233 411 1 0.5897 -1.6919065515648022 2.496759139646496 17.43371534477802 0 0 0
1246 416 2 -1.1794 -6.238247987979136 -0.9550203761493741 19.790048191318522 0 0 0
1217 406 1 0.5897 -11.62722080884129 3.6889782344304223 17.66940602664064 0 0 0
1087 363 2 -1.1794 -6.551644150993507 -4.847138564777309 16.3155151507733 0 0 0
1196 399 1 0.5897 -9.45937226942694 1.2687589870188312 16.66677256231254 0 0 0
1121 374 1 0.5897 -4.814434346656007 -3.4536984614732553 18.407367863965877 0 0 0
1219 407 2 -1.1794 -10.38209297579039 -1.8969768234946196 20.209644390199436 0 0 0
1099 367 2 -1.1794 -9.969552438137534 -0.4916328279437874 17.13390062545409 0 0 0
1236 412 1 0.5897 -7.777595244014324 -0.04713830110528505 20.2307621449169 0 0 0
1009 337 2 -1.1794 -10.99877565873788 3.8987274052964977 20.78558504949243 0 -1 0
1100 367 1 0.5897 -9.174508390590164 -0.9284223670869647 17.439400791570854 0 0 0
1234 412 2 -1.1794 -8.61691075851818 0.3909181727872131 20.37167865817186 0 0 0
1259 420 1 0.5897 -8.88021264532967 2.06851051346033 19.61243390992329 0 0 0
1258 420 2 -1.1794 -8.949747572306507 2.932454388785832 19.206009649141034 0 0 0
1260 420 1 0.5897 -9.683174753878692 3.351245894883462 19.656451941708724 0 0 0
1216 406 2 -1.1794 -12.207843422024242 2.9368824024741897 17.55274886502973 0 0 0
1197 399 1 0.5897 -9.244372971626472 2.56797823402092 17.413739760758574 0 0 0
1206 402 1 0.5897 -11.312775029866874 0.024935625506898873 18.365794894251557 0 0 0
1235 412 1 0.5897 -9.260259934198345 -0.3179356407255387 20.373137523334517 0 0 0
1251 417 1 0.5897 -11.341491656611261 2.16488142290023 21.35289282125729 0 0 0
1272 424 1 0.5897 -0.1177349275625037 -0.0195778149246415 20.398982689197453 0 0 0
1187 396 1 0.5897 1.666426739249685 -5.1114367921763115 19.495259984696006 0 0 0
1229 410 1 0.5897 -7.673990226560433 3.9580953569883413 18.410589708160426 0 0 0
1231 411 2 -1.1794 -1.7031723279595354 2.129620967898532 16.549811397449286 0 0 0
1110 370 1 0.5897 -10.205201753564937 -3.8495798062656608 17.684318321386126 0 0 0
1141 381 2 -1.1794 -8.72143142660179 -5.926044398518357 21.58522957019649 0 0 0
1045 349 2 -1.1794 -3.3845824336470507 3.7831528421308924 20.858819720485375 0 -1 0
1218 406 1 0.5897 -13.09000103331012 3.3016318178949096 17.62308550670609 0 0 0
1165 389 2 -1.1794 0.16264933956889216 -1.7389339816196951 17.763565363195642 0 0 0
1205 402 1 0.5897 -11.99989566873637 1.3723682371334007 18.432393247851422 0 0 0
1250 417 1 0.5897 -11.77965345527741 0.9152243045243349 20.61907617143787 0 0 0
1252 418 2 -1.1794 -4.524778298325395 3.0364885805981885 17.687632455696043 0 0 0
1240 414 2 -1.1794 -4.220627650087748 0.4802692092210883 18.68075926089859 0 0 0
1046 349 1 0.5897 -3.1128933379805 4.390881132795483 21.54665504080439 0 -1 0
1295 432 1 0.5897 -1.1714536741672674 2.03883589216586 19.637267358385582 0 0 0
1247 416 1 0.5897 -5.535417928642493 -0.5141215052657344 19.31260644121814 0 0 0
1177 393 2 -1.1794 -0.8039058397164709 -6.018749634741184 21.61430514193672 0 0 0
1145 382 1 0.5897 -0.9448329225480823 -3.2251440730103162 17.68508168172482 0 0 0
1122 374 1 0.5897 -4.616980839723075 -2.3804455531001008 17.357889412751344 0 0 0
1242 414 1 0.5897 -3.472965173669536 0.08869819165429504 18.229241297630374 0 0 0
1270 424 2 -1.1794 -0.9527043979246006 0.44798987672956336 20.419340037948732 0 0 0
1271 424 1 0.5897 -1.614188408032966 -0.2382568868144812 20.33070024925768 0 0 0
1144 382 2 -1.1794 -1.4823145722540971 -4.011090638009346 17.58610738882909 0 0 0
1263 421 1 0.5897 -1.2468819068525896 -3.0244898719177034 20.614521059032302 0 0 0
1133 378 1 0.5897 -1.3660442189137214 -5.591938804798172 18.476775912439194 0 0 0
1188 396 1 0.5897 0.955241878177727 -3.784167731729762 19.65239488047223 0 0 0
1257 419 1 0.5897 -3.0624390618144943 -2.2076322618812014 19.397039401879354 0 0 0
1255 419 2 -1.1794 -2.638613802727991 -1.94241502072658 20.21327159388341 0 0 0
1261 421 2 -1.1794 -0.44117907630720765 -3.374506267236513 20.994695951220365 0 0 0
1256 419 1 0.5897 -3.31949213397215 -2.0379122450404985 20.879247595171147 0 0 0
1120 374 2 -1.1794 -4.135523510622683 -2.991480109030894 17.915671435208296 0 0 0
1146 382 1 0.5897 -2.3827074945479314 -3.6988370836996367 17.675444376897033 0 0 0
1262 421 1 0.5897 -0.1681449095407288 -2.7123798066862363 21.629765362364058 0 0 0
1011 337 1 0.5897 -11.864871089312366 4.189522241422797 20.500085822318262 0 -1 0
1296 432 1 0.5897 -2.0829181380628032 3.2424662939802698 19.749222617972407 0 0 0
1254 418 1 0.5897 -5.430417885017343 3.3459640328576583 17.702883205245254 0 0 0
1135 379 2 -1.1794 -2.1802788710611942 -0.5404992825801287 17.0838205688909 0 0 0
1286 429 1 0.5897 -4.003219568266735 0.7987482502970007 20.453013915189516 0 0 0
1136 379 1 0.5897 -1.361007515409737 -0.9539291907135983 17.355983919528857 0 0 0
1253 418 1 0.5897 -3.998923320392228 3.8352641655905 17.644707043406303 0 0 0
1241 414 1 0.5897 -4.289059250670156 1.3611602290748905 18.31229676698374 0 0 0
1285 429 2 -1.1794 -3.9012231531910544 1.0624471755086695 21.367484050622583 0 0 0
1097 366 1 0.5897 -9.13114300127428 -5.718315709190605 18.51786573229491 0 0 0
1125 375 1 0.5897 1.3942254684282034 -4.476705581305984 17.234645377626197 0 0 0
1294 432 2 -1.1794 -1.3856748076239604 2.8685174900934456 19.21050993246148 0 0 0
1204 402 2 -1.1794 -11.989695660582488 0.506731784324657 18.84104072339172 0 0 0
1143 381 1 0.5897 -8.62293789874502 -4.982140767384924 21.459575100094305 0 0 0
1124 375 1 0.5897 1.172856724296114 -5.848126117413186 16.632627401102923 0 0 0
1178 393 1 0.5897 -0.9773125904603859 -6.308181048010988 20.718559808682915 0 0 0
1179 393 1 0.5897 -0.6577367453380525 -5.075762667757569 21.537796255690882 0 0 0
1195 399 2 -1.1794 -9.345608386753632 2.2096740317398957 16.531938064311408 0 0 0
1132 378 2 -1.1794 -1.3550351754992178 -6.497619717559308 18.786692463394047 0 0 0
1249 417 2 -1.1794 -11.63950404872315 1.2668276556450806 21.498237848035675 0 0 0
201 67 1 0.5897 2.1880919616118035 -5.723733987215294 21.679538679250765 1 1 -1
1137 379 1 0.5897 -2.465792645740809 -1.049996706428594 16.3254449902871 0 0 0
1101 367 1 0.5897 -10.24057868080974 -0.9957599017235701 16.3666752674469 0 0 0
1123 375 2 -1.1794 1.2846663114063652 -4.926998136720474 16.397118657979046 0 0 0
40 14 2 -1.1794 -15.075699569509847 3.8024835584065713 1.9519792913379093 1 0 0
177 59 1 0.5897 -14.112959783457052 4.543364763764913 3.387573362011011 1 0 0
56 19 1 0.5897 -12.3846107255093 5.882976683421479 1.2484487582698585 1 0 0
66 22 1 0.5897 -13.389940588947624 3.1248956863124047 1.4880397987680565 1 0 0
65 22 1 0.5897 -11.908251179737192 3.4194353808094746 1.5867059661923761 1 0 0
64 22 2 -1.1794 -12.530134438654486 2.707550683169389 1.4355438021846731 1 0 0
191 64 1 0.5897 -12.52337123537331 6.233193906159011 4.3873745884351045 1 0 0
183 61 1 0.5897 -12.300078036923543 3.8001361543232974 4.548992994070723 1 0 0
175 59 2 -1.1794 -13.718409087758426 4.859819502344649 4.200218714990431 1 0 0
176 59 1 0.5897 -14.40834476040585 4.761010431138574 4.856313055961416 1 0 0
181 61 2 -1.1794 -11.430021347755067 3.5570110744191545 4.865341482042021 1 0 0
55 19 2 -1.1794 -13.229041670496322 6.222276542299399 0.9517837122165466 1 0 0
42 14 1 0.5897 -15.505706247519441 4.439341531082494 1.3811844672663975 1 0 0
108 36 1 0.5897 -10.174268962595416 2.881998530300935 3.5540850676605746 1 0 0
215 72 1 0.5897 -12.369645630668446 8.597666174661946 3.3824335115424033 1 0 0
190 64 2 -1.1794 -11.994125849306698 7.028832461913897 4.3301686916156985 1 0 0
152 51 1 0.5897 -13.0106461985544 7.927353745407316 0.5018350618320091 1 0 0
153 51 1 0.5897 -12.856822444483061 9.223430809357687 1.2690835937986429 1 0 0
216 72 1 0.5897 -13.23256722580117 9.797299648958795 3.7114608906407165 1 0 0
162 54 1 0.5897 -14.406220324189878 6.853608483015272 2.1915732285934153 1 0 0
194 65 1 0.5897 -13.70000384437317 11.878569272078327 2.4953875681368594 1 0 0
148 50 2 -1.1794 -18.15645743093195 10.898865753944513 1.8708407344261908 1 0 0
174 58 1 0.5897 -16.586960614315768 9.971629361408532 1.6267822020886613 1 0 0
214 72 2 -1.1794 -12.574032056084228 9.486120475809901 3.0904165426268184 1 0 0
207 69 1 0.5897 -14.87805672728296 8.704994953877762 5.379844093869916 1 0 0
206 69 1 0.5897 -14.898915280413515 7.466208080814344 4.509752768656135 1 0 0
160 54 2 -1.1794 -15.137368753769584 7.212408726721765 2.6944417490394588 1 0 0
173 58 1 0.5897 -15.113054577723577 10.31712670656719 1.6382586890239783 1 0 0
85 29 2 -1.1794 -10.894420878448164 5.062680658690235 1.7609937733886512 1 0 0
219 73 1 0.5897 -7.555242198810129 10.848809547345038 4.496087326098035 0 0 0
291 97 1 0.5897 -15.339261408371858 10.96119395872164 4.578407937647538 1 0 0
161 54 1 0.5897 -15.30399575731959 8.067929275148291 2.2985672142462423 1 0 0
172 58 2 -1.1794 -15.71656009180931 9.576716424893714 1.5753853881605833 1 0 0
289 97 2 -1.1794 -14.547768026602373 10.495753572319558 4.848814712896831 1 0 0
283 95 2 -1.1794 -16.64028148013789 12.02090993721244 3.9824739152563633 1 0 0
285 95 1 0.5897 -17.109417312128347 11.707614447736187 3.2091943558691427 1 0 0