LAMMPS data file via write_data, version 27 Oct 2021, timestep = 391000

1920 atoms
2 atom types
1280 bonds
1 bond types
640 angles
1 angle types

-0.1119676988373115 24.84196869883965 xlo xhi
-0.05570482764814777 24.785705827648904 ylo yhi
-0.051168361241707316 22.861168361242825 zlo zhi
-0.023211128563524853 0.09067654899687057 -0.018970376519956613 xy xz yz

Masses

1 1.008
2 15.999

Pair Coeffs # lj/cut/tip4p/long/omp

1 0 0
2 0.21084 3.1668

Bond Coeffs # harmonic/omp

1 450 0.9572

Angle Coeffs # harmonic/omp

1 55 104.52

Atoms # full

1 1 2 -1.1794 4.605203323904417 1.3104645672512982 3.929942705836205 0 0 0
2 1 1 0.5897 5.267123031869309 1.1686713935085924 3.253152943956992 0 0 0
3 1 1 0.5897 4.591008100186125 0.49244737957429296 4.426763885149926 0 0 0
4 2 2 -1.1794 2.75683817854451 1.545603072579316 1.835888152391075 0 0 0
5 2 1 0.5897 3.2740562189283016 1.3745595087927178 2.6229781441730897 0 0 0
6 2 1 0.5897 3.248540062732124 2.220223250179767 1.3675983843137995 0 0 0
7 3 2 -1.1794 5.781076757533774 4.414064683535947 3.4112092371406892 0 0 0
8 3 1 0.5897 6.300966041049701 4.457781588862199 2.60871038908882 0 0 0
9 3 1 0.5897 6.087139301525115 5.153753559527055 3.9360607471644418 0 0 0
10 4 2 -1.1794 2.9443821601762044 4.472178033298912 3.4978854038098333 0 0 0
11 4 1 0.5897 2.5413971098862476 3.748245027689155 3.977130070184555 0 0 0
12 4 1 0.5897 3.875281070911356 4.251155662702286 3.4673830694133474 0 0 0
13 5 2 -1.1794 1.0145467352656352 2.80192433823038 4.678221729081047 0 0 0
14 5 1 0.5897 1.1082844441985367 1.8545721317581132 4.778005433485428 0 0 0
15 5 1 0.5897 1.201202349229684 3.1545516246643728 5.548335430661015 0 0 0
16 6 2 -1.1794 -0.03415151055688219 1.4463932008255203 2.084536398895761 0 0 0
17 6 1 0.5897 0.8765817208827884 1.7261665452647186 1.991758632218843 0 0 0
18 6 1 0.5897 24.78644347933993 0.8226137515218419 1.370801715692157 -1 0 0
19 7 2 -1.1794 4.736821480940339 3.2152737125443487 0.7770791339179012 0 0 0
20 7 1 0.5897 4.757047734730494 2.7319564944822967 -0.048921390538988835 0 0 0
21 7 1 0.5897 4.708356317328293 4.135715466811051 0.5159562008701194 0 0 0
22 8 2 -1.1794 1.204530116464752 4.469719268932163 1.32145145275857 0 0 0
23 8 1 0.5897 1.4590717895674195 5.202668968062992 0.7609608857302245 0 0 0
24 8 1 0.5897 2.0239588681310927 4.176518374862142 1.720020003871544 0 0 0
25 9 2 -1.1794 4.514725395228704 6.038036100175307 0.5162294318042985 0 0 0
26 9 1 0.5897 4.830619922878708 6.637100107904889 22.733250437442035 0 0 -1
27 9 1 0.5897 3.8015238546938677 6.462693615890186 0.9930217268038177 0 0 0
28 10 2 -1.1794 1.379742189001706 0.06320547603514702 4.978741365916108 0 0 0
29 10 1 0.5897 0.7745731258580106 24.380106832152418 4.428729667196586 0 -1 0
30 10 1 0.5897 1.4062149813229758 24.422197074308748 5.803968850532227 0 -1 0
31 11 2 -1.1794 10.924609263052432 1.6213835829277483 4.170174697522039 0 0 0
32 11 1 0.5897 11.684603001699987 1.8792236613914042 3.648468036399106 0 0 0
33 11 1 0.5897 10.794687979939475 2.347534554755171 4.780190759133735 0 0 0
34 12 2 -1.1794 9.122603373608891 1.23800960064326 1.9470711871572648 0 0 0
35 12 1 0.5897 9.579474332533987 1.248179021464373 2.7881805147346768 0 0 0
36 12 1 0.5897 9.699488445069466 1.7203542311775197 1.3548387427772688 0 0 0
37 13 2 -1.1794 11.975421408666216 4.619919742838569 3.837913980703329 0 0 0
38 13 1 0.5897 12.09995789374371 3.861830261356581 4.408869631400466 0 0 0
39 13 1 0.5897 12.395147536102531 5.342954862578512 4.304100094203615 0 0 0
40 14 2 -1.1794 9.136648631701698 4.4631564486604365 3.663108822799164 0 0 0
41 14 1 0.5897 10.090561343643643 4.51536123846262 3.602522668799405 0 0 0
42 14 1 0.5897 8.974968070052887 3.8547879634378295 4.3841595226017995 0 0 0
43 15 2 -1.1794 7.583435725506284 2.9782693584187143 5.39525523303156 0 0 0
44 15 1 0.5897 7.5620024815567595 2.0242556801134746 5.470237284193694 0 0 0
45 15 1 0.5897 6.871436873297257 3.1875277607876646 4.790602277752933 0 0 0
46 16 2 -1.1794 6.311202437335519 1.3104007795319081 1.9001127777180529 0 0 0
47 16 1 0.5897 7.263041977330179 1.4043404129080552 1.8612172812677754 0 0 0
48 16 1 0.5897 5.974107696301909 2.126443193035713 1.5304005253070192 0 0 0
49 17 2 -1.1794 10.6244249669414 3.1208244374921277 0.445384977343579 0 0 0
50 17 1 0.5897 10.661004138790881 4.073722873910783 0.5283430751479953 0 0 0
51 17 1 0.5897 11.339750855818147 2.8042639444620687 0.9971370969543931 0 0 0
52 18 2 -1.1794 7.330848664415472 4.963523463102143 1.205821118674831 0 0 0
53 18 1 0.5897 8.063026894739068 4.871525568260175 1.815567959793621 0 0 0
54 18 1 0.5897 7.38352354186276 4.1869469352366275 0.6486441838749873 0 0 0
55 19 2 -1.1794 10.447285468039768 5.827288068042544 0.9147772550452903 0 0 0
56 19 1 0.5897 9.787450613815713 6.415328455803725 1.2824339819079427 0 0 0
57 19 1 0.5897 11.264800534095025 6.088926157472524 1.3385139219929727 0 0 0
58 20 2 -1.1794 7.606286824722973 0.17173194202145248 5.009898059901396 0 0 0
59 20 1 0.5897 8.452858069769261 24.629699737498413 4.896663603374663 0 -1 0
60 20 1 0.5897 7.018156472142977 24.502123729760765 4.430256151969986 0 -1 0
61 21 2 -1.1794 17.079325292583864 1.3172774530468074 4.0896233706708305 0 0 0
62 21 1 0.5897 17.86708547067215 1.4712137336199527 3.568080048685043 0 0 0
63 21 1 0.5897 17.373511175421644 0.7592697385680509 4.809562613516547 0 0 0
64 22 2 -1.1794 15.221646437759633 1.7934625940193594 1.93803170854192 0 0 0
65 22 1 0.5897 15.776839115573479 1.8215572929032968 2.717318426692898 0 0 0
66 22 1 0.5897 15.670683655486593 1.190907906757279 1.3450790344265693 0 0 0
67 23 2 -1.1794 18.111800225778158 4.9338140960233074 3.524236108912329 0 0 0
68 23 1 0.5897 18.663542557184286 4.377824244307771 4.074457739393541 0 0 0
69 23 1 0.5897 17.23805309636149 4.549110598671321 3.5939702665291717 0 0 0
70 24 2 -1.1794 15.4689591097705 4.186929613611083 3.5414611888491248 0 0 0
71 24 1 0.5897 14.982433639200437 4.846610665359612 4.0358653311514 0 0 0
72 24 1 0.5897 14.992723959225444 4.106918223822245 2.714964098684355 0 0 0
73 25 2 -1.1794 13.583028436832873 2.782940708847354 5.2579621886824395 0 0 0
74 25 1 0.5897 13.857963708418675 3.2499644900888116 6.0469951572784 0 0 0
75 25 1 0.5897 14.208513381728766 3.0564364932084636 4.587000974455992 0 0 0
76 26 2 -1.1794 12.602114088959372 1.7358617388327622 1.9107797057724558 0 0 0
77 26 1 0.5897 13.545220881976855 1.8070025248321708 1.7630383562793202 0 0 0
78 26 1 0.5897 12.347215468389832 0.9348691045883888 1.4528294435260645 0 0 0
79 27 2 -1.1794 17.060155203579193 3.1045814247113004 0.5351824328179504 0 0 0
80 27 1 0.5897 16.41106138872802 2.726224884195746 1.1282523428897104 0 0 0
81 27 1 0.5897 17.124666788779493 2.523664898016755 22.673034358637373 0 0 -1
82 28 2 -1.1794 13.528185009938293 4.426476337849788 1.3744861991272679 0 0 0
83 28 1 0.5897 13.02236792669433 4.341863856523128 2.1827034645905417 0 0 0
84 28 1 0.5897 13.752710583369039 5.355794525517024 1.3281296397142157 0 0 0
85 29 2 -1.1794 17.288869804751076 5.966149028756847 0.5431213000521679 0 0 0
86 29 1 0.5897 16.483571372808427 6.07431197155136 1.0491791448294912 0 0 0
87 29 1 0.5897 17.4191139345523 5.018883383457081 0.49873186289082583 0 0 0
88 30 2 -1.1794 13.500280863900336 0.045645854446919217 4.920796076301639 0 0 0
89 30 1 0.5897 13.506611622153466 1.0023595850898848 4.950669039740879 0 0 0
90 30 1 0.5897 14.192581778992308 24.660695213456144 4.326561680183624 0 -1 0
91 31 2 -1.1794 23.158265213108425 1.6873599600453895 4.490325996441358 0 0 0
92 31 1 0.5897 23.986384737839803 1.6114187418818253 4.016235533999235 0 0 0
93 31 1 0.5897 23.122546969298185 0.9031371028333761 5.037953645862478 0 0 0
94 32 2 -1.1794 21.67662102485931 1.3102653888112799 2.126334101641527 0 0 0
95 32 1 0.5897 22.31864215289734 1.235052909322237 2.832366049111218 0 0 0
96 32 1 0.5897 21.925055434492702 2.108453495390387 1.6601297597635432 0 0 0
97 33 2 -1.1794 24.463669952543448 4.642635665636413 3.5188340388097825 0 0 0
98 33 1 0.5897 0.041804662836937796 4.653816519538744 2.72320810156134 1 0 0
99 33 1 0.5897 24.825167511531262 3.92509533562909 4.039126923933324 0 0 0
100 34 2 -1.1794 21.769791875846572 4.549398149625037 3.6208940439374255 0 0 0
101 34 1 0.5897 21.47200304733699 5.3363014824330435 4.07737547426517 0 0 0
102 34 1 0.5897 22.722369328545376 4.637630387574239 3.586879143039804 0 0 0
103 35 2 -1.1794 19.913385189012068 2.85060132523033 5.08144270321695 0 0 0
104 35 1 0.5897 19.94536430127321 1.899340505399997 4.979874712348979 0 0 0
105 35 1 0.5897 20.609428924379618 3.176349947591204 4.510797037790808 0 0 0
106 36 2 -1.1794 18.940131390840737 1.528160618093012 2.131418683006968 0 0 0
107 36 1 0.5897 19.8961363126775 1.5692822023237258 2.158321491622043 0 0 0
108 36 1 0.5897 18.685613133516092 2.24055741084202 1.5449672384318067 0 0 0
109 37 2 -1.1794 22.836801740236837 3.213110894528425 0.7459711335041266 0 0 0
110 37 1 0.5897 23.687818553037715 2.931144049396318 1.081582637632668 0 0 0
111 37 1 0.5897 22.80796098705083 4.153119462892801 0.9243271610663552 0 0 0
112 38 2 -1.1794 20.000482813331992 4.607009878330089 1.5370467850486487 0 0 0
113 38 1 0.5897 19.33408695149795 4.811268672594397 2.193165671074393 0 0 0
114 38 1 0.5897 20.831299009950303 4.806901307030894 1.9684614045490867 0 0 0
115 39 2 -1.1794 23.164482715528305 6.009407856159092 0.999970777474519 0 0 0
116 39 1 0.5897 22.602065711378124 6.554814205282318 1.5499958082744882 0 0 0
117 39 1 0.5897 23.058163391699264 6.3674218126582325 0.11864668254686925 0 0 0
118 40 2 -1.1794 19.973952468410797 0.030235582614264206 4.7890548185675055 0 0 0
119 40 1 0.5897 20.03431321979076 24.497472728619496 5.666097797644459 0 -1 0
120 40 1 0.5897 20.736359753315455 24.578559690077128 4.3272756851582415 0 -1 0
121 41 2 -1.1794 4.464169857564401 7.7297454885313135 4.447463882605952 0 0 0
122 41 1 0.5897 3.8626199477476577 7.697841605517577 3.703532611695741 0 0 0
123 41 1 0.5897 4.420229647343615 8.63584745862141 4.7529444192493235 0 0 0
124 42 2 -1.1794 3.0871511598982653 7.7779479957623305 2.038937273051337 0 0 0
125 42 1 0.5897 3.4224097572261236 8.561498552147642 1.6032510571939076 0 0 0
126 42 1 0.5897 2.164335654099033 7.971514848409413 2.204183897046551 0 0 0
127 43 2 -1.1794 5.907556065338505 10.99687167713768 3.4832023500296057 0 0 0
128 43 1 0.5897 6.3295331827170935 10.285981679515858 3.965731425879145 0 0 0
129 43 1 0.5897 6.428787222943613 11.087870002416707 2.685540155543977 0 0 0
130 44 2 -1.1794 2.9839850992888444 10.634883630388739 3.527052506143558 0 0 0
131 44 1 0.5897 3.939187528436837 10.693095113833738 3.5501993794999547 0 0 0
132 44 1 0.5897 2.6880162638968392 11.295604020711197 4.153275369235472 0 0 0
133 45 2 -1.1794 1.3199801519158951 8.877435282119528 4.857819841530464 0 0 0
134 45 1 0.5897 1.3908067808704887 7.927066205446875 4.768177335493556 0 0 0
135 45 1 0.5897 2.044077560571922 9.222323523832056 4.335354193702296 0 0 0
136 46 2 -1.1794 0.3174981846705176 7.702770487337203 2.1575083702043725 0 0 0
137 46 1 0.5897 24.76402942874557 7.677322576288026 2.968760960086289 -1 0 0
138 46 1 0.5897 -0.05898566459066092 7.008190468311797 1.6170380388466283 0 0 0
139 47 2 -1.1794 4.680620286420882 9.838940016916466 0.5697810180222698 0 0 0
140 47 1 0.5897 5.436532708879446 9.520315895435537 1.0631487148361882 0 0 0
141 47 1 0.5897 4.555077460982085 10.736969227462469 0.8764583010261157 0 0 0
142 48 2 -1.1794 1.3514920106790789 11.307152272661417 1.3888906459698427 0 0 0
143 48 1 0.5897 2.1011281353825897 11.199705575991446 1.974423265792884 0 0 0
144 48 1 0.5897 1.3314770805267269 10.500388024514681 0.8741133881017108 0 0 0
145 49 2 -1.1794 4.370610703919896 12.48309703092846 0.8888796663481763 0 0 0
146 49 1 0.5897 4.239738297439813 12.972800706593134 0.07692584796481611 0 0 0
147 49 1 0.5897 5.032348707312513 12.983113283170393 1.3667891981687326 0 0 0
148 50 2 -1.1794 1.3922682529024508 6.319914880176305 4.626110978988977 0 0 0
149 50 1 0.5897 1.9625136080451677 5.660286709303965 4.231106594836646 0 0 0
150 50 1 0.5897 0.5176378284120952 6.107270674903055 4.300293477140445 0 0 0
151 51 2 -1.1794 10.619627516340431 7.589222223402841 4.2791801477899 0 0 0
152 51 1 0.5897 9.942630582123876 7.337983018158886 3.650775644506522 0 0 0
153 51 1 0.5897 11.303818714641132 7.993834073263389 3.745946138287948 0 0 0
154 52 2 -1.1794 8.827087753787705 7.743106396895573 2.149104690671494 0 0 0
155 52 1 0.5897 9.143935095031956 8.565132909897908 1.7748760604569729 0 0 0
156 52 1 0.5897 7.87322832230762 7.813267774650274 2.1094107964148843 0 0 0
157 53 2 -1.1794 12.060594664015039 10.824585957780972 3.5830713490317283 0 0 0
158 53 1 0.5897 12.563587907010271 10.048295567091795 3.829372554820749 0 0 0
159 53 1 0.5897 12.249527142090114 10.947712604624614 2.652830636907164 0 0 0
160 54 2 -1.1794 9.404153265716719 10.613325813125925 3.4948073712228362 0 0 0
161 54 1 0.5897 10.319556588003012 10.697489390344785 3.7618239555017543 0 0 0
162 54 1 0.5897 8.975934553413133 11.388625208898675 3.857929307068716 0 0 0
163 55 2 -1.1794 7.456389279472708 9.230019056472944 4.960146173130184 0 0 0
164 55 1 0.5897 7.49479830837493 8.274290578715819 4.923389850986763 0 0 0
165 55 1 0.5897 8.187492883969094 9.520655615030991 4.414931566798927 0 0 0
166 56 2 -1.1794 6.112073669938969 7.872253390761203 2.145342539225196 0 0 0
167 56 1 0.5897 5.829385783977737 7.815458038583434 3.05806513347527 0 0 0
168 56 1 0.5897 5.677395349620132 7.13699306225032 1.7132182542074483 0 0 0
169 57 2 -1.1794 10.96425019662536 9.142511917176023 0.8460083605317698 0 0 0
170 57 1 0.5897 10.903877569676887 8.662637282872973 0.019956676128535397 0 0 0
171 57 1 0.5897 10.984417385648271 10.063874579877618 0.5874112692560336 0 0 0
172 58 2 -1.1794 7.84690384665139 10.978749636360888 1.2504849906730275 0 0 0
173 58 1 0.5897 7.94779094795489 10.217484213774368 0.6790025188709393 0 0 0
174 58 1 0.5897 8.686245775243227 11.050417760038014 1.7051577309989239 0 0 0
175 59 2 -1.1794 10.643171959140085 12.062050132463366 0.4969840011669856 0 0 0
176 59 1 0.5897 10.200251154831168 12.58617713436987 1.1643827971912621 0 0 0
177 59 1 0.5897 10.650823340984031 12.557265089689764 22.606252607363533 0 0 -1
178 60 2 -1.1794 7.505935799595055 6.340054997747803 4.589570493636549 0 0 0
179 60 1 0.5897 7.633795551688998 6.022790024053265 5.483557882322582 0 0 0
180 60 1 0.5897 8.058007890564872 5.772033690971914 4.052082152747363 0 0 0
181 61 2 -1.1794 17.015344344824577 7.816880621129824 3.9423119698573714 0 0 0
182 61 1 0.5897 17.361270133254138 8.470519359607207 4.550071893445171 0 0 0
183 61 1 0.5897 17.639074231054234 7.810424648387206 3.216243269306857 0 0 0
184 62 2 -1.1794 15.297993623513829 7.18651029832103 1.9386965752824148 0 0 0
185 62 1 0.5897 15.48199785967301 8.010338431465998 1.487452355548832 0 0 0
186 62 1 0.5897 15.627620001096338 7.3208001367902975 2.8272863701663207 0 0 0
187 63 2 -1.1794 18.381005540315467 10.94246555108501 3.4251804923367204 0 0 0
188 63 1 0.5897 18.863080968632215 10.434182856944673 4.077507106753684 0 0 0
189 63 1 0.5897 18.750373471472077 10.66759771829082 2.5859603102489874 0 0 0
190 64 2 -1.1794 15.488822912393546 10.635273986971825 3.5190216455003966 0 0 0
191 64 1 0.5897 16.440734028697715 10.548562422777911 3.5711202733918475 0 0 0
192 64 1 0.5897 15.312085219961203 10.787148018333315 2.590613480834727 0 0 0
193 65 2 -1.1794 13.768005407808742 8.983837353096732 5.1962623575343 0 0 0
194 65 1 0.5897 14.4393050036033 9.52306188597008 4.778214958352772 0 0 0
195 65 1 0.5897 13.68692556617611 9.343601310978533 6.0795697381677805 0 0 0
196 66 2 -1.1794 12.68060803866774 7.161264627606213 1.7815163147432307 0 0 0
197 66 1 0.5897 12.318131261422844 7.8925116482913875 1.2813850607256625 0 0 0
198 66 1 0.5897 13.594261070023157 7.403449775009469 1.9329324291004784 0 0 0
199 67 2 -1.1794 16.96587767710773 9.472328781390638 0.7000816389839274 0 0 0
200 67 1 0.5897 16.793459894674456 10.41209385042867 0.7581895000517881 0 0 0
201 67 1 0.5897 17.112025016169795 9.27710853762361 22.67320749366979 0 0 -1
202 68 2 -1.1794 13.448555555689989 10.700209436376987 1.281431568034427 0 0 0
203 68 1 0.5897 13.773194353961717 11.392584814546389 0.705795221665522 0 0 0
204 68 1 0.5897 13.229788043261399 9.979677137480403 0.6904532389707408 0 0 0
205 69 2 -1.1794 16.656373407577192 12.108941787488737 1.0505394856635728 0 0 0
206 69 1 0.5897 16.805527119637734 12.458849442204926 0.17218324734823962 0 0 0
207 69 1 0.5897 17.522149859410757 12.108505975538172 1.4589356515503806 0 0 0
208 70 2 -1.1794 14.027651078578222 6.20907745704926 5.133952546778017 0 0 0
209 70 1 0.5897 13.937331489699094 5.8923665968133525 6.0326868768982616 0 0 0
210 70 1 0.5897 13.930122589572772 7.1587762687184755 5.203291394826757 0 0 0
211 71 2 -1.1794 23.40849675263485 7.388539823248597 4.267289129986515 0 0 0
212 71 1 0.5897 23.337257706902957 8.110601651533978 4.891665280524264 0 0 0
213 71 1 0.5897 22.594119311807376 7.424023652283102 3.7654064600539163 0 0 0
214 72 2 -1.1794 21.540059050981085 7.650214181120066 2.31950647254541 0 0 0
215 72 1 0.5897 22.064688855922856 8.273545857320201 1.8171093865016048 0 0 0
216 72 1 0.5897 20.63631030275304 7.93825089869533 2.1904647298520503 0 0 0
217 73 2 -1.1794 24.57338584566927 10.81415181402696 3.4822332588608473 0 0 0
218 73 1 0.5897 0.32532559501194364 10.381327457727938 3.962583102649142 1 0 0
219 73 1 0.5897 0.013785857470503707 11.058782612683158 2.6450606105582866 1 0 0
220 74 2 -1.1794 21.810553764585425 10.918790205492785 3.3323632605864595 0 0 0
221 74 1 0.5897 22.75932905677159 10.839776496618112 3.4320993698656204 0 0 0
222 74 1 0.5897 21.634799910475927 11.853452761796884 3.4409206544765465 0 0 0
223 75 2 -1.1794 20.077078787280314 9.377498071125508 5.133655572225631 0 0 0
224 75 1 0.5897 20.239450429037525 9.837557219650357 5.957223796020279 0 0 0
225 75 1 0.5897 20.685455138762865 9.7766965974477 4.511795268194836 0 0 0
226 76 2 -1.1794 18.818101048942545 7.743691248759299 1.8112607987953495 0 0 0
227 76 1 0.5897 18.17073337485059 8.413028451712158 1.589385078824073 0 0 0
228 76 1 0.5897 18.465003007628656 6.93561357204406 1.4389705276373053 0 0 0
229 77 2 -1.1794 23.38838283681731 9.269706349793779 0.876906507155536 0 0 0
230 77 1 0.5897 24.244581122773315 8.961156072425199 1.1737075099663477 0 0 0
231 77 1 0.5897 23.458820022266686 10.224187274034348 0.8919653570891466 0 0 0
232 78 2 -1.1794 20.09105826587437 10.654210252426214 1.230770279955426 0 0 0
233 78 1 0.5897 20.818252157453326 10.64938499251485 1.8532563657297492 0 0 0
234 78 1 0.5897 20.259343216562193 9.904983659350677 0.6592885408678049 0 0 0
235 79 2 -1.1794 23.387429473907563 11.91581392801617 0.6640744667066968 0 0 0
236 79 1 0.5897 23.457687373680947 12.20314026770459 22.669792884957914 0 0 -1
237 79 1 0.5897 22.5160561797516 12.11751544629999 1.0051888404279818 0 0 0
238 80 2 -1.1794 19.96983486216898 6.559021353168002 5.027745331351452 0 0 0
239 80 1 0.5897 20.230214175478405 7.470150449303373 5.162795132208681 0 0 0
240 80 1 0.5897 19.21809762587285 6.609220616331316 4.437245556937199 0 0 0
241 81 2 -1.1794 4.696387119110597 14.075366630151157 3.9797706609189936 0 0 0
242 81 1 0.5897 3.872070337024932 14.209658188840134 3.511986052894276 0 0 0
243 81 1 0.5897 4.654968491969364 14.682969166596088 4.718281244416702 0 0 0
244 82 2 -1.1794 2.6289498885264573 14.283772437670036 2.148270295299324 0 0 0
245 82 1 0.5897 1.673703848771749 14.236983125367729 2.1073527260003737 0 0 0
246 82 1 0.5897 2.928571064254632 13.571826663606702 1.5828766113178363 0 0 0
247 83 2 -1.1794 6.01315267447175 16.978535122201627 3.607556123123664 0 0 0
248 83 1 0.5897 6.4950376179675535 16.269767214183418 4.0338355086156295 0 0 0
249 83 1 0.5897 6.180748114621106 16.854641111632144 2.673318716595017 0 0 0
250 84 2 -1.1794 3.2400990420498146 17.047544775958862 3.4623314350013437 0 0 0
251 84 1 0.5897 2.80040058832362 16.422428208085705 4.038572820417712 0 0 0
252 84 1 0.5897 4.173433308499665 16.898765086621466 3.6144162968182325 0 0 0
253 85 2 -1.1794 1.781389374127632 15.148988764545619 4.828469355942497 0 0 0
254 85 1 0.5897 1.5212281725898154 14.244371304095447 5.002175152766919 0 0 0
255 85 1 0.5897 0.974462910164556 15.581224259570178 4.548513775438939 0 0 0
256 86 2 -1.1794 -0.05128569594700414 13.851136657412207 2.095512624362235 0 0 0
257 86 1 0.5897 24.293173732514262 13.825966596052627 2.8331796337929993 -1 0 0
258 86 1 0.5897 24.639794673682175 13.11588232759968 1.5417994783250384 -1 0 0
259 87 2 -1.1794 4.571504997501986 15.928195761065776 1.1839020365606405 0 0 0
260 87 1 0.5897 3.795258237937546 15.8164450222641 1.7327243321314554 0 0 0
261 87 1 0.5897 4.3973114816306085 15.392619514619112 0.40988285042569106 0 0 0
262 88 2 -1.1794 1.3867892169173535 16.82687285630035 1.430174008011469 0 0 0
263 88 1 0.5897 2.1226322871644205 17.069675638790645 1.9922437111330837 0 0 0
264 88 1 0.5897 0.6693521935397909 16.647763128080864 2.038002602636458 0 0 0
265 89 2 -1.1794 4.660419812970682 18.709827082208157 0.7078193882820694 0 0 0
266 89 1 0.5897 4.469151857556189 17.783549801825714 0.8548685327750956 0 0 0
267 89 1 0.5897 4.005857502918029 19.175668963266357 1.2282384465441243 0 0 0
268 90 2 -1.1794 1.4265311058930459 12.40719630118224 4.891355579311419 0 0 0
269 90 1 0.5897 0.6420245301862006 12.01532799084186 4.507534478142194 0 0 0
270 90 1 0.5897 1.6270761807605392 11.853210425631794 5.645729477816729 0 0 0
271 91 2 -1.1794 10.881081740808337 13.896699769697177 4.375459595195487 0 0 0
272 91 1 0.5897 11.582004070520954 13.748703267710168 3.7405717563972107 0 0 0
273 91 1 0.5897 10.921823250687549 13.138917541417078 4.9587981507000425 0 0 0
274 92 2 -1.1794 9.195251020844642 13.719371353852935 2.0400835943949795 0 0 0
275 92 1 0.5897 9.51085339250757 13.971532464117464 2.907897205060651 0 0 0
276 92 1 0.5897 8.25044677060309 13.611891294900014 2.1501474783613164 0 0 0
277 93 2 -1.1794 12.445064147071337 16.818583452237284 3.458749490967888 0 0 0
278 93 1 0.5897 11.49598624841529 16.768424355210332 3.573128942039552 0 0 0
279 93 1 0.5897 12.705485839846075 17.59635035783353 3.9522525210813413 0 0 0
280 94 2 -1.1794 9.738028452577428 16.98624033489937 3.658096489875994 0 0 0
281 94 1 0.5897 9.238918527595839 16.23173898598179 3.9708229725323223 0 0 0
282 94 1 0.5897 9.265099568760006 17.74512448336032 3.9997709976876985 0 0 0
283 95 2 -1.1794 7.843211447257563 15.481418444787346 5.064033201047941 0 0 0
284 95 1 0.5897 8.077079482044294 14.572087961814093 5.250189646995221 0 0 0
285 95 1 0.5897 7.784851900675302 15.895362005020276 5.925151474404241 0 0 0
286 96 2 -1.1794 6.408968616289604 14.008178105305367 1.90663792317429 0 0 0
287 96 1 0.5897 5.82342888898178 14.098120456380478 2.658512454531406 0 0 0
288 96 1 0.5897 6.117211514309884 14.682666906950818 1.2933196129308386 0 0 0
289 97 2 -1.1794 10.964298696170646 15.776527078481164 0.7574229045906101 0 0 0
290 97 1 0.5897 10.793590296970617 16.671293144163588 0.4633817339475593 0 0 0
291 97 1 0.5897 10.123717288684617 15.471852168118422 1.099221409734023 0 0 0
292 98 2 -1.1794 7.945655376819384 16.846461934624873 1.3209652634348572 0 0 0
293 98 1 0.5897 8.415438437388259 17.10520190370611 2.1138532909901557 0 0 0
294 98 1 0.5897 7.869321318742444 17.65408384296407 0.8129148133517993 0 0 0
295 99 2 -1.1794 10.69537426309982 18.444220713354863 0.4154876328481711 0 0 0
296 99 1 0.5897 10.218782473286536 19.027668347075668 1.0060487858378446 0 0 0
297 99 1 0.5897 10.718303900841251 18.844477872320407 22.470009062120493 0 0 -1
298 100 2 -1.1794 7.795370509146385 12.538651014286089 4.969969559651403 0 0 0
299 100 1 0.5897 7.840945519341746 12.092528992996797 5.815602899370917 0 0 0
300 100 1 0.5897 6.917255832390182 12.34345682986116 4.642602241406531 0 0 0
301 101 2 -1.1794 17.037202257322623 14.038803603616872 4.364273530995115 0 0 0
302 101 1 0.5897 16.274807934746946 14.023391464694193 3.7855949824397306 0 0 0
303 101 1 0.5897 16.957952120417026 13.240849477600612 4.886914697576465 0 0 0
304 102 2 -1.1794 15.280866176793777 14.142513792630485 2.2684893607190144 0 0 0
305 102 1 0.5897 14.336743576911186 14.040951701630501 2.1474641438358413 0 0 0
306 102 1 0.5897 15.668034713432297 13.462136560920191 1.7175882454335263 0 0 0
307 103 2 -1.1794 18.380018349363024 17.278634155920418 3.99330333089605 0 0 0
308 103 1 0.5897 17.42824412529637 17.186602874494273 3.948536872179376 0 0 0
309 103 1 0.5897 18.682335082887235 16.45898352479591 4.384454989368464 0 0 0
310 104 2 -1.1794 15.614283891045144 16.99618763169142 4.069947457925847 0 0 0
311 104 1 0.5897 15.093026114518834 16.23323036314483 4.319678954900781 0 0 0
312 104 1 0.5897 15.186322069178427 17.73262425427069 4.506787775859906 0 0 0
313 105 2 -1.1794 13.80545707406667 15.222810617507347 5.112258594950658 0 0 0
314 105 1 0.5897 13.873687653923831 14.296492436660708 4.880883658564375 0 0 0
315 105 1 0.5897 13.376309887783808 15.62747619222842 4.35837068488135 0 0 0
316 106 2 -1.1794 12.362271738375597 13.784718256119719 1.906184835138462 0 0 0
317 106 1 0.5897 11.928986667211582 14.609800498560924 1.687594373708091 0 0 0
318 106 1 0.5897 12.11954603002645 13.190666198962909 1.1959239432130355 0 0 0
319 107 2 -1.1794 16.898658129050595 15.516394480566106 0.7318711200042446 0 0 0
320 107 1 0.5897 16.20628589003752 15.456406760733469 1.3901071078894736 0 0 0
321 107 1 0.5897 17.03698178655033 16.456184891687112 0.6141324894734203 0 0 0
322 108 2 -1.1794 14.252555018253316 17.215240002832047 1.6327554236106299 0 0 0
323 108 1 0.5897 13.465678661584727 17.196475332874297 2.177514329874585 0 0 0
324 108 1 0.5897 14.96959004593718 17.3545343838666 2.251458223994482 0 0 0
325 109 2 -1.1794 17.235734684348614 18.294657813373753 0.6819906459183397 0 0 0
326 109 1 0.5897 16.53236458871502 18.727537966610868 1.1659526009943344 0 0 0
327 109 1 0.5897 17.328922253135772 18.705368410702622 22.739022995018235 0 0 -1
328 110 2 -1.1794 13.911243743957586 12.496010273969597 4.859372021922905 0 0 0
329 110 1 0.5897 14.735391157407287 12.072907184826843 4.618292535094566 0 0 0
330 110 1 0.5897 13.254977819127015 12.078784719700838 4.301218442603358 0 0 0
331 111 2 -1.1794 23.46399494409814 13.674738761172827 4.350636121957812 0 0 0
332 111 1 0.5897 22.695495313016416 13.495132216797456 3.808885309782024 0 0 0
333 111 1 0.5897 23.23941372607953 14.473166702976883 4.828509835714212 0 0 0
334 112 2 -1.1794 21.598990792999757 13.551399163677752 2.206452777216713 0 0 0
335 112 1 0.5897 20.687267171091133 13.780084042025948 2.387636570499264 0 0 0
336 112 1 0.5897 22.007791396294238 14.378542405680403 1.9516817236636088 0 0 0
337 113 2 -1.1794 24.651933154540192 16.787173843562844 3.4894559260639393 0 0 0
338 113 1 0.5897 -0.11273296769676644 17.674127905039345 3.7956360595126353 1 0 0
339 113 1 0.5897 23.76179229934102 16.612612266362515 3.7952027353802844 0 0 0
340 114 2 -1.1794 21.835306581265776 16.988633327410835 3.7107443940561606 0 0 0
341 114 1 0.5897 21.34998741633501 17.74853187229335 4.032206499613638 0 0 0
342 114 1 0.5897 21.418747803802148 16.77332498870379 2.8762231938225984 0 0 0
343 115 2 -1.1794 20.099321428120923 15.582647286594225 5.197701267000561 0 0 0
344 115 1 0.5897 20.16549914766402 14.648572587904148 4.99925496282767 0 0 0
345 115 1 0.5897 20.751555484993673 15.99504145781062 4.631366005269056 0 0 0
346 116 2 -1.1794 18.686185009074617 13.708225016656856 2.1441720143702034 0 0 0
347 116 1 0.5897 18.206117921297402 14.380913841327555 1.6611739912830774 0 0 0
348 116 1 0.5897 18.269678146896833 13.688248162912462 3.0057684911849614 0 0 0
349 117 2 -1.1794 23.01784922012811 15.334972265322877 0.5994729802224769 0 0 0
350 117 1 0.5897 23.853255766562178 14.911773121810025 0.7977858982357058 0 0 0
351 117 1 0.5897 23.154568916566294 16.25451552723462 0.8274877740139374 0 0 0
352 118 2 -1.1794 19.98028877595096 17.001901915340344 1.557321460316113 0 0 0
353 118 1 0.5897 19.279191825983826 17.061678997705236 2.206299849895459 0 0 0
354 118 1 0.5897 19.68988160702977 17.562781666619898 0.8380809320918925 0 0 0
355 119 2 -1.1794 23.56167849638586 18.070095551452287 0.7461737769441112 0 0 0
356 119 1 0.5897 24.36174990215475 18.487033022181038 1.066129970671234 0 0 0
357 119 1 0.5897 23.54064332224495 18.394589897602533 22.77207890432221 0 0 -1
358 120 2 -1.1794 20.06366274339606 12.794126728433977 4.863231783885798 0 0 0
359 120 1 0.5897 19.397268388288598 12.368387205723833 4.323801271828214 0 0 0
360 120 1 0.5897 20.08774290747696 12.27645956629489 5.667985724316673 0 0 0
361 121 2 -1.1794 4.726189758603333 20.247785777810634 4.344231547687488 0 0 0
362 121 1 0.5897 4.679921047830723 19.392412916256518 4.771288375036821 0 0 0
363 121 1 0.5897 4.1646737969423215 20.16202660133871 3.5737340695471635 0 0 0
364 122 2 -1.1794 2.9295132855114505 20.15187279972276 2.160884310807031 0 0 0
365 122 1 0.5897 3.202135356652464 20.876213516251617 1.5977027535457562 0 0 0
366 122 1 0.5897 1.973199539303092 20.16249133030745 2.1194761639180384 0 0 0
367 123 2 -1.1794 6.056826322444976 23.140858479032023 3.67572298005555 0 0 0
368 123 1 0.5897 5.126367341172606 22.946006608512654 3.7879642840231638 0 0 0
369 123 1 0.5897 6.507841110731759 22.41611426047154 4.1088355618848915 0 0 0
370 124 2 -1.1794 3.405132977491253 23.03186772037407 3.611609627417853 0 0 0
371 124 1 0.5897 2.988749798040813 23.11531550919997 2.7537353495545127 0 0 0
372 124 1 0.5897 2.854234282221293 23.55131478162042 4.197274137941065 0 0 0
373 125 2 -1.1794 1.6105632874286524 21.67584011133794 5.208018347325934 0 0 0
374 125 1 0.5897 2.331222761477383 21.840538844010222 4.599935471242665 0 0 0
375 125 1 0.5897 1.6375689543883076 20.731481588654816 5.361889293053022 0 0 0
376 126 2 -1.1794 0.27643572649818915 19.909203358706048 2.013788607319488 0 0 0
377 126 1 0.5897 24.78256150237315 20.559989365950262 1.4732272800642414 -1 0 0
378 126 1 0.5897 24.719631737038192 19.876786557992276 2.8226825575935908 -1 0 0