LAMMPS data file via write_data, version 30 Jul 2021, timestep = 21750000

1296 atoms
2 atom types
864 bonds
1 bond types
432 angles
1 angle types

-10.706658539252304 12.686658539252305 xlo xhi
-9.175612846232971 12.16561084623297 ylo yhi
0.04368232260433835 21.816316677397673 zlo zhi
-9.140605531463851 1.9560447854432432 2.9584070415493553 xy xz yz

Masses

1 1.008
2 15.999

Pair Coeffs # lj/cut/tip4p/long/omp

1 0 0
2 0.21084 3.1668

Bond Coeffs # harmonic/omp

1 450 0.9572

Angle Coeffs # harmonic/omp

1 55 104.52

Atoms # full

280 94 2 -1.1794 -9.81573860532282 -4.739938804161151 1.4826776954843526 1 1 0
270 90 1 0.5897 -8.46998884957722 -7.381488110635434 2.0656361948592314 1 1 0
269 90 1 0.5897 -9.331181237789064 -6.19390924089015 2.4390510182855927 1 1 0
268 90 2 -1.1794 -9.07475148948972 -7.066412739891531 2.7373404866883395 1 1 0
314 105 1 0.5897 -8.83154070486017 -6.808797728103416 4.52746975596041 1 1 0
299 100 1 0.5897 -6.626939232279749 -7.703306340442312 4.03606789540532 1 1 0
163 55 2 -1.1794 -7.4061787282194445 -7.84513577398313 0.6892303732708351 1 1 0
164 55 1 0.5897 -6.5949039237943765 -8.231187865175768 1.019274005106189 1 1 0
298 100 2 -1.1794 -5.893273751145945 -7.135606893352359 4.272000592250354 1 1 0
73 25 2 -1.1794 -8.422802712379164 -3.7423174073093897 4.784636105985916 1 0 0
324 108 1 0.5897 -7.173918589619941 -4.448690581452593 3.619431655171667 1 1 0
300 100 1 0.5897 -5.114420737189885 -7.638550151335812 4.034180477418528 1 1 0
282 94 1 0.5897 -10.62885278743262 -4.247534889514125 1.5944996524200057 1 1 0
275 92 1 0.5897 -10.444076745849745 -7.968311723167965 3.4579511792478743 1 1 0
75 25 1 0.5897 -9.323675251797493 -3.5453469808660767 4.528084542007822 1 0 0
310 104 2 -1.1794 -3.592001828859038 -8.555999720609897 3.727013354643468 1 1 0
281 94 1 0.5897 -9.124346636894412 -4.082554988321222 1.560269036015548 1 1 0
241 81 2 -1.1794 -1.2372888768828219 -6.480585244315154 5.134906798387527 0 1 0
322 108 2 -1.1794 -6.388210458355378 -4.740721074705208 3.1572892622190922 1 1 0
323 108 1 0.5897 -6.214084335756464 -5.61392975645733 3.5082726591075732 1 1 0
261 87 1 0.5897 -6.694049289040449 -4.94461637063789 1.0770060982783005 1 1 0
259 87 2 -1.1794 -6.756720766054445 -5.291261608185533 0.1869918035316009 1 1 0
306 102 1 0.5897 -0.9137696414422827 -7.501681020372761 1.7105106552595217 1 1 0
304 102 2 -1.1794 -1.6756914936275642 -7.158071473937393 2.1769611913447187 1 1 0
318 106 1 0.5897 -2.7556478808225595 -4.269611904078208 1.3085964943944075 1 1 0
242 81 1 0.5897 -1.436298327775276 -6.831674060357523 4.2669483133236215 0 1 0
305 102 1 0.5897 -1.7661833538497227 -6.259690981041899 1.8595922184291176 1 1 0
316 106 2 -1.1794 -1.8878686753797815 -4.641902761090814 1.1520550660542184 1 1 0
311 104 1 0.5897 -2.970501882089976 -8.115402902063519 3.1475116283079108 1 1 0
293 98 1 0.5897 -5.051157226629478 -3.7380486726277233 2.2996408252295137 1 1 0
315 105 1 0.5897 -8.568916707365563 -5.547326270055255 5.322036194172162 1 1 0
317 106 1 0.5897 -1.2865048568343642 -3.9063913861639197 1.2684696104969446 1 1 0
313 105 2 -1.1794 -8.866262489222999 -6.452306830158452 5.4151194557898 1 1 0
243 81 1 0.5897 -0.9863543036679392 -5.571067326662959 4.974093164370365 0 1 0
260 87 1 0.5897 -7.046106630107577 -6.196322903907239 0.3018197143071806 1 1 0
3 1 1 0.5897 -1.4711943987528677 -3.430744972711241 4.385147910223275 0 0 0
1 1 2 -1.1794 -0.6646340921486935 -3.8133459221854826 4.730422568314222 0 0 0
201 67 1 0.5897 0.39395955854291564 -8.466811630378063 0.1382253036041196 1 1 0
1141 381 2 -1.1794 -10.503292258968374 -8.924740949653026 0.06783082747044225 0 0 1
165 55 1 0.5897 -7.732808616090302 -8.48071689123523 0.0524198977920136 1 1 0
420 140 1 0.5897 -9.006747657537868 -6.460051410149866 9.726739461595708 1 0 0
618 206 1 0.5897 -7.602003961545737 -7.387700718644441 6.61637504309334 1 1 0
413 138 1 0.5897 -7.647137279601152 -3.5067850829890306 7.811743907609753 1 0 0
419 140 1 0.5897 -8.99566524072517 -5.284050391508689 8.773649751513434 1 0 0
418 140 2 -1.1794 -9.566064587105801 -5.966761130312907 9.126794128371738 1 0 0
414 138 1 0.5897 -6.7767035539845 -4.742037299432163 7.722990040900296 1 0 0
350 117 1 0.5897 -7.133515333672248 -4.100055856606578 10.094529943996651 0 0 0
412 138 2 -1.1794 -7.458852351847048 -4.333447115552707 8.255808434334455 1 0 0
429 143 1 0.5897 -6.339036624453474 -7.046348213214714 8.574439992343155 1 0 0
427 143 2 -1.1794 -5.935581405155084 -6.883182966990452 9.426983263398485 1 0 0
428 143 1 0.5897 -6.616781172594261 -7.1060525761287545 10.061439790347821 1 0 0
335 112 1 0.5897 -5.054344837943566 -5.350863968510266 9.637407168305895 0 0 0
616 206 2 -1.1794 -7.188282278279072 -7.991435777775705 7.233152153232338 1 1 0
555 185 1 0.5897 -2.585903149423629 -6.671270455977306 6.339869810748681 0 1 0
633 211 1 0.5897 -5.704488418071826 -6.22495678529765 5.721863762111807 1 1 0
631 211 2 -1.1794 -5.498952334420616 -5.612517522009282 6.428160542557647 1 1 0
356 119 1 0.5897 1.1569171704322088 -7.19742671504301 9.871567378899757 0 0 0
347 116 1 0.5897 -1.1661587569086471 -5.250442542945729 8.952541433784921 0 0 0
348 116 1 0.5897 -1.4019877588991587 -6.299353763227703 10.018242627681522 0 0 0
336 112 1 0.5897 -3.568562777198812 -5.081031415868232 9.52977356244194 0 0 0
359 120 1 0.5897 -4.5420954027121025 -3.0816824833477314 8.82874411315568 0 0 0
346 116 2 -1.1794 -1.862803409267432 -5.711196140585184 9.420097991968353 0 0 0
632 211 1 0.5897 -4.637436781929214 -5.887802160860037 6.7414902156243945 1 1 0
546 182 1 0.5897 -0.13574664096656264 -7.331294452127374 6.355819638147657 0 1 0
553 185 2 -1.1794 -3.1607322236287283 -6.810652823587112 7.092453105314117 0 1 0
554 185 1 0.5897 -2.6600896260339866 -6.484855860724775 7.840413822252028 0 1 0
334 112 2 -1.1794 -4.403305857073492 -4.654452513249171 9.72310748859681 0 0 0
404 135 1 0.5897 -5.340459947663292 -3.8713679762879556 5.86477944078594 1 0 0
627 209 1 0.5897 -10.452914469369148 -6.917936238230598 6.293417636596963 1 1 0
357 119 1 0.5897 1.2188307801720057 -7.224011692174482 8.359172813353982 0 0 0
544 182 2 -1.1794 0.3087388897934371 -7.8763827660877155 7.004977797155114 0 1 0
351 117 1 0.5897 -7.046439978672553 -2.81349417179939 10.887465272279458 0 0 0
652 218 2 -1.1794 -5.786067655347583 -5.550939028032984 12.703833868537462 0 0 0
780 260 1 0.5897 -7.644850255837769 -3.8854115352611753 15.211854393358394 0 0 0
779 260 1 0.5897 -7.364729375370226 -2.9188340855140176 14.080974752484543 0 0 0
778 260 2 -1.1794 -8.080306854147029 -3.3186971350259427 14.57522295578832 0 0 0
768 256 1 0.5897 -9.740672875500664 -2.4378932117593397 14.692437859493566 0 0 0
654 218 1 0.5897 -6.339355700679709 -4.971162225435227 12.1805722155397 0 0 0
653 218 1 0.5897 -6.403469263844241 -6.098690943795329 13.188580915306375 0 0 0
662 221 1 0.5897 -9.130707255625863 -4.344939939008572 13.233401904432304 0 0 0
661 221 2 -1.1794 -9.437747013576072 -4.420049583650684 12.329902434860063 0 0 0
663 221 1 0.5897 -8.682918210146514 -4.167608657535872 11.798160419939055 0 0 0
684 228 1 0.5897 -8.337629516869487 -6.571028446219139 14.445131024667397 0 0 0
682 228 2 -1.1794 -7.895677143033202 -7.073600471581765 13.760835241351906 0 0 0
655 219 2 -1.1794 -0.28631328291960934 -7.4030640011633215 11.046955530399 0 0 0
740 247 1 0.5897 -10.921349608721854 -3.31169966662545 12.030559145448432 1 0 0
788 263 1 0.5897 -5.11026643454417 -4.6515392111407685 15.571441505548426 0 0 0
802 268 2 -1.1794 -2.8088229591853953 -2.1324459030097636 14.794567771520043 0 0 0
767 256 1 0.5897 -11.149254883639886 -2.9441073659324495 14.919543203556772 0 0 0
816 272 1 0.5897 0.15109094422993508 -3.75457526352457 15.26801657771822 0 0 0
787 263 2 -1.1794 -4.44499614871075 -4.417311005610371 14.924300789571411 0 0 0
789 263 1 0.5897 -4.803656347341733 -4.721411699128375 14.09056410752476 0 0 0
766 256 2 -1.1794 -10.62678489427498 -2.1423431267599273 14.901336438678944 0 0 0
667 223 2 -1.1794 -4.015509350648099 -2.7935032590547397 11.707244233714125 0 0 0
678 226 1 0.5897 -4.017353662889097 -6.245509027811371 12.307480113593195 0 0 0
676 226 2 -1.1794 -3.1546935948593484 -6.6498715272394815 12.21550853936356 0 0 0
814 272 2 -1.1794 -0.35887731971133086 -3.3853039183946736 14.547103436215272 0 0 0
669 223 1 0.5897 -4.365445129304864 -3.486679106410726 11.147581159776317 0 0 0
657 219 1 0.5897 -0.1517686807494023 -7.14240937669973 11.958095718282149 0 0 0
803 268 1 0.5897 -3.4132059682802947 -2.862959646235261 14.925846758435567 0 0 0
795 265 1 0.5897 -2.893587093330428 -5.459203246063153 15.186598088043374 0 0 0
720 240 1 0.5897 -0.782611786566628 -6.502711958704095 14.339227244373498 0 0 0
804 268 1 0.5897 -1.9473405658518121 -2.5434151241556044 14.723168945547027 0 0 0
698 233 1 0.5897 -1.4233680538584697 -4.109389361073999 13.259419682599676 0 0 0
699 233 1 0.5897 -0.8550417766320795 -4.0839226540001 11.856475876518328 0 0 0
697 233 2 -1.1794 -1.6707091387227315 -4.212839948354 12.340535727535853 0 0 0
718 240 2 -1.1794 -0.046767363815753527 -6.754029078632248 13.781040512391252 0 0 0
677 226 1 0.5897 -2.5493418978184827 -5.9114947812520215 12.148350509527543 0 0 0
668 223 1 0.5897 -3.266131537581354 -3.1951843777178333 12.146809578908483 0 0 0
793 265 2 -1.1794 -2.0638694204503487 -5.866055035313902 15.435950263345077 0 0 0
729 243 1 0.5897 -8.114633974849982 -7.3286114270258675 11.990679739437663 1 0 0
689 230 1 0.5897 1.3045838937293706 -5.688342152084282 13.054455426521239 0 0 0
727 243 2 -1.1794 -8.156848374083037 -7.517166244817532 11.053187375142079 1 0 0
774 258 1 0.5897 -5.319075967660146 -2.2189974887970916 12.771383846566625 0 0 0
757 253 2 -1.1794 -9.528169371911382 -5.713764834048231 15.662484169892124 0 0 0
815 272 1 0.5897 0.27249134178791046 -2.86843151323383 14.046684260514024 0 0 0
794 265 1 0.5897 -1.731783483294107 -5.317876751383809 16.146878946020955 0 0 0
1124 375 1 0.5897 1.22368008639884 -5.7803994482827 16.333359719379914 0 0 0
349 117 2 -1.1794 -7.147369698240526 -3.7598067163446913 10.989094296090492 0 0 0
1150 384 2 -1.1794 -6.27419268567055 -4.30785088380399 19.180469842039997 0 0 0
1152 384 1 0.5897 -6.90617679670407 -3.9039298159562836 19.775120088980557 0 0 0
1227 409 1 0.5897 -8.88254215108979 -2.883152613574044 20.661398843789556 0 0 0
1109 370 1 0.5897 -8.832612930418783 -3.57140585292706 17.926203133095676 0 0 0
1089 363 1 0.5897 -6.4083115770877885 -4.605618498965615 17.41217712100432 0 0 0
1151 384 1 0.5897 -6.119489045234536 -5.177317663780455 19.549381610673073 0 0 0
1108 370 2 -1.1794 -9.474130331834024 -4.27399271015944 18.03110333543549 0 0 0
1225 409 2 -1.1794 -8.106255003344407 -3.314078170160693 21.018885413708446 0 0 0
1143 381 1 0.5897 -8.381425689024868 -5.036044394664914 21.688498243111077 0 0 0
1262 421 1 0.5897 -0.28001223301397715 -2.8824298500544483 21.563904480040264 0 0 0
1177 393 2 -1.1794 -0.8629701007998172 -6.227919152813792 21.55751630810071 0 0 0
1165 389 2 -1.1794 -0.10951247402007347 -2.02367900611679 17.708607753671686 0 0 0
1186 396 2 -1.1794 1.5956642771458132 -4.5535519578381844 19.193384807358115 0 0 0
1145 382 1 0.5897 -1.1835419587678455 -3.4672779760644383 17.713774845284235 0 0 0
1122 374 1 0.5897 -4.702666321367763 -2.068775544379746 17.32725261919979 0 0 0
1219 407 2 -1.1794 -10.452980788278696 -1.9478642110877518 20.18392252736964 0 0 0
1187 396 1 0.5897 1.670491585717242 -5.446767963452952 19.528903474949445 0 0 0
1121 374 1 0.5897 -4.982061519974321 -3.0102917030683845 18.479261882168643 0 0 0
1110 370 1 0.5897 -10.321927387408875 -3.8302773134187262 18.009086788763234 0 0 0
1130 377 1 0.5897 -7.310063008274888 -1.4006573022447864 18.373074813547042 0 0 0
1166 389 1 0.5897 0.38885085003651376 -1.9059686396571855 18.51731541260952 0 0 0
1123 375 2 -1.1794 1.4080869614054183 -4.843345908178247 16.39639384272286 0 0 0
1248 416 1 0.5897 -5.954918526295127 -1.4795562247853287 20.603496266573693 0 0 0
1097 366 1 0.5897 -8.947514465089094 -5.758243959253846 18.862855783727333 0 0 0
1129 377 2 -1.1794 -7.806143000907981 -1.8848873754862758 17.713041055564176 0 0 0
1226 409 1 0.5897 -7.862735248887102 -2.780877521499427 21.775579254043507 0 0 0
1144 382 2 -1.1794 -1.8833434297509282 -4.110176631594962 17.599057180716095 0 0 0
1263 421 1 0.5897 -1.2037786387419427 -3.054526122767591 20.376923239449063 0 0 0
1133 378 1 0.5897 -1.5839576927632315 -5.765881555275094 18.567314072231497 0 0 0
1188 396 1 0.5897 0.9668156702751762 -4.1297909066190766 19.77746554779958 0 0 0
1257 419 1 0.5897 -3.3113478445081643 -2.000179956806056 19.439054821950286 0 0 0
1255 419 2 -1.1794 -2.7707196020120906 -1.9653358843842268 20.22818725050353 0 0 0
1261 421 2 -1.1794 -0.4394667668319929 -3.4416655424835243 20.803630108387622 0 0 0
1256 419 1 0.5897 -3.36005235345466 -2.22950914060479 20.934674743601313 0 0 0
1120 374 2 -1.1794 -4.268691957766854 -2.646789140620517 17.95466580072072 0 0 0
1146 382 1 0.5897 -2.6823700771312815 -3.586875199568399 17.53740086408785 0 0 0
1179 393 1 0.5897 -0.7357791835957084 -5.281193747786715 21.497893783172238 0 0 0
1131 377 1 0.5897 -7.347025018775797 -1.7099130268109182 16.89156445149147 0 0 0
1125 375 1 0.5897 1.4390034409792367 -4.667552353594795 17.33680270859373 0 0 0
1088 363 1 0.5897 -6.581018755354441 -5.883886158559368 16.619839812712073 0 0 0
758 253 1 0.5897 -9.537941549806009 -5.189660445487391 16.463361603615105 0 0 0
1087 363 2 -1.1794 -6.538257129893292 -4.932772765667257 16.52206103472104 0 0 0
27 9 1 0.5897 -3.9674982257812337 1.551339443400538 5.127270946532756 0 0 0
94 32 2 -1.1794 -6.596817612011425 -1.4291140689591932 3.7022597097760843 1 0 0
84 28 1 0.5897 -8.226299687882307 -0.6579716392783936 3.8452567133237596 1 0 0
104 35 1 0.5897 -3.439654571534555 -2.5417466283150274 4.785732470682634 1 0 0
26 9 1 0.5897 -4.3339542276554806 0.260244699048215 4.426991857611417 0 0 0
301 101 2 -1.1794 -8.140477524836728 -2.6598350684681265 1.6120786385486232 1 1 0
292 98 2 -1.1794 -4.388787662735951 -3.208493457772379 1.8557452058540564 1 1 0
69 23 1 0.5897 -11.13825803813297 -2.6408060583859747 3.331883485643267 1 0 0
272 91 1 0.5897 -9.495806382664904 -1.2481602412942543 1.1772147776219084 1 1 0
83 28 1 0.5897 -9.632672316529302 -1.0337447264462831 4.261005642807802 1 0 0
82 28 2 -1.1794 -9.089008168307698 -0.28304059216774036 4.022223807352821 1 0 0
271 91 2 -1.1794 -10.293258135766187 -0.90227397398486 0.7765118982813111 1 1 0
98 33 1 0.5897 -12.009020467661454 0.38577721057590963 4.380545772563593 1 0 0
54 18 1 0.5897 -11.572077082446558 -0.28370094775853616 1.9102589063838222 1 0 0
67 23 2 -1.1794 -10.73354723367738 -2.4994781053728214 4.187721424059645 1 0 0
68 23 1 0.5897 -11.41952729117802 -2.7217616029055796 4.8172142892071514 1 0 0
52 18 2 -1.1794 -12.277218083692903 0.061513588636042726 2.4577885484636126 1 0 0
53 18 1 0.5897 -12.327619029488309 0.9890809508249898 2.227396168245253 1 0 0
258 86 1 0.5897 -12.436168795836803 -2.6554469127750044 1.2266493528163613 1 1 0
59 20 1 0.5897 -13.527501045802676 -0.6437345857208054 3.3890003790411227 1 0 0
89 30 1 0.5897 -4.491706989431164 1.0128129762979157 2.256851029768483 1 0 0
256 86 2 -1.1794 -12.149453713902416 -3.2630003566298447 1.9083805326086685 1 1 0
88 30 2 -1.1794 -4.448880644241387 0.08702758237037678 2.4957818665563876 1 0 0
302 101 1 0.5897 -7.705074973662496 -2.4890158700256872 2.4472286302539703 1 1 0
103 35 2 -1.1794 -2.859446826776338 -2.4876460022536335 4.026344219516968 1 0 0
96 32 1 0.5897 -6.091159486773683 -1.984671308240607 4.295346732246536 1 0 0
90 30 1 0.5897 -3.8599837323638866 -0.30079148944955314 1.8484994250768527 1 0 0
95 32 1 0.5897 -5.9374144674593206 -0.9289955922654425 3.221353533198506 1 0 0
303 101 1 0.5897 -7.5221379757857685 -2.3486139706665456 0.9510039290249342 1 1 0
105 35 1 0.5897 -3.440203351098009 -2.592252989022647 3.27267911591257 1 0 0
294 98 1 0.5897 -4.88647801380554 -2.6621869830554843 1.247523856414204 1 1 0
107 36 1 0.5897 -9.34622303335206 1.351633368755925 3.2791071294255416 1 0 0
309 103 1 0.5897 -2.7544303225525146 -1.5022837909089635 0.09851566734428369 1 1 0
25 9 2 -1.1794 -4.146203224502918 0.6255401336394009 5.291586887240289 0 0 0
99 33 1 0.5897 -11.970081244197418 1.645552476971753 5.219013097802023 1 0 0
97 33 2 -1.1794 -12.075448894275452 0.6964650506988779 5.28347297373178 1 0 0
44 15 1 0.5897 -10.069119168336213 0.836739994307095 0.18316245120870997 1 0 0
74 25 1 0.5897 -8.173405709125882 -3.019073550242428 5.359850641394272 1 0 0
307 103 2 -1.1794 -2.513832721323162 -0.8147300189803222 0.7194397004080839 1 1 0
1046 349 1 0.5897 -4.941914349730394 1.491511893360201 0.08783793488035464 0 -1 1
1285 429 2 -1.1794 -6.04985624939497 -1.734124372897167 0.07798921953902015 0 0 1
1249 417 2 -1.1794 -13.490242125987729 -1.5689663199982409 0.07236430404949078 0 0 1
400 134 2 -1.1794 -10.542340241884354 -0.9769312247293236 6.990207266517469 1 0 0
536 179 1 0.5897 -9.798946648491974 0.22809260622400984 9.885383531780274 1 0 0
402 134 1 0.5897 -11.001713585717738 -0.5164956786904842 6.287999409877237 1 0 0
526 176 2 -1.1794 -12.665632871027402 1.1523780554588807 9.20775857433144 1 0 0
522 174 1 0.5897 -10.051519559179109 2.118839135341357 7.173362209634646 1 0 0
537 179 1 0.5897 -9.478343985438865 0.2262738660957293 8.405823726165496 1 0 0
443 148 1 0.5897 -7.972057699879816 1.7734507976284242 9.470777943067766 0 0 0
426 142 1 0.5897 -8.847447439094479 -1.7533935112286976 6.896141894414764 1 0 0
401 134 1 0.5897 -11.239769517229593 -1.3587007343149535 7.523191779379556 1 0 0
527 176 1 0.5897 -11.94525133462912 1.5833491729648355 8.747823464690098 1 0 0
535 179 2 -1.1794 -9.082466847278921 0.3666207879899481 9.265947142033909 1 0 0
424 142 2 -1.1794 -7.932382520406426 -2.0206836829817174 6.810128243288513 1 0 0
528 176 1 0.5897 -12.237257004758622 0.6106748572253657 9.87044123219157 1 0 0
435 145 1 0.5897 -7.686382072350144 -0.6718585391947123 9.937957117767107 0 0 0
464 155 1 0.5897 -1.9512899280031757 -0.16969888315490422 10.09676867555069 0 0 0
425 142 1 0.5897 -7.4326385564229085 -1.2188101686243735 6.963084488446486 1 0 0
328 110 2 -1.1794 -2.6061230444501007 -0.785708420255709 7.233426556303604 0 0 0
339 113 1 0.5897 -5.486027075983523 0.3096179075905354 6.356499990020969 0 0 0
433 145 2 -1.1794 -6.867350376416325 -1.076994769744383 10.222892921639506 0 0 0
415 139 2 -1.1794 -8.449601325503423 1.5077871920892907 6.227675938407752 1 0 0
411 137 1 0.5897 -13.417426096344059 0.43042383987585175 6.392385390900302 1 0 0
442 148 2 -1.1794 -7.2699637161444866 2.4166392973828508 9.568614814674728 0 0 0
444 148 1 0.5897 -6.464789210925252 1.9003144114655264 9.53380519915101 0 0 0
358 120 2 -1.1794 -4.661041896889263 -2.187070793267834 8.510123658955807 0 0 0
416 139 1 0.5897 -7.646256718404492 1.1816018245452522 6.6331249076691385 1 0 0
405 135 1 0.5897 -5.151388358542166 -2.6008053204091697 6.665725344475682 1 0 0
454 152 2 -1.1794 -4.844571946170477 1.2536275070124656 9.127773754851441 0 0 0
337 113 2 -1.1794 -6.17957250774368 0.18701137938828616 7.004708785992918 0 0 0
456 152 1 0.5897 -4.369086976031073 0.7356087206508892 9.777131160833395 0 0 0
329 110 1 0.5897 -3.29305404289624 -1.2346064242863237 7.726204714612311 0 0 0
330 110 1 0.5897 -3.079198255018831 -0.22252337211670792 6.620969227603418 0 0 0
360 120 1 0.5897 -5.260699948702482 -1.786091442590659 9.139250029176706 0 0 0
338 113 1 0.5897 -5.766344721538793 0.39980339647810403 7.841480578402914 0 0 0
455 152 1 0.5897 -4.164854625038548 1.7516161714600553 8.673676495108863 0 0 0
403 135 2 -1.1794 -5.077571159941428 -2.955027037409735 5.7795584861433476 1 0 0
465 155 1 0.5897 -1.6883017971528762 -0.1406263718580778 8.606179584878877 0 0 0
520 174 2 -1.1794 -10.72714325176299 2.50127285815055 7.73323127707736 1 0 0
410 137 1 0.5897 -13.610743566767308 0.5588798410383458 7.888384292292214 1 0 0
417 139 1 0.5897 -8.676278433550136 0.8442200604062098 5.57617571622934 1 0 0
902 301 1 0.5897 -4.620328310649509 1.9980552431024794 16.3596533748697 0 0 0
763 255 2 -1.1794 -3.4956010875203845 -0.20373046108929316 10.946612690178469 0 0 0
772 258 2 -1.1794 -5.997465049365445 -1.8681175844899567 13.348310317639262 0 0 0
773 258 1 0.5897 -6.116810962762995 -0.9645008653501055 13.056372675594028 0 0 0
761 254 1 0.5897 -9.48067905146473 1.4042552161117197 13.17154239363393 0 0 0
896 299 1 0.5897 -7.832293883570079 2.740636901075348 15.50275491104956 0 0 0
792 264 1 0.5897 -11.578805968699795 0.7263384914273647 14.334516415158687 0 0 0
836 279 1 0.5897 -11.381174772792466 -1.3460689886345385 11.137503213914005 1 0 0
760 254 2 -1.1794 -8.726354938252438 1.7814286594640727 12.718808733059747 0 0 0
837 279 1 0.5897 -11.120058042934732 -0.14772406295080742 12.024862515854021 1 0 0
791 264 1 0.5897 -10.688204212058835 -0.4672335752956336 14.063142327339229 0 0 0
762 254 1 0.5897 -9.10698130376436 2.3077017805948667 12.015770125265893 0 0 0
790 264 2 -1.1794 -10.898127960252493 0.4091963752960126 13.74097119063617 0 0 0
764 255 1 0.5897 -3.5984917627487274 -1.154343431339882 10.988707106097253 0 0 0
819 273 1 0.5897 -5.401747256536029 -0.3139572556396306 15.922129108568235 0 0 0
924 308 1 0.5897 -2.821690586895171 3.405725153543681 15.248430739189615 0 0 0
786 262 1 0.5897 -7.121191519416167 1.0736819672066638 12.511914830017089 0 0 0
903 301 1 0.5897 -5.546901115516194 2.0105124950667754 15.162503833044205 0 0 0
817 273 2 -1.1794 -5.782685282952735 -1.1862374742811053 16.02258950016917 0 0 0
897 299 1 0.5897 -7.691110174891948 2.6534724893857184 13.997978115583328 0 0 0
888 296 1 0.5897 -10.460204599283689 3.162855532596403 15.11662985505016 0 0 0
805 269 2 -1.1794 -4.617183289423493 2.916417052171992 12.435469280640492 0 0 0
828 276 1 0.5897 -3.4987506948550946 0.7771277565953287 14.173312874527202 0 0 0
901 301 2 -1.1794 -4.834998860323509 1.5120092809813617 15.563489400162508 0 0 0
895 299 2 -1.1794 -7.23880274984565 2.9591446915830364 14.78424441408091 0 0 0
826 276 2 -1.1794 -2.8312917241724334 0.40835697221351985 13.59479411080451 0 0 0
765 255 1 0.5897 -3.4306443479743454 0.0713545357486094 11.861116541428844 0 0 0
784 262 2 -1.1794 -6.2901752035126535 0.6326097038116796 12.335819924737596 0 0 0
785 262 1 0.5897 -5.654378803078231 1.3431205964394781 12.25151372899582 0 0 0
827 276 1 0.5897 -2.776161616769408 -0.5127840422694199 13.84868794171393 0 0 0
806 269 1 0.5897 -4.144586853473038 3.098753598761345 13.247650390959869 0 0 0
769 257 2 -1.1794 -12.446537514868563 2.7099147420502376 12.136377861021582 0 0 0
770 257 1 0.5897 -12.03877594403313 3.127087215803753 12.895267497788488 0 0 0
1137 379 1 0.5897 -2.612013549559199 -0.9016765681712187 16.34958714148395 0 0 0
807 269 1 0.5897 -3.966796295825196 3.045715016300786 11.745164887876568 0 0 0
865 289 2 -1.1794 -12.726546520164188 1.3214239157469354 15.580514939288534 0 0 0
818 273 1 0.5897 -5.8189032426615075 -1.536243356677173 15.132419987187715 0 0 0
835 279 2 -1.1794 -11.160245797816973 -0.4153222167126618 11.106719243259858 1 0 0
866 289 1 0.5897 -12.540169843036091 1.9280019543191198 16.29710484972346 0 0 0
771 257 1 0.5897 -11.752285349178708 2.678069775742715 11.478170179916553 0 0 0
434 145 1 0.5897 -6.576191256827557 -0.5381887549632172 10.958498482177443 0 0 0
1231 411 2 -1.1794 -1.9419423738062882 2.2458916375915923 16.629385011948365 0 0 0
1247 416 1 0.5897 -5.553181258442218 -0.38220957435192915 19.641189412047602 0 0 0
1101 367 1 0.5897 -10.381886157746248 -0.8657817089839792 16.38744794957168 0 0 0
1229 410 1 0.5897 -7.699755947171633 3.761226022747742 18.481757766831564 0 0 0
1135 379 2 -1.1794 -2.3026710962390293 -0.33611013906159926 17.057136519969667 0 0 0
1217 406 1 0.5897 -11.667861767784096 3.817571256143138 17.82511218063072 0 0 0
1295 432 1 0.5897 -1.3984104573440739 2.0101232316271123 19.673765538042687 0 0 0
1136 379 1 0.5897 -1.44526647786879 -0.6914453975471009 17.291076295599595 0 0 0
1196 399 1 0.5897 -9.702402028737895 1.407879578730018 16.521797738326754 0 0 0
1272 424 1 0.5897 -0.07960968712989036 -0.3656761392702954 20.186154677950192 0 0 0
1232 411 1 0.5897 -2.2335259000239027 1.3419530040794339 16.74739357749793 0 0 0
1099 367 2 -1.1794 -10.114118296395013 -0.37314877790201173 17.1632147741157 0 0 0
1236 412 1 0.5897 -7.898071410275225 -0.04718629046090683 20.210345900856396 0 0 0
1009 337 2 -1.1794 -11.187471913733921 4.033963223045637 21.073635592876897 0 -1 0
1100 367 1 0.5897 -9.34099470955542 -0.8357500755645493 17.48631702238812 0 0 0
1234 412 2 -1.1794 -8.764463116330354 0.3586510701064025 20.23850536118624 0 0 0
1259 420 1 0.5897 -9.050803170571522 1.8777412424002886 19.55556889995747 0 0 0
1258 420 2 -1.1794 -9.064618372676108 2.7866937584864964 19.256195097273057 0 0 0
1260 420 1 0.5897 -9.698801321019422 3.2182083942915796 19.828713210706283 0 0 0
1216 406 2 -1.1794 -12.307953946254555 3.1067517904556894 17.859640099500496 0 0 0
1197 399 1 0.5897 -9.365704360134863 2.6070451433993203 17.382203043967962 0 0 0
1206 402 1 0.5897 -11.187401093682022 0.1116103081016373 18.555265043800027 0 0 0
1235 412 1 0.5897 -9.372521343383061 -0.37767668528864995 20.303678155315552 0 0 0
1205 402 1 0.5897 -11.906888763783863 1.41162029982541 18.84456405511159 0 0 0
1254 418 1 0.5897 -5.468297948818151 3.489436299116841 17.961044129068256 0 0 0
1242 414 1 0.5897 -3.412560480273781 0.3087353384547775 18.59510952034318 0 0 0
1045 349 2 -1.1794 -3.2527711904549275 3.7835197914097574 21.227351755732805 0 -1 0
1286 429 1 0.5897 -4.050444650892975 0.9023325463114826 20.9502483780175 0 0 0
1218 406 1 0.5897 -13.14474361073956 3.5445393759067425 18.015391525565278 0 0 0
1271 424 1 0.5897 -1.5839645318545763 -0.4847584584921041 20.307193601710424 0 0 0
1287 429 1 0.5897 -3.6961977444040546 2.094136030785176 21.813824778698482 0 0 0
1252 418 2 -1.1794 -4.613813129636449 3.071071156390609 17.85634091694437 0 0 0
1251 417 1 0.5897 -11.428095871187496 2.3333372071298353 21.727417755869148 0 0 0
1270 424 2 -1.1794 -0.8689905625173662 0.1502081451921331 20.349995927462153 0 0 0
1240 414 2 -1.1794 -4.104618321140849 0.6558864383801986 19.157892756848227 0 0 0
1241 414 1 0.5897 -4.254615726824832 1.5438088437725224 18.833708414148035 0 0 0
1296 432 1 0.5897 -2.029306504658896 3.3501635644440544 19.986197613486326 0 0 0
1233 411 1 0.5897 -1.801580396188708 2.5708165964009577 17.51873630732696 0 0 0
1047 349 1 0.5897 -4.065839812866391 4.121158281549208 20.851761085000398 0 -1 0
1250 417 1 0.5897 -11.648543412574153 1.0484652522330968 20.957935431921513 0 0 0
1195 399 2 -1.1794 -9.387254172740683 2.310275856713476 16.472431065523047 0 0 0
1246 416 2 -1.1794 -6.318912705802475 -0.8115639898235028 20.02268131021149 0 0 0
1204 402 2 -1.1794 -11.76165698062326 0.5328360421620673 19.194776595357858 0 0 0
1253 418 1 0.5897 -3.9930264732545915 3.7987279154979543 17.820141587981 0 0 0
1294 432 2 -1.1794 -1.4180250308083995 2.922806190823346 19.386308435905306 0 0 0
273 91 1 0.5897 -8.47239712865655 1.510941994271045 21.774110228224373 1 1 -1
40 14 2 -1.1794 -15.119639436144514 3.7637882461256478 1.5497774818760461 1 0 0
177 59 1 0.5897 -14.265719393459477 4.319292729570359 3.226938198741111 1 0 0
56 19 1 0.5897 -12.23869032443657 5.838277925051367 1.2408361653875584 1 0 0
66 22 1 0.5897 -13.446481320264365 3.099344587106849 1.5378959137697106 1 0 0
65 22 1 0.5897 -11.960380544254027 3.3766116460108133 1.6189160664331474 1 0 0
64 22 2 -1.1794 -12.595994103372725 2.6621122172600504 1.5782534415944647 1 0 0
191 64 1 0.5897 -12.704368241018672 6.082613352540818 4.016036114575192 1 0 0
183 61 1 0.5897 -12.43989247165044 3.723136372192366 4.430337327615416 1 0 0
175 59 2 -1.1794 -13.881969625656584 4.6572580658336165 4.036101161704391 1 0 0
176 59 1 0.5897 -14.573284033444141 4.555585417493562 4.690309337484029 1 0 0
181 61 2 -1.1794 -11.600375458279887 3.2945843565778876 4.596714081401799 1 0 0
55 19 2 -1.1794 -13.059444771939011 6.209584063582721 0.9173613242094775 1 0 0
42 14 1 0.5897 -15.406460303826393 4.353035255648168 0.8522038175285742 1 0 0
108 36 1 0.5897 -10.185014004075887 2.6108683996318423 3.3251623336545606 1 0 0
198 66 1 0.5897 -6.878005459710735 6.732673764866096 2.1029383233129466 1 0 0
192 64 1 0.5897 -11.231181263206217 6.4294122031619505 4.05316724897446 1 0 0
111 37 1 0.5897 -4.53586321516399 3.749454341320515 4.4285304370767795 0 0 0
190 64 2 -1.1794 -12.1013751196423 6.82593922115114 4.012270593296472 1 0 0
86 29 1 0.5897 -10.41463178019829 5.180202356839528 2.5162028977318136 1 0 0
87 29 1 0.5897 -9.975047502715576 4.7631727746033565 1.1288643571616275 1 0 0
85 29 2 -1.1794 -10.72275088935044 4.736661839220128 1.725919597383386 1 0 0
45 15 1 0.5897 -9.87650847413313 2.097950818406357 0.9979354117285114 1 0 0
106 36 2 -1.1794 -9.418085897511862 2.227397156978528 2.8997890906979227 1 0 0
162 54 1 0.5897 -14.287634076668564 6.717273795372705 2.1815094954891534 1 0 0
212 71 1 0.5897 -6.52566949053226 4.857052761882011 4.748164557244563 1 0 0
76 26 2 -1.1794 -7.213541716635055 3.8094574592794928 2.021886880648365 1 0 0
102 34 1 0.5897 -5.626553853225879 2.9431908085369702 1.7564125281285954 1 0 0
204 68 1 0.5897 -9.111511214361709 5.222342243004611 4.469562144831445 1 0 0
211 71 2 -1.1794 -5.799104770744908 5.003760632069582 4.142505973148892 1 0 0
100 34 2 -1.1794 -4.737645783887192 2.6371577780267366 1.576518579818807 1 0 0
203 68 1 0.5897 -8.75145538583252 6.325603450829918 3.4975766621975333 1 0 0
77 26 1 0.5897 -7.830910257088445 3.2059534343200244 2.4351962922996364 1 0 0
213 71 1 0.5897 -6.14223382746391 4.741845215293761 3.2881672384446374 1 0 0
202 68 2 -1.1794 -9.500534183951771 5.875117342258269 3.8876626058267805 1 0 0
78 26 1 0.5897 -7.7200849434289065 4.234000683436205 1.3295705869773893 1 0 0
101 34 1 0.5897 -4.190860677001509 3.416574518438736 1.6749415282768851 1 0 0
167 56 1 0.5897 -16.65934555978641 6.124264169701888 3.464086946764533 1 0 0
91 31 2 -1.1794 -5.486232260528425 6.201295834862378 0.9523268789889714 1 0 0