LAMMPS (30 Jul 2021)
Processor partition = 0
  using 4 OpenMP thread(s) per MPI task
using multi-threaded neighbor list subroutines
variable        pid world 0 1
variable        phase world IceII IceIh

shell cd ${phase}
shell cd IceII
include Restart.lmp
echo both
log log.lammps
#include		in.partitions
include		in.temp
variable        temperature equal 85.10
variable	tempDamp equal 100.0
include		in.pressure
variable        pressure equal 2036.0
variable        pressureDamp equal 1000.0 # This is 1 ps
include		in.seed
variable        seed equal 745823

units		real
atom_style	full
box tilt large
read_restart	restart.lmp.${pid}
read_restart	restart.lmp.0
Reading restart file ...
  restart file = 30 Jul 2021, LAMMPS = 30 Jul 2021
  restoring atom style full from restart
  triclinic box = (-10.601166 -9.2177740 0.13771599) to (12.581166 12.207772 21.722283) with tilt (-9.2474596 1.9166952 2.6981448)
  2 by 2 by 4 MPI processor grid
  restoring pair style lj/cut/tip4p/long/omp from restart
  restoring bond style harmonic/omp from restart
  restoring angle style harmonic/omp from restart
  1296 atoms
  864 bonds
  432 angles
Finding 1-2 1-3 1-4 neighbors ...
  special bond factors lj:    0        0        0       
  special bond factors coul:  0        0        0       
     2 = max # of 1-2 neighbors
     1 = max # of 1-3 neighbors
     1 = max # of 1-4 neighbors
     2 = max # of special neighbors
  special bonds CPU = 0.001 seconds
  read_restart CPU = 0.006 seconds
include 	in.setup
variable	out_freq equal 1000
variable	out_freq2 equal 10000
variable	out_freq3 equal 1000

timestep	2.0

neigh_modify    delay 7 every 1

include		in.tip4p
# This is TIP4P/Ice

# create groups ###
group ox type 2
432 atoms in group ox
group hy type 1
864 atoms in group hy

# set charges - beside manually ###
set group ox charge -1.1794
Setting atom values ...
  432 settings made for charge
set group hy charge 0.5897
Setting atom values ...
  864 settings made for charge

# ### TIP3P Potential Parameters ###
pair_style lj/cut/tip4p/long/omp 2 1 1 1 0.1577 8.5
pair_coeff 1 1*2 0.000 0.000
pair_coeff 2 2 0.21084 3.1668
bond_style  harmonic
bond_coeff  1 450 0.9572
angle_style harmonic
angle_coeff 1 55 104.52
kspace_style pppm/tip4p/omp 1.0e-5
pair_modify tail yes

thermo          ${out_freq}
thermo          1000
thermo_style    custom step temp pe etotal epair emol press lx ly lz vol pxx pyy pzz pxy pxz pyz enthalpy

restart 	${out_freq3} restart.lmp.${pid} restart2.lmp.${pid}
restart 	1000 restart.lmp.${pid} restart2.lmp.${pid}
restart 	1000 restart.lmp.0 restart2.lmp.${pid}
restart 	1000 restart.lmp.0 restart2.lmp.0


include         in.dump
dump            myDump all atom ${out_freq2} dump.water.${pid}
dump            myDump all atom 10000 dump.water.${pid}
dump            myDump all atom 10000 dump.water.0
dump            myDump2 all dcd ${out_freq2} dump.dcd
dump            myDump2 all dcd 10000 dump.dcd
dump_modify     myDump append yes
dump_modify     myDump2 append yes


variable natoms 	equal  "count(all)"                        # NUMBER ATOMS
variable H      	equal  "enthalpy/v_natoms"                 # ENTHALPY-per-atom
variable Vol      	equal  "vol/v_natoms"                 # volume-per-atom
fix AVG all 		ave/time ${out_freq} 1 ${out_freq} v_Vol v_H file vol_enthalpy.dat
fix AVG all 		ave/time 1000 1 ${out_freq} v_Vol v_H file vol_enthalpy.dat
fix AVG all 		ave/time 1000 1 1000 v_Vol v_H file vol_enthalpy.dat


timer           timeout 10:00:00 every 1000
New timer settings: style=normal  mode=nosync  timeout=10:00:00

fix 		1 all shake 1e-6 200 0 b 1 a 1
Finding SHAKE clusters ...
       0 = # of size 2 clusters
       0 = # of size 3 clusters
       0 = # of size 4 clusters
     432 = # of frozen angles
  find clusters CPU = 0.000 seconds
fix             2 all nph tri ${pressure} ${pressure} ${pressureDamp}
fix             2 all nph tri 2036 ${pressure} ${pressureDamp}
fix             2 all nph tri 2036 2036 ${pressureDamp}
fix             2 all nph tri 2036 2036 1000
fix             3 all temp/csvr ${temperature} ${temperature} ${tempDamp} ${seed}
fix             3 all temp/csvr 85.1 ${temperature} ${tempDamp} ${seed}
fix             3 all temp/csvr 85.1 85.1 ${tempDamp} ${seed}
fix             3 all temp/csvr 85.1 85.1 100 ${seed}
fix             3 all temp/csvr 85.1 85.1 100 745823


run             250000
PPPM initialization ...
  extracting TIP4P info from pair style
  using 12-bit tables for long-range coulomb (../kspace.cpp:340)
  G vector (1/distance) = 0.36902526
  grid = 30 40 32
  stencil order = 5
  estimated absolute RMS force accuracy = 0.0041547855
  estimated relative force accuracy = 1.2512013e-05
  using double precision FFTW3
  3d grid and FFT values/proc = 11832 2400
Last active /omp style is kspace_style pppm/tip4p/omp
Neighbor list info ...
  update every 1 steps, delay 7 steps, check yes
  max neighbors/atom: 2000, page size: 100000
  master list distance cutoff = 10.8154
  ghost atom cutoff = 10.8154
  binsize = 5.4077, bins = 7 5 4
  1 neighbor lists, perpetual/occasional/extra = 1 0 0
  (1) pair lj/cut/tip4p/long/omp, perpetual
      attributes: half, newton on, omp
      pair build: half/bin/newton/tri/omp
      stencil: half/bin/3d/tri
      bin: standard
Setting up Verlet run ...
  Unit style    : real
  Current step  : 31000000
  Time step     : 2
  Walltime left : 9:59:59.97
Per MPI rank memory allocation (min/avg/max) = 12.76 | 12.77 | 12.77 Mbytes
Step Temp PotEng TotEng E_pair E_mol Press Lx Ly Lz Volume Pxx Pyy Pzz Pxy Pxz Pyz Enthalpy 
31000000    91.774287   -6786.1974   -6550.1136   -6786.1974            0    2491.8796    23.182333    21.425546    21.584567    10720.928     2931.675    2304.1783    2239.7854   -153.45792   -186.86456    235.78624    -6160.499 
31001000     84.92464   -6800.2982   -6581.8348   -6800.2982            0    1983.5372    23.329803    21.261378    21.644839    10736.354    1313.4668    2050.9997    2586.1451    232.64984    309.25855    826.18027   -6271.2551 
31002000    85.831772   -6801.3097   -6580.5127   -6801.3097            0    2461.4629     23.16291    21.364315    21.653923    10715.654    2208.9381    2043.4005    3132.0501    342.77833    480.55743    623.60041   -6195.8431 
31003000     85.19385   -6802.1919   -6583.0359   -6802.1919            0    1727.6458    23.236908      21.3027    21.734674    10758.856    1246.4019     2269.151    1667.3846    516.30007    -105.6863    893.17097   -6311.9564 
31004000    86.011556   -6814.9585    -6593.699   -6814.9585            0    1792.1134    23.201347    21.343311    21.690479    10740.986    1332.9088    2167.7647    1875.6668    445.58008   -80.869964    187.01632   -6312.9712 
31005000    85.473385   -6802.3242   -6582.4491   -6802.3242            0    2945.5165    23.055866    21.381705    21.732473    10713.538    3253.2054      2872.84     2710.504    435.79538    388.31335    876.08604   -6122.2241 
31006000    83.319255   -6789.2817    -6574.948   -6789.2817            0    1873.2865    23.214686    21.304414    21.724417    10744.359    2311.9229    1592.0867    1715.8498   -1013.8342  -0.42575408   -353.24008   -6281.4125 
31007000    82.929217   -6801.0677   -6587.7373   -6801.0677            0    2415.9104    23.211738    21.381015    21.622503    10731.043    2796.5187    2052.5554    2398.6573    407.21022   -149.19494   -396.71814   -6209.6443 
31008000    87.980755   -6804.8258   -6578.5006   -6804.8258            0    2267.5357    23.258199    21.369253    21.578728    10724.851    2359.2277    2361.0406    2082.3389    52.824416   -95.055634   -580.76125   -6223.8332 
31009000    90.355039   -6798.5117   -6566.0788   -6798.5117            0    1965.5153    23.288841    21.307545    21.640197    10738.472    1526.2468    2467.9657    1902.3334    518.45888    386.12514   -691.71276   -6258.2603 
31010000    88.456623    -6805.581   -6578.0317    -6805.581            0    2101.7195    23.220898    21.386848    21.626912    10740.397    2293.4168     1773.373    2238.3686    475.15174   -442.15859    327.19646   -6248.8233 
31011000    86.673317   -6803.3199   -6580.3581   -6803.3199            0    2178.2961    23.251965    21.351151    21.628778    10737.741    2690.8708    1936.5262    1907.4913   -317.05165   -432.15372   -889.48702   -6239.2392 
31012000    88.355161   -6795.0575   -6567.7692   -6795.0575            0    2644.4532    23.208179    21.374419    21.610951    10720.357    2576.1119    2699.3725    2657.8751    21.330112   -121.60922    798.05863   -6154.3211 
31013000    84.880663   -6793.2289   -6574.8785   -6793.2289            0    1209.5962    23.283703    21.391668    21.640197    10778.489    1477.3951    1273.4653     877.9283   -609.39062    17.574195   -405.14981   -6384.7382 
31014000    85.267125   -6809.9098   -6590.5653   -6809.9098            0    1953.4457    23.201278    21.461471    21.573574    10742.206     1837.555    1385.1518    2637.6302   -716.53667    147.96216    -94.41438   -6284.5306 
31015000    87.268081   -6802.4127   -6577.9209   -6802.4127            0    2271.7617    23.312404    21.353963    21.550882    10728.292    1836.5218     2355.344    2623.4195   -489.18283   -893.15043   -72.359382   -6222.4785 
31016000     85.80501   -6803.6188   -6582.8906   -6803.6188            0    2058.0388    23.237506     21.35289    21.620229    10727.696    492.68664    2672.9762    3008.4536    168.83556    373.51131   -436.42525   -6260.9054 
31017000    86.412619   -6804.2645   -6581.9733   -6804.2645            0    2102.7138    23.221925    21.328335    21.684728    10740.121    2046.3986    3259.8688     1001.874    561.48228    27.475802   -941.47236   -6252.6175 
31018000     84.71716   -6808.2252   -6590.2954   -6808.2252            0    1997.7869    23.194482    21.346889    21.704529    10746.565    2357.5467    2205.4248    1430.3891   -65.227855    327.28153    -737.5502    -6277.187 
31019000    83.975335   -6802.3913   -6586.3699   -6802.3913            0    1992.0225    23.239372     21.33376    21.668057    10742.658    1674.0355    2545.9721    1756.0599    -160.3739    251.34641   -475.33584   -6274.2784 
31020000    83.088499   -6799.4157   -6585.6756   -6799.4157            0    2051.3497    23.233261    21.337722    21.633696    10724.794    2032.0703    2004.1395    2117.8392    320.59876   -152.34244    46.647824   -6264.8238 
31021000    85.055069   -6810.1519   -6591.3529   -6810.1519            0    2505.2292     23.19336    21.378975    21.580194    10700.545    2534.2772    2223.5844    2757.8259   -690.89543    791.52156   -157.70754   -6200.3956 
31022000    85.915619   -6799.5962   -6578.5835   -6799.5962            0    1449.9494    23.240641    21.336857    21.716997    10769.073    1811.1774    1599.1068    939.56409   -861.95903   -295.38512    579.62207   -6350.8605 
31023000    87.612884   -6811.5019   -6586.1231   -6811.5019            0    2071.6901    23.200004    21.371445     21.64435     10731.65    2762.1845    1475.0707    1977.8151    60.821638   -572.64484    1050.7692   -6261.8827 
31024000     90.19697   -6789.1391   -6557.1129   -6789.1391            0    1926.5772    23.225164    21.337021    21.660244     10733.86    2104.1057    1882.1844    1793.4414     10.54351   -455.86144    386.95969    -6255.522 
31025000    90.763653   -6798.6132   -6565.1292   -6798.6132            0    2059.7704    23.187333    21.312339    21.688098    10717.744    2309.5676      2218.91    1650.8336   -479.23732   -202.49905    1026.8827    -6243.172 
31026000    87.488209   -6795.5871    -6570.529   -6795.5871            0    2339.6239    23.197602    21.346689    21.661712    10726.707    2916.2279    1829.5598    2273.0839   -150.56147   -119.67978    96.268616   -6204.5228 
31027000      83.7785   -6790.8455   -6575.3305   -6790.8455            0    1932.7321    23.266612    21.302077    21.660117    10735.342     1652.126    2475.4667    1670.6035   -126.32502    539.24573    332.17057   -6272.7343 
31028000    82.984693   -6803.6954   -6590.2223   -6803.6954            0    1727.4765    23.170623    21.324933    21.733674    10738.869    2393.4094    1589.0392    1199.9807    847.13476     568.0105    44.459642   -6319.6729 
31029000     84.01968   -6802.4457   -6586.3102   -6802.4457            0    2377.2646    23.207423    21.291348    21.698362    10721.536     1723.161    2621.1258    2787.5069    119.65527    1288.8056    474.19338   -6214.5949 
31030000    90.196483   -6802.0922   -6570.0672   -6802.0922            0    1854.6377    23.204121    21.300537    21.725746    10738.172    2796.5064    2197.1575    570.24927   -1059.0454   -360.06554   -170.93691   -6279.6213 
31031000    84.591906   -6789.1255   -6571.5179   -6789.1255            0    2552.3875    23.153966     21.33836    21.698157    10720.357    2478.3782    2334.0222     2844.762    1065.3161   -339.63323    1109.7682   -6172.4638 
31032000    86.535053    -6797.379   -6574.7728    -6797.379            0    1472.0309    23.257303    21.300906    21.717617    10758.943    1265.5738    1589.1034    1561.4154   -137.68669      -165.33    634.01871   -6343.7992 
31033000    84.279836   -6796.6129   -6579.8081   -6796.6129            0    1578.9585    23.244436    21.392969     21.62892    10755.359    2032.0274    1401.3748    1303.4733   -992.29304    154.52429   -46.025179   -6332.1392 
31034000    84.755564    -6803.412   -6585.3835    -6803.412            0    2974.7407    23.232412    21.314989    21.573931     10683.38     2757.227    2865.9205    3301.0745   -301.45856   -177.19733    840.71857   -6121.9006 
31035000     83.13835   -6801.2015   -6587.3332   -6801.2015            0    3304.0383    23.200022    21.309356    21.590682    10673.947    3020.5436    3825.7667    3065.8048    95.821208    388.67517   -239.36365   -6072.9982 
31036000      83.6572   -6804.4031   -6589.2001   -6804.4031            0    1517.2468    23.223713    21.406766     21.66984    10773.044    1453.0527    1024.7602    2073.9275   -990.47177    634.26505    270.99082   -6350.8197 
31037000    83.755518   -6795.7068   -6580.2508   -6795.7068            0     1316.589    23.327294    21.284996    21.722057    10785.465    664.85088    2052.3688    1232.5473    280.35969    271.76618    271.62231    -6373.158 
31038000    87.646137   -6807.2741   -6581.8097   -6807.2741            0    2336.3303    23.153104     21.36809    21.671108    10721.512    2713.2708    2659.2636    1636.4566   -339.80401    487.56412    -1035.852   -6216.4958 
31039000    82.911148   -6792.4893   -6579.2054   -6792.4893            0     2393.335    23.241217    21.288752    21.689937    10731.671    2217.7854    2611.2207    2350.9988   -376.64121   -422.69096   -516.57196   -6204.6236 
31040000    83.517484   -6803.4202   -6588.5766   -6803.4202            0    1471.2765    23.183631    21.478901    21.612006    10761.891    1498.0482    1163.0814    1752.6998    108.54344    599.32834   -583.61625    -6357.658 
31041000    83.990188   -6805.1687   -6589.1091   -6805.1687            0    1991.0943    23.311056    21.318222    21.599975    10734.113    1358.1758     2662.846    1952.2613   -571.67756   -436.80992   -401.43859   -6277.4112 
31042000     87.90962   -6809.7279   -6583.5857   -6809.7279            0    2007.2784    23.206952      21.4111    21.572268    10718.966    2432.3218    955.69756    2633.8157    54.120513   -475.75736    418.02397   -6269.7977 
31043000    87.116344   -6798.9893   -6574.8878   -6798.9893            0    2137.7234    23.226182    21.410649    21.588044    10735.468    2449.3666    1247.3612    2716.4423   -192.39885   -1369.9749    176.26534   -6240.1934 
31044000     85.15185   -6799.0139    -6579.966   -6799.0139            0    1424.2189    23.285974    21.342474    21.692918    10780.952    1175.4812    1415.1744    1682.0009    146.74451    127.22564    433.07162   -6356.0373 
31045000    79.002583    -6804.281   -6601.0516    -6804.281            0    2108.4155    23.125516    21.354059    21.714686    10723.225    3540.1334    1900.8761    884.23695   -245.64033    132.59249   -251.88485   -6271.3224 
31046000    86.594905   -6798.3385   -6575.5783   -6798.3385            0    2534.9815    23.224608    21.220616    21.738872    10713.796    2794.4147    2913.3394    1897.1903    358.41019    82.845521    -473.4489   -6179.4882 
31047000    84.162544   -6807.5185   -6591.0155   -6807.5185            0    1452.5318    23.222863    21.399644    21.666628    10767.469     1801.156    806.77037    1749.6692    146.09049   -235.48111    414.31511   -6362.9208 
31048000    88.459184   -6800.6034   -6573.0476   -6800.6034            0    2195.7886    23.263513    21.355569    21.593309    10727.676    2228.8813    1236.0605     3122.424   -822.74936   -629.78365   -128.12806   -6229.5117 
31049000    87.785469    -6801.008   -6575.1852    -6801.008            0    2708.9409    23.214349    21.360027    21.573832    10697.582    1951.8152    3422.1461    2752.8613   -44.601696   -62.315076   -158.68546   -6152.5545 
31050000    85.569656    -6799.508   -6579.3853    -6799.508            0    2176.1371    23.206962    21.372678    21.609226    10718.066    2856.3215    2446.7816    1225.3082    -209.0342   -418.47841    94.070505    -6239.229 
31051000    86.831065   -6796.1897   -6572.8221   -6796.1897            0    2367.8055    23.243382    21.292579     21.63777    10708.782     2538.633    2617.2511    1947.5323    -69.32296    326.80426    396.14937   -6203.0263 
31052000    83.230481   -6803.9586   -6589.8532   -6803.9586            0     2050.101     23.12343    21.347335    21.726197    10724.564     2520.103    2205.4336    1424.7665    8.9022553   -22.515375    28.336005   -6269.2036 
31053000    83.569637   -6803.5301   -6588.5523   -6803.5301            0    2337.6792    23.192185    21.251052    21.749849    10719.594    2489.7642    2825.4229    1697.8504    26.253628    775.51186   -39.659117   -6223.0929 
31054000    86.531795   -6798.6426   -6576.0449   -6798.6426            0    1147.5821    23.096921    21.403336    21.801272    10777.484    2107.5572    1473.0995   -137.91037    212.47197   -479.63682   -726.64085   -6395.6696 
31055000    83.363066   -6792.8844    -6578.438   -6792.8844            0    2138.4542    23.241632    21.278339    21.718222    10740.602    2528.1907    1731.9053    2155.2668   -231.89583   -357.04535    257.53989   -6243.4692 
31056000    87.068282   -6792.5244   -6568.5466   -6792.5244            0     2541.884    23.157352    21.401688     21.59861     10704.41    2062.8738    2596.8558    2965.9223    170.28191     553.5647    166.97163   -6171.7259 
31057000     85.00739   -6799.8242   -6581.1478   -6799.8242            0    2296.6369    23.323619    21.287536    21.572736    10710.915    1406.2141    2892.0947    2591.6018     518.4537   -298.78723     815.8973   -6222.3955 
31058000     85.32055   -6803.8564   -6584.3745   -6803.8564            0    1220.3286    23.254132    21.497931     21.52711    10761.741    1661.0635   -47.797892    2047.7203    279.75384   -1317.6099    151.67103   -6392.8452 
31059000    83.045062     -6793.36   -6579.7316     -6793.36            0    1706.3878    23.278857    21.395221    21.591853    10753.958    1664.6849    1324.5574     2129.921   -57.186379   -778.80064    131.27651   -6312.1095 
31060000    81.635154   -6805.5847   -6595.5832   -6805.5847            0    2917.9825    23.234094    21.312414    21.597775    10694.671    2755.8978    2672.4485    3325.6013    194.80149   -199.37617    486.73841   -6140.4632 
31061000    82.374241   -6795.0294   -6583.1267   -6795.0294            0    1917.1397    23.114345    21.447586    21.687029    10751.277     2530.897    2026.6343    1193.8879   -445.61963    286.73541   -253.01999   -6282.5261 
31062000     88.20243    -6802.767   -6575.8716    -6802.767            0    1798.0791    23.283112    21.278103     21.72035    10760.706    1796.0651    2261.8603     1336.312    -145.5027   -299.97351   -381.98714   -6293.6921 
31063000    87.599785   -6791.5642    -6566.219   -6791.5642            0    2681.6815    23.116675    21.416563    21.668368     10727.57    3789.1596    1704.0704    2551.8145    135.99651   -881.26828   -582.78085   -6146.6684 
31064000    86.030332     -6804.71   -6583.4022     -6804.71            0    2196.8511    23.347661    21.212902    21.664212     10729.67    1514.0072    2473.9476    2602.5984   -585.91198    589.02016    11.560319   -6239.6362 
31065000    81.934181   -6808.7056   -6597.9349   -6808.7056            0    2004.1085    23.194832    21.443954    21.571077    10729.214    2096.9295    1516.9053    2398.4906   -111.21219    569.94952   -605.80831   -6284.3428 
31066000    89.129933   -6802.0901   -6572.8088   -6802.0901            0    1655.4468    23.297695    21.368667    21.593118    10749.933    1858.3819    1247.5765    1860.3821   -106.46454   -63.132178    152.47501   -6313.2732 
31067000    84.788587   -6814.3061   -6596.1927   -6814.3061            0    1525.4458    23.285411    21.343977    21.627526    10748.952    1472.4781    1479.6627    1624.1965    358.08646   -526.97294   -112.37441   -6357.0601 
31068000    85.151619   -6809.5127   -6590.4654   -6809.5127            0    1698.6209    23.143142     21.42119    21.683369    10749.609    1893.6414    1003.4165    2198.8048    85.693468    60.042736    324.31315   -6324.1692 
31069000     81.53744   -6808.3976   -6598.6475   -6808.3976            0    2122.2013    23.255579    21.251899    21.703982    10726.655    1847.2988    2673.5668    1845.7384   -191.92623    245.66959   -149.06882   -6266.6561 
31070000    83.169037   -6798.6314   -6584.6841   -6798.6314            0    2545.2848    23.062105    21.448212    21.665702    10716.743    2944.5234    3062.8224    1628.5085    703.83208   -562.97159   -54.300209   -6186.8747 
31071000    82.450185   -6790.4186   -6578.3205   -6790.4186            0    1885.7043    23.297887    21.260737    21.695666     10746.52    1245.8922    2740.9324    1670.2883    28.715144    47.741979    573.21553   -6282.7798 
31072000    88.008092   -6789.0495    -6562.654   -6789.0495            0    1792.1185    23.191688    21.370824    21.692163    10751.188    1801.0147    2013.3395    1562.0012   -406.37097    778.42718   -162.09944   -6281.6587 
31073000    84.111413   -6808.9765    -6592.605   -6808.9765            0    1992.9061    23.229949    21.306279     21.66744    10724.164    2576.2913    1390.6151    2011.8118   -39.660344   -187.08637    882.04873   -6280.9126 
31074000    84.034997    -6798.473   -6582.2981    -6798.473            0    1802.8325     23.26465    21.296864    21.666372    10734.909     1422.422    2330.5806    1655.4949    1031.3473   -201.17936   -22.054957   -6300.0509 
31075000    86.587337   -6804.0643   -6581.3236   -6804.0643            0    1830.5098    23.234537    21.364565    21.638726    10741.372    1672.1345     2111.124    1708.2708    361.55101    1028.7211   -235.27572   -6294.5708 
31076000     86.12542   -6804.9534    -6583.401   -6804.9534            0     2621.196    23.322415    21.265369    21.563411    10694.584    2425.6377    2349.0747    3088.8756    114.22433     281.2503    386.03202   -6174.5742 
31077000    85.508668   -6809.8605   -6589.8947   -6809.8605            0    1484.4064    23.200935    21.433474    21.602495    10742.416     1268.213    1575.0601     1609.946   -118.45813    326.47799    44.764613    -6357.337 
31078000    89.427412   -6797.2673   -6567.2208   -6797.2673            0    2045.5354    23.211511    21.301499    21.701181    10729.931    1741.4923     2271.772     2123.342   -460.27935   -129.44552    327.02834   -6247.1251 
31079000    86.577862   -6813.6112   -6590.8949   -6813.6112            0    1924.9709    23.175763    21.342997    21.718524    10742.856    2469.8237    2663.3587    641.73024   -20.587555   -340.34191    54.874272   -6289.3029 
31080000    88.056294   -6797.8706   -6571.3511   -6797.8706            0    1623.3251    23.163823    21.366196    21.736555    10757.916    2449.3177    1022.1375      1398.52    90.722643   -1.9312223    698.81546   -6316.6625 
31081000    85.395849   -6806.6384   -6586.9628   -6806.6384            0    2344.8717    23.173945    21.236121    21.755093    10706.219    1866.3753    3485.9073    1682.3326   -69.230457    367.33202    -291.8145   -6220.8364 
31082000    83.789336   -6803.4343   -6587.8913   -6803.4343            0    1682.0848     23.17235    21.385979    21.664043    10735.906    2163.8555    1542.4384    1339.9605    431.23921    73.226547   -85.525434   -6324.5236 
31083000    83.140337   -6797.2495   -6583.3761   -6797.2495            0    2255.6504    23.305212    21.295203    21.621728    10730.631    1103.1358    2858.8838    2804.9318   -663.61811    643.68297   -600.03703   -6230.3775 
31084000     92.60318   -6804.2438   -6566.0277   -6804.2438            0    2066.2048    23.220718    21.415245    21.573414    10727.971    1349.4512    2618.2841     2230.879    527.56926    545.61037    114.54974   -6242.7567 
31085000    83.520958   -6800.8831   -6586.0305   -6800.8831            0    2471.4204    23.244587    21.315699    21.621156    10712.734     2463.647    2329.0592    2621.5548   -253.32321    531.52865    287.89531     -6199.91 
31086000    84.086623   -6805.2861   -6588.9783   -6805.2861            0    1529.1542    23.267004    21.355864    21.640072     10752.67    860.46396    1901.4924    1825.5063   -521.01311    860.51911    41.132123   -6349.1815 
31087000    83.456601   -6808.4693   -6593.7822   -6808.4693            0    1233.6401    23.241474    21.361498    21.703662    10775.276    1127.5618    1030.3042    1543.0541   -383.16141   -553.07117    455.08828   -6399.9202 
31088000    84.060598    -6797.468   -6581.2272    -6797.468            0    1846.2483    23.224435    21.361229    21.674316    10752.682    2196.4103    1889.6444    1452.6901   -465.26349   -928.38831    126.42228   -6291.7044 
31089000    83.717866     -6815.87   -6600.5109     -6815.87            0    1807.9847     23.19032    21.396949    21.632797    10734.239    1794.5087    1633.8734    1995.5721   -243.04809    65.695584     111.3032   -6317.4748 
31090000    83.575042   -6801.5064   -6586.5147   -6801.5064            0    1812.0826    23.285091    21.321489    21.619332    10733.411    1164.6392    2224.5767    2047.0318   -110.06592    226.14735    93.398118    -6302.859 
31091000    85.576032   -6812.9527   -6592.8136   -6812.9527            0    1840.6849    23.261337    21.390886    21.565382    10730.516    1901.4003    1753.5838    1867.0707      234.308    12.552022   -435.56979   -6304.7583 
31092000    84.350817   -6799.1716   -6582.1843   -6799.1716            0    2653.4642    23.320682    21.331944     21.55318    10722.179    1693.7578    2311.5468     3955.088    554.79404    126.60959    410.78241   -6167.2568 
31093000    84.442709   -6801.5832   -6584.3595   -6801.5832            0    1559.8382    23.245099    21.354523    21.696075    10769.671    1084.0807    1902.4474    1692.9866    313.07458   -30.540702    43.951024   -6339.3641 
31094000    87.989619   -6805.0935   -6578.7456   -6805.0935            0    2218.9839     23.09156    21.419595    21.691311     10728.78    3298.3206    1746.7136    1611.9176   -545.84189   -284.24769    -459.3609    -6231.545 
31095000    82.938454   -6808.4622    -6595.108   -6808.4622            0    1934.3085    23.305483    21.177562    21.760613    10740.023    2375.4593    2683.7648    743.70123   -314.77376   -573.31991   -396.88362    -6292.133 
31096000    85.521362   -6793.4359   -6573.4374   -6793.4359            0    1545.8827     23.12709    21.433049    21.742355    10777.339    2585.9721    914.81117    1136.8648   -74.665919   -31.421166   -179.07796   -6330.4611 
31097000    85.362368   -6803.0901   -6583.5006   -6803.0901            0    2327.5021    23.272123    21.214102    21.733258    10729.648    1554.5078    3560.2719    1867.7266    134.36288    570.01455    214.02995    -6219.291 
31098000    82.346312   -6809.0902   -6597.2593   -6809.0902            0    2699.8291    23.112212    21.406578    21.646904    10709.879    3182.8004    2254.8718    2661.8151   -379.85399   -11.215442    318.49476    -6175.566 
31099000    86.265933    -6802.179   -6580.2652    -6802.179            0    1636.0084    23.358998    21.309911    21.594606    10749.323     269.7836    1865.8111    2772.4303    -224.0444    386.37545    620.39216   -6323.7916 
31100000    84.549087   -6806.9725   -6589.4752   -6806.9725            0    2278.0457    23.255291    21.390989    21.546707    10718.488    2226.2023     1580.292    3027.6428    35.767188   -458.71755   -351.35163   -6233.3753 
31101000    84.940094   -6815.4272   -6596.9239   -6815.4272            0    1753.2812    23.175405    21.412201    21.666095    10751.506    2167.6634    1421.3728    1670.8073    404.54196   -429.24402    79.219063     -6322.01 
31102000    82.448017   -6795.7777   -6583.6852   -6795.7777            0    2264.2815    23.229928    21.232654    21.786238    10745.692    2677.9651    2318.9707    1795.9086   -121.38264    191.93168    11.967588   -6228.8386 
31103000    85.434871   -6792.6892   -6572.9132   -6792.6892            0    1673.8713    23.052462    21.474264    21.742046    10763.066    3003.1296    1594.0509    424.43356   -337.36696    252.19645   -291.17771   -6310.1685 
31104000     84.75756   -6798.7367    -6580.703   -6798.7367            0    1993.0196    23.275805    21.274434    21.699458    10745.129    2225.7032    1932.2772    1821.0782    -352.9745   -767.04196   -187.37768   -6268.3835 
31105000    87.404563   -6802.1477   -6577.3048   -6802.1477            0    1935.8718    23.160749    21.458307    21.605005    10737.482    2479.3578    1452.0705    1876.1869    385.55678    330.85312   -481.54594   -6274.1566 
31106000    84.793612   -6805.9463   -6587.8199   -6805.9463            0     2248.461    23.330443    21.275648     21.58851    10715.896     1569.527    2728.0035    2447.8526    530.17879   -80.916302   -476.98685   -6236.4296 
31107000    84.889294    -6806.982   -6588.6094    -6806.982            0    1684.1601    23.223486    21.398645    21.635954    10752.012    1584.5501    1354.8337    2113.0966    141.54268    67.410733    274.18836   -6324.5212 
31108000    84.725313   -6804.8649   -6586.9142   -6804.8649            0    1298.1984    23.208766    21.404749    21.673965    10767.145     1501.689    1372.9805    1019.9257    222.90489   -1095.6686   -316.95078    -6383.061 
31109000     84.27877   -6806.6115   -6589.8095   -6806.6115            0     1771.078    23.271328    21.310483    21.680607    10751.917    1148.7842    1788.2998    2376.1499   -221.89199   -421.19529   -713.61362   -6312.0944 
31110000    83.520741   -6801.5207   -6586.6687   -6801.5207            0    2455.5899    23.145679    21.374483     21.67881    10725.091    3320.2085    2270.5999    1775.9614    -52.66056   -130.61934   -599.67088   -6202.5789 
31111000    83.730699    -6797.589   -6582.1968    -6797.589            0    2105.0311    23.332407    21.262057    21.652777    10741.834    2418.5426    2692.0633    1204.4875   -166.80422   -496.99584   -961.66654   -6252.4256 
31112000    88.029705    -6807.832    -6581.381    -6807.832            0    2061.6074    23.168524    21.462196    21.587547    10734.352    1548.2926    1730.8622    2905.6675    872.70282    66.543573    478.86528   -6258.6373 
31113000    86.857472   -6803.1477   -6579.7121   -6803.1477            0     2128.285    23.317701    21.266027    21.625875    10723.728    1245.6194    2873.1254    2266.1101   -47.113125   -301.56159   -179.66493   -6246.8599 
31114000    87.776017    -6803.755   -6577.9565    -6803.755            0    1487.9331    23.178825    21.442374    21.653559    10762.015     1723.261    741.61065    1998.9277    663.91279    160.56444    39.023945    -6344.421 
31115000    82.594185   -6791.2223   -6578.7538   -6791.2223            0     1847.185    23.256763    21.322238    21.680814    10751.217    1859.9392    2019.1791    1662.4368   -178.08882    -420.3701   -217.93313   -6289.1236 
31116000    84.632366   -6815.2148   -6597.5032   -6815.2148            0    1994.8207    23.260592    21.334136    21.597175    10717.482    1651.3868    2067.9674     2265.108   -667.09707    147.65878    506.00921   -6285.7058 
31117000    77.968057   -6806.5985   -6606.0304   -6806.5985            0    2303.8284    23.131532     21.35944    21.698952    10720.944    3214.1349    2337.8363    1359.5141    29.150961   -2.3243255    174.78812   -6245.8177 
31118000    81.929569   -6804.4792   -6593.7204   -6804.4792            0    1901.3108    23.234679    21.245644    21.764303    10743.638    1917.6707    2519.8355    1266.4262   -124.76486   -106.01054   -340.52759   -6295.8136 
31119000     86.07012   -6807.1473   -6585.7372   -6807.1473            0    1945.5647    23.077625    21.433935    21.689948     10728.81    3118.9877    1227.2237    1490.4826   -317.44372    347.01452    124.78666   -6281.3172 
31120000    86.317537   -6804.4904   -6582.4438   -6804.4904            0    2559.5401    23.368009    21.142098     21.68027     10711.11    1536.6444    3605.0973    2536.8786    330.77718    7.5806665    292.27511   -6182.6166 
31121000     84.80133   -6803.7014   -6585.5552   -6803.7014            0    2239.1213    23.135892     21.48798    21.573692    10725.223    1441.6985    2461.5242    2814.1411    271.25847    1113.6887   -138.78883   -6235.3199 
31122000    90.175161   -6801.3209   -6569.3508   -6801.3209            0    2013.9456    23.318554    21.265113    21.656667    10738.928     1492.563    1854.5099    2694.7639    -274.6113    796.79029    539.02826   -6253.9342 
31123000      84.3545   -6806.0256   -6589.0288   -6806.0256            0    1701.0325    23.175652    21.421085    21.634388     10740.34    1476.7172    2095.6311    1530.7493    725.39217   -562.01918    270.20501   -6322.5844 
31124000     83.10178   -6792.1968   -6578.4225   -6792.1968            0    1741.0047     23.27447    21.286006    21.695855    10748.571    1060.3276    2115.4856    2047.2008    1052.3419   -612.15113    430.04611    -6305.508 
31125000    87.506212   -6798.8391   -6573.7347   -6798.8391            0    2476.2062    23.207459    21.316577    21.689498    10729.872    2451.2339    2844.6977    2132.6871    -71.04758    343.16767   -241.41211   -6186.2476 
31126000    87.270854   -6809.5002   -6585.0012   -6809.5002            0    2241.8417    23.121191     21.39755    21.680489    10726.137     2863.058    1484.4055    2378.0616    142.76976    72.000217    402.21115   -6234.3106 
31127000    86.179773   -6808.3092    -6586.617   -6808.3092            0    2497.0567    23.275983    21.256064    21.643414    10708.204    2048.9351    2691.9204    2750.3147   -186.60927    58.901005    326.61174   -6196.6562 
31128000    86.580334    -6806.388   -6583.6654    -6806.388            0    2016.7724    23.127423    21.435335    21.648972    10732.349    2459.5387    1346.2201    2244.5582    489.32553    169.00147    388.47218   -6267.9995 
31129000    88.495574   -6796.1736   -6568.5241   -6796.1736            0     1900.342    23.353213    21.179138    21.722054    10743.748    1675.8222    2797.5546    1227.6491    550.07056   -315.46845   -263.36415   -6270.7661 
31130000     81.43089    -6809.806     -6600.33    -6809.806            0    1722.3703    23.101494    21.493499    21.638703    10744.307    1980.4465    1065.9182    2120.7461    313.94213    509.62523    177.91591   -6330.4437 
31131000    82.530973   -6808.6445   -6596.3386   -6808.6445            0    2031.2725    23.321845    21.249208    21.658389    10733.264    1800.8329    2604.1705    1688.8141   -241.61235    -593.3797   -124.58645   -6278.3761 
31132000    87.336996   -6795.1796   -6570.5105   -6795.1796            0     1952.797    23.095208    21.445828    21.698715    10747.284    2622.8362    1405.6385    1829.9163    683.06171   -275.92769   -170.87889   -6264.4328 
31133000    87.125397   -6802.0287   -6577.9039   -6802.0287            0    1776.5867    23.216048    21.334876     21.71675    10756.556    1997.8554    2125.3885    1206.5164   -1130.1129   -394.04621   -319.51194   -6299.2048 
31134000    83.085947   -6810.7251   -6596.9916   -6810.7251            0    1749.3251    23.212402    21.339162    21.693479    10745.501    1945.1355    2041.8246    1261.0152   -461.01986    230.54986    -124.4548   -6322.8512 
31135000    80.683028   -6802.0456   -6594.4934   -6802.0456            0    2433.5839    23.153811     21.42107    21.607192    10716.722    3050.1413     1775.862    2474.7484   -366.27059   -282.86547   -435.33969   -6214.1427 
31136000     88.10006   -6800.8353   -6574.2033   -6800.8353            0    2016.7655    23.375839    21.266166    21.619298    10747.266    1337.5532     2258.063    2454.6804   -645.06096    84.483712    390.47998   -6258.0998 
31137000    83.858653   -6802.6876   -6586.9663   -6802.6876            0    1680.0504    23.157565    21.518256    21.570626    10748.867    1009.1562    1495.8965    2535.0984    156.29408     466.2919   -180.81094   -6323.5996 
31138000    81.478426   -6802.4597   -6592.8615   -6802.4597            0    2178.6444    23.319792    21.299287    21.582886    10720.111     1821.579    2203.3709    2510.9834   -170.41878   -640.14821     125.1035   -6252.2482 
31139000    83.222551   -6801.4956   -6587.4106   -6801.4956            0    2606.7124     23.12047    21.448351     21.60851    10715.573    2878.0447    2114.6844    2827.4082    32.240781   -251.01059   -201.91119    -6180.045 
31140000    81.501477   -6794.8837   -6585.2261   -6794.8837            0    1340.7089    23.260444    21.350878    21.706497    10780.117    1713.2314    1355.7535    953.14183   -187.78125   -802.37255   -150.38303   -6374.4439 
31141000    84.459944   -6807.1184   -6589.8504   -6807.1184            0    2446.3693    23.190535    21.332266    21.651588    10711.185     2506.514     2683.539    2149.0549   -86.887608   -232.93046    -236.7095    -6207.699 
31142000    85.717638   -6805.4192   -6584.9158   -6805.4192            0    1895.0832    23.215778    21.369302    21.647358    10739.362    2066.8666      1777.14    1841.2429    19.552723   -556.87122    -278.5022    -6288.103 
31143000    85.733791   -6804.0511   -6583.5061   -6804.0511            0    913.33456    23.305231    21.266767     21.75556    10782.641    440.93089    1539.4785    759.59427    24.146969    567.27132   -129.50071   -6439.8808 
31144000    82.331753   -6797.6836   -6585.8901   -6797.6836            0     1743.444    23.152203    21.444344    21.696921     10772.17    2583.6688    995.68581    1650.9773   -85.759625    274.00261    405.69325   -6311.9933 
31145000    85.738925   -6790.3932   -6569.8351   -6790.3932            0    2302.9471    23.306389    21.277236    21.610778    10716.689    1715.1987     2613.939    2579.7038    -42.24841    252.25131   -767.02382   -6209.9031 
31146000    81.483888   -6795.4979   -6585.8856   -6795.4979            0     2370.107    23.204535    21.498764    21.484133    10717.764     2927.307    1270.6091    2912.4049    30.113426   -902.94983   -275.94623   -6215.4199 
31147000     87.04506   -6815.9257   -6592.0076   -6815.9257            0     1866.827    23.334705    21.366086    21.511693    10725.113    454.04342    2160.5668    2985.8709    103.26004   -306.32474   -122.04618   -6300.0082 
31148000    83.908201   -6810.5405   -6594.6917   -6810.5405            0    1720.5627    23.229305    21.404813    21.586453    10733.193    2068.5892    458.10082    2634.9981   -417.76397    221.58875    482.97017   -6325.3676 
31149000     85.97614    -6793.488   -6572.3197    -6793.488            0    2531.3517    23.195326    21.323418    21.679374    10722.697    3392.7226     2549.416    1651.9163   -21.612717   -510.07859    18.594023    -6176.468 
31150000    81.908273   -6799.4482   -6588.7442   -6799.4482            0    2112.7466     23.23617    21.286882    21.716359    10741.467    1868.3711    2353.4144    2116.4543    57.113934    774.00739    503.80482   -6257.7755 
31151000    89.203685   -6805.7277   -6576.2567   -6805.7277            0    1625.9115    23.135636    21.395128    21.739661    10760.912    2581.1387     1505.841    790.75478    18.361128    194.45994    86.056271   -6321.0912 
31152000    81.492675   -6803.3716   -6593.7367   -6803.3716            0    2836.1652    23.247693    21.223965    21.700083        10707    2560.0817    3085.7026    2862.7112   -223.62177    371.85726   -240.47633   -6150.8678 
31153000    86.224118   -6794.5392   -6572.7329   -6794.5392            0    1937.5365    23.166591    21.448155    21.600419     10732.83    3100.6614    783.15494    1928.7933   -726.14658    628.42115    36.910088   -6269.4555 
31154000    85.472945    -6803.527   -6583.6531    -6803.527            0     1803.779    23.349041    21.246954    21.633094    10732.091    1738.7958    2264.7598    1407.7814   -38.077052    3.5603239    323.64975   -6301.3318 
31155000    79.772447   -6796.4232   -6591.2134   -6796.4232            0    2295.9879    23.167537    21.448631    21.561043     10713.94    2077.1323    1912.7532    2898.0783    770.93118    60.374989    523.25372   -6232.4611 
31156000    80.173936   -6808.1168   -6601.8742   -6808.1168            0    2875.3355    23.241308    21.280527    21.607424    10686.757    2277.8394    3126.6474    3221.5199   -463.00105    405.37578    108.38042   -6153.7376 
31157000    84.751035   -6808.6287   -6590.6119   -6808.6287            0    1498.6249    23.215871    21.380502    21.670206    10756.375    2063.8727    759.52095    1672.4811   -697.86388    81.811007    509.81722   -6355.5215 
31158000    82.842506   -6803.1993    -6590.092   -6803.1993            0    2530.9226    23.140912    21.391606    21.635735    10710.149    2485.9841    2623.8227     2482.961   -597.62849    393.04844    53.847593   -6194.7707 
31159000    85.651786   -6803.9307   -6583.5967   -6803.9307            0    2389.4111    23.271089    21.289646    21.651612    10726.928    1979.7647     2809.616    2378.8525   -339.46934    208.74995   -374.08363   -6209.7942 
31160000    83.972655   -6801.0964   -6585.0819   -6801.0964            0    3242.9656    23.125359    21.435062    21.563776    10689.024     3812.704    2951.9673    2964.2255    243.05442   -984.01354   -926.95935    -6079.541 
31161000    85.241669   -6815.0473   -6595.7683   -6815.0473            0    1340.5908     23.37434    21.265165    21.648589     10760.63    936.69467    1552.6284    1532.4493    -157.0656    -370.9932   -609.64646   -6385.3857 
31162000    82.259797   -6795.9553    -6584.347   -6795.9553            0    1668.6687    23.181325    21.425755    21.664468    10760.251    1662.7091    1686.3596    1656.9374   -302.76534   -269.22753   -198.32369   -6322.4874 
31163000    83.920638   -6802.0413   -6586.1605   -6802.0413            0    1955.1462    23.305309    21.306902    21.619845    10735.636    2010.5006    1954.5286    1900.4095   -171.52778   -140.26514   -963.47656   -6280.0467 
31164000    85.828083   -6811.5419   -6590.7543   -6811.5419            0    1811.3492    23.244752    21.366261    21.606846    10731.115    1754.1551     1619.452    2060.4406   -272.31002   -1052.1315   -107.80199    -6307.274 
31165000    84.606029   -6802.1724   -6584.5285   -6802.1724            0    2505.3682    23.203548    21.413298    21.611714    10738.093    2518.4224    1735.1545    3262.5278    135.27417   -524.78738   -327.60254   -6192.1777 
31166000    85.098985    -6793.318    -6574.406    -6793.318            0    2012.3249    23.237884    21.414473    21.589438    10743.488    2164.3596    1533.8363    2338.7787   -415.89536     -203.479   -111.67765   -6259.1095 
31167000    83.351558    -6800.421   -6586.0042    -6800.421            0    1920.5265    23.188317    21.387165    21.632983    10728.496     2026.172     1702.704    2032.7035    218.10957   -314.76576    -165.1401   -6285.5107 
31168000    86.563928   -6794.8602   -6572.1797   -6794.8602            0    2072.3957    23.276271    21.265395    21.666929    10724.677     2097.303    2352.3807    1767.5033    -1253.077    219.60686    445.29112   -6248.0396 
31169000     90.45208    -6798.945   -6566.2625    -6798.945            0    2122.3741    23.168694    21.425687    21.655861    10750.082    2782.0115    1798.6338     1786.477   -488.95772    448.47926   -189.00421    -6233.519 
31170000    85.111486   -6805.3497   -6586.4056   -6805.3497            0    1276.8104    23.377078    21.211223    21.709209    10764.651    729.11875     1901.503    1199.8094    244.85362    43.148557    188.25382   -6385.9573 
31171000     82.30895    -6793.299   -6581.5643    -6793.299            0    2651.0929    23.113716    21.396327    21.651933    10707.934    2881.8784    2088.4203    2982.9801    210.05486   -63.802561    226.69578   -6167.5584 
31172000    86.441258    -6803.384   -6581.0191    -6803.384            0    2137.2342    23.284246     21.20453    21.742115    10734.767    1666.9302    2687.7586    2057.0137   -504.34784    305.78294    300.15926   -6246.4232 
31173000    83.422094   -6806.3114   -6591.7132   -6806.3114            0    1194.2415    23.219248    21.394932    21.688263     10774.17    1488.7377    729.64783    1364.3391   -249.39661    269.97971    100.90298   -6404.0617 
31174000    84.306583   -6807.4159   -6590.5423   -6807.4159            0    2052.5714    23.168512     21.37808    21.654386    10725.381    3014.8302    1571.5287    1571.3552   -249.90122   -868.50131     70.27825   -6269.4818 
31175000    87.679223   -6805.7424   -6580.1929   -6805.7424            0    1813.1945    23.245108    21.315511    21.689135    10746.562    2042.2822    1036.3585    2360.9426   -1100.0854    457.52128   -222.68962   -6296.0153 
31176000    84.105909   -6808.5784   -6592.2211   -6808.5784            0     1573.926    23.122775    21.451533    21.700178    10763.701     2093.227    2233.6825    394.86845   -651.71139   -57.718653   -456.48849     -6345.15 
31177000    86.814963   -6794.7391   -6571.4129   -6794.7391            0    2115.9157    23.283258    21.287595    21.678141    10744.653    2447.2795    1447.1205    2453.3471   -510.04131   -793.52505     598.3437   -6239.8495 
31178000    86.041701   -6798.0275   -6576.6905   -6798.0275            0    2448.8359    23.132592    21.479889    21.587582    10726.557    2909.6218    1936.0058    2500.8802    207.63292   -300.08682     -609.288   -6193.6048 
31179000    86.298627   -6805.3121   -6583.3141   -6805.3121            0    1570.6071     23.34854    21.253412    21.671048    10753.957    929.53154    1854.8967    1927.3931   -217.63739    239.38912   -278.11681   -6336.9873 
31180000    85.266931   -6801.9439   -6582.5999   -6801.9439            0    1307.0193    23.215587    21.433176    21.639335    10767.381    1578.2212    425.08123    1917.7556    396.19667   -684.08467     -240.008    -6377.357 
31181000    87.611349   -6811.1978   -6585.8229   -6811.1978            0    3178.3518    23.324798    21.212568    21.589748    10682.151    2449.7632    4151.5318    2933.7603    323.41256   -802.13092   -98.156963   -6090.6732 
31182000    87.334624   -6800.2571   -6575.5941   -6800.2571            0     2521.952    23.168717    21.362249    21.664299    10722.439    2116.2033     3237.849    2211.8036    -505.5271    752.98016   -229.73499   -6181.2219 
31183000      81.5806   -6800.2271    -6590.366   -6800.2271            0    2044.7982    23.210402     21.36751    21.634792    10729.743     2168.526    2052.0152    1913.8535   -110.23037    85.752127     18.09391   -6270.3913 
31184000    85.249635   -6809.3779   -6590.0784   -6809.3779            0    1753.8055    23.331036    21.287087    21.627898    10741.491    1504.2394    2162.1718    1595.0053   -74.857549   -208.20308    166.08731   -6315.3384 
31185000     82.51119   -6787.8228   -6575.5678   -6787.8228            0    3528.1682    23.151826    21.375211    21.572788    10675.837      3457.73    2745.7639    4381.0107    391.01021   -320.87121    120.17929   -6026.2456 
31186000     87.54184   -6799.7014   -6574.5054   -6799.7014            0     1825.428    23.268188    21.249001    21.713078    10735.505    1165.8465    1934.5424    2375.8952    529.41017   -99.065624    93.335381   -6288.7048 
31187000    83.023417   -6809.7286    -6596.156   -6809.7286            0    1505.4531    23.198683    21.388781    21.681788     10758.32    1648.7327    1187.2333    1680.3933   -90.434369    428.17332   -22.842666   -6359.9518 
31188000    88.417474   -6800.1139   -6572.6653   -6800.1139            0    1595.2528    23.257337    21.304375    21.693931    10748.975    1024.7655     2107.075    1653.9179    277.01812    547.22151    303.00861   -6322.5891 
31189000    80.650157   -6804.9094   -6597.4418   -6804.9094            0    2388.2369    23.200225    21.308731    21.686408    10721.052    2392.6837    2527.6318    2244.3953   -290.95087    479.32736    1274.6407   -6224.0277 
31190000    89.112112   -6793.4067   -6564.1712   -6793.4067            0    2133.4331    23.163841    21.365733    21.684003    10731.683    2386.4108    2030.4068    1983.4817    9.3167908   -684.95555    591.81895   -6230.2663 
31191000    85.754297   -6791.3556   -6570.7579   -6791.3556            0    2574.0548     23.20807    21.278891    21.695337    10714.068    3011.5125    3123.3001    1587.3516   -559.21077   -382.09235     11.44976   -6168.5523 
31192000    82.564065   -6793.8884   -6581.4973   -6793.8884            0    1581.7425    23.155587    21.412291    21.683479    10750.976    1917.4613    1268.1061    1559.6601   -705.10043    144.29838    48.526495   -6333.4928 
31193000    83.743577   -6803.6118   -6588.1866   -6803.6118            0    1449.7273    23.296052    21.293562     21.70443    10766.611    1278.0181    1559.5138      1511.65    -387.1546   -210.55359    326.11697   -6360.5504 
31194000    90.885033   -6816.1356   -6582.3394   -6816.1356            0    2321.6722    23.136161    21.377044    21.672339    10718.764    2083.0452    1754.9549    3127.0166    794.55549    236.27584    351.17439   -6219.4105 
31195000    85.883825   -6797.2503   -6576.3193   -6797.2503            0    2543.8951    23.250826       21.247    21.679863    10710.076    1732.9043    3487.3123    2411.4686    579.95855    -169.6586   -283.98074   -6178.9745 
31196000    88.369365   -6816.4369   -6589.1121   -6816.4369            0    2201.5365     23.21188    21.343005    21.643683    10722.525    1921.2369    2660.0823    2023.2902   -176.89643    811.89156   -320.89891   -6244.8424 
31197000     82.93591   -6794.9563   -6581.6087   -6794.9563            0    1655.3209    23.252113    21.389511    21.641988    10763.672    1620.3049    1210.4647    2135.1932    860.69517   -655.69054    203.65328   -6321.7612 
31198000    85.448032   -6797.2504   -6577.4406   -6797.2504            0    2193.5888     23.35908     21.27893    21.622637    10747.666    1281.3949     2271.308    3028.0635    121.36956    650.31853    649.18397   -6233.6094 
31199000    86.686425   -6800.6928   -6577.6973   -6800.6928            0    2620.8866    23.156068    21.418736    21.595087    10710.595    2449.0515    2216.4842    3197.1239    663.29093    740.36427   -111.43334   -6168.3068 
31200000    82.237152    -6798.589    -6587.039    -6798.589            0    2784.4059    23.306115    21.250824    21.640054    10717.759    2737.6604    2890.9193    2724.6379   -283.19778   -782.64795    66.907894   -6151.8154 
31201000    83.410729   -6795.2384   -6580.6693   -6795.2384            0    1787.9321    23.194216    21.484561    21.585747    10756.557    1073.7316    1800.1111    2489.9535    473.67769    175.91269   -252.28038   -6300.1905 
31202000    84.998837   -6805.8709   -6587.2166   -6805.8709            0    2412.0746    23.269857    21.283806    21.675128    10735.065     2211.685    1835.7095    3188.8293   -141.01533    123.25594    170.65991   -6209.5824 
31203000    82.592902   -6813.4998   -6601.0345   -6813.4998            0    1948.8303    23.151628    21.423805    21.634809    10730.778    2162.8289    2000.5881     1683.074   -285.45254    551.49039   -115.66784   -6296.0477 
31204000    83.445146   -6801.2138   -6586.5563   -6801.2138            0    2162.7554    23.231708    21.318118    21.685315    10739.788     1576.951    2258.1944    2653.1207   -313.21821    293.02731    485.29677   -6247.8065 
31205000    84.084408   -6807.9109   -6591.6089   -6807.9109            0    2082.6258    23.214715    21.280802    21.738742    10739.542     2546.235    2306.8776    1394.7648    355.02181   -523.70197    142.49767   -6265.4172 
31206000    83.498002   -6812.4295   -6597.6359   -6812.4295            0    1531.4843    23.100039    21.427684    21.744768    10763.233     2699.175    1267.8433     627.4348   -257.27182   -226.37767   -312.55087   -6357.2378 
31207000    81.524888   -6802.7182   -6593.0004   -6802.7182            0    2371.5593    23.259748    21.262435     21.67751    10720.805    1658.4424    3341.9345    2114.3009     -196.754    646.21116    468.14588   -6222.2025 
31208000    88.440031   -6811.3537   -6583.8471   -6811.3537            0    2486.2333    23.187335    21.392921    21.597203    10713.181    2552.4615    2641.8244     2264.414    782.83551    174.66257   -103.33378   -6195.3961 
31209000    86.592483   -6801.5366   -6578.7827   -6801.5366            0     1491.873    23.399605    21.319437      21.5535    10752.317    889.13667    1742.3402    1844.1422    272.06171    288.20527    252.10989   -6344.8398 
31210000    84.047117   -6803.0758   -6586.8698   -6803.0758            0    1559.7604    23.263941    21.383419    21.617386    10753.841    1918.3841    1065.9442     1694.953   -230.42188    23.264803     -463.985   -6342.2467 
31211000    86.289814   -6800.2031   -6578.2278   -6800.2031            0    2428.5374    23.184463    21.367361    21.661251    10730.784    1979.4358    2360.9507    2945.2256    562.15806    87.565728    223.22634   -6198.1678 
31212000    82.983053   -6804.1925   -6590.7237   -6804.1925            0    1793.8402    23.273506     21.25318    21.717286    10742.152    1311.1075    2483.0419    1587.3714   -300.14988    210.09441    158.97556   -6309.6948 
31213000    84.129445   -6804.5685   -6588.1506   -6804.5685            0    2231.1766    23.166132     21.37743    21.672373    10732.861    2619.5645    1776.5095    2297.4557   -304.28322   -180.06865    565.08764   -6238.9096 
31214000    82.422614   -6797.7067   -6585.6796   -6797.7067            0    2152.6648    23.223733    21.282574    21.725512     10738.07    2478.9962    2124.0513    1854.9468   -171.51718   -520.06141    198.46469   -6248.5642 
31215000    80.449264   -6805.7268    -6598.776   -6805.7268            0    2040.5248    23.177987    21.350126      21.6901     10733.41    2021.4162    2701.3921    1398.7662   -130.35766    296.73998   -887.73017   -6279.3608 
31216000    82.679165   -6796.4458   -6583.7586   -6796.4458            0    1842.2051    23.191615    21.373403     21.67961     10746.23    2455.1218     1450.312    1621.1814    169.19083    493.38929   -264.33077   -6295.0432 
31217000    83.256067   -6798.3684   -6584.1973   -6798.3684            0    2371.8389    23.262117    21.321452    21.632283    10729.225    1739.6706    3010.1555    2365.6906    565.61125    25.879035   -99.060434   -6213.0644 
31218000    86.313007   -6799.4325   -6577.3976   -6799.4325            0    1944.1115    23.219131    21.387485    21.634865    10743.848    1599.8435    2151.9032    2080.5878    130.63244    161.12756   -276.83246   -6272.7786 
31219000    84.495863   -6804.0377   -6586.6772   -6804.0377            0    1228.5183    23.285376    21.377302    21.635082    10769.479    1296.7777     1432.803    955.97411    70.225872    98.997994   -225.22418    -6393.724 
31220000    82.954072   -6810.3926   -6596.9983   -6810.3926            0    2573.6088    23.188412    21.363993    21.614453    10707.737    2451.4931    2758.9517    2510.3815    43.900417   -14.996655    770.95472   -6195.1001 
31221000    84.300847   -6807.1154   -6590.2566   -6807.1154            0    2415.0178    23.193262    21.240507     21.77241    10725.887    2407.0731    3335.2052    1502.7751   -412.82628    169.24873    359.88317   -6212.4849 
31222000    84.293027   -6808.7604   -6591.9217   -6808.7604            0    2254.0969    23.103466    21.381933    21.703975    10721.694    2568.7034    2320.9955    1872.5918   -316.91627   -819.72736    234.87257   -6239.4601 
31223000    87.497218   -6815.5814   -6590.5001   -6815.5814            0    2318.0514    23.197088    21.314731    21.667023    10713.036    2267.3579    2386.6778    2300.1184    326.86981   -405.67348    642.84906   -6228.3309 
31224000    88.924126    -6802.167   -6573.4151    -6802.167            0    1927.3651    23.246064    21.332674    21.654245    10738.355    1857.7006    1605.0522    2319.3425    219.85769    713.89177   -186.27522   -6271.5745 
31225000      88.2479   -6817.1623     -6590.15   -6817.1623            0    1572.5297     23.25237    21.369814    21.592216    10729.147    1062.3625    1580.8455     2074.381    -262.6392     1478.663   -510.02575   -6344.0906 
31226000    80.609115   -6793.8287   -6586.4667   -6793.8287            0    2153.8797    23.274721     21.29096    21.647433    10727.194    1317.3359    2578.3737    2565.9294    139.99912    1086.9973   -296.70197   -6249.5027 
31227000    90.404527    -6797.671   -6565.1108    -6797.671            0    1068.7693    23.232481    21.385521    21.673733     10768.35    1077.0054    725.31487    1403.9876    1228.2123   -754.80029    527.68271   -6397.2656 
31228000    86.695166   -6792.1026   -6569.0846   -6792.1026            0    2097.2408    23.215088    21.312949    21.707318     10740.39     2115.754    1996.7689    2179.1994   -111.04464   -301.50345    205.06482   -6240.5779 
31229000    83.437351   -6793.3381   -6578.7006   -6793.3381            0    2711.3209    23.134378    21.331788    21.682633    10700.328    3191.4862    2011.7463    2930.7302   -815.21213   -82.725006    568.58326     -6155.59 
31230000    86.711405   -6795.0506   -6571.9908   -6795.0506            0    2254.1986    23.174475    21.346436     21.68842    10729.098    2257.9266    2120.4471     2384.222    663.54784   -686.55622    534.83601   -6219.2699 
31231000     88.79971   -6803.3628   -6574.9309   -6803.3628            0    2174.5852    23.263273    21.288571    21.680953    10737.315    1875.0576    2236.7385    2411.9594    280.95399    263.99481    752.02404   -6234.4067 
31232000    88.878522   -6810.2503   -6581.6157   -6810.2503            0    1983.0833     23.17199    21.334268    21.683194    10719.248    2764.7532    2269.0569    915.43984    553.24806     202.5871   -640.56775   -6271.6018 
31233000    81.652733   -6798.1489   -6588.1023   -6798.1489            0    1930.4274     23.25972    21.328588    21.650086    10740.542    1611.5832    2072.3048    2107.3942   -154.33679     840.8755   -17.907581   -6285.7205 
31234000    89.186542   -6815.7672   -6586.3402   -6815.7672            0    2030.6212    23.223692    21.360635    21.625001    10727.575    1722.4277    2106.6704    2262.7654    68.150544    341.04799    675.78312   -6268.6482 
31235000    88.629394   -6815.6072   -6587.6135   -6815.6072            0    2246.3779    23.221409    21.405863    21.568982    10721.386    1889.0333    2426.2371    2423.8634   -324.27658   -57.220371   -353.94654   -6236.3689 
31236000    83.743393   -6802.5594   -6587.1346   -6802.5594            0    2671.3315    23.268834    21.335346    21.585069    10715.878    2501.1739    2536.5217    2976.2988    232.72815   -691.09393   -35.380769   -6169.6587 
31237000    83.214324   -6805.6124   -6591.5486   -6805.6124            0    1490.6098    23.216766    21.381748    21.660112    10752.405    1251.3742    1075.9263    2144.5289    -455.1314    344.02472    243.31509   -6357.8019 
31238000    85.942105    -6794.512   -6573.4312    -6794.512            0    1156.1148    23.239802    21.482566    21.604899    10786.258     1307.878    426.97976    1733.4867   -751.80729   -497.48695   -194.97209   -6391.5668 
31239000    83.028976   -6802.9747   -6589.3877   -6802.9747            0    2108.4306    23.221767    21.342236    21.668619    10739.064    2227.6536    2055.5017    2042.1365   -480.82916   -676.15125    83.716361    -6259.169 
31240000    85.732425    -6798.201   -6577.6596    -6798.201            0    2125.1852    23.137469    21.391942    21.684955    10733.085    2646.4956    1500.2979    2228.7622    120.85974   -452.80416   -328.57112   -6245.0021 
31241000    83.411309   -6801.5521   -6586.9816   -6801.5521            0    2045.2892    23.252808    21.275361    21.714137    10742.242    2817.2812    2220.2132    1098.3731   -873.84811   -64.036752   -704.80122   -6266.5573 
31242000    84.402705    -6806.125   -6589.0042    -6806.125            0    1512.7804    23.225257    21.425327    21.652246    10774.346    1747.3511    735.60695    2055.3831    717.86197    -348.9166    -239.9138   -6351.2968 
31243000    88.185932   -6808.3331   -6581.4801   -6808.3331            0    2053.5271    23.297321    21.338999    21.603064     10739.78    2044.9533    2629.3628    1486.2651    218.60447   -258.96521   -439.84068   -6259.8389 
31244000    86.665217   -6807.7994   -6584.8584   -6807.7994            0    2023.8256    23.283234    21.359807    21.563774    10724.213    871.63611    1780.4234    3419.4173    71.042457     590.9638    373.42527   -6268.3288 
31245000    89.805052   -6797.5141   -6566.4961   -6797.5141            0    2461.2069    23.229411    21.403781    21.557027    10718.094      2323.97    2566.5787     2493.072    -378.1598    557.68533   -618.98811   -6181.7789 
31246000    82.889104   -6804.0099   -6590.7827   -6804.0099            0    1616.2519    23.273875     21.34221    21.669348     10763.51    1777.2697    2001.4283    1070.0576   -148.24238   -477.61068    238.58666    -6337.072 
31247000    84.424123   -6801.6578   -6584.4819   -6801.6578            0    2274.5232    23.097299    21.449122    21.678425    10739.856    2593.1753     2152.261    2078.1331    410.98438   -361.49148   -29.652709   -6228.2239 
31248000    85.697323   -6799.5123   -6579.0611   -6799.5123            0    2213.6832    23.202897    21.280056    21.727193    10727.996    2715.6389    1812.7656    2112.6451   -785.73293   -666.13632    133.63269   -6232.7153 
31249000    83.740068   -6804.4062     -6588.99   -6804.4062            0    1868.5747    23.097665    21.464506    21.657909    10737.558    2094.8984    1748.1608    1762.6649   -151.15624    9.6505019   -422.45151   -6296.3782 
31250000    89.605142   -6796.7254   -6566.2217   -6796.7254            0    1956.0343    23.317278    21.265479    21.692903    10756.493    1494.0747    3252.4364    1121.5917    850.40011   -794.69638   -149.07141   -6259.3739 
Loop time of 530.552 on 64 procs for 250000 steps with 1296 atoms

Performance: 81.425 ns/day, 0.295 hours/ns, 471.208 timesteps/s
386.8% CPU use with 16 MPI tasks x 4 OpenMP threads

MPI task timing breakdown:
Section |  min time  |  avg time  |  max time  |%varavg| %total
---------------------------------------------------------------
Pair    | 38.555     | 49.011     | 59.612     |  79.0 |  9.24
Bond    | 1.4459     | 1.7307     | 1.9616     |  11.4 |  0.33
Kspace  | 268.28     | 277.58     | 288.6      |  32.0 | 52.32
Neigh   | 0.78429    | 0.81035    | 0.84547    |   2.1 |  0.15
Comm    | 52.286     | 55.798     | 61.208     |  32.9 | 10.52
Output  | 0.45777    | 0.45817    | 0.45952    |   0.1 |  0.09
Modify  | 126.75     | 130.69     | 133.66     |  18.4 | 24.63
Other   |            | 14.47      |            |       |  2.73

Nlocal:        81.0000 ave          98 max          64 min
Histogram: 2 0 2 1 4 2 1 1 1 2
Nghost:        3671.62 ave        3714 max        3637 min
Histogram: 2 0 4 2 2 2 0 2 1 1
Neighs:        25969.1 ave       31367 max       20364 min
Histogram: 2 0 2 1 4 2 1 1 1 2

Total # of neighbors = 415505
Ave neighs/atom = 320.60571
Ave special neighs/atom = 2.0000000
Neighbor list builds = 1864
Dangerous builds = 0

unfix		3
unfix		2
unfix		1

write_data	data.final.${pid}
write_data	data.final.0
System init for write_data ...
PPPM initialization ...
  extracting TIP4P info from pair style
  using 12-bit tables for long-range coulomb (../kspace.cpp:340)
  G vector (1/distance) = 0.36641025
  grid = 30 40 32
  stencil order = 5
  estimated absolute RMS force accuracy = 0.0047659492
  estimated relative force accuracy = 1.4352514e-05
  using double precision FFTW3
  3d grid and FFT values/proc = 11832 2400
Last active /omp style is kspace_style pppm/tip4p/omp
WARNING: Not all mixed pair coeffs generated from mixing. Use write_data with 'pair ij' option to store all pair coeffs. (../write_data.cpp:312)

write_restart   restart.lmp.${pid}
write_restart   restart.lmp.0
System init for write_restart ...
PPPM initialization ...
  extracting TIP4P info from pair style
  using 12-bit tables for long-range coulomb (../kspace.cpp:340)
  G vector (1/distance) = 0.36641025
  grid = 30 40 32
  stencil order = 5
  estimated absolute RMS force accuracy = 0.0047659492
  estimated relative force accuracy = 1.4352514e-05
  using double precision FFTW3
  3d grid and FFT values/proc = 11832 2400
Last active /omp style is kspace_style pppm/tip4p/omp
Total wall time: 0:08:50
