LAMMPS data file via write_data, version 30 Jul 2021, timestep = 500000

2592 atoms
2 atom types
1728 bonds
1 bond types
864 angles
1 angle types

0.01602804223669807 23.323971957765515 xlo xhi
-0.0057339169446279925 21.474367916944903 ylo yhi
0.027025308868918074 43.690786691129304 zlo zhi
-9.23094132022947 3.6306068467884574 5.976617570662645 xy xz yz

Masses

1 1.008
2 15.999

Pair Coeffs # lj/cut/tip4p/long

1 0 0
2 0.21084 3.1668

Bond Coeffs # harmonic

1 450 0.9572

Angle Coeffs # harmonic

1 55 104.52

Atoms # full

4 0 2 -1.1794 0.36119307667845413 3.8875082566109707 1.491521358812833 0 0 0
5 0 1 0.5897 -0.19149648169712288 3.2796961335622936 1.9827765339169279 0 0 0
6 0 1 0.5897 -0.21873206353854435 4.252665316840629 0.823217629290563 0 0 0
17 0 1 0.5897 2.926610857055285 1.2423116836684573 2.1694162447086893 0 0 0
28 0 2 -1.1794 2.7366953124394913 2.5699512034805965 1.2198620922166135 0 0 0
29 0 1 0.5897 3.4098502415291314 3.2464050486954332 1.2943265102376467 0 0 0
30 0 1 0.5897 1.9095082828887662 3.051144154606841 1.2419463898108265 0 0 0
141 0 1 0.5897 1.2517339287153146 4.508368439467537 3.117404550083559 0 0 0
147 0 1 0.5897 3.384607616034134 4.168702622737424 4.663937462713688 0 0 0
145 0 2 -1.1794 4.122542724216244 3.6348455346370168 4.95844157955826 0 0 0
139 0 2 -1.1794 1.706575692307554 4.7652911753838465 3.919535838312534 0 0 0
140 0 1 0.5897 1.038426262387895 4.709526892920864 4.602688625932268 0 0 0
132 0 1 0.5897 -1.25103931326018 5.260457056348827 4.033060926708957 0 0 0
8 0 1 0.5897 5.376752814415488 0.9825783132511667 0.1205613200796746 0 0 0
16 0 2 -1.1794 3.187857476872903 0.49657287289755514 2.709707149439578 0 1 0
62 0 1 0.5897 3.566213754486588 0.7962448797667693 4.486207716004768 0 1 0
61 0 2 -1.1794 3.6111265530702177 0.9382132920959598 5.431789697050794 0 1 0
486 0 1 0.5897 5.774700927028479 2.3256933443432297 7.5479689913131445 0 0 0
439 0 2 -1.1794 -0.4610988570419124 4.271482141689963 5.615292972912074 0 0 0
503 0 1 0.5897 0.18006420786308008 3.7813122876607457 8.532932617250175 0 0 0
502 0 2 -1.1794 0.058235920706896205 4.711195666099883 8.341115749794335 0 0 0
530 0 1 0.5897 5.136698724197257 2.9204011348606973 10.017359388631569 0 0 0
480 0 1 0.5897 1.1084685719412675 1.766674844508397 9.461649982424232 0 0 0
484 0 2 -1.1794 5.060696031828709 2.580691140754487 8.132292143019372 0 0 0
485 0 1 0.5897 4.972657302705134 3.52543382058722 8.005661552322874 0 0 0
473 0 1 0.5897 1.2522615304333309 5.95102343017488 7.739878603585261 0 0 0
441 0 1 0.5897 -0.1789019708750309 4.704175987984852 6.421187541259036 0 0 0
440 0 1 0.5897 -0.5280108563355281 3.3460069270969033 5.850510457459352 0 0 0
498 0 1 0.5897 3.4982682271210077 5.480877892247893 7.244313905567743 0 0 0
491 0 1 0.5897 3.5681218279648226 1.8064681695517724 8.823447999408693 0 0 0
63 0 1 0.5897 3.752528524988287 1.8801989939733161 5.526641385508449 0 0 0
504 0 1 0.5897 -0.4689702477793666 5.039481826119126 9.069513026783945 0 0 0
529 0 2 -1.1794 5.174624030992689 3.3522522946291264 10.870816291392234 0 0 0
496 0 2 -1.1794 4.379019676641512 5.106041653377037 7.237593253586918 0 0 0
146 0 1 0.5897 4.376029745830642 4.018178989138839 5.798155969775671 0 0 0
531 0 1 0.5897 5.310648752587734 4.277353163896741 10.665899924446327 0 0 0
490 0 2 -1.1794 2.8830759002237545 1.3520443002193476 9.313785879522191 0 1 0
811 0 2 -1.1794 0.6293418473658121 4.0334365761578574 11.594182643915559 0 0 0
812 0 1 0.5897 1.4487600606837052 3.6093386649984733 11.849064791866073 0 0 0
960 0 1 0.5897 4.799859526750441 3.3479842609813897 14.962740229900366 0 0 0
971 0 1 0.5897 1.5570785652937678 6.672395531626109 14.234264661821923 0 0 0
958 0 2 -1.1794 4.3131985242055855 3.9200293694431254 14.369267128185456 0 0 0
841 0 2 -1.1794 2.915164247436603 2.7862642957103816 12.314700415319338 0 0 0
842 0 1 0.5897 3.3724766460164575 3.183281491656514 13.05602075251279 0 0 0
843 0 1 0.5897 3.5596782475977005 2.7865933238658833 11.607001240584879 0 0 0
959 0 1 0.5897 4.982893834004581 4.470959143622958 13.96403870907022 0 0 0
946 0 2 -1.1794 1.8732688060145304 5.079145248849052 14.967494613397854 0 0 0
947 0 1 0.5897 1.2067748716793796 4.406608801740806 14.82695083361129 0 0 0
948 0 1 0.5897 2.7020485817483673 4.638557048477369 14.77966847321429 0 0 0
834 0 1 0.5897 6.322725628554289 2.0761093342529966 12.09939725930528 0 0 0
908 0 1 0.5897 1.189823964908003 6.005846122994446 11.314063724820143 0 0 0
963 0 1 0.5897 -0.6245160690191902 7.084394891697974 16.10220632666954 1 0 0
813 0 1 0.5897 0.2181314556344025 3.4165852192525956 10.988604821053798 0 0 0
1281 0 1 0.5897 2.3808827895082327 6.244329608582544 16.234152636887444 0 0 0
973 0 2 -1.1794 4.25687613991964 3.903568476978509 21.181899646968894 0 0 0
1280 0 1 0.5897 3.2514718208103175 6.322136445237639 17.470299301876786 0 0 0
975 0 1 0.5897 3.3788229975414614 4.163075012816648 20.902720050662328 0 0 0
1076 0 1 0.5897 1.1758032032423116 5.14353942642828 20.87596408814088 0 0 0
983 0 1 0.5897 2.954223956065986 6.8295387387123325 20.04054193786497 0 0 0
984 0 1 0.5897 4.40019051173334 7.173558607989564 19.752988419718378 0 0 0
1290 0 1 0.5897 2.0843624090099486 3.3646726247809116 17.797823943322186 0 0 0
1289 0 1 0.5897 3.5432308598135696 3.7663307719774393 17.845376456386987 0 0 0
1288 0 2 -1.1794 2.9621025798650185 3.0122402991258435 17.94487729167115 0 0 0
1222 0 2 -1.1794 6.3153599095844015 2.9458817810908102 19.486203011593773 0 0 0
1075 0 2 -1.1794 1.893098547910506 5.074243065718278 20.245947249255842 0 0 0
1224 0 1 0.5897 5.648924464634812 3.3857910069894896 20.014051480459578 0 0 0
1077 0 1 0.5897 1.5017073034527009 4.649971835220045 19.482320257585638 0 0 0
1201 0 2 -1.1794 4.710042851747003 5.254393182453401 17.94430151914192 0 0 0
1202 0 1 0.5897 5.239916051028501 5.53026772575386 18.6922519135374 0 0 0
1203 0 1 0.5897 5.310946938087458 5.285695114598601 17.199875173824488 0 0 0
1279 0 2 -1.1794 2.58629703197942 6.806508153745124 16.981209460241793 0 0 0
982 0 2 -1.1794 3.5374985333316844 7.570125210212329 19.874474284459207 0 0 0
1062 0 1 0.5897 1.213046572245877 7.213420742897859 18.639675753519395 0 0 0
1267 0 2 -1.1794 5.694863507045355 2.385476760190078 16.91137651567629 0 0 0
1269 0 1 0.5897 5.760551816216875 2.6336499778783407 17.833548763146325 0 0 0
997 0 2 -1.1794 0.7136909707706196 8.197243703462284 21.692852655596468 0 0 0
998 0 1 0.5897 0.8427200715104506 8.071718921252774 20.752701094397757 0 0 0
1060 0 2 -1.1794 0.4612126379546422 7.6801533538137186 19.004623747918195 0 0 0
974 0 1 0.5897 4.528809628560485 4.591780528289706 21.789149590824934 0 0 0
1300 0 2 -1.1794 2.295802608624699 6.712570376439791 23.72895316534394 0 0 0
1301 0 1 0.5897 1.6608246787095549 6.2400398152384176 24.267227781275444 0 0 0
1302 0 1 0.5897 1.7620252677238042 7.212453992553863 23.111312123346117 0 0 0
1313 0 1 0.5897 5.04305790332473 4.15192400692254 24.04371840785462 0 0 0
1324 0 2 -1.1794 4.722104226212748 5.695695055014914 23.242293425183895 0 0 0
1325 0 1 0.5897 5.194337041327108 6.512090617455018 23.40601928738589 0 0 0
1326 0 1 0.5897 3.7989274563909508 5.928537176176722 23.341137193900625 0 0 0
1437 0 1 0.5897 3.2625904144123004 7.253642670776356 25.10552301254553 0 0 0
1443 0 1 0.5897 5.273702125692063 6.9165924697976 26.211684684060476 0 0 0
1441 0 2 -1.1794 6.094687025628556 6.526264263957314 26.511513180591603 0 0 0
1435 0 2 -1.1794 3.678018524505805 7.611878735295914 25.88999811901751 0 0 0
1436 0 1 0.5897 3.03580698377103 7.473481689016309 26.586156557665813 0 0 0
1428 0 1 0.5897 0.4167144079224674 8.03264038510625 26.109409017219576 0 0 0
1442 0 1 0.5897 6.364762008380557 7.072750759163052 27.249581014459867 0 0 0
1426 0 2 -1.1794 -0.042633602226965994 8.718670362798704 25.624992803075763 0 0 0
1358 0 1 0.5897 5.104115128746816 3.7286178276803406 26.218782951667162 0 1 0
1735 0 2 -1.1794 1.3636559500591618 6.967681902870515 27.306556802969418 0 0 0
1359 0 1 0.5897 5.575859934517334 4.910847448477586 27.03850980823836 0 0 0
1357 0 2 -1.1794 5.228111962466541 4.022852003880334 27.12120343630347 0 1 0
1737 0 1 0.5897 1.331426933384536 7.413538832995197 28.153016915408195 0 0 0
1794 0 1 0.5897 5.489506532139771 8.26241255094892 29.187779747519343 0 0 0
1787 0 1 0.5897 5.18384415207535 4.405179784475341 30.69833106913793 0 0 0
1768 0 2 -1.1794 3.8227660429738815 9.064406998004113 29.291908543628622 0 0 0
1826 0 1 0.5897 6.673679476093259 6.1259201553408875 31.915081559121205 0 0 0
1799 0 1 0.5897 1.7280293718625626 7.057238094895542 30.440949573176347 0 0 0
1780 0 2 -1.1794 6.433268022399568 5.672582716654033 30.1354675868029 0 0 0
1798 0 2 -1.1794 1.4490146849628864 7.863520265203144 30.006942948203523 0 0 0
1827 0 1 0.5897 7.156848974739732 7.355319337714949 32.65486180568044 0 0 0
1792 0 2 -1.1794 6.396540097871754 8.067823105215547 28.95183615637377 0 0 0
1776 0 1 0.5897 2.9145418167623163 5.080632947423527 31.367560497211475 0 0 0
1825 0 2 -1.1794 6.996314259407379 6.418387149698857 32.76753787869029 0 0 0
1769 0 1 0.5897 3.075032296805562 8.559658613178211 29.61182558763741 0 0 0
1781 0 1 0.5897 6.419401730277222 6.501548639154219 29.657016053695962 0 0 0
1800 0 1 0.5897 0.897256233221744 8.305093512398205 30.65259367507198 0 0 0
1782 0 1 0.5897 6.979414557733526 5.096061642830724 29.601003987970987 0 0 0
1736 0 1 0.5897 1.355328631035571 6.035873932959747 27.52559420521694 0 0 0
2107 0 2 -1.1794 2.391761460771586 7.197946910665014 33.5138779526598 0 0 0
2108 0 1 0.5897 3.1502039484888087 6.95114903442779 34.04315101618948 0 0 0
2254 0 2 -1.1794 6.026674319807327 6.8887674152146765 36.51519941430233 0 0 0
2267 0 1 0.5897 3.600345644525972 9.707151279108189 35.8094549219566 0 0 0
2255 0 1 0.5897 6.630310245504555 7.526796017802805 36.134687170872866 0 0 0
2137 0 2 -1.1794 4.648784569686441 5.786807658779837 34.28888901097359 0 0 0
2138 0 1 0.5897 5.002626479140439 6.059405870625941 35.135526497943104 0 0 0
2139 0 1 0.5897 5.325275226883694 6.029472008443031 33.65667622157753 0 0 0
2256 0 1 0.5897 6.554769847722788 6.410169790182435 37.15422044032971 0 0 0
2242 0 2 -1.1794 3.6497955571629346 8.167013037287633 36.62574310496247 0 0 0
2243 0 1 0.5897 2.962483248251851 7.535196266389198 36.41435218338448 0 0 0
2244 0 1 0.5897 4.444556050534512 7.63943192064232 36.705057998618855 0 0 0
2204 0 1 0.5897 2.8561499412327356 8.783159815099275 32.975629057590766 0 0 0
2130 0 1 0.5897 7.925325689631194 5.256740408992306 33.8395859577947 0 0 0
2203 0 2 -1.1794 3.0658920024226983 9.707668503197166 32.842954767675494 0 0 0
2259 0 1 0.5897 1.362557107485001 9.763247146120662 37.808562240251376 1 0 0
2577 0 1 0.5897 4.021521020651883 9.40668182897528 38.21345678938465 0 0 0
2109 0 1 0.5897 2.380029513467883 6.560812410106415 32.79955096160434 0 0 0
2269 0 2 -1.1794 5.875347865642404 6.682723062445497 42.83067597035192 0 0 0
2576 0 1 0.5897 5.137584580891511 9.57629455085796 39.222241286646664 0 0 0
2271 0 1 0.5897 5.0421322464533205 6.97110736952642 42.458045015359815 0 0 0
2278 0 2 -1.1794 5.344336311560774 10.458261669642356 42.16682109691736 0 0 0
2279 0 1 0.5897 4.855223067879325 9.635568324388718 42.15166981196785 0 0 0
2280 0 1 0.5897 6.263263482410775 10.190796856138197 42.18384153899373 0 0 0
2584 0 2 -1.1794 4.673360337844688 6.171325722636628 39.76798435511826 0 0 0
2372 0 1 0.5897 2.966791821659238 7.886197883400467 42.80835929156005 0 0 0
2520 0 1 0.5897 6.983433152700578 6.182392436926622 41.64931426418694 0 0 0
2586 0 1 0.5897 3.813145592229997 6.591062800833919 39.75725410069998 0 0 0
2371 0 2 -1.1794 3.538396607234069 8.169082323871077 42.09458685898325 0 0 0
2270 0 1 0.5897 6.113321223473733 7.3732557170169795 43.44944313583899 0 0 0
2373 0 1 0.5897 3.037594489047661 7.986818493529587 41.29942947340305 0 0 0
2497 0 2 -1.1794 6.63044421949726 8.422481086037589 39.53556417428388 0 0 0
2498 0 1 0.5897 6.974764711894587 8.62539953908436 40.40537898897148 0 0 0
2358 0 1 0.5897 2.9889873215872305 10.661719508793773 40.154206669655665 0 0 0
2575 0 2 -1.1794 4.257364399065282 9.885499180111083 39.00808749303795 0 0 0
2585 0 1 0.5897 5.288457081426707 6.879886020826522 39.57864519963252 0 0 0
2499 0 1 0.5897 7.391991510268139 8.473967094038677 38.95796788010472 0 0 0
2518 0 2 -1.1794 7.693544592978037 5.834419325290943 41.109944108126314 0 0 0
2563 0 2 -1.1794 7.666711482535581 5.490598708593061 38.315934563089925 0 0 0
2565 0 1 0.5897 7.571412698387194 5.865403299142657 39.19157833777216 0 0 0
2234 0 1 0.5897 4.41465120836261 5.252391690922791 38.265556160926906 0 1 0
19 0 2 -1.1794 2.204982831377952 6.175832296468048 0.6808830105830297 0 0 0
155 0 1 0.5897 2.7432783998001034 6.512834149839692 3.878366624754944 0 0 0
253 0 2 -1.1794 0.7475522605776372 10.49404118153097 4.51882066979471 0 0 0
170 0 1 0.5897 0.44213619144264016 7.259895625610522 4.61952659920802 0 0 0
124 0 2 -1.1794 0.4671716324059002 7.526634628698094 2.377834770423573 0 0 0
125 0 1 0.5897 0.6174091189684067 8.4097691457705 2.040506949007551 0 0 0
126 0 1 0.5897 0.9947977790585427 6.961213122086213 1.8137266359197957 0 0 0
169 0 2 -1.1794 0.4466401411049994 7.73960178420378 5.447891404457193 0 0 0
136 0 2 -1.1794 0.10223192024994876 10.239256728906591 1.0658024114553757 0 0 0
255 0 1 0.5897 -0.10334838401471441 10.852846583130905 4.2668395999259126 0 0 0
138 0 1 0.5897 -0.7645878407523046 10.46566109629678 1.4028604316611033 0 0 0
113 0 1 0.5897 -3.1710352467375547 10.381047305172476 2.1572808345657415 0 0 0
131 0 1 0.5897 -0.9030112092219562 6.4871038522838 3.2168518900957155 0 0 0
171 0 1 0.5897 0.5572485582208662 8.6559131459368 5.194040620167338 0 0 0
112 0 2 -1.1794 -2.4614358575472286 10.87470183609796 1.746191088213439 0 0 0
130 0 2 -1.1794 -1.6209890851435242 6.078080379388743 3.6999918309738753 0 0 0
20 0 1 0.5897 2.7974328202256005 5.607957925525075 1.173647001747513 0 0 0
254 0 1 0.5897 0.9743016436166616 10.95770533924893 5.325002279632118 0 0 0
547 0 2 -1.1794 -3.4385497332186388 11.419846923532381 5.476354777394532 0 0 0
2378 0 1 0.5897 0.00867272573317401 8.698111300514789 0.1066994384449914 0 0 1
2295 0 1 0.5897 -0.9913132504252755 6.349190068919736 0.07813373486724301 0 0 1
481 0 2 -1.1794 -1.8552922970078574 7.340987027775274 7.127416321154941 0 0 0
609 0 1 0.5897 3.105477872467527 7.254334333713991 8.575475325171938 0 0 0
474 0 1 0.5897 1.5840103651447301 6.931835155650798 6.635384006467126 0 0 0
482 0 1 0.5897 -1.311053712250788 7.419073739405002 7.91099652480614 0 0 0
548 0 1 0.5897 -3.710563482278337 10.510465558654445 5.600210765187056 0 0 0
607 0 2 -1.1794 3.43883134076209 7.564926132818384 9.41733233518476 0 0 0
611 0 1 0.5897 -3.239513953781606 11.321517003303647 8.722415056597924 0 0 0
638 0 1 0.5897 2.118342322289471 10.045456437864921 10.017056516741007 0 0 0
592 0 2 -1.1794 1.963742435648328 9.833152193239442 8.111732004525487 0 0 0
483 0 1 0.5897 -1.266446426433245 7.555380719747339 6.4038682416666735 0 0 0
608 0 1 0.5897 2.7582892809542776 7.327640816631476 10.047240412233867 0 0 0
598 0 2 -1.1794 -0.08910782780490278 8.363097281390345 8.931843691601749 0 0 0
599 0 1 0.5897 0.7302838527213725 8.724016790209543 8.59339142276733 0 0 0
600 0 1 0.5897 0.17750604698671202 7.809932159273369 9.666149095662337 0 0 0
588 0 1 0.5897 -1.799305126937174 9.000066835024434 9.32352014890164 0 0 0
593 0 1 0.5897 1.719355734832644 10.651595091812618 7.6796121893064715 0 0 0
586 0 2 -1.1794 -2.600821893267053 9.516374496491391 9.408822998794529 0 0 0
472 0 2 -1.1794 1.9893344313772956 6.3734758034831085 7.298886869758416 0 0 0
594 0 1 0.5897 2.6160744322858713 9.440793507875858 7.5313893796386555 0 0 0
921 0 1 0.5897 -2.7602757197731056 10.573206729700711 10.8248571905089 0 0 0
637 0 2 -1.1794 2.135127140688713 10.508495567372751 10.854695711978435 0 0 0
639 0 1 0.5897 2.3214900577039534 11.418224439103266 10.622385334594796 0 0 0
721 0 2 -1.1794 -0.3247512543800548 8.656482686907752 15.605346048102316 0 0 0
949 0 2 -1.1794 -0.13212248273536242 9.996182616552014 12.61410943562849 0 0 0
950 0 1 0.5897 0.33502773923343976 10.101378943833087 13.44296438872052 0 0 0
909 0 1 0.5897 1.397519854794536 7.3483917965838685 11.982361310632507 0 0 0
731 0 1 0.5897 -1.584154424505604 11.068164339859267 15.208865698551119 0 0 0
732 0 1 0.5897 -0.16580572779434122 11.580978671758665 15.077786123669945 0 0 0
742 0 2 -1.1794 1.3980527469926174 11.004653115385207 14.71089359786042 0 0 0
743 0 1 0.5897 2.206118372701634 11.230445711327384 14.250175244899795 0 0 0
744 0 1 0.5897 1.6842792711272634 10.461611914723415 15.445373019193054 0 0 0
723 0 1 0.5897 -1.2526495386832202 8.732794280740794 15.383022251234983 0 0 0
941 0 1 0.5897 3.269995251110782 8.21668219508113 13.091205882401786 0 0 0
919 0 2 -1.1794 -2.574540745289021 11.114421529316735 11.592268761193445 0 0 0
920 0 1 0.5897 -1.8373082226720179 10.678998332126394 12.020254150167041 0 0 0
730 0 2 -1.1794 -1.067601262786861 11.874052188460109 15.208634314275075 0 0 0
929 0 1 0.5897 -1.0592537271164153 8.37402875021105 12.256038376845098 0 0 0
951 0 1 0.5897 0.48218566037791466 10.310621646772713 11.950801540285797 0 0 0
972 0 1 0.5897 1.0210350853577983 8.088228604468032 14.248869315309173 0 0 0
970 0 2 -1.1794 1.6366636700893453 7.516571295818688 13.790059327005459 0 0 0
942 0 1 0.5897 3.472139495138739 9.197421002718437 11.955749277763744 0 0 0
907 0 2 -1.1794 1.2003323686851322 6.946378082079002 11.136293494231333 0 0 0
722 0 1 0.5897 -0.20446568012498156 9.255518152585124 16.34224864325359 0 0 0
1317 0 1 0.5897 3.7206662011296103 8.714640163602015 21.69064962342699 0 0 0
1051 0 2 -1.1794 2.8974769833645135 9.504274605731618 16.58737744864488 0 0 0
1083 0 1 0.5897 0.2227866210509557 11.428110217389914 21.098558366053254 0 0 0
986 0 1 0.5897 1.9893320556243614 12.649010780953187 18.797290276650877 0 0 0
1006 0 2 -1.1794 3.1333368028479507 10.359499252727463 19.5684497973507 0 0 0
1007 0 1 0.5897 3.319432562115614 9.431533158746596 19.71187290217048 0 0 0
1008 0 1 0.5897 2.361830172240704 10.535609228364399 20.106969699148237 0 0 0
1183 0 2 -1.1794 -1.0879678008914992 12.466117241912732 20.45366076154071 0 0 0
1185 0 1 0.5897 -1.5382270593605778 12.025937154202989 19.732672954128105 0 0 0
1053 0 1 0.5897 2.7434951541993424 9.838299107381408 17.471132828963977 0 0 0
1061 0 1 0.5897 0.3865236670817114 8.470427682815208 18.469671298875678 0 0 0
1072 0 2 -1.1794 0.22042041213797936 10.146434061420251 18.079285351043445 0 0 0
1073 0 1 0.5897 0.6758944226310388 10.966474033915661 17.88862230769035 0 0 0
1074 0 1 0.5897 -0.6801833900627929 10.410383389413973 18.26768091400512 0 0 0
1081 0 2 -1.1794 1.0119742841356913 11.002023228572176 21.43308913718024 0 0 0
985 0 2 -1.1794 1.5804835959160581 12.544753938625322 17.938062193609102 0 0 0
987 0 1 0.5897 2.287598670994059 12.709291583148199 17.314255095701522 0 0 0
1184 0 1 0.5897 -1.6970062371710606 12.405598931981388 21.189624723496014 0 0 0
1052 0 1 0.5897 2.7823768303931775 8.55717369766037 16.665282749779646 0 0 0
999 0 1 0.5897 0.7701561252491576 9.144530580318486 21.818527434906805 0 0 0
1315 0 2 -1.1794 3.8367739807887413 9.35994531662029 22.38810246937274 0 0 0
1434 0 1 0.5897 0.9730864255144753 12.837913747305025 23.623040452550676 0 0 0
1467 0 1 0.5897 2.50954640561618 11.600937204938205 27.06416379617075 0 0 0
1427 0 1 0.5897 0.6395876376607665 9.142841067061212 25.104539383359846 0 0 0
1420 0 2 -1.1794 1.9137521553440906 10.093880567997353 24.311436226089906 0 0 0
1421 0 1 0.5897 1.9953699544595476 11.019482560315556 24.081409314692888 0 0 0
1422 0 1 0.5897 2.628169416674986 9.665452692648369 23.839917267513645 0 0 0
1433 0 1 0.5897 2.3173894145953646 13.511063293383856 23.445273751135858 0 0 0
1432 0 2 -1.1794 1.9058311902761715 12.649944907641355 23.51866684620592 0 0 0
1551 0 1 0.5897 2.2751105457220393 13.906857835266061 26.247239080743103 0 0 0
1451 0 1 0.5897 4.325164008404192 9.385775637140547 25.85193451374388 0 0 0
1549 0 2 -1.1794 2.9224890550110896 13.38026271248456 26.716160516626502 0 0 0
1466 0 1 0.5897 2.0707207029833707 10.435694287076398 26.202887407150918 0 0 0
1409 0 1 0.5897 -1.444031039665877 13.37306130405509 24.236106368188175 0 0 0
1316 0 1 0.5897 4.57320587213616 9.028209617071441 22.90180850893437 0 0 0
1408 0 2 -1.1794 -0.7250789206307644 13.867633232407616 23.842752106613514 0 0 0
1465 0 2 -1.1794 2.216491023001552 10.691018971941297 27.11385960388999 0 0 0
1082 0 1 0.5897 1.438067702063446 11.671960221834286 21.967836494268784 0 0 0
1450 0 2 -1.1794 4.979243946264658 10.083741250382564 25.816046585319036 0 0 0
1550 0 1 0.5897 3.3702897135166237 14.003785988377523 27.28801202636914 0 0 0
1889 0 1 0.5897 3.593582328740645 13.638853686274977 29.364836240168543 0 0 0
1934 0 1 0.5897 4.00169272917936 13.322913177740077 31.618160950473236 0 0 0
1907 0 1 0.5897 -1.2938058669408483 14.068951347280041 30.46755166300884 0 0 0
1778 0 1 0.5897 0.541127893719549 10.541383296753462 29.776770894428996 0 0 0
1779 0 1 0.5897 0.7408974141800071 10.480798602871344 28.277292350849187 0 0 0
1845 0 1 0.5897 -1.4463587632077481 14.347329887971668 28.414900975591493 0 0 0
1884 0 1 0.5897 0.015909019477930553 12.221017579440385 31.407193302949814 0 0 0
1770 0 1 0.5897 3.432032760126434 9.785843697661392 28.798804473167575 0 0 0
1888 0 2 -1.1794 3.877291263692089 12.854279517740757 29.83414962176827 0 0 0
1903 0 2 -1.1794 5.346279171826586 10.373449136748832 31.09670378527979 0 0 0
1777 0 2 -1.1794 0.060799001861007174 10.48263143709441 28.95086234270265 0 0 0
1894 0 2 -1.1794 1.630925521155369 11.281759208343837 30.873079834541997 0 0 0
1895 0 1 0.5897 2.353742313878281 11.794926044205212 30.511944345226315 0 0 0
1896 0 1 0.5897 2.016869287145174 10.8098245818206 31.611055506999392 0 0 0
1904 0 1 0.5897 4.66531325643042 10.343103162948347 31.768712208537927 0 0 0
1890 0 1 0.5897 4.1829353020094775 12.261300101954442 29.147649355691076 0 0 0
1905 0 1 0.5897 4.893565844019957 10.142123197803688 30.285628522753186 0 0 0
1843 0 2 -1.1794 -1.5824063915122508 14.087912329395088 27.5035820127198 0 0 0
1882 0 2 -1.1794 -0.8459862913629479 12.587655358520221 31.604598663630654 0 0 0
1933 0 2 -1.1794 3.9737375320729686 13.574535314344754 32.5413147820756 0 0 0
2017 0 2 -1.1794 1.5058532267419915 11.470633129857342 37.06069996500277 0 0 0
2268 0 1 0.5897 2.860506435624372 11.026076806574821 35.73735779846187 0 0 0
2246 0 1 0.5897 2.1309324056880556 13.17729623053103 35.12621775755329 0 0 0
2026 0 2 -1.1794 0.573260459552678 15.12774911065646 37.02440291013586 0 0 0
2027 0 1 0.5897 0.032861496319694705 14.339070194180245 36.977101362911455 0 0 0
2028 0 1 0.5897 1.4657095946584273 14.816538275653242 36.87296935790985 0 0 0
2038 0 2 -1.1794 3.170149565423089 13.995323667670078 36.247239425821846 0 0 0
2039 0 1 0.5897 3.8664743128764782 14.29298514174705 35.66179435420314 0 0 0
2040 0 1 0.5897 3.5738776931300547 13.299528451736744 36.76605144522826 0 0 0
2247 0 1 0.5897 2.4724256892841683 13.265749199674339 33.653961464494344 0 0 0
2237 0 1 0.5897 4.989987981750948 11.629259034911366 34.5683654085297 0 0 0
2215 0 2 -1.1794 -0.21332846479517453 14.593094966200127 33.689489114662265 0 0 0
2216 0 1 0.5897 0.5062290840846799 14.00291359561377 33.9135630742031 0 0 0
2019 0 1 0.5897 0.6133066284486568 11.701610767625628 36.8032638315956 0 0 0
2225 0 1 0.5897 0.7369247976021591 11.55939954322139 34.202043634672904 0 0 0
2245 0 2 -1.1794 1.8436550924458954 12.878894049630304 34.26323330186935 0 0 0
2347 0 2 -1.1794 4.641566641985108 12.543396977586802 38.080930903015485 0 0 0
2018 0 1 0.5897 1.6362451800447984 11.914158191534039 37.89891732654377 0 0 0
2205 0 1 0.5897 3.4254649467079954 9.995063720139697 33.68225581433917 0 0 0
2266 0 2 -1.1794 3.5905539148818026 10.545334088363386 35.34723398741768 0 0 0
1998 0 1 0.5897 -1.4300528022274124 14.94107850545182 34.88987498700577 1 0 0
2348 0 1 0.5897 4.4510059453642015 11.616911333072046 38.22795677747848 0 0 0
2217 0 1 0.5897 -0.5054584020578736 14.298598563991643 32.82679277813973 0 0 0
2293 0 2 -1.1794 2.3002399016862514 11.443548292463248 43.59031359414769 0 0 0
2379 0 1 0.5897 2.7428832405367087 14.70221432669204 42.55072806809376 0 0 0
2282 0 1 0.5897 4.011738605231411 15.754608417166889 40.367072837687275 0 0 0
2481 0 1 0.5897 0.8614613334680801 14.794687380409291 40.81849354118556 0 0 0
2302 0 2 -1.1794 4.934544177216834 12.975119938952165 41.05998003269754 0 0 0
2303 0 1 0.5897 4.8254159523874645 12.120859616999219 41.477854981320704 0 0 0
2304 0 1 0.5897 4.426515918618211 13.575777424948384 41.60535027355846 0 0 0
2294 0 1 0.5897 2.215064715969805 11.3792858557144 42.639045661503886 0 0 0
2479 0 2 -1.1794 1.1072013933184994 15.045624246440116 41.70897164455559 0 0 0
2349 0 1 0.5897 4.7302114363028 12.9126195368005 38.95964510815725 0 0 0
2281 0 2 -1.1794 3.4791505049646934 15.403208785156675 39.653510131675645 0 0 0
2368 0 2 -1.1794 1.8637264072637745 13.354212208883652 39.060019051531995 0 0 0
2369 0 1 0.5897 2.424224118322068 14.125880621575119 39.14160683901305 0 0 0
2370 0 1 0.5897 0.9778330793949674 13.68416235828262 39.210281503832476 0 0 0
2377 0 2 -1.1794 3.327008287930239 14.129752433830339 43.04809277393457 0 0 0
2357 0 1 0.5897 2.313428885717756 11.983528983361847 40.45184857337294 0 0 0
2283 0 1 0.5897 4.033664820039367 15.484637979295385 38.877544080808136 0 0 0
2480 0 1 0.5897 0.2996484103843451 14.956195757861176 42.21501387467923 0 0 0
2400 0 1 0.5897 4.9748914334577155 15.84087997417799 42.5106151585948 0 0 0
2356 0 2 -1.1794 2.4075355505819793 11.090128192569392 40.7824320886873 0 0 0
21 0 1 0.5897 5.476639341338979 11.588169329395873 43.659757407167675 0 0 -1
128 0 1 0.5897 -0.038877896878421525 13.11168889176313 0.9844306362225542 0 0 0
127 0 2 -1.1794 -0.9523287723383517 13.340037935378508 0.8120312233483208 0 0 0
277 0 2 -1.1794 -2.5399720849678187 15.094872183576438 5.391075326421687 0 0 0
249 0 1 0.5897 -1.578120831191195 11.731239759366389 3.106652233367779 0 0 0
247 0 2 -1.1794 -1.168454128953631 12.105679472732778 3.8865767489956253 0 0 0
232 0 2 -1.1794 -2.7512467063528088 14.534592908934103 2.4780961759322824 0 0 0
233 0 1 0.5897 -2.8934305889048844 15.378306351985037 2.0488691147534257 0 0 0
234 0 1 0.5897 -2.216494511969474 14.037457053772407 1.8590710491584963 0 0 0
263 0 1 0.5897 -0.06665383975206612 13.615776934610606 4.149075195986526 0 0 0
239 0 1 0.5897 -4.067000626096928 13.863480859929712 3.5012777159994 0 0 0
278 0 1 0.5897 -2.204846903614453 14.678298804512467 4.597058873157939 0 0 0
114 0 1 0.5897 -2.888249799233986 11.373385957154015 1.0494658176013028 0 0 0
248 0 1 0.5897 -1.7488702059397527 11.856339952405433 4.6057253575464685 0 0 0
240 0 1 0.5897 -4.337532163287436 12.640517812528246 4.351672500422565 0 0 0
224 0 1 0.5897 -0.7339501011413683 14.946574237608969 0.07370898257884738 0 0 0
238 0 2 -1.1794 -4.769709808283019 13.395536786212611 3.952328555179763 0 0 0
279 0 1 0.5897 -2.245147322813883 16.00340874437781 5.328259703063886 0 0 0
137 0 1 0.5897 0.6551919931633616 10.982367174075737 1.307304624311989 0 0 0
393 0 1 0.5897 0.19614982496565347 14.470095530273655 8.532586922996444 0 0 0
372 0 1 0.5897 -5.132907654513854 16.548483610807146 9.574573132698646 0 0 0
606 0 1 0.5897 0.41037995218102674 12.521004284803642 6.789148821028033 0 0 0
582 0 1 0.5897 -1.405125387126418 14.360574662174763 6.790815577757999 0 0 0
382 0 2 -1.1794 -3.3621405403475797 15.866439609472256 9.220185145251463 0 0 0
383 0 1 0.5897 -2.58687073668703 16.299252649601392 8.862622019847533 0 0 0
384 0 1 0.5897 -3.0192743008767886 15.27519135631658 9.890374017549373 0 0 0
610 0 2 -1.1794 -3.138200001276716 12.148337944975072 8.250833149926622 0 0 0
392 0 1 0.5897 -0.359109632981654 14.611039604478991 9.933945965975413 0 0 0
604 0 2 -1.1794 1.2790293430886361 12.120369371541711 6.75444508333539 0 0 0
589 0 2 -1.1794 -4.742328577037837 14.762065435540949 7.032988155042398 0 0 0
591 0 1 0.5897 -4.089928797338885 14.886578605704052 6.34370917292822 0 0 0
590 0 1 0.5897 -4.291194698662942 15.013946290372797 7.838803923138371 0 0 0
581 0 1 0.5897 -1.7133965471620534 13.13092195920337 7.6184117344027635 0 0 0
580 0 2 -1.1794 -0.9898788679280317 13.607850600789854 7.211865346072569 0 0 0
422 0 1 0.5897 -0.6653247611815114 17.368181245175624 10.176904074792738 0 0 0
376 0 2 -1.1794 -0.9339522114394342 17.152937192023664 8.234025994222511 0 0 0
391 0 2 -1.1794 0.44604041652110793 14.708038040295618 9.425473703144343 0 0 0
612 0 1 0.5897 -3.5909362019915987 12.792345173762845 8.795447881718239 0 0 0
549 0 1 0.5897 -3.3436035780341355 11.765033473200454 6.364131929499974 0 0 0
691 0 2 -1.1794 -1.8854319569495002 13.9650293236461 10.871074951734162 0 0 0
692 0 1 0.5897 -1.9984171140930163 13.014481442015713 10.875286731763465 0 0 0
726 0 1 0.5897 0.06770339288900495 16.520305950489725 12.258991534542902 0 0 0
756 0 1 0.5897 -2.096529866842748 14.739012243263469 14.335978464365441 0 0 0
693 0 1 0.5897 -1.712942576867956 14.190299866337867 11.785303159841524 0 0 0
713 0 1 0.5897 -4.122516008713758 15.238943585016743 12.53112688616419 0 0 0
829 0 2 -1.1794 -3.4153716183517466 15.438749698944614 15.772069041317195 0 0 0
725 0 1 0.5897 -0.25958968818264494 15.378018736631613 13.197089537488129 0 0 0
831 0 1 0.5897 -4.250523861213874 15.879404423929412 15.61518615749364 0 0 0
852 0 1 0.5897 -1.442509939441816 17.49834527069344 15.417562592634523 0 0 0
733 0 2 -1.1794 -3.3777687690206264 16.799862960865184 12.482162570398971 0 0 0
734 0 1 0.5897 -2.7725772202870194 17.070515545840244 13.172658651143307 0 0 0
754 0 2 -1.1794 -1.5100534690621665 14.3217485037613 13.704927312418013 0 0 0
755 0 1 0.5897 -1.2920777233425285 13.478108382094186 14.101235038191216 0 0 0
724 0 2 -1.1794 0.4558222932556999 15.952825302179631 12.925033914509157 0 0 0
421 0 2 -1.1794 -0.8596013988912888 17.476604762189275 11.107916140742756 0 0 0
735 0 1 0.5897 -2.8450629492379482 16.788520940646986 11.686962599316 0 0 0
830 0 1 0.5897 -2.9073456495561274 16.064280982545192 16.28872535677686 0 0 0