LAMMPS (30 Jul 2021)
Processor partition = 0
  using 4 OpenMP thread(s) per MPI task
using multi-threaded neighbor list subroutines
variable        pid world 0 1
variable        phase world IceVI IceV

shell cd ${phase}
shell cd IceVI
include Restart.lmp
echo both
log log.lammps
#include		in.partitions
include		in.temp
variable        temperature equal 75.77
variable	tempDamp equal 100.0
include		in.pressure
variable        pressure equal 8240.5
variable        pressureDamp equal 1000.0 # This is 1 ps
include		in.seed
variable        seed equal 745823

units		real
atom_style	full
read_restart	restart.lmp.${pid}
read_restart	restart.lmp.0
Reading restart file ...
  restart file = 30 Jul 2021, LAMMPS = 30 Jul 2021
  restoring atom style full from restart
  orthogonal box = (0.0070604952 0.039084386 0.033820434) to (24.722941 24.690917 22.776180)
  4 by 2 by 2 MPI processor grid
  restoring pair style lj/cut/tip4p/long/omp from restart
  restoring bond style harmonic/omp from restart
  restoring angle style harmonic/omp from restart
  1920 atoms
  1280 bonds
  640 angles
Finding 1-2 1-3 1-4 neighbors ...
  special bond factors lj:    0        0        0       
  special bond factors coul:  0        0        0       
     2 = max # of 1-2 neighbors
     1 = max # of 1-3 neighbors
     1 = max # of 1-4 neighbors
     2 = max # of special neighbors
  special bonds CPU = 0.001 seconds
  read_restart CPU = 0.006 seconds
include 	in.setup
variable	out_freq equal 1000
variable	out_freq2 equal 10000
variable	out_freq3 equal 1000

timestep	2.0

neigh_modify    delay 7 every 1

include		in.tip4p
# This is TIP4P/Ice

# create groups ###
group ox type 2
640 atoms in group ox
group hy type 1
1280 atoms in group hy

# set charges - beside manually ###
set group ox charge -1.1794
Setting atom values ...
  640 settings made for charge
set group hy charge 0.5897
Setting atom values ...
  1280 settings made for charge

# ### TIP3P Potential Parameters ###
pair_style lj/cut/tip4p/long/omp 2 1 1 1 0.1577 8.5
pair_coeff 1 1*2 0.000 0.000
pair_coeff 2 2 0.21084 3.1668
bond_style  harmonic
bond_coeff  1 450 0.9572
angle_style harmonic
angle_coeff 1 55 104.52
kspace_style pppm/tip4p/omp 1.0e-5
pair_modify tail yes

thermo          ${out_freq}
thermo          1000
thermo_style    custom step temp pe etotal epair emol press lx ly lz vol pxx pyy pzz pxy pxz pyz enthalpy

restart 	${out_freq3} restart.lmp.${pid} restart2.lmp.${pid}
restart 	1000 restart.lmp.${pid} restart2.lmp.${pid}
restart 	1000 restart.lmp.0 restart2.lmp.${pid}
restart 	1000 restart.lmp.0 restart2.lmp.0


include         in.dump
dump            myDump all atom ${out_freq2} dump.water.${pid}
dump            myDump all atom 10000 dump.water.${pid}
dump            myDump all atom 10000 dump.water.0
dump            myDump2 all dcd ${out_freq2} dump.dcd
dump            myDump2 all dcd 10000 dump.dcd
dump_modify     myDump append yes
dump_modify     myDump2 append yes


variable natoms 	equal  "count(all)"                        # NUMBER ATOMS
variable H      	equal  "enthalpy/v_natoms"                 # ENTHALPY-per-atom
variable Vol      	equal  "vol/v_natoms"                 # volume-per-atom
fix AVG all 		ave/time ${out_freq} 1 ${out_freq} v_Vol v_H file vol_enthalpy.dat
fix AVG all 		ave/time 1000 1 ${out_freq} v_Vol v_H file vol_enthalpy.dat
fix AVG all 		ave/time 1000 1 1000 v_Vol v_H file vol_enthalpy.dat




fix 		1 all shake 1e-6 200 0 b 1 a 1
Finding SHAKE clusters ...
       0 = # of size 2 clusters
       0 = # of size 3 clusters
       0 = # of size 4 clusters
     640 = # of frozen angles
  find clusters CPU = 0.000 seconds
fix             2 all nph aniso ${pressure} ${pressure} ${pressureDamp}
fix             2 all nph aniso 8240.5 ${pressure} ${pressureDamp}
fix             2 all nph aniso 8240.5 8240.5 ${pressureDamp}
fix             2 all nph aniso 8240.5 8240.5 1000
fix             3 all temp/csvr ${temperature} ${temperature} ${tempDamp} ${seed}
fix             3 all temp/csvr 75.77 ${temperature} ${tempDamp} ${seed}
fix             3 all temp/csvr 75.77 75.77 ${tempDamp} ${seed}
fix             3 all temp/csvr 75.77 75.77 100 ${seed}
fix             3 all temp/csvr 75.77 75.77 100 745823


run             250000
PPPM initialization ...
  extracting TIP4P info from pair style
  using 12-bit tables for long-range coulomb (../kspace.cpp:340)
  G vector (1/distance) = 0.3752897
  grid = 30 30 30
  stencil order = 5
  estimated absolute RMS force accuracy = 0.0031744181
  estimated relative force accuracy = 9.5596657e-06
  using double precision FFTW3
  3d grid and FFT values/proc = 7920 1800
Last active /omp style is kspace_style pppm/tip4p/omp
Neighbor list info ...
  update every 1 steps, delay 7 steps, check yes
  max neighbors/atom: 2000, page size: 100000
  master list distance cutoff = 10.8154
  ghost atom cutoff = 10.8154
  binsize = 5.4077, bins = 5 5 5
  1 neighbor lists, perpetual/occasional/extra = 1 0 0
  (1) pair lj/cut/tip4p/long/omp, perpetual
      attributes: half, newton on, omp
      pair build: half/bin/newton/omp
      stencil: half/bin/3d
      bin: standard
Setting up Verlet run ...
  Unit style    : real
  Current step  : 37500000
  Time step     : 2
Per MPI rank memory allocation (min/avg/max) = 12.56 | 12.57 | 12.57 Mbytes
Step Temp PotEng TotEng E_pair E_mol Press Lx Ly Lz Volume Pxx Pyy Pzz Pxy Pxz Pyz Enthalpy 
37500000    79.329744   -9860.8074   -9558.3662   -9860.8074            0     8141.303     24.71588    24.651832    22.742359    13856.731     7490.479    8905.1287    8028.3014   -316.29777    16.702025    149.91346   -7913.1211 
37501000    76.245618   -9873.9352   -9583.2522   -9873.9352            0    8313.2468     24.74149    24.688019     22.64252    13830.468    7539.4204    8492.3898    8907.9301   -472.78559   -293.44469   -98.052219   -7906.4438 
37502000    74.596982   -9871.6851   -9587.2874   -9871.6851            0    7584.6513    24.688499    24.708954    22.739868    13871.933    7681.9369    7691.1172    7380.8998    154.75872    330.28751     314.7199   -8052.8524 
37503000    74.381643   -9867.9903   -9584.4136   -9867.9903            0    8083.5148    24.650259    24.742377      22.7023    13846.269    8719.1706    6848.4527     8682.921   -552.98609   -416.72461    84.043279   -7952.0801 
37504000    77.784154   -9890.1801   -9593.6314   -9890.1801            0    7851.6676     24.65104    24.696331    22.770103    13862.216    7912.0878    7949.7893    7693.1255   -134.98631    199.01947    4.7856064   -8006.2896 
37505000    75.618031   -9864.2514    -9575.961   -9864.2514            0     8522.154     24.71751    24.613358      22.7309    13829.045    8201.5327    9114.4184    8250.5108   -529.20657   -99.699336   -437.87039   -7857.1922 
37506000    75.650726   -9857.6652   -9569.2501   -9857.6652            0    8534.4304    24.657118    24.665932    22.770173    13848.609    8497.8809    8454.8891    8650.5212   -172.87176   -149.83726    446.50181   -7845.5703 
37507000    71.908923   -9868.0972   -9593.9476   -9868.0972            0    7895.0283      24.6234     24.74006    22.759436    13864.693    8141.5185    7829.4649    7714.1015   -326.08243    278.85022    484.11035   -7997.5544 
37508000    75.599172    -9878.858   -9590.6395    -9878.858            0    8019.3686    24.662128    24.661241     22.77417     13851.22    8658.1745    7949.8961    7450.0352   -374.32587   -592.06434    92.928269   -7970.6802 
37509000    75.536288   -9861.3031   -9573.3243   -9861.3031            0    8103.9672    24.683246    24.723731    22.713058    13860.915    7752.2091    8142.9553    8416.7372   -60.655404    317.51328    578.32052   -7935.1298 
37510000    74.709205   -9868.3508   -9583.5252   -9868.3508            0    6878.1858     24.76871     24.69929    22.718196      13898.3    6453.4255    7193.4098    6987.7221   -14.621291   -401.16882   -153.90539   -8189.3689 
37511000    74.176187   -9870.5322   -9587.7388   -9870.5322            0    7662.3993    24.605383     24.73993     22.78106    13867.639    8230.6871    7587.5982    7168.9125   -107.30406   -436.57948    146.67786   -8038.0546 
37512000    77.006739    -9867.431   -9573.8462    -9867.431            0    7993.0481    24.664175    24.694456    22.768335    13867.473    7984.2864    7786.8955    8207.9624    12.724927   -379.19388    450.79162   -7957.3092 
37513000     76.62902   -9865.9644   -9573.8196   -9865.9644            0    8436.2571    24.714645    24.686193    22.684073    13839.791    7967.0739    8453.3145    8888.3829   -96.040306    462.57326    519.23606   -7871.0526 
37514000    73.231049   -9877.9545   -9598.7643   -9877.9545            0    7796.1176    24.712933    24.658894    22.741294    13858.399     7981.294     7830.749    7576.3099   -684.97398    530.22367    372.91077   -8023.0869 
37515000    76.189716   -9871.8146   -9581.3446   -9871.8146            0    8825.4217    24.596363    24.731336    22.723232    13822.563    9091.1339     8623.629    8761.5023   -79.845311   -141.34507    94.400729   -7802.2463 
37516000    77.671842   -9871.0387   -9574.9182   -9871.0387            0    9181.6824    24.661508      24.7066    22.644857    13797.557    9132.1956    9190.4988     9222.353   -925.74046   -815.97709    77.883435   -7727.3506 
37517000    78.059678   -9874.1864   -9576.5873   -9874.1864            0    8628.0685    24.676161    24.656285     22.72406    13825.828    8424.9587    9061.6774    8397.5694   -327.45005    -176.3949   -485.80512   -7836.8621 
37518000    75.739245   -9882.0202   -9593.2677   -9882.0202            0    8125.9721    24.687212    24.684268    22.715797    13842.683    7366.7145    9109.2851    7901.9169   -22.449838   -258.21767    154.29775   -7952.7856 
37519000    77.738863   -9879.3627   -9582.9867   -9879.3627            0    8610.0196    24.617269    24.780979    22.658177    13822.395    8869.3338    7992.8565    8967.8686    116.33603   -668.12676    335.43988   -7847.3319 
37520000    75.336359   -9878.3993   -9591.1827   -9878.3993            0     8467.912     24.67842    24.691182    22.718319    13843.166    8237.4113      8394.64    8771.6849    70.865814    310.59004    521.34925   -7881.6097 
37521000    75.272344   -9874.9221   -9587.9496   -9874.9221            0    8546.9426    24.706288    24.703176    22.669131     13835.51    7598.0907    8769.9144    9272.8227    429.03038   -455.85182    255.49596   -7863.3755 
37522000    77.118424   -9873.1944   -9579.1838   -9873.1944            0    7596.3282    24.619477     24.79342    22.734564    13877.201    8519.0761    6192.2649    8077.6437   -239.54718    118.58411   -555.39965   -8041.8029 
37523000    75.350209   -9886.5463    -9599.277   -9886.5463            0    7521.6895    24.701545    24.671651    22.763083    13872.458    7238.1837    7779.3344    7547.5504   -161.44035    57.202291    670.03826   -8077.5221 
37524000    79.178999   -9864.5832   -9562.7167   -9864.5832            0    8188.7493    24.650333    24.691973    22.761568    13854.178    8710.4984    7674.5577    8181.1917   -81.215787   -215.03524   -566.66101   -7908.1884 
37525000    75.095876   -9863.9445   -9577.6447   -9863.9445            0    8723.0115    24.644445    24.694532    22.704146    13817.358    8449.7375    9004.7028    8714.5941   -214.75729   -1095.2373    187.02746   -7819.8533 
37526000    75.884094   -9864.4335   -9575.1287   -9864.4335            0    8098.2528    24.690006    24.765476    22.666489    13859.646    7434.5403    8006.6331    8853.5851    44.323357   -779.58849    101.01546   -7938.2392 
37527000    76.355161   -9873.5426   -9582.4419   -9873.5426            0    8560.6481    24.675483    24.649028    22.739662    13830.869    8193.5453    9125.7971    8362.6019    30.043384    -153.4025    622.51039   -7855.6818 
37528000     76.22322   -9877.1877   -9586.5901   -9877.1877            0    8580.7316    24.583223    24.704756     22.77216    13830.046    9895.0517    8339.1025    7508.0406   0.68771473   -270.68134     309.2781   -7855.8819 
37529000    74.638355   -9874.8165    -9590.261   -9874.8165            0    8134.9032    24.683223    24.692692    22.713836    13843.974    7697.6662    8241.6006    8465.4429   -402.59786    221.82355    374.44286   -7947.8227 
37530000    80.712733   -9884.7918   -9577.0781   -9884.7918            0    7421.6909    24.724023    24.669916    22.722844    13859.562    7623.1163    7663.3249    6978.6314    22.703245    82.620667   -458.19478   -8076.9503 
37531000    76.055832   -9860.3756    -9570.416   -9860.3756            0    8137.3973    24.668473    24.688154    22.749263    13854.735    8610.5949    7888.6549     7912.942    108.31525    402.74925    394.86269   -7926.1972 
37532000    76.693071   -9866.5395   -9574.1505   -9866.5395            0    7959.5574    24.652319    24.739847    22.744477    13871.734    7757.3805    8353.2853    7768.0064    -54.19109    231.31349    554.85459   -7963.8922 
37533000    75.771607   -9865.3209    -9576.445   -9865.3209            0    7825.8899    24.603518    24.706029    22.806285    13862.919    8766.6517    8073.9523    6637.0658    226.03717   -479.52423   -138.18568   -7994.2343 
37534000    74.780364   -9878.0466   -9592.9497   -9878.0466            0    8225.1867    24.683841    24.726957    22.662274    13832.061     8135.487    7874.9505    8665.1227    207.42477    165.30443    261.04431   -7933.7122 
37535000    74.239604    -9880.666   -9597.6308    -9880.666            0     8340.772    24.681809    24.651522    22.728613    13829.092    8515.0743    8958.7392    7548.5025   -188.31774    192.67657     229.5853   -7915.4378 
37536000    74.060852   -9868.0257   -9585.6719   -9868.0257            0    8124.6491    24.622833    24.724672    22.759284    13855.658    8674.3738    7430.6213    8268.9523    41.486242   -173.08189   -77.010303   -7943.9196 
37537000    74.179943   -9864.7993   -9581.9916   -9864.7993            0    8156.2418    24.647441    24.659552    22.786965      13849.8    8294.2599    8379.0136    7795.4519   -73.935049   -302.04317    243.55911    -7934.552 
37538000    75.884879   -9867.6586   -9578.3508   -9867.6586            0    7877.6779    24.714225    24.668877    22.736136    13861.589     7683.868     8149.066    7800.0996   -95.937196   -197.62044    197.65735   -7985.8226 
37539000    76.135775   -9883.0867   -9592.8224   -9883.0867            0    7787.6768    24.686231    24.767748     22.67223    13862.308    8112.3587    6731.7358    8518.9358    -264.0328   -359.87252   -97.016992   -8018.4069 
37540000    76.390175   -9881.9138   -9590.6796   -9881.9138            0    8010.7384    24.631144    24.747224    22.723277    13851.029    8211.9926    7319.8871    8500.3355   -271.32677    256.04703   -243.47559    -7972.486 
37541000    75.390115   -9886.6645    -9599.243   -9886.6645            0    8241.4604    24.703543    24.595468    22.772694     13836.58    7994.5178       8900.3    7829.5634   -377.95016    133.03828     42.77906   -7936.1796 
37542000    77.621374   -9886.2157   -9590.2876   -9886.2157            0     7593.234    24.769114    24.677734     22.67095    13857.518    7317.4409    7789.2682    7672.9929   -921.31599   -488.22285    555.75532   -8055.7125 
37543000    77.111417    -9871.711   -9577.7271    -9871.711            0    8287.0562    24.699369    24.737156    22.656235    13842.781     8231.949    8124.8599    8504.3597   -339.08952    207.15342   -152.66071   -7904.7133 
37544000    76.255133   -9873.9542   -9583.2348   -9873.9542            0    8351.4602    24.638314    24.675248    22.773061    13845.031    8737.7672     8272.548    8044.0654    238.84741   -690.46018   -414.26395   -7896.9449 
37545000    72.877243   -9882.7813     -9604.94   -9882.7813            0    7683.5679     24.67207    24.685501    22.768555    13867.015    7988.0983    7495.2044    7567.4009   -350.43823    51.358955    472.96294   -8051.0445 
37546000    76.868097    -9866.912   -9573.8558    -9866.912            0    7425.7563    24.699239    24.780334    22.679464    13881.088      8307.62    6697.8764    7271.7725   -222.09626    1.3130964    89.512947   -8070.5751 
37547000    74.570679   -9875.6107   -9591.3133   -9875.6107            0    7728.3469    24.700673    24.736857    22.702226    13871.446    7443.7863    7790.0885     7951.166   -200.73376    380.71428    503.29458   -8027.8625 
37548000    74.521495   -9873.3672   -9589.2573   -9873.3672            0    7915.0691    24.683664    24.610716    22.833841    13871.162    8203.2363    8603.8114    6938.1597   -537.67929   -351.80711   -134.56404   -7988.0652 
37549000    77.287669   -9869.7827   -9575.1268   -9869.7827            0    8295.1813    24.673901    24.669266     22.74308    13843.418    8543.4418    8373.0428    7969.0593   -711.15569    272.46453    257.86637   -7900.3957 
37550000     77.17672   -9868.4606   -9574.2278   -9868.4606            0    7544.8175     24.64021    24.784786    22.730563    13881.608    8115.7336    6697.6665    7821.0524    271.46728   -184.21974     386.8731    -8046.787 
37551000    76.795613   -9876.4408   -9583.6609   -9876.4408            0    7849.5021    24.691962    24.713731    22.707765    13856.971    8115.5255    7032.4597    8400.5213    109.13684   -193.56656    -140.4459   -7997.3573 
37552000    77.797836   -9876.7564   -9580.1556   -9876.7564            0    8306.4233    24.627852    24.687183    22.770206     13844.11    8631.3915    8484.0063    7803.8722   -178.17097   -462.64713    346.45068   -7903.0709 
37553000    75.085478   -9866.6007   -9580.3406   -9866.6007            0    8862.1219    24.668981    24.724441    22.659777    13820.804    8725.4127    8509.2147    9351.7384   -117.27461   -829.87781   -76.176066   -7794.0714 
37554000    76.687386   -9871.7465   -9579.3792   -9871.7465            0    8337.2844    24.676246    24.721803    22.698375    13846.946    8076.5292    8805.4401    8129.8839   -304.03538    -521.7948    370.09365   -7895.7188 
37555000    78.327464   -9875.3899   -9576.7699   -9875.3899            0    7691.9921    24.657618    24.722823    22.754979    13871.569    7967.8715    7591.8586    7516.2463      157.747   -824.61353    510.86217   -8020.6598 
37556000    75.059113   -9859.8307   -9573.6712   -9859.8307            0    8261.5191    24.660431    24.667341     22.78134    13858.055    8074.3799    9056.8134    7653.3642    -501.7287   -897.31034    158.12366   -7903.9726 
37557000    75.752489   -9869.7001    -9580.897   -9869.7001            0    8598.8241    24.630267    24.727334    22.719942    13837.373    8438.7211    8396.5064    8961.2446   -105.02841   -476.98723    271.32661   -7845.6209 
37558000    74.431013   -9872.4832   -9588.7183   -9872.4832            0     8502.541    24.637343    24.683382    22.754652    13837.854    8716.1883    8385.7911    8405.6436    113.85466   -707.40156    12.829703   -7872.8128 
37559000     77.60178   -9879.8015   -9583.9482   -9879.8015            0    8612.6689    24.710606    24.655742     22.69662    13828.105    7984.2294     8931.898    8921.8793   -199.23764   -227.84263    156.09242   -7847.0421 
37560000    73.971002   -9881.9343   -9599.9231   -9881.9343            0    7852.7756    24.707055    24.698711    22.730378    13870.814    7750.3588    7828.1561    7979.8117    34.098175    231.97284   -71.195149   -8011.3726 
37561000    74.721325   -9876.1466   -9591.2748   -9876.1466            0    7852.8602    24.694957    24.689027    22.725373    13855.534    7968.6267    7752.4686    7837.4853    25.958169    308.06734     49.13743   -8004.4572 
37562000    77.134277   -9876.2366   -9582.1656   -9876.2366            0    8574.5542    24.671572    24.605585    22.769962    13822.698    8406.8414    9260.3035    8056.5177    183.82818    -140.4599     342.4331   -7853.6222 
37563000    78.345964   -9865.0767   -9566.3862   -9865.0767            0    8613.6035    24.614793    24.740729    22.718876    13835.521    8807.6894    8744.4986    8288.6224   -730.64446   -827.28211    126.47208   -7828.3601 
37564000    77.002555   -9874.4699    -9580.901   -9874.4699            0    8423.4393    24.678019    24.687563    22.710811    13836.337    8371.9741    9323.1618     7575.182    60.342274     48.31733    383.01956   -7881.1454 
37565000    72.206825   -9869.5134   -9594.2281   -9869.5134            0    8696.1565    24.590244    24.647933    22.819755    13831.023     9297.442    8578.5553    8212.4721   -27.341916    439.65146   -81.609934   -7840.1152 
37566000    78.214054   -9861.6705   -9563.4828   -9861.6705            0    8072.0561    24.668896    24.679878    22.754285    13853.386    8178.7316    7920.6056    8116.8312    187.77946   -340.20123    90.050795   -7932.6254 
37567000    73.810637   -9874.4708    -9593.071   -9874.4708            0    8565.4701    24.691578    24.722215    22.651956    13827.445    8204.6389    8076.6102    9415.1613    92.293667   -763.07809    793.33752    -7865.766 
37568000    72.453629   -9869.0754   -9592.8492   -9869.0754            0    8722.2345    24.644029    24.716242    22.700702    13827.174    8806.6441    8328.0092      9032.05    572.67377   -110.20437   -417.32566   -7833.9657 
37569000    75.559706   -9884.9843   -9596.9162   -9884.9843            0    7022.3429    24.645649    24.654907    22.864223    13893.129    8051.5312    7585.2036    5430.2939   -72.492652   -624.21305   -18.966491   -8174.0699 
37570000    73.207766   -9873.2202   -9594.1188   -9873.2202            0    8322.3958    24.641069    24.708237    22.738636    13844.132    8668.7674    8151.4681    8146.9519   -79.227867   -375.32661    1886.1139   -7913.8066 
37571000    77.345059   -9872.0969   -9577.2223   -9872.0969            0    9140.6416    24.701711     24.65433    22.673146     13808.04    8385.7481    8958.8657    10077.311   -296.73973   -384.26442   -591.51443   -7736.5156 
37572000    77.702041   -9869.3732   -9573.1375   -9869.3732            0    8693.0457    24.626954    24.741637    22.693632    13827.483    8833.1193    7800.0795    9445.9382    76.363565   -583.51653    411.93243   -7820.1009 
37573000    73.587699   -9884.9667   -9604.4168   -9884.9667            0    8138.3703    24.658694    24.739471    22.685762    13839.291    8303.0165    8137.9084    7974.1859    430.46118   -1024.8008     801.2744   -7961.8343 
37574000    76.996179   -9870.1152   -9576.5706   -9870.1152            0     8356.813    24.703473    24.645148    22.723843    13834.747     8317.961    8721.3298    8031.1481    231.85491    231.93551    453.70804   -7890.4533 
37575000     77.89646    -9869.782   -9572.8051    -9869.782            0    8334.3943    24.629621    24.670017    22.778136    13840.295    9516.2249    7605.2771    7881.6807   -366.48513   -896.27128    0.3999084   -7890.5367 
37576000    77.672395    -9883.498   -9587.3754    -9883.498            0    7077.3102    24.677837    24.720247    22.768811    13889.936    7192.9652    7009.5196    7029.4458   -197.19982   -806.55155    290.93819   -8153.7213 
37577000    73.785283   -9875.6753   -9594.3722   -9875.6753            0    8186.5868    24.650425    24.754308    22.687161    13843.801    7976.6587    7785.9409    8797.1608   -254.29787   -118.68379    2.2805257   -7941.5197 
37578000    76.803882   -9866.9819   -9574.1705   -9866.9819            0    8309.0478    24.705791    24.687297    22.708121    13850.119    7456.0686    8798.0266    8673.0482    182.47751    367.51816   -19.718871   -7895.8278 
37579000    76.699697   -9880.1782    -9587.764   -9880.1782            0    8211.9392    24.742978    24.642286    22.706271    13844.548    7752.5213    9155.1314    7728.1649    -906.6721    1.1681855    -144.0541   -7929.7034 
37580000    75.732822   -9869.7554   -9581.0273   -9869.7554            0    8930.9357    24.611266    24.702129    22.736369    13822.591    8983.0898    7968.3203    9841.3968   -196.01086     443.6391   -286.77481   -7780.6551 
37581000    76.081611    -9858.171   -9568.1132    -9858.171            0    9324.8437    24.586597     24.69717     22.74229    13809.559    9989.9817    9222.8459    8761.7035   -315.45349   -452.23509   -873.95099    -7690.106 
37582000     75.63259    -9868.013    -9579.667    -9868.013            0    9979.2813    24.640124    24.647846    22.685715    13777.624    9898.2426    9878.3425    10161.259   -244.71326    89.495501    584.37014    -7574.505 
37583000    73.189605   -9875.0902   -9596.0581   -9875.0902            0    8356.9285    24.649885    24.691147    22.744711    13843.203    8485.1426    8596.0587    7989.5842    228.86256    1.3478235   -37.816009   -7908.8868 
37584000    75.588024   -9857.4242   -9569.2482   -9857.4242            0    8508.1552    24.688323    24.656578    22.751967    13849.795    8483.1738    8722.9831    8318.3086   -133.35399    478.84484    197.04146    -7850.728 
37585000    74.988845   -9874.1758   -9588.2841   -9874.1758            0    7909.6331    24.624178     24.68036    22.795777    13853.759    8554.1184    8394.0773    6780.7035    132.53247    573.47757   -307.64235   -7990.1991 
37586000    74.315235   -9865.1447   -9581.8211   -9865.1447            0    8194.5397    24.736744    24.727727    22.648088    13853.461    7716.1285    7772.9979    9094.4925    105.89201    126.93944     186.8578   -7926.2084 
37587000     76.51106   -9870.8266   -9579.1315   -9870.8266            0    8968.6901    24.661484    24.688211     22.68913    13814.229    9093.6221    8607.6198    9204.8285    528.64475    154.98623    999.41001   -7772.2421 
37588000    77.867133   -9863.9575   -9567.0925   -9863.9575            0    8822.0843    24.608767    24.718608    22.723748     13822.73    8986.4205     8442.556    9037.2764   -106.46578    165.78715    150.47597   -7788.6456 
37589000    74.310277   -9879.7656   -9596.4609   -9879.7656            0    8763.2445    24.616677    24.656345    22.771312    13821.214    9037.3146    8257.3869    8995.0319   -361.23678   -382.24321    518.87601   -7830.0693 
37590000    78.640999   -9878.8264    -9579.011   -9878.8264            0    8238.4641    24.668682    24.699833    22.724929    13846.579    8191.0595    8093.8113    8430.5214   -717.44796    206.04341    950.83794   -7915.3508 
37591000     74.67107   -9877.8413   -9593.1611   -9877.8413            0    8647.2769    24.614526    24.677611    22.773419    13833.206    8725.7861    9118.2582    8097.7865   -692.81848   -284.74561    29.821896   -7848.6325 
37592000    74.987613   -9865.4753   -9579.5883   -9865.4753            0    8284.2684     24.61541    24.696236    22.773537    13844.215    8522.4032    7948.8898    8381.5123   -423.62341    4.6506119    152.73286   -7906.9641 
37593000    75.401905   -9864.4986   -9577.0322   -9864.4986            0    8812.0079     24.65776    24.722155    22.669204    13818.988    8960.2065    8195.7642    9280.0529    -91.51625   -1278.0937   -290.98721   -7801.0975 
37594000    75.084587     -9868.14   -9581.8833     -9868.14            0    8529.8972    24.730185    24.700921     22.63732    13828.196    9016.8919    7821.6331    8751.1665    263.20782   -182.71534    291.40767   -7861.6585 
37595000    73.749504   -9879.1792   -9598.0124   -9879.1792            0    8612.0606    24.661138    24.744888    22.638848    13815.065    8578.8929    8139.6646    9117.6244    131.68828    284.07303   -253.84132   -7862.8669 
37596000    75.199816   -9870.9046   -9584.2086   -9870.9046            0      8190.55    24.641849    24.710072    22.743518     13848.57    8110.7934    8347.1489    8113.7076   -400.42232    183.47553    89.507413   -7929.9862 
37597000    78.589531   -9874.8742   -9575.2551   -9874.8742            0    8250.1378    24.640273    24.706311    22.745055    13846.513    8843.3047    7879.7423    8027.3663    168.43748   -263.10818    43.010654   -7909.2454 
37598000    74.189653   -9877.2896   -9594.4448   -9877.2896            0    8979.4214    24.547866    24.694794    22.767402    13801.701    10088.849    8686.0548    8163.3607   -804.04284   -289.91647    36.036307    -7787.034 
37599000    77.138154   -9873.2508    -9579.165   -9873.2508            0    8398.4737    24.657342    24.703601    22.736252    13849.223    8235.0783    8071.6556    8888.6871   -299.71635    312.31485   -272.64013   -7882.8689 
37600000    74.012249   -9880.5803   -9598.4118   -9880.5803            0    8057.4114     24.65676    24.667217    22.785165    13858.248    8426.2178    8228.6067    7517.4098   -61.105504    -678.7655    22.395065   -7969.9418 
37601000    73.063865   -9866.0789   -9587.5261   -9866.0789            0    8521.9065    24.647057    24.675347    22.739717     13829.72    8999.2069    8277.1812    8289.3316   -468.36442    183.41718    273.26432   -7868.7233 
37602000    77.383014   -9871.3855   -9576.3661   -9871.3855            0    7831.1502    24.612337     24.84099    22.686947    13870.682    8007.0406     7099.983    8386.4271    84.626243     10.86579   -384.65267   -7992.2053 
37603000    75.244088   -9871.7894   -9584.9246   -9871.7894            0     7335.305    24.730908    24.680804    22.743599    13882.208    6891.5099    7783.8967    7330.5085    83.306758   -534.97343    -31.41622   -8099.8352 
37604000    76.131913   -9876.7471   -9586.4975   -9876.7471            0    7891.9606    24.666752    24.665027    22.790015    13865.585    8011.2324    8533.1968    7131.4526   -539.72449   -546.23975    308.03458   -7990.6221 
37605000     74.84104    -9864.632   -9579.3039    -9864.632            0    7771.1941    24.617709     24.76248    22.742263    13863.582    8243.4988    7152.1166    7917.9668   -508.07141    -705.3764    479.23965   -8008.0763 
37606000     72.30969   -9872.6628   -9596.9853   -9872.6628            0     7603.132    24.668054    24.718877    22.748257    13871.128    7431.2002    7919.6542    7458.5416   -13.180048   -664.70961   -219.49659   -8058.9009 
37607000    77.592939   -9874.4669   -9578.6472   -9874.4669            0    8638.6619    24.681617    24.670556    22.703041     13824.09    8658.8195    8860.5176    8396.6485     -69.8494   -746.23093   -18.836439   -7837.0051 
37608000    74.745041   -9870.8941   -9585.9319   -9870.8941            0    7840.1001    24.716717    24.691122    22.721516    13866.566    7551.0461    8147.6201     7821.634     101.9236    612.23481    541.26132   -8000.4313 
37609000    75.974296   -9880.6516    -9591.003   -9880.6516            0    7343.3153    24.645261    24.688203    22.804667    13875.436    8257.9545    7355.4195    6416.5718   -25.610687   -483.02246   -525.45921    -8105.017 
37610000    74.560118   -9877.0849   -9592.8277   -9877.0849            0    7713.5456    24.649495    24.681535    22.795976    13868.784    7796.4249    7642.6484    7701.5636     -270.653    793.05502    261.06164   -8032.6706 
37611000     73.32274   -9862.8084   -9583.2687   -9862.8084            0    8279.7327    24.709649    24.690909    22.692854    13844.994    7866.4545    8435.6614    8537.0822    297.98413    12.945013    329.63121   -7911.4662 
37612000    76.568872   -9869.9302   -9578.0147   -9869.9302            0    8864.8289    24.611201    24.761682    22.689817    13827.509    9437.1937    8129.5783    9027.7147   -162.25431    -25.57101   -87.245913   -7790.3331 
37613000    76.642544   -9874.4979   -9582.3015   -9874.4979            0    7981.9496    24.663567    24.675274    22.759411    13850.929    8565.1299    8012.9876    7367.7313   -227.70674   -5.5263826   -212.36177    -7969.935 
37614000    78.954855   -9865.9551   -9564.9432   -9865.9551            0     7983.974    24.781541    24.647578    22.695115    13862.289     6243.584     9241.244     8467.094   -363.29057    761.27389    406.94854    -7950.845 
37615000    76.672793   -9858.9318   -9566.6202   -9858.9318            0    8266.8256    24.677621    24.724786    22.691712    13845.323    8054.2063     8348.607    8397.6634   -121.81203   -27.567978    370.21966   -7897.3841 
37616000    73.095876   -9869.9102   -9591.2353   -9869.9102            0    8314.9636    24.617149    24.711622    22.772408    13853.132    8248.9807    7769.1894    8926.7205   -238.95517    441.27676   -618.60102   -7911.3323 
37617000    75.400855    -9887.364   -9599.9016    -9887.364            0    8331.1845     24.67968    24.668242    22.720058    13832.069    8801.0712    7925.8279    8266.6545    19.820304   -44.981345    89.831355   -7919.2805 
37618000    73.021142    -9878.175   -9599.7851    -9878.175            0    8369.6703    24.638487    24.768135    22.665707    13831.734    8787.7862    7469.6796     8851.545   -361.80765    -490.9788    575.41873   -7911.4414 
37619000    76.813848   -9876.8909   -9584.0415   -9876.8909            0    8467.4598    24.648834     24.70887    22.723333    13839.528    8365.7967    8044.0596    8992.5232   -284.51323   -64.380605   -215.16624   -7875.0089 
37620000    74.028529   -9875.0995    -9592.869   -9875.0995            0    8089.3738    24.660272    24.659511    22.779692    13852.565    7871.6583    8439.3514    7957.1116    228.00826   -295.58558   -6.8064279   -7958.6096 
37621000    74.436948   -9872.3402   -9588.5526   -9872.3402            0    8228.5861     24.64294    24.707789    22.736697    13843.751    8304.5807      8575.84    7805.3377    98.184299    5.4864799   -189.10917   -7927.2266 
37622000    77.437718   -9871.0728   -9575.8449   -9871.0728            0    8144.9712    24.678434    24.675076    22.743017    13849.183    8080.3362    8337.2369    8017.3404    371.82715    62.729405   -108.74362   -7930.7551 
37623000    74.846489   -9877.9231   -9592.5742   -9877.9231            0    8012.8398    24.651732    24.686994    22.768789    13856.565    8924.6501    7596.9721     7516.897    324.89099   -785.37099    261.62591   -7973.3092 
37624000    75.754066   -9861.3135   -9572.5045   -9861.3135            0    8598.5503     24.64812    24.642506    22.788121     13841.31    8026.3689    9226.5254    8542.7564   -433.97255   -447.34379    85.929832   -7836.7899 
37625000    76.462745   -9861.4282   -9569.9174   -9861.4282            0    8456.1247      24.6749    24.708852    22.686941    13831.966    8331.2675    8554.7956    8482.3109   -198.74051   -235.44103   -97.384027   -7864.1053 
37626000    76.182695   -9872.8106   -9582.3674   -9872.8106            0    8962.1239     24.60388     24.71614    22.711707    13811.282    9238.5808    8582.3637    9065.4271    215.12649    398.49171   -112.66822   -7777.1861 
37627000    75.801019   -9870.9862   -9581.9982   -9870.9862            0    7927.9152    24.700295    24.641242    22.778259    13863.895     7775.438    8371.2568    7637.0506    741.15292   -328.56695    380.99197   -7979.0475 
37628000    74.659306   -9876.5568   -9591.9215   -9876.5568            0    7725.4399    24.700776    24.681317    22.757849     13874.27    7401.7372    8071.6931    7702.8894   -122.43455    163.78497    281.82271   -8028.7405 
37629000    75.357032   -9869.3349   -9582.0395   -9869.3349            0    7810.6529    24.670321    24.764773    22.689889    13862.498    8198.4378    7129.7042    8103.8167   -183.58092   -381.70053    393.09479   -8002.9573 
37630000    76.026084   -9887.3808   -9597.5347   -9887.3808            0    7674.1601    24.658478    24.744856    22.718108    13861.919    7992.7127    6736.8124     8292.955   -41.192558    27.168384    26.176673   -8046.1122 
37631000    74.183027   -9878.4024   -9595.5829   -9878.4024            0    8313.2864    24.620703    24.693822    22.766845     13841.77    8352.9609    7551.2521    9035.6463   -543.47378   -162.92008    231.42809   -7917.3962 
37632000    75.410018     -9874.38   -9586.8826     -9874.38            0    8226.9657    24.692703    24.630338    22.783353    13856.599    8224.7907    8632.8613    7823.2452   -955.63292 -0.014249193    609.22238   -7924.3421 
37633000    77.366294   -9883.8245   -9588.8689   -9883.8245            0    7621.6538    24.683821    24.691836    22.750916     13866.43    7503.2275    8169.2942    7192.4397   -83.837956   -413.41283    -48.81857   -8047.5597 
37634000    76.300357   -9885.6175   -9594.7257   -9885.6175            0    8548.3537    24.729532    24.662892    22.664794    13823.298    7886.6982     8971.033      8787.33     -523.696   -467.84894    586.54609   -7871.3894 
37635000    74.238407   -9881.1344   -9598.1038   -9881.1344            0    8047.3166    24.677533     24.66584    22.755287    13850.963    8494.8654    8331.5957    7315.4886   -146.34317   -450.13433    221.91261    -7972.529 
37636000    73.394359   -9862.8535   -9583.0408   -9862.8535            0    8375.2203    24.629826     24.77479    22.686205    13843.094    8623.6792     7673.681    8828.3008    -494.5385     182.8598    228.57118     -7892.19 
37637000    74.738095   -9876.3548   -9591.4191   -9876.3548            0    8220.6135    24.669571    24.672465    22.753123    13848.896    7944.6056     8213.191     8504.044    96.093639   -498.74451    317.67703   -7931.0858 
37638000    74.800751   -9864.3568   -9579.1823   -9864.3568            0    8785.2127    24.643161    24.667372    22.732643    13818.765    9232.3606     8277.525    8845.7525     14.13657   -292.05904    167.14407   -7808.6763 
37639000    75.604711   -9882.3704   -9594.1308   -9882.3704            0    8111.4813    24.621874    24.770635    22.697888    13843.429    8494.3325    7702.5304    8137.5811   -442.59117    331.69594     176.2058   -7956.4858 
37640000    75.386148   -9870.4558   -9583.0494   -9870.4558            0    8150.3101    24.729714    24.685661    22.679054    13844.867    7952.8905    8053.8441    8444.1957   -404.57325   -299.93008   -74.806576   -7937.3944 
37641000    75.727178    -9882.629   -9593.9225    -9882.629            0    8310.4988    24.692558    24.695197     22.69155    13837.026    8482.7928    8195.4477    8253.2558   -25.139598   -105.92366    1164.9101   -7916.8736 
37642000    74.173715    -9876.631    -9593.847    -9876.631            0     8590.781    24.642277     24.62858    22.801124    13838.099    8401.7114    9147.4755     8223.156    777.87067   -276.78561    132.66393   -7860.1029 
37643000    77.307306   -9879.7814   -9585.0507   -9879.7814            0    8428.7124    24.656476    24.680308    22.749554    13843.773    8308.9263    8715.0597    8262.1511   -164.83518    -192.9128   -215.40204   -7883.3171 
37644000    75.660643   -9876.9299    -9588.477   -9876.9299            0    8338.1881    24.743597    24.659087    22.681404    13839.161    7801.1961    8266.4853    8946.8828   -171.71489   -483.57671   -269.61304   -7905.5807 
37645000    78.495333   -9867.3163   -9568.0563   -9867.3163            0    8410.8963    24.691671    24.680776    22.705458    13836.925    7448.1706    9233.7937    8550.7248    15.623667    124.22684   -235.81744   -7870.7596 
37646000    75.540242   -9865.5318   -9577.5379   -9865.5318            0     9761.425    24.613719    24.641087    22.718936    13779.234    10057.086    10003.779    9223.4102    140.26616   -133.74209    360.15609    -7615.921 
37647000    75.879521   -9876.5788   -9587.2915   -9876.5788            0     8626.392    24.695127    24.657433    22.715825    13832.085     8534.058    8816.8206    8528.2975   -169.39039   -230.25842   -1.1715542   -7847.1173 
37648000    74.357936   -9880.5995   -9597.1131   -9880.5995            0     8685.516    24.678888    24.698699    22.680332    13824.489    8287.1976    8741.1364     9028.214    -113.3123   -174.32574     643.0337   -7845.9742 
37649000    76.318952   -9878.9617    -9587.999   -9878.9617            0    7993.1128    24.669638    24.667913    22.781272    13863.509    7564.2021    8208.3977    8206.7386  -0.59452278   -699.66943   -99.477828   -7971.9111 
37650000    73.085576   -9868.6801   -9590.0445   -9868.6801            0    8601.6896    24.625133    24.695917    22.757062    13839.484    8467.8914    8952.3721    8384.8052   -58.076342   -595.20841    17.524033   -7853.9252 
37651000    74.872116   -9865.8602   -9580.4135   -9865.8602            0    8832.3497    24.704796    24.654531    22.685384    13817.331    8194.8286    9267.8222    9034.3983   -358.17744   -744.35932     277.1943   -7800.5926 
37652000    74.396379   -9876.0076   -9592.3746   -9876.0076            0    8418.0004    24.650008    24.721486    22.713343    13841.166    8713.2418    8389.5235    8151.2358   -351.36976   -102.76557    18.664407   -7893.1237 
37653000    76.822861   -9871.5258    -9578.642   -9871.5258            0    8602.3069    24.631557    24.645034    22.783093    13830.376    9002.4839    8448.7338    8355.7031    269.53678    188.24113    842.31397   -7843.5408 
37654000    74.106829   -9877.7731    -9595.244   -9877.7731            0    7933.6691    24.733945    24.677401    22.702315      13856.8    8026.9081    7553.3097    8220.7894   -526.11935   -281.39974    405.98217    -7991.951 
37655000    76.483959   -9878.2119   -9586.6201   -9878.2119            0    8183.8952    24.671342    24.719433     22.70723    13848.267      7921.92    7815.7671    8813.9984   -372.98928     691.7671     217.0264    -7933.778 
37656000    72.370457    -9891.733   -9615.8238    -9891.733            0    7712.0192    24.619905     24.70297    22.793435     13862.62    7441.8354    8054.7582     7639.464   -612.98639    110.35489   -21.487495   -8056.6687 
37657000    74.698738   -9872.1938   -9587.4082   -9872.1938            0      8581.15     24.64093    24.695566    22.724463     13828.33     8847.326    8330.0928    8566.0312   -443.05949   -261.72333   -56.692959   -7856.8305 
37658000    77.019969   -9881.3552   -9587.7199   -9881.3552            0    7870.1876     24.67712    24.647774    22.786953    13859.847    7737.1592    8081.7453    7791.6583   -24.761718   -440.84329   -61.066277   -7996.9059 
37659000    76.133769   -9867.9021   -9577.6455   -9867.9021            0    8002.8165    24.657594    24.735704    22.719805    13857.331     7854.804    8017.2859    8136.3596    517.14312    3.3979839    491.58392   -7960.3167 
37660000    72.319103   -9860.1795   -9584.4661   -9860.1795            0    8755.2931    24.644853    24.661421    22.764713    13835.871    9351.7013    8966.1341    7948.0438    304.92702   -245.27709    162.68653   -7817.8057 
37661000    71.871091   -9873.0152   -9599.0099   -9873.0152            0    8453.6222    24.650028    24.717733    22.704402    13833.629    8406.8614    8471.0141    8482.9912   -5.5268247    11.235361   -232.85016   -7893.4976 
37662000    74.920172   -9874.2205   -9588.5906   -9874.2205            0    8203.7646    24.726296    24.615255    22.753894    13849.023    6973.3995    9207.5866    8430.3075   -111.02885   -570.91732   -204.33089   -7931.6452 
37663000    75.354381   -9871.4277   -9584.1425   -9871.4277            0    7811.0852    24.735392    24.679294    22.730622    13875.954    7750.8861    7292.1489    8390.2207   -28.885127   -165.26671   -84.123248   -8003.4401 
37664000     74.31657   -9876.5945   -9593.2658   -9876.5945            0    8373.3395     24.67501    24.738967    22.678379     13843.66    7917.5487    7910.1484    9292.3212   -326.59522    289.10681    46.875211   -7902.7256 
37665000    76.251749   -9873.0103   -9582.3039   -9873.0103            0    8773.1642    24.599859    24.730404    22.715196    13819.118    8536.2986    8685.9496    9097.2443   -174.63246   -437.88256   -74.144047    -7814.181 
37666000    74.552465   -9859.4466   -9575.2186   -9859.4466            0    8528.2509    24.686026    24.621259    22.765243    13836.738    8451.8602    9169.0178    7963.8747      388.975   -594.38719    242.55524   -7854.2633 
37667000    74.956694   -9887.4467   -9601.6776   -9887.4467            0    8469.3037    24.665847     24.67348    22.736073    13836.998    8538.5479    8419.8703     8449.493    257.82632   -81.529458    290.96609   -7892.5855 
37668000    75.471474   -9856.7583   -9569.0266   -9856.7583            0    8375.8369    24.629245    24.758577    22.702437    13843.607    8486.5383    8559.2911    8081.6812    -421.3716    -773.9418    -277.1242   -7877.9887 
37669000    76.693369   -9876.2006   -9583.8105   -9876.2006            0    8343.3029    24.764683    24.677607      22.6427    13837.704    7389.4044    8396.1793     9244.325    -88.90436   -220.69924   -357.00374   -7900.0592 
37670000    73.487675   -9864.2165   -9584.0479   -9864.2165            0    8853.5965    24.662761    24.658106    22.716155    13814.534     9191.389    9112.1792    8257.2212    -106.4012    805.32842    668.31913   -7800.3067 
37671000    75.821978   -9874.0959   -9585.0279   -9874.0959            0    8763.6834    24.652662    24.677054    22.726022     13825.49    7781.3119     9308.917    9200.8212    -836.6499   -413.89815    508.16671   -7818.0012 
37672000     74.96299    -9870.506   -9584.7129    -9870.506            0    8721.7663    24.684111     24.66977    22.704413    13825.882     8966.889    8711.5163    8486.8935    -81.24227   -262.70611    340.93379   -7826.0881 
37673000    77.403765   -9881.6422   -9586.5438   -9881.6422            0     8270.618    24.682201    24.727667    22.669926     13836.21    8152.0857    8028.6604     8631.108   -267.71028    20.186293    222.97986   -7917.6412 
37674000    74.624182   -9877.8476   -9593.3461   -9877.8476            0     8140.295    24.574909    24.742087    22.766623    13842.893    9181.2413    7548.7003    7690.9434   -356.68705   -549.77848    28.230767   -7949.9476 
37675000    75.033207   -9870.6435   -9584.5827   -9870.6435            0    8450.6096    24.644321    24.680196    22.753938    13839.552     8970.065    8378.3109    8003.4531    445.37657   -1366.9671   -800.59076   -7878.9482 
37676000    75.820178   -9877.0902   -9588.0291   -9877.0902            0    8304.2136     24.69094    24.732552    22.645075    13828.667    8131.1255    8012.4964    8769.0189   -153.58038   -191.93548     -119.632   -7913.2608 
37677000    75.154979   -9869.0073   -9582.4823   -9869.0073            0    8216.4436    24.655064    24.609846      22.8335    13854.393    7938.3536     8985.807    7725.1703   -429.80358   -253.42985   -180.13357   -7922.3325 
37678000    75.055206   -9874.7428   -9588.5981   -9874.7428            0    8343.3583    24.609532    24.675595     22.79489    13842.308    8798.7959    8471.9492    7759.3297   -395.30598   -481.46619   -346.78275   -7904.2755 
37679000    77.285254   -9886.6096   -9591.9629   -9886.6096            0    7691.0414    24.650562    24.694613    22.777684    13865.598     8051.525    7459.3411    7562.2582   -32.434824   -815.92368   -328.97098    -8036.715 
37680000    73.877481   -9878.2947   -9596.6401   -9878.2947            0    7991.6142    24.685764    24.720785    22.701546    13853.651    7891.4853    7980.6509    8102.7063    51.787825   -328.84989    525.30541    -7982.004 
37681000    75.661466   -9873.0738   -9584.6178   -9873.0738            0    7846.1264    24.723839    24.714364    22.669856    13852.052     7516.266    8095.3896    7926.7236   -22.457605   -534.80456   -162.69371   -7999.5594 
37682000    78.638178   -9877.2907   -9577.4861   -9877.2907            0    8233.4849    24.643347     24.70705    22.746143    13849.317    8014.3422    8618.5536    8067.5589    91.025613    23.530836    7.1589523   -7914.5027 
37683000    75.050916   -9874.6591   -9588.5308   -9874.6591            0    7546.7007    24.691921    24.638692    22.804813    13873.916    7678.0404    8053.4608    6908.6009   -67.562553   -153.57727    883.27665   -8061.5553 
37684000    74.283655   -9867.9354   -9584.7322   -9867.9354            0     7898.375    24.705443    24.711705    22.716222    13868.563    8392.9832    7300.0238    8002.1181    -58.58536    -297.6403    1089.0662   -7987.2166 
37685000    76.872069   -9867.1608   -9574.0895   -9867.1608            0    7368.2759    24.652577    24.773504    22.741702    13889.056    7635.7831    6827.5753    7641.4692   -329.26321   -38.485673    262.42378   -8081.5889 
37686000    75.809872   -9869.6576   -9580.6358   -9869.6576            0    7316.0143    24.772762     24.61505     22.78509    13893.955    6336.7594     8753.499    6857.7844    375.49907    297.84913    150.07888   -8098.1985 
37687000    73.705017   -9882.4967   -9601.4995   -9882.4967            0    7918.3405    24.670758    24.701019    22.725367    13848.677    7303.4962      8223.76    8227.7653   -40.352827    318.00253    180.45393   -8002.2423 
37688000    76.447299   -9866.1007   -9574.6488   -9866.1007            0    8462.8386    24.664769    24.756584    22.662321    13837.963    8741.1408     7782.811    8864.5641    70.168181   -407.01646    139.71817   -7866.7422 
37689000    72.339089   -9876.3962   -9600.6066   -9876.3962            0    8346.0062    24.593058     24.72055    22.758085    13835.867    8766.1649    8389.4096    7882.4442    36.140254   -387.77241    547.44008   -7916.5334 
37690000    78.794494   -9875.1642   -9574.7636   -9875.1642            0    8267.2658    24.693038    24.715795    22.700417    13854.247    8127.5525    7769.2037    8905.0413   -98.057794    273.17547    515.31646   -7904.3627 
37691000    75.263833   -9873.1066   -9586.1666   -9873.1066            0    7740.6114    24.653978    24.723068    22.757781    13871.367    8266.7953    7517.3893    7437.6495   -229.16852    266.34671    114.89245   -8020.2435 
37692000    75.980655   -9873.5365   -9583.8636   -9873.5365            0    7871.3691    24.715903    24.696545    22.729091    13873.778    7645.5338     7797.852    8170.7217    271.04224   -278.36804    35.236587   -7991.2115 
37693000    77.495224   -9880.6079   -9585.1608   -9880.6079            0    8809.3614    24.681651    24.695212    22.671262    13818.556     8912.672     8151.474    9363.9382   -253.87317    440.43451    446.92213   -7809.8149 
37694000    74.101007   -9875.2254   -9592.7186   -9875.2254            0     7948.013    24.688409    24.661061    22.762694    13858.892    7864.7743    8020.2197     7959.045  -0.55836797   -497.99579     76.44584   -7986.2843 
37695000    74.166867    -9871.212    -9588.454    -9871.212            0    7621.2003    24.673231    24.673911    22.772767    13863.721    7597.0898    8205.5031    7061.0079   -554.22512    30.227654   -49.794403   -8047.5376 
37696000    76.071365   -9869.9982   -9579.9794   -9869.9982            0    8242.4298    24.725412    24.730985     22.63872     13843.21    7219.8035    8160.2136    9347.2724   -347.51749     419.6185    281.85177   -7915.9233 
37697000     78.09177    -9883.907   -9586.1856    -9883.907            0    8301.5353    24.661356    24.758582    22.669742    13841.695    8539.1559    7717.2302    8648.2197   -364.66883    228.28253   -168.56966   -7910.3802 
37698000    77.169325   -9874.2019   -9579.9973   -9874.2019            0    8132.8407    24.657573    24.701037    22.733124     13846.01    8339.3839    7857.3997    8201.7385   -69.126603    80.255883     -112.533   -7937.7339 
37699000    77.967981   -9872.5446   -9575.2951   -9872.5446            0    8448.2609    24.625454    24.647895    22.809742    13844.729    8179.8266    9307.6909    7857.2653   -504.60614     322.4091   -311.89399   -7869.4969 
37700000    75.497973   -9873.6295   -9585.7968   -9873.6295            0    8106.0044    24.668577    24.748064    22.675818    13843.576    8326.1512    7474.3629    8517.4992   -531.34811   -737.20786   -166.04347   -7949.2403 
37701000     77.90474   -9869.0836   -9572.0752   -9869.0836            0    8674.0569    24.691937    24.677989    22.690175    13826.198    8524.6246    8443.8684    9053.6778   -350.04269   -274.06611    -155.4736   -7823.0304 
37702000    74.822944   -9872.0294   -9586.7702   -9872.0294            0    8386.7216    24.599773    24.701505    22.767093    13834.456    9280.5583    8077.5677    7802.0388   -102.66749     614.1941    178.84014   -7894.6539 
37703000    75.331823   -9886.1381   -9598.9388   -9886.1381            0    8263.4556    24.627487    24.737739    22.713589    13837.762    8830.1172    7589.0878    8371.1619   -168.41981    87.856191    460.11441   -7931.2944 
37704000    76.135258   -9867.3752   -9577.1128   -9867.3752            0    8183.7427     24.68024    24.727768    22.678823    13840.596    8346.7607    7997.3022    8207.1652   -164.55916   -596.34127   -435.63637    -7925.217 
37705000    74.001022   -9874.8034   -9592.6777   -9874.8034            0    7986.7769    24.725391    24.697545    22.667851    13842.269    7245.0042    8681.7833    8033.5431   -242.10009   -38.148431    22.705261   -7980.3447 
37706000     69.33906   -9872.3472   -9607.9951   -9872.3472            0    8379.0439     24.64711    24.677046    22.729902    13824.732    8594.2847     8643.234    7899.6129    172.44413   -84.260033   -137.21488   -7918.6161 
37707000     75.69067   -9871.3766   -9582.8093   -9871.3766            0    8525.6755    24.573009    24.687771    22.811861     13838.88    8918.8079    8615.3383    8042.8803   -99.950546    324.14971    419.24446   -7862.1075 
37708000    74.410674   -9866.6594    -9582.972   -9866.6594            0    8295.9955    24.637104      24.7445     22.69545    13835.891    8723.7483    7718.4214    8445.8169    -17.67411   -28.463224    377.80375   -7908.9871 
37709000    76.042318   -9866.1733   -9576.2653   -9866.1733            0     7610.973    24.643398    24.724886     22.78524    13883.166    7877.1863    7358.8085    7596.9242    209.29927   -19.569869    255.52464   -8035.2584 
37710000    76.304556   -9868.3177   -9577.4099   -9868.3177            0    8301.5544    24.679978     24.68626    22.720032    13842.324    8072.9554    8579.1174    8252.5903    62.278767    33.507091   -293.39079   -7901.5246 
37711000    76.763804   -9867.3343   -9574.6756   -9867.3343            0    8813.1293    24.651622    24.717541    22.700312    13831.924    8658.9842    8707.0697    9073.3341   -671.54915   -137.33268    54.370461   -7796.8522 
37712000    75.955214    -9876.052   -9586.4761    -9876.052            0    8495.2461    24.684037    24.684325    22.705521    13834.673    8604.6998    8300.1033    8580.9351    71.222494   -464.86866    279.30832   -7872.4369 
37713000    75.138061   -9878.9918   -9592.5313   -9878.9918            0    8283.8992    24.692924    24.664585    22.736687    13847.568    7740.6625    8662.4274    8448.6077   -430.68697   -181.21746   -117.40307   -7919.5765 
37714000    77.578941    -9879.339   -9583.5727    -9879.339            0    7712.6593    24.714539    24.677721    22.733053    13864.855    7496.2027    7737.4353      7904.34    397.06825   -785.16591   -468.43774   -8024.0368 
37715000    75.091925   -9877.5453   -9591.2606   -9877.5453            0    7547.8942    24.693323    24.736891    22.705361    13869.253    7500.5628    7231.5856    7911.5344   -395.64858    310.76103    243.30578   -8064.5569 
37716000    75.142732   -9883.0858   -9596.6074   -9883.0858            0    7953.5079    24.635419    24.747646    22.727143    13856.026    8430.5143    7403.8531    8026.1564    30.218965     -667.029    389.39913    -7989.395 
37717000    76.404191   -9871.4351   -9580.1475   -9871.4351            0     7722.656    24.597218    24.705232      22.8321     13874.61    9091.6946    7063.7847    7012.4889    583.15496   -437.77281    194.57458   -8017.4915 
37718000    74.421128   -9867.6155   -9583.8882   -9867.6155            0    7952.1135    24.674207     24.70194    22.746727    13864.148     7264.381    8427.1845     8164.775   -154.37948   -1030.2596    91.692026   -7976.0156 
37719000    74.806636   -9877.1837   -9591.9867   -9877.1837            0    9093.6076    24.674805    24.672256    22.685774    13810.716    9327.0627     8873.146     9080.614   -699.63112   -28.264004    1015.3837   -7760.3966 
37720000    77.470515   -9876.6638   -9581.3109   -9876.6638            0    8946.6965    24.714359    24.638914    22.674091    13807.047    8004.8755    9750.3879     9084.826   -124.55185    214.35287    291.66913   -7779.7896 
37721000    76.478845    -9880.262   -9588.6898    -9880.262            0    8123.3059    24.672936    24.692528    22.736797    13852.101    8042.1247    7995.3784    8332.4147   -218.97282   -485.22398    158.32166   -7947.6301 
37722000    75.126228   -9883.4555     -9597.04   -9883.4555            0     7279.156    24.652051    24.725639    22.746358    13864.764    7594.7662    7007.5899    7235.1119    123.84058   -676.32253    503.89356   -8125.1703 
37723000    77.678779    -9887.272   -9591.1251    -9887.272            0    7705.1837    24.682312    24.666464    22.766249    13860.669    7391.9625    7980.4857    7743.1029    280.31119    631.24532   -774.07614   -8033.5712 
37724000    79.236339   -9871.8301   -9569.7451   -9871.8301            0    7944.9989    24.698565    24.665033      22.7489    13858.423    6756.3555    9178.9348    7899.7064    -88.76165   -372.63252    466.27566   -7963.9743 
37725000     75.65717   -9878.3077   -9589.8681   -9878.3077            0    7770.9614    24.699341     24.72633    22.678902    13850.551    7217.1615    7840.2817    8255.4409   -272.91009   -754.95905    543.50733   -8020.1644 
37726000    77.995258   -9884.6964   -9587.3429   -9884.6964            0    7947.3848    24.625306     24.75688    22.734372    13859.913    8765.8149    6960.2855    8116.0539   -85.694236   -457.32587   -230.78808   -7980.9172 
37727000    76.926813   -9872.2433   -9578.9632   -9872.2433            0    8213.0835    24.669192    24.663812    22.764423    13850.701    8007.0649     9219.551    7412.6347   -338.56883    253.33267   -367.79357   -7919.9346 
37728000    77.487705   -9869.9322   -9574.5137   -9869.9322            0      8668.65    24.704923    24.626209    22.721498      13823.5    8013.6495    9181.5807    8810.7198   -355.33792   -157.94391    677.53425   -7826.9002 
37729000    74.525354   -9879.7381   -9595.6135   -9879.7381            0    7715.7675     24.68769    24.733252     22.70916    13866.369    7987.2095     7350.353      7809.74    335.11398   -199.15583    58.542866   -8035.2788 
37730000    75.366417   -9873.3934   -9586.0622   -9873.3934            0    7591.1309    24.639546    24.727325    22.785471    13882.505    8268.1053    7400.3023    7104.9851   -420.77178   -816.26253   -653.30286    -8049.146 
37731000    78.972796   -9872.1211   -9571.0408   -9872.1211            0    8298.4074    24.643289    24.637664    22.812093    13850.433    7736.4351    9465.9793    7692.8077   -120.87591   -582.78114   -438.96708   -7894.8094 
37732000    75.394822    -9867.733   -9580.2936    -9867.733            0    8150.2461    24.731168     24.68373    22.692284    13852.675    7631.8513    8532.9249    8285.9622   -57.866357   -243.14013    861.09712   -7933.7234 
37733000    78.423544   -9872.6524   -9573.6661   -9872.6524            0    8189.5608    24.634578    24.722222      22.7393    13848.723    8179.6694    7889.5227    8499.4903   -101.24111    -779.0623    436.06658   -7919.6253 
37734000    78.404888   -9878.6205   -9579.7053   -9878.6205            0    8346.1967     24.64522     24.64115    22.802208    13847.474    8532.6988     8988.509    7517.3824    337.78465   -567.28921   -20.087213   -7894.1807 
37735000      76.0051   -9883.5451    -9593.779   -9883.5451            0    8279.3541    24.638541    24.763741     22.68091    13838.586    9280.1664    7291.7811    8266.1147     219.5716   -719.75855    377.71674   -7922.8267 
37736000    77.637266   -9876.2276   -9580.2389   -9876.2276            0    8436.5379    24.694308    24.673451    22.710812    13837.557    7654.9714    9273.8448    8380.7976   -386.18621    44.447674    296.38921   -7877.6901 
37737000    74.019701   -9868.7948   -9586.5979   -9868.7948            0    8858.7111    24.679934    24.659602    22.707339    13819.627    8948.2217    8957.9525    8669.9592   -76.751344   -284.54576    -202.9895   -7801.1683 
37738000    78.901843   -9869.8381   -9569.0283   -9869.8381            0    8099.5066    24.625417    24.669641    22.823874    13865.508    8555.2237    8193.0538    7550.2423    47.840258   -541.13971    504.28143   -7931.1929 
37739000    76.699149   -9869.8205   -9577.4083   -9869.8205            0    9083.5281     24.60703    24.672355    22.736925    13803.891    9175.4421    8854.8073    9220.3351   -13.766802   -62.942484   -330.81044   -7748.7525 
37740000    78.287914   -9871.2671   -9572.7979   -9871.2671            0    7847.0907      24.7284    24.766647    22.628503     13858.59    8133.7896    7023.6021    8383.8805     -210.403   -184.25557    864.34053   -7986.7963 
37741000    77.398461   -9873.7204   -9578.6422   -9873.7204            0    8578.6266    24.648746    24.684102    22.730861    13830.187    9130.2955    8778.2846    7827.2995   -276.99835    28.364732   -1137.7231    -7848.341 
37742000     77.39658   -9873.1018   -9578.0307   -9873.1018            0    7957.5482    24.653115     24.65798    22.799357    13859.638    7708.1035    8561.5718    7602.9693    -216.8141   -675.95686   -134.32807   -7969.5826 
37743000    75.334376   -9876.8597   -9589.6507   -9876.8597            0    7690.2087    24.693563    24.631423    22.793137    13863.643    7209.6528    8510.7048    7350.2685    422.21924    303.33273   -91.873514   -8034.7904 
37744000    76.933026   -9881.4233   -9588.1195   -9881.4233            0     8398.488    24.669782    24.720263    22.672296    13826.553    8406.5303    7651.9873    9136.9464     18.29171    232.29422    71.660191   -7894.5972 
37745000    76.364946   -9874.3077   -9583.1697   -9874.3077            0    8452.7169    24.634699    24.657049    22.785503    13840.347    8846.8742    8607.0989    7904.1775   -451.55706     100.1498   -428.15381   -7877.0118 
37746000     75.43339   -9881.8976   -9594.3112   -9881.8976            0    8142.3513    24.611064    24.687602    22.801253    13853.772    8578.2753    8249.1723    7599.6063   -11.141994   -677.40425   -12.198734   -7949.2057 
37747000    79.852461   -9873.0894   -9568.6554   -9873.0894            0    8420.7462    24.688411    24.739727    22.662514    13841.913    7872.3961    8217.9357    9171.9067   -133.32437   -138.73956   -544.59761   -7868.7584 
37748000    74.761376   -9879.9487   -9594.9243   -9879.9487            0    8208.3862    24.692921    24.702284    22.699553    13846.081     7931.676    8452.3904    8241.0922   -272.46915   -637.28806    498.03724   -7937.3975 
37749000     74.09951   -9883.6325   -9601.1314   -9883.6325            0     8163.404    24.604696    24.665717    22.818817    13848.568    8820.0628    8151.1406    7519.0086   -254.25658   -411.24171   -366.41696   -7952.3918 
37750000    76.126771    -9867.472    -9577.242    -9867.472            0    8252.5028    24.705084    24.662459    22.726749    13847.138    7342.5469    9159.1398    8255.8215   -427.56066    125.14699    79.282272   -7910.6795 
Loop time of 565.782 on 64 procs for 250000 steps with 1920 atoms

Performance: 76.354 ns/day, 0.314 hours/ns, 441.866 timesteps/s
374.8% CPU use with 16 MPI tasks x 4 OpenMP threads

MPI task timing breakdown:
Section |  min time  |  avg time  |  max time  |%varavg| %total
---------------------------------------------------------------
Pair    | 73.101     | 74.838     | 76.676     |  10.3 | 13.23
Bond    | 1.6499     | 1.798      | 2.3845     |  15.6 |  0.32
Kspace  | 266.9      | 274.04     | 280.87     |  22.5 | 48.44
Neigh   | 0.14052    | 0.14703    | 0.15563    |   1.2 |  0.03
Comm    | 77.037     | 83.087     | 88.749     |  37.4 | 14.69
Output  | 0.64808    | 0.6484     | 0.64999    |   0.1 |  0.11
Modify  | 89.468     | 100.48     | 106.41     |  44.1 | 17.76
Other   |            | 30.74      |            |       |  5.43

Nlocal:        120.000 ave         123 max         116 min
Histogram: 1 1 1 0 1 5 0 5 1 1
Nghost:        4317.88 ave        4342 max        4284 min
Histogram: 1 1 0 2 1 3 2 2 2 2
Neighs:        43916.6 ave       45166 max       42606 min
Histogram: 2 1 1 0 3 4 1 2 0 2

Total # of neighbors = 702665
Ave neighs/atom = 365.97135
Ave special neighs/atom = 2.0000000
Neighbor list builds = 250
Dangerous builds = 0

unfix		3
unfix		2
unfix		1

write_data	data.final.${pid}
write_data	data.final.0
System init for write_data ...
PPPM initialization ...
  extracting TIP4P info from pair style
  using 12-bit tables for long-range coulomb (../kspace.cpp:340)
  G vector (1/distance) = 0.37530298
  grid = 30 30 30
  stencil order = 5
  estimated absolute RMS force accuracy = 0.0031732243
  estimated relative force accuracy = 9.5560707e-06
  using double precision FFTW3
  3d grid and FFT values/proc = 7920 1800
Last active /omp style is kspace_style pppm/tip4p/omp
WARNING: Not all mixed pair coeffs generated from mixing. Use write_data with 'pair ij' option to store all pair coeffs. (../write_data.cpp:312)

write_restart   restart.lmp.${pid}
write_restart   restart.lmp.0
System init for write_restart ...
PPPM initialization ...
  extracting TIP4P info from pair style
  using 12-bit tables for long-range coulomb (../kspace.cpp:340)
  G vector (1/distance) = 0.37530298
  grid = 30 30 30
  stencil order = 5
  estimated absolute RMS force accuracy = 0.0031732243
  estimated relative force accuracy = 9.5560707e-06
  using double precision FFTW3
  3d grid and FFT values/proc = 7920 1800
Last active /omp style is kspace_style pppm/tip4p/omp
Total wall time: 0:09:25
