LAMMPS (30 Jul 2021)
  using 1 OpenMP thread(s) per MPI task
package omp 0
using multi-threaded neighbor list subroutines
echo both

include		in.partitions
variable        pid world 0
include		in.temp
variable        temperature equal 264.98
variable	tempDamp equal 100.0
include		in.pressure
variable        pressure equal 9000.0
variable        pressureDamp equal 1000.0 # This is 1 ps
include		in.seed
variable        seed world 745823

units		real
atom_style	full
read_restart    restart.lmp.${pid}
read_restart    restart.lmp.0
Reading restart file ...
  restart file = 30 Jul 2021, LAMMPS = 30 Jul 2021
  restoring atom style full from restart
  triclinic box = (-3.1659293 -0.12077197 -0.086429429) to (14.775928 22.700771 19.316427) with tilt (-0.23026273 -6.4757449 0.17749781)
  4 by 4 by 4 MPI processor grid
  restoring pair style lj/cut/tip4p/long/omp from restart
  restoring bond style harmonic/omp from restart
  restoring angle style harmonic/omp from restart
  1008 atoms
  672 bonds
  336 angles
Finding 1-2 1-3 1-4 neighbors ...
  special bond factors lj:    0        0        0       
  special bond factors coul:  0        0        0       
     2 = max # of 1-2 neighbors
     1 = max # of 1-3 neighbors
     1 = max # of 1-4 neighbors
     2 = max # of special neighbors
  special bonds CPU = 1.750 seconds
  read_restart CPU = 2.193 seconds

include 	in.setup
variable	out_freq equal 1000
variable	out_freq2 equal 10000
variable	out_freq3 equal 1000

timestep	2.0

neigh_modify    delay 7 every 1

include		in.tip4p
# This is TIP4P/Ice

# create groups ###
group ox type 2
336 atoms in group ox
group hy type 1
672 atoms in group hy

# set charges - beside manually ###
set group ox charge -1.1794
Setting atom values ...
  336 settings made for charge
set group hy charge 0.5897
Setting atom values ...
  672 settings made for charge

# ### TIP3P Potential Parameters ###
pair_style lj/cut/tip4p/long/omp 2 1 1 1 0.1577 8.5
pair_coeff 1 1*2 0.000 0.000
pair_coeff 2 2 0.21084 3.1668
bond_style  harmonic
bond_coeff  1 450 0.9572
angle_style harmonic
angle_coeff 1 55 104.52
kspace_style pppm/tip4p/omp 1.0e-5
pair_modify tail yes

thermo          ${out_freq}
thermo          1000
thermo_style    custom step temp pe etotal epair emol press lx ly lz vol pxx pyy pzz pxy pxz pyz enthalpy

restart 	${out_freq3} restart.lmp.${pid} restart2.lmp.${pid}
restart 	1000 restart.lmp.${pid} restart2.lmp.${pid}
restart 	1000 restart.lmp.0 restart2.lmp.${pid}
restart 	1000 restart.lmp.0 restart2.lmp.0


include         in.dump
dump            myDump all atom ${out_freq2} dump.water.${pid}
dump            myDump all atom 10000 dump.water.${pid}
dump            myDump all atom 10000 dump.water.0
dump            myDump2 all dcd ${out_freq2} dump.dcd
dump            myDump2 all dcd 10000 dump.dcd
dump_modify     myDump append yes
dump_modify     myDump2 append yes


variable natoms 	equal  "count(all)"                        # NUMBER ATOMS
variable H      	equal  "enthalpy/v_natoms"                 # ENTHALPY-per-atom
variable Vol      	equal  "vol/v_natoms"                 # volume-per-atom
fix AVG all 		ave/time ${out_freq} 1 ${out_freq} v_Vol v_H file vol_enthalpy.dat
fix AVG all 		ave/time 1000 1 ${out_freq} v_Vol v_H file vol_enthalpy.dat
fix AVG all 		ave/time 1000 1 1000 v_Vol v_H file vol_enthalpy.dat



fix 		1 all shake 1e-6 200 0 b 1 a 1
       0 = # of size 2 clusters
       0 = # of size 3 clusters
       0 = # of size 4 clusters
     336 = # of frozen angles
  find clusters CPU = 0.138 seconds
fix             2 all nph tri ${pressure} ${pressure} ${pressureDamp}
fix             2 all nph tri 9000 ${pressure} ${pressureDamp}
fix             2 all nph tri 9000 9000 ${pressureDamp}
fix             2 all nph tri 9000 9000 1000
fix             3 all temp/csvr ${temperature} ${temperature} ${tempDamp} ${seed}
fix             3 all temp/csvr 264.98 ${temperature} ${tempDamp} ${seed}
fix             3 all temp/csvr 264.98 264.98 ${tempDamp} ${seed}
fix             3 all temp/csvr 264.98 264.98 100 ${seed}
fix             3 all temp/csvr 264.98 264.98 100 745823


run             250000
PPPM initialization ...
  extracting TIP4P info from pair style
  using 12-bit tables for long-range coulomb (../kspace.cpp:340)
  G vector (1/distance) = 0.3795374
  grid = 24 27 36
  stencil order = 5
  estimated absolute RMS force accuracy = 0.0024110264
  estimated relative force accuracy = 7.2607345e-06
  using double precision FFTW3
  3d grid and FFT values/proc = 4050 480
Last active /omp style is kspace_style pppm/tip4p/omp
Neighbor list info ...
  update every 1 steps, delay 7 steps, check yes
  max neighbors/atom: 2000, page size: 100000
  master list distance cutoff = 10.8154
  ghost atom cutoff = 10.8154
  binsize = 5.4077, bins = 5 5 4
  1 neighbor lists, perpetual/occasional/extra = 1 0 0
  (1) pair lj/cut/tip4p/long/omp, perpetual
      attributes: half, newton on, omp
      pair build: half/bin/newton/tri/omp
      stencil: half/bin/3d/tri
      bin: standard
Per MPI rank memory allocation (min/avg/max) = 9.328 | 9.339 | 9.354 Mbytes
Step Temp PotEng TotEng E_pair E_mol Press Lx Ly Lz Volume Pxx Pyy Pzz Pxy Pxz Pyz Enthalpy 
 8250000    265.35221   -4775.7181   -4244.9809   -4775.7181            0    9356.8947    17.941858    22.821543    19.402857    7944.7107    9836.2936    9149.5024    9084.8881    635.32815   -798.12283     1268.253     -3160.84 
 8251000    250.85713   -4788.4423    -4286.697   -4788.4423            0    8345.9232    18.134232     22.78988    19.313016    7981.6248    9423.8083    7859.6348    7754.3266   -164.03342    335.71589   -1026.2234   -3315.1997 
 8252000    270.33321   -4815.5598     -4274.86   -4815.5598            0    8373.0507    18.026494    22.507048    19.555094    7933.9547    9443.9443    8678.9066    6996.3013    747.73765   -1134.5611   -58.500937   -3306.0261 
 8253000    260.34685   -4811.3964   -4290.6705   -4811.3964            0    8035.2052    18.083493    22.730658    19.344545    7951.5691    9302.4014    7914.0292    6889.1848   -352.12844   -473.29772    -32.52577   -3358.8641 
 8254000    258.96638   -4839.4317    -4321.467   -4839.4317            0    8304.7612    18.065218    22.580951    19.470116    7942.4406    9699.0736    7847.8962     7367.314   -1361.0102   -991.18196    60.223212    -3359.507 
 8255000    265.48253   -4801.4489   -4270.4511   -4801.4489            0    10035.513    18.253878    22.432635    19.334645    7917.2003    8725.5567    10867.179    10513.805   -220.84292    537.39292   -1345.6524   -3111.7081 
 8256000    269.78861   -4810.8172   -4271.2066   -4810.8172            0    7578.5685    17.960123    22.898178    19.355189    7959.9005    9348.7284    7612.0325    5774.9446    -41.94338    270.86163    1448.5859   -3391.4335 
 8257000    266.68395   -4813.6293   -4280.2285   -4813.6293            0    10497.443    18.029499    22.923195    19.172973    7924.0695    9810.8123    10611.971    11069.545   -511.13084    644.62006   -2098.9916   -3067.0975 
 8258000    264.20169   -4807.5851   -4279.1491   -4807.5851            0    8702.5144     17.84236    23.088657    19.228831    7921.4351    9607.5487    7629.5751    8870.4193    854.10348     634.5425     307.2649   -3273.7824 
 8259000    264.16619   -4764.7526   -4236.3875   -4764.7526            0    12050.714    17.896211    23.036996    19.057578    7856.9617    13163.195    10200.603    12788.344    1206.6799   -1514.0499   -1498.8727   -2855.5477 
 8260000    269.02996   -4805.7719   -4267.6787   -4805.7719            0     8758.785    17.868052    23.065999    19.291876    7951.0399    7995.9951    8737.0118    9543.3482    48.456518    131.38116    351.01935   -3252.0296 
 8261000    253.11852   -4783.2648   -4276.9965   -4783.2648            0    10386.809    17.929637    22.869638    19.178717    7864.1236    10403.383    9022.1798    11734.864   -329.43259   -795.70987   -882.10577   -3085.7316 
 8262000    266.01912   -4750.9492   -4218.8781   -4750.9492            0    10587.394    17.851921    22.858378    19.405195    7918.5994    10013.455    11059.325    10689.403   -666.41179   -469.69807    137.37364   -2996.1966 
 8263000    278.27406   -4792.9241   -4236.3416   -4792.9241            0    8033.7667    17.896985    22.915917    19.377746    7947.3141     8714.612    8389.7838    6996.9043    135.68962    -372.2882    238.79019   -3305.2005 
 8264000    252.61208   -4789.7345   -4284.4791   -4789.7345            0    9827.3583    17.964784    22.819691    19.297823    7911.1584    10259.436    9868.9621    9353.6773   -225.86518   -382.19741    144.06176   -3150.6366 
 8265000    273.52752   -4826.3877   -4279.2989   -4826.3877            0    6873.8922    18.071451    22.764288    19.442598     7998.368    6122.1396    7917.8324    6581.7046     270.3491    304.61427    2052.8895   -3477.4732 
 8266000    265.80317   -4802.6754   -4271.0363   -4802.6754            0     7867.658     17.80419    22.792342    19.582039    7946.3758     8757.583    8236.0378     6609.353   -83.851979    446.41776    1726.7529   -3359.2554 
 8267000    266.59485   -4810.2309   -4277.0082   -4810.2309            0     8469.262    18.179265     22.88643    19.122183    7955.9464    7229.3918    8336.6519    9841.7422    305.78299    370.41099   -79.614636   -3294.3255 
 8268000     261.8042   -4827.0091   -4303.3684   -4827.0091            0    8569.9685     17.91101    22.954091    19.402856     7977.115    10798.426    8243.7339    6667.7456   -740.23768    903.84255   -522.67758    -3306.355 
 8269000    263.77435   -4805.1773    -4277.596   -4805.1773            0    8157.1464    18.112947    22.926871    19.098752    7931.1997    6769.7824    7844.9318     9856.725   -1385.1822   -694.02492    210.25187   -3334.0719 
 8270000    269.46987   -4817.9061   -4278.9331   -4817.9061            0    8462.7245    17.828797    22.831161    19.474071    7926.9621    9160.4254    10240.403    5987.3448    1832.8185    387.90483    1612.8202   -3300.5862 
 8271000    263.77731   -4825.2088   -4297.6216   -4825.2088            0     8331.631    18.110374    22.825654    19.145371    7914.3351    7815.3275    9423.4217    7756.1439   -700.45635    75.897851   -93.134897   -3335.9642 
 8272000    273.89034   -4823.7601   -4275.9456   -4823.7601            0    7457.0913    17.786565    22.884385    19.589273    7973.5121    7914.1957    8657.7088    5799.3694   -214.37438    1216.4176    1418.3543    -3408.794 
 8273000    251.68448   -4811.8557   -4308.4556   -4811.8557            0    8388.2708    18.123759    22.711208    19.370737    7973.2371    8846.7305    9608.1425    6709.9394    98.765087    950.69459    201.05532   -3333.0551 
 8274000    273.73714   -4775.6485   -4228.1404   -4775.6485            0    9023.1192     17.97873    22.621709    19.540776    7947.4209    11569.619    9517.2925    5982.4458    446.50245     131.2839   -610.83212   -3182.3159 
 8275000    275.04962   -4785.1237   -4234.9905   -4785.1237            0    9834.4499    18.257124     22.57962    19.261485    7940.3337    9765.4189    10121.242    9616.6889   -1040.7073   -1022.6721   -2351.2013   -3096.1452 
 8276000    270.54128   -4804.2953   -4263.1793   -4804.2953            0    6904.3272    18.089895      22.6569    19.527653    8003.6222     8559.233     7480.666    4673.0827   -874.46427   -882.10631    247.07697   -3457.2743 
 8277000    272.16604   -4793.9912   -4249.6255   -4793.9912            0    8629.2034    18.083924    22.817739    19.318892    7971.6367    8229.9313    9084.7926    8572.8861    1077.4269   -359.41167    2729.4485   -3246.4103 
 8278000    261.15177   -4810.7699   -4288.4341   -4810.7699            0     8071.324     18.05882    22.605489    19.464382    7945.9146    7994.6255    7771.9137    8447.4329    334.89597   -149.31809   -500.29079   -3353.1048 
 8279000    261.27113   -4789.4167   -4266.8422   -4789.4167            0    10530.638    17.901806    22.773218      19.3264    7879.0199    11209.509    11615.308    8767.0978    1487.2114   -475.29806    1534.5112   -3056.7937 
 8280000    276.59575   -4793.5612   -4240.3356   -4793.5612            0    7750.9569    18.123027    22.613057    19.413224    7955.8704    8465.9571    7941.6455    6845.2681    84.767112   -1054.5645   -1444.1448   -3341.0059 
 8281000    271.26562   -4792.8673   -4250.3026   -4792.8673            0    6062.7208    18.306072    22.647588    19.362401    8027.4261    6653.0392    5843.4463     5691.677    593.54721   -632.35345   -1100.6184   -3540.5291 
 8282000    276.03253   -4810.7472    -4258.648   -4810.7472            0    8982.6247    17.978668    22.665431    19.437647      7920.73    8572.9651     9780.405    8594.5039    1025.2295   -1091.7997    503.39151   -3221.0137 
 8283000    273.16595   -4810.6844   -4264.3188   -4810.6844            0    9563.4342    18.087262    22.734218    19.203891    7896.6352     8590.728    9788.6021    10310.972   -516.70067   -452.16387    1686.6649   -3162.9523 
 8284000    263.29556   -4816.5014   -4289.8777   -4816.5014            0    9707.1432    17.833067    22.749134    19.445399    7888.7424     11187.94    9396.8296    8536.6601    925.67321   -1851.2678   -1174.5068   -3173.0785 
 8285000    265.55317   -4826.9058   -4295.7667   -4826.9058            0    10060.029    17.928111    22.687359    19.354575    7872.3086    9065.2141     10502.32    10612.553   -472.74456   -498.68536   -1530.7214   -3140.7793 
 8286000    263.21019   -4821.7584   -4295.3055   -4821.7584            0     10690.26    18.145959    22.638769     19.18246    7880.1965    9290.1214    11078.848    11701.812    954.61849    555.85036   -697.80153   -3066.7318 
 8287000      261.931   -4795.2504    -4271.356   -4795.2504            0    8980.3587    18.135426    22.498829     19.40174    7916.4111      8796.34    9539.4369    8605.2993    1364.9561   -185.61461   -98.558453    -3234.549 
 8288000     257.1841   -4783.9149   -4269.5149   -4783.9149            0    10189.669    18.038233    22.765727    19.268423    7912.6449    9467.1537    10832.405    10269.449   -791.53004   -1081.2514    905.50929   -3093.6494 
 8289000    264.96947   -4814.4657   -4284.4941   -4814.4657            0    8285.6595    18.014359    22.804467    19.360704    7953.5294    6928.5981    8310.8643    9617.5162   -100.04363   -1204.9057   -154.38815   -3323.4067 
 8290000    265.97391   -4810.3483   -4278.3676   -4810.3483            0    8401.5903     17.99038    22.957311    19.278389    7962.1816     8300.127    8407.3761    8497.2678   -1160.8122   -1111.1972   -1396.5415   -3302.7728 
 8291000    266.24126   -4808.8878   -4276.3724   -4808.8878            0    9169.1022    18.003792    22.878077    19.253674    7930.4372    9972.9559    8220.6565    9313.6941    472.35047    1311.2546    1899.4299   -3215.8989 
 8292000    265.23176    -4806.862   -4276.3658    -4806.862            0    8878.9926    18.011528     22.86899    19.273865    7939.0104    8883.6166    8402.7663    9350.5947    933.28949    756.90145   -3.5354678   -3248.3354 
 8293000    263.70534   -4773.5998   -4246.1565   -4773.5998            0    9404.4803    18.090517    22.748029     19.23009    7913.6361     7786.921    10977.095    9449.4253   -1308.8437   -352.73706   -2059.1769   -3160.7641 
 8294000     258.5601   -4828.1259   -4310.9738   -4828.1259            0     9008.304    17.902424    22.755859    19.427363    7914.4174    9379.6443    10301.318      7343.95   -519.83751     706.5559     346.8668   -3271.2024 
 8295000    265.54709   -4845.7609   -4314.6339   -4845.7609            0    8541.3862    18.149645    22.725069     19.21094    7923.5894    6232.9946    9196.8113    10194.353   -678.65712    1079.8199   -62.681438   -3327.6134 
 8296000    259.88131   -4828.0813   -4308.2866   -4828.0813            0    6307.9369    17.989175    22.871314    19.444124    8000.0138    8152.0731    5571.1621    5200.5756     894.1911   -686.02732   -391.70784    -3572.327 
 8297000    272.22123   -4816.5958   -4272.1197   -4816.5958            0    8321.8791     18.01551    22.908482     19.28154    7957.6455    8814.7755    7271.7949    8879.0669   -1726.0942   -945.88769    -1203.106   -3306.3315 
 8298000    255.99408   -4813.2915   -4301.2717   -4813.2915            0    9692.1303    17.941821    22.825321    19.334405    7917.9767    10927.985    8294.8494    9853.5568   -189.23653   -1016.7947   -353.54494   -3182.0675 
 8299000    271.19449   -4792.4775    -4250.055   -4792.4775            0    10548.348    17.906824    22.898062    19.169517    7860.1073    8648.3713    11692.679    11303.992   -349.38679    90.428755   -1037.3061    -3040.881 
 8300000    253.62012   -4820.2966    -4313.025   -4820.2966            0    5846.5066    17.932129    22.998351     19.38389    7994.0984     6660.074    5275.7893    5603.6564    123.74967   -80.055051    191.79705   -3631.4058 
 8301000    281.83184   -4766.9893   -4203.2908   -4766.9893            0    10171.809    17.957781    22.907154    19.206853    7900.9629     9151.451    10224.888    11139.087   -940.75263   -410.88318   -409.35264   -3031.2193 
 8302000    261.14622   -4816.7422   -4294.4175   -4816.7422            0    10538.548    17.722092    22.970101    19.328222    7868.0985    11565.339    10342.627    9707.6791     1508.848   -23.942294    2359.5651   -3085.1386 
 8303000    261.56403   -4833.5493   -4310.3889   -4833.5493            0    9967.1476    17.857765    23.052928    19.166167    7890.2079    10643.963    8641.4125    10616.068    1159.5935   -746.31467    593.63627   -3163.4634 
 8304000    274.25797   -4786.7064   -4238.1566   -4786.7064            0    8659.0365    17.969877    23.015647    19.223371    7950.5625    8401.8403    8403.8399    9171.4292   -123.95048    185.28307   -312.84122   -3234.1344 
 8305000    273.26049   -4809.4147     -4262.86   -4809.4147            0    9877.6681    17.927177    23.040381    19.215557    7936.9665    8500.9844    10008.446    11123.574   -434.07028    1471.8343    248.98313   -3119.4951 
 8306000    267.25529   -4762.9676    -4228.424   -4762.9676            0    8775.3177    17.929672    22.984563    19.334988    7968.0584    8491.2879    9769.9742    8064.6909    426.33638    602.86771   -1786.7317   -3208.6798 
 8307000    259.34743   -4830.3749    -4311.648   -4830.3749            0    8761.0933    17.930121    22.952149    19.240664    7918.2033    9014.7034    8075.0487    9193.5277    41.705356   -1028.0981   -359.37667   -3299.9269 
 8308000     271.8874   -4812.3426   -4268.5342   -4812.3426            0    9910.1221    17.890087    23.000578    19.213492    7906.0126    9488.0878    9912.2837    10329.995   -929.00353   -428.44557    186.28483   -3125.8864 
 8309000    263.30901   -4812.1567   -4285.5062   -4812.1567            0    8881.7884    17.974725     22.95736     19.22575    7933.5486    9555.2828    8648.9318    8441.1505   -579.99162    32.257143   -1099.6146   -3257.8595 
 8310000    275.01013   -4822.3645   -4272.3103   -4822.3645            0    9110.7567    17.761207    23.271855       19.122    7903.8158    8980.1417    7537.5955    10814.533   -142.84137    420.62631   -2382.7582    -3222.122 
 8311000    266.37521    -4793.863   -4261.0796    -4793.863            0    7507.5653      17.9243    23.091749    19.296614    7986.9347    9088.6727    6842.2074    6591.8157   -1688.6504   -936.23046   -330.12733   -3386.5891 
 8312000    279.59378   -4794.5395   -4235.3174   -4794.5395            0    7321.5828     18.01934    22.918471    19.354232    7992.8277    6120.6952    7130.2828    8713.7704    575.18717   -903.40654     1619.235   -3381.8611 
 8313000    277.43567   -4806.2617   -4251.3561   -4806.2617            0    8308.3534    18.076396    22.863714    19.346418      7995.75    7676.7247    8068.7511    9179.5844   -1525.1982    115.35319    483.39228   -3282.5205 
 8314000    271.06038   -4830.7567   -4288.6025   -4830.7567            0    9235.9709    18.108577    22.769497    19.225319    7927.0446    10311.343    7836.3661    9560.2036   -2015.5059   -106.42221   -1307.4578   -3220.8521 
 8315000    266.73672   -4842.3827   -4308.8763   -4842.3827            0    8744.1355    18.118007    22.689381    19.317921     7941.334    8804.9246    9141.3131    8286.1687    3295.6206    -467.2135    3413.7708   -3296.1637 
 8316000    275.01674   -4788.7973   -4238.7299   -4788.7973            0     9032.601    17.965078    22.834481    19.353183    7939.1253     8932.072    8047.6283    10118.103   -785.72454    281.67981   -1464.3538   -3192.8992 
 8317000    268.71472   -4825.5248   -4288.0622   -4825.5248            0    9357.0041    17.917511    23.005999    19.212703     7919.673     9166.123    8860.4839    10044.405   -204.07053    105.42396    516.04863   -3207.3253 
 8318000    266.32043   -4814.8453   -4282.1715   -4814.8453            0    8585.5117    18.002968    22.991072    19.286181    7982.6958    7482.5157       8248.9     10025.12   -1127.4952    437.71911   -1227.4707   -3282.6511 
 8319000    257.40045   -4825.8953   -4311.0626   -4825.8953            0    10406.824    17.900016    22.937251    19.163467    7868.0819    12378.215    9067.1663    9775.0901    -476.5063    372.29136   -8.0054323   -3116.9014 
 8320000    259.54791   -4779.1628   -4260.0349   -4779.1628            0    9326.1667    17.971241    23.161627    18.962362    7892.9534    7216.5987    8774.6115     11987.29   -40.846895   -981.07494   -608.70899    -3186.494 
 8321000    269.30031     -4809.86   -4271.2261     -4809.86            0    8475.7094    17.690362    23.214957       19.242    7902.3239    10086.602    8025.0767    7315.4491    -29.37236    95.327996    -209.8019   -3294.4236 
 8322000    279.74219   -4780.4059    -4220.887   -4780.4059            0    7726.9919    18.037313    23.289089    19.068363    8010.0967    8141.2646    6778.5856    8261.1255    -275.5825    1318.2543   -111.38431   -3318.2272 
 8323000    262.37159   -4843.2461   -4318.4705   -4843.2461            0    9780.4908    17.889436    22.991466    19.159788    7880.5046    9393.5288    10229.628    9718.3157    952.78211    -618.2538   -1127.5734   -3194.4078 
 8324000    258.82857   -4828.9225   -4311.2334   -4828.9225            0    8381.2342    17.886148    22.988153    19.271661    7923.9194    6940.6514    8655.0489    9548.0024    43.048363    -875.4951   -1980.3396   -3342.6792 
 8325000    255.56572   -4797.4717   -4286.3087   -4797.4717            0    9095.1879    17.875864    23.043095    19.321749    7958.9226    10223.971    9416.1354    7645.4575    137.99127    1122.9141   -1616.8965   -3230.6055 
 8326000    261.52414    -4786.761   -4263.6804    -4786.761            0     10049.04    17.993726    22.864989    19.267481    7927.1493    11857.596    9998.2375     8291.288   -2284.9095    1299.1276   -1904.8963   -3101.9175 
 8327000    249.38566   -4830.8681    -4332.066   -4830.8681            0    7212.2077    18.207048    22.649533     19.29193    7955.6285    6504.8394    7569.7986    7561.9851    424.04706   -992.46979    1089.3627   -3495.2719 
 8328000    289.27574   -4799.1064   -4220.5192   -4799.1064            0    11036.808    17.926779    22.687921     19.40071    7890.6828    12929.754    9489.4968    10691.173    519.91179   -1504.6512   -713.14509   -2950.4308 
 8329000    253.93197   -4797.7575   -4289.8622   -4797.7575            0    9188.2071     17.91875    22.721393    19.421701    7907.3313    9853.0529    9682.8299    8028.7385    774.32237   -1173.9306    977.43602   -3230.2753 
 8330000    274.76404   -4808.2186   -4258.6566   -4808.2186            0    9003.5988    17.906166    22.941637    19.331764    7941.4262    9498.5208      9742.29    7769.9855   -317.64539    2006.6138   -480.31432   -3215.8818 
 8331000    271.84336   -4814.1998   -4270.4795   -4814.1998            0    9087.5282    18.004135     22.93436    19.189348     7923.537    8964.2348    8987.5472    9310.8027   -33.858709   -382.51988   -2135.9976    -3220.355 
 8332000    253.42919   -4816.2024   -4309.3127   -4816.2024            0    7543.1554    17.850195    23.028374    19.335347    7948.0062     6639.263    7716.0162    8274.1869    585.68468    1222.5194   -1178.6222    -3434.959 
 8333000    271.29322   -4805.9049   -4263.2849   -4805.9049            0    7749.6571    18.006975    22.967665    19.174218     7930.038     6507.891    8139.5214    8601.5591    65.724924    477.73069    274.69076   -3367.0257 
 8334000    269.16375   -4780.9867    -4242.626   -4780.9867            0    7451.2163    17.883908    23.014359    19.369302    7972.1466     7480.628     7523.511    7349.5099   -825.96748   -668.35443   -2813.0395    -3376.306 
 8335000    250.92962   -4802.6511   -4300.7609   -4802.6511            0    8970.7145      17.8651    23.120747    19.172953    7919.4735     10106.06    8412.7459    8393.3372    114.63271   -134.20797   -721.63308   -3264.6667 
 8336000    249.89814   -4786.8649   -4287.0377   -4786.8649            0     8350.894    17.869024    23.076832    19.204681    7919.2511    8679.8925    7290.4423    9082.3473    448.46489    397.32077    -524.6405   -3322.5583 
 8337000    262.43736    -4820.393   -4295.4859    -4820.393            0    8765.2635    17.827295    23.149461    19.232537    7937.1192    8844.9441    8105.4065    9345.4399    1836.5622   -761.54141    2059.7801   -3280.8651 
 8338000    266.42375   -4814.8358   -4281.9554   -4814.8358            0    9940.9529    17.973653    23.219458    19.023965    7939.4329    10138.821    8569.2518    11114.786     603.0878    411.77714    303.05288   -3130.9075 
 8339000    252.74097   -4824.3808   -4318.8677   -4824.3808            0    9776.9858    17.710876     23.17646    19.240253    7897.6507     11695.27    8346.6432    9289.0439    697.95609   -116.85279   -1817.7951   -3192.7629 
 8340000    266.32147   -4810.4081   -4277.7323   -4810.4081            0    9905.2153    17.804021    23.181255    19.069752    7870.4593     10145.01    8437.2718    11133.364   -707.19908   -1079.6967    1184.2771   -3140.7862 
 8341000    260.18481   -4806.3873   -4285.9856   -4806.3873            0    9757.5037    17.787194    23.085615    19.213006    7889.4038    11185.507    9125.7161    8961.2876    416.22913     925.7599    203.80793   -3163.2983 
 8342000    266.52917   -4814.9632   -4281.8719   -4814.9632            0    9055.0127     17.91754    22.976872    19.260751    7929.4399    10313.253    8536.1088    8315.6762   -136.86985    51.860014   -124.73014   -3234.7254 
 8343000    264.36539   -4788.2789   -4259.5155   -4788.2789            0    8894.4562    18.041224    22.867558    19.323256     7971.978    8876.6995    9136.2982     8670.371    751.95419     208.1086    683.69707   -3225.4182 
 8344000    260.09723   -4797.0532   -4276.8266   -4797.0532            0    10274.934    18.058354    22.592304    19.273863    7863.3474    9744.2121    10509.468    10571.124   -656.54434    541.15877   -583.28134   -3098.5089 
 8345000    245.21624   -4809.3247   -4318.8619   -4809.3247            0    10466.515    17.932473    22.863961    19.205354    7874.3365    10192.745    9921.8499     11284.95    1140.1881   -1466.2193     3118.477   -3116.8965 
 8346000    269.89409   -4809.3889   -4269.5673   -4809.3889            0    9381.8397    17.843077    22.989586    19.283428    7910.1578    10244.409    10059.221    7841.8895   -233.81337    -2034.605    -2819.104   -3187.2639 
 8347000     272.1065   -4821.6211   -4277.3745   -4821.6211            0    9144.6194    18.146341     22.66503    19.210958    7901.2244    10751.937    8508.5255    8173.3961    175.58095   -68.849411    980.00609   -3223.6285 
 8348000    264.77836   -4804.3461   -4274.7567   -4804.3461            0    8573.7915    17.960898    22.912124    19.289224    7937.9461    8743.9931    8888.5128    8088.8686   -466.93085     493.1351    1432.0159   -3282.1963 
 8349000    244.83031   -4781.3367   -4291.6459   -4781.3367            0    8874.8646    17.810796    23.082408    19.249039    7913.5888    8665.2984    8660.5774    9298.7179    135.64806   -487.22775     2135.025   -3267.3838 
 8350000    272.22963   -4824.1822   -4279.6893   -4824.1822            0    9654.2819    17.927677    22.890853    19.202494    7880.3158    8079.6192    9698.3176    11184.909   -2331.3289   -277.92258   -1800.6552   -3170.1582 
 8351000    251.81422    -4824.736   -4321.0765    -4824.736            0    8360.2296    18.151981    22.818117    19.176129    7942.6381     5179.073    9521.0689    10380.547    1733.2758    815.03371    147.54308   -3352.6674 
 8352000    259.13998   -4799.9236   -4281.6116   -4799.9236            0    7497.3867    18.007989    22.812065    19.453542    7991.5039      7527.94    7580.1795    7384.0407    288.60569    54.294337   -1876.4521   -3407.8071 
 8353000    265.25525   -4799.5552   -4269.0119   -4799.5552            0     7393.598    18.104426    22.912426    19.283503    7999.1118    8268.2177    7576.3965    6336.1798    1118.9588   -1129.3626    158.10852   -3406.4834 
 8354000    266.84842   -4791.6692   -4257.9394   -4791.6692            0    9980.9012    17.990878    22.676641    19.291832    7870.5406    9771.9892    10730.486    9440.2286   -243.56266   -471.50337   -830.86717    -3112.294 
 8355000    285.09621   -4792.9671   -4222.7394   -4792.9671            0    8713.4075    17.992908    22.740687    19.404449    7939.7394    8943.0936    8436.6111    8760.5178    695.22189    790.58041   -1697.7836   -3213.7882 
 8356000    254.59086   -4818.2701   -4309.0569   -4818.2701            0    8234.2565    18.042086    22.885896    19.200206    7927.9438    8211.6994    8521.2388    7969.8314   -212.45417    1391.3402    755.20834   -3357.0045 
 8357000    261.46268   -4799.9585   -4277.0009   -4799.9585            0    8131.1658    18.052883     22.80662    19.372546    7976.1663    8467.4101    8562.0867    7364.0005    1988.9658    921.76993    -1287.559   -3331.1495 
 8358000    267.81453    -4786.114   -4250.4518    -4786.114            0    10026.669    18.273159    22.358739     19.39506    7924.1384    8125.0471    10774.279    11180.681    1188.9872    343.42301   -1883.3157   -3091.7155 
 8359000    255.78035   -4806.5735   -4294.9812   -4806.5735            0    8223.9862    18.188556    22.603221     19.39363    7973.1084    5934.0889    10784.867    7953.0031    19.499396    361.81027    1166.0732   -3338.6993 
 8360000    263.57915   -4789.6894   -4262.4985   -4789.6894            0    8479.1375     18.09532    22.614262    19.487141    7974.3783    8543.5051    8637.9277    8255.9797    527.77035    142.01258   -407.70967   -3276.3907 
 8361000    277.78938    -4794.445   -4238.8319    -4794.445            0    9977.5036    18.178618    22.534393    19.359833    7930.6416    9129.2473    10446.917    10356.346    238.70823    481.16828   -1199.3715   -3084.8311 
 8362000    264.85988   -4800.4103   -4270.6578   -4800.4103            0    9738.9665    18.063263    22.514669    19.496217    7928.8849    9946.6986    10950.494    8319.7064    158.19665    454.81277   -1098.4541   -3144.4958 
 8363000    266.88352   -4816.7571   -4282.9571   -4816.7571            0    8958.7179    18.169744    22.601895    19.189888    7880.7239    7958.0071    9913.4634    9004.6834   -1128.2833   -547.49721   -121.90312   -3253.3112 
 8364000     279.7333   -4819.6407   -4260.1395   -4819.6407            0    8389.3254    18.080345    22.649125    19.390008    7940.2858    8686.3449    9622.3275    6859.3037   -918.91185   -468.33638    -2057.613   -3288.6479 
 8365000    268.89919   -4819.0355   -4281.2039   -4819.0355            0    7789.8588    18.092191    22.607446    19.438308    7950.6222    8043.1113    8031.9175    7294.5476   -592.14527     86.10798   -323.69563   -3377.9567 
 8366000    259.65433   -4828.5871   -4309.2463   -4828.5871            0    9386.1825    18.025604    22.686306      19.3334    7906.0919    9444.9881     9284.812    9428.7474    674.94375    812.69848   -500.84293   -3226.9985 
 8367000    250.56162   -4815.3915   -4314.2373   -4815.3915            0    9261.3714     17.99467    22.948361    19.234747    7942.9541    9315.2985    8252.2844    10216.531   -1413.0329    531.02533   -12.337728   -3241.4015 
 8368000     252.5251   -4799.5878   -4294.5064   -4799.5878            0    10146.891    17.957056    22.755221    19.269917    7874.0117    8898.9474    10522.402    11019.325    378.19566    273.92099    1032.6951   -3129.2944 
 8369000    261.48644   -4821.7433   -4298.7381   -4821.7433            0    7905.0665    18.076801    22.690468    19.378344     7948.436    7519.1745    9095.0236    7101.0012   -1065.1674   -471.94725   -1470.3053   -3382.3845 
 8370000    260.68327   -4809.4605   -4288.0617   -4809.4605            0    9127.9206    17.928361     22.78592    19.447639    7944.6367    8961.7664    9371.9007    9050.0949   -40.827617   -776.27431    1508.0129   -3230.4609 
 8371000    268.78941   -4841.3205   -4303.7084   -4841.3205            0    8646.1275    17.990324    22.931338    19.213883    7926.5374    8767.0442    8071.1006    9100.2376   -760.26951    577.86361    1009.5681   -3304.2125 
 8372000    267.14459   -4781.1715   -4246.8493   -4781.1715            0    8492.0321    17.877131    22.927203    19.400896    7951.8956    7591.6617    9805.9746    8078.4601    757.73122    1225.2738   -165.15744   -3262.0263 
 8373000    263.10697   -4808.9789   -4282.7325   -4808.9789            0    9202.0652    18.045807    22.862009    19.158205    7903.9744    7100.2405    9463.4122    11042.543   -258.42644    373.79591   -990.78978   -3221.9979 
 8374000     271.2168    -4798.004   -4255.5369    -4798.004            0    9259.0421    17.892267    22.756454    19.475394    7929.6902    9330.6753    8660.6564    9785.7946    834.72598    2.2036077    421.72613    -3184.762 
 8375000    275.73311   -4798.6805   -4247.1802   -4798.6805            0    8590.1744    18.124728    22.776245    19.201977    7926.8305    8388.9846    8447.2061    8934.3324   -659.83114   -184.89701   -1041.8753   -3254.1158 
 8376000    253.83829   -4798.9495   -4291.2416   -4798.9495            0    8972.6822    17.904512    22.745298    19.420003    7908.6691    10100.947    9619.8398    7197.2597   -1534.0552    632.18763    388.16236    -3256.334 
 8377000    260.40711   -4819.3035   -4298.4571   -4819.3035            0    6707.1312    18.117036     22.91112    19.278456     8002.132    5742.2205    6422.8011    7956.3721    -773.7047   -621.70732   -50.942291   -3515.7155 
 8378000    263.53426   -4823.5202   -4296.4192   -4823.5202            0    9040.0756    17.843273    23.067669    19.205752    7905.1394    7586.2404    9583.9717    9950.0146    383.44764    463.37921    1835.6847   -3254.2038 
 8379000    288.51959    -4812.256   -4235.1811    -4812.256            0     8450.417    17.841583    22.961214    19.380989    7939.7012    8924.7062    8599.2171    7827.3276    1467.5274    235.55128    642.76818   -3256.6871 
 8380000    250.96403   -4826.1751    -4324.216   -4826.1751            0    7706.1968    18.037835    22.991755     19.14211    7938.6441    6794.2726    7430.0669    8894.2509    88.371382   -701.92855   -514.65897   -3432.0158 
 8381000    255.70843   -4824.8637   -4313.4153   -4824.8637            0    7602.2842    17.700652    23.327029    19.255153    7950.5221    8584.5419    6227.5631    7994.7477    1481.7471   -304.49026    807.06958   -3431.9288 
 8382000    267.05363   -4784.6047   -4250.4644   -4784.6047            0    9264.3394    17.922007    23.146787    19.139393     7939.726    10014.805    9709.6334    8068.5794   -1296.2699    1178.8315    915.60166    -3177.721 
 8383000     283.7073   -4817.4391   -4249.9894   -4817.4391            0    8232.6753    17.814516     23.09423    19.222969    7908.5704    9862.4776    7440.8607    7394.6875   -366.74646    489.12583   -611.67693    -3300.446 
 8384000    260.07778   -4823.6659   -4303.4782   -4823.6659            0    8428.0027    17.963996    23.048844    19.093706    7905.7365    7467.9305    9053.3065    8762.7711   -572.59466    183.61046   -201.75218   -3331.7543 
 8385000    253.82958   -4805.7544   -4298.0639   -4805.7544            0    9522.8549    17.842872    22.993897    19.263708    7903.4592    10623.583    8973.6527     8971.329   -359.99984   -677.00002    1140.2233    -3200.423 
 8386000    278.96697   -4815.3234    -4257.355   -4815.3234            0    9200.3905    17.964843    23.083565    19.103832    7922.2182    8252.0033    9183.8984     10165.27     104.9369   -547.24431    1106.3498   -3194.3656 
 8387000     257.5231   -4805.6388   -4290.5608   -4805.6388            0     8715.497    17.824441    22.927023    19.379818    7919.7829    9295.2688    8446.1855    8405.0366    1583.5453    738.92326    45.174414   -3283.9042 
 8388000    260.10632   -4798.8217   -4278.5769   -4798.8217            0    7789.9383    18.078456    23.141742    19.051747    7970.6215    8130.9203    6848.7682    8390.1265   -768.84407   -418.40012   -5.4124286   -3373.0485 
 8389000    259.07112   -4830.3089   -4312.1346   -4830.3089            0    10709.526    17.749952    22.890719    19.273907    7831.1648     11320.44    10652.126    10156.012   -510.43866   -1085.4776   -1285.0312   -3089.0049 
 8390000    269.73282   -4801.5051   -4262.0061   -4801.5051            0     8576.948     17.97881    22.972649    19.220078    7938.2936    9165.0175    9180.1786     7385.648   -260.81761   -84.453082   -530.58804   -3269.0368 
 8391000    267.25237   -4816.9848    -4282.447   -4816.9848            0    9022.7794    17.936637    23.025382    19.140563    7905.0126    6489.8646    9310.8336     11267.64   -323.88054    371.69686    1072.6339   -3242.2424 
 8392000    267.37135   -4800.4711   -4265.6954   -4800.4711            0    9459.1595     17.76953    23.068672    19.250475    7891.1442    11391.626    8770.7159    8215.1361   -1797.2017   -945.03853    649.96445   -3177.0952 
 8393000    262.04799   -4815.5022   -4291.3738   -4815.5022            0    9299.3723    17.746284    23.092915    19.312659    7914.5869     9859.823    9106.4076    8931.8863    72.345676    564.31365   -142.07307   -3217.9833 
 8394000    278.26342   -4836.5352    -4279.974   -4836.5352            0    9088.3559    17.989734    22.945474    19.103845    7885.7418    8762.3325    8490.3527    10012.383    606.70563    -476.8219    950.96991   -3234.7635 
 8395000    263.10867     -4800.87   -4274.6201     -4800.87            0    9552.3006    17.999849    22.978382    19.147517     7919.555    11600.943    9251.6369    7804.3216    1144.2755   -258.17565     1242.449   -3171.3429 
 8396000    267.22408   -4834.2276   -4299.7465   -4834.2276            0    8479.0952    17.971071    22.910101    19.247002    7924.3571    7912.7227    8293.7608    9230.8021   -166.41388   -126.84453    -1819.265   -3319.8291 
 8397000    263.03017    -4834.184   -4308.0912    -4834.184            0    10019.506    17.866333    22.879583    19.347961     7908.948    11651.227    9114.9069    9292.3832    540.85765   -577.46932    1106.7759   -3152.4024 
 8398000    257.26491   -4807.9029   -4293.3413   -4807.9029            0    7715.9751    17.933875    22.926413    19.377586     7967.277    7660.5903    8301.2957    7186.0393    573.22066   -1233.3579    1282.7567    -3396.787 
 8399000    278.91073   -4811.3924   -4253.5365   -4811.3924            0    9695.6454    17.965603    22.961479    19.197728    7919.3854    9449.2339    9141.2606    10496.442   -1159.2849    440.87273   -255.09629   -3133.7271 
 8400000    258.31858   -4813.8144   -4297.1453   -4813.8144            0    9649.0923    17.984287    22.785002    19.311818    7913.4424     9022.344    10789.597    9135.3358    296.32472    1235.3862    1027.1474    -3183.549 
 8401000    264.18614    -4769.989   -4241.5841    -4769.989            0    7504.3076    18.112092    22.878735    19.298664    7997.0144    6618.3187    7772.7278    8121.8764   -540.96762   -611.94288   -752.26927   -3366.3698 
 8402000    268.36766   -4798.0204   -4261.2519   -4798.0204            0    11080.746    17.801222    22.815953    19.314741    7844.7176    10182.263    12089.744    10970.231    709.98707     719.5683   -924.95372   -2993.5353 
 8403000    262.41532   -4797.0543   -4272.1912   -4797.0543            0    6988.7622    18.101514    22.982416    19.187706    7982.4029    6689.8178    7061.4683    7215.0005   -464.67573   -1663.2366   -1129.6105   -3458.5933 
 8404000    259.59499   -4809.1286   -4289.9065   -4809.1286            0    9013.8618     17.85441    22.868779    19.417361    7928.2745    10783.817    7814.8369    8442.9314    1640.8686    874.35283    1246.9918    -3247.672 
 8405000    260.98611   -4812.5966   -4290.5922   -4812.5966            0    8049.0794    18.099402    22.807158    19.248457    7945.6845    7825.0252    8668.4197    7653.7933    70.136838    153.75307   -2584.5739   -3357.8676 
 8406000    251.08037   -4808.9885   -4306.7967   -4808.9885            0    8399.3492    17.975547    22.641907     19.48583     7930.746    9107.0312    9605.1754    6485.8411    1071.4739   -312.64733    430.68539   -3335.3129 
 8407000     268.7835   -4829.4971   -4291.8969   -4829.4971            0     7428.579    17.956058    22.777228    19.473718    7964.5413    8127.5218    8416.4905    5741.7247    329.85526   -28.151904    70.291246   -3429.0328 
 8408000    255.76411   -4829.7947   -4318.2349   -4829.7947            0    7469.7647    18.093154    22.892395    19.169762    7940.0315    6108.5748    8583.4491      7717.27     187.3695    125.15543    950.97695   -3453.2569 
 8409000    262.56249   -4838.1978   -4313.0404   -4838.1978            0    6830.9081    17.862815    22.860536    19.458387    7945.9008    7587.3508    7674.6787    5230.6947   -325.32168    439.14381     780.0957   -3521.4555 
 8410000    272.24699   -4805.7867   -4261.2591   -4805.7867            0    9966.4595    18.221533    22.672533    19.127349    7902.0491    9588.8585    10013.792    10296.728    -101.1628   -1630.9037    450.36912   -3112.6916 
 8411000     261.0706   -4827.3725   -4305.1991   -4827.3725            0    8642.0704    17.899777    22.922112    19.424418    7969.8523    10044.603    7803.4964    8078.1118    1523.2461      759.797    732.04272   -3300.7129 
 8412000    260.61776   -4798.4736   -4277.2059   -4798.4736            0    8577.6295    17.980299     23.07108    19.128343    7934.9135    6057.6992    9933.7595    9741.4297   -2021.2985    435.76001    -2643.659   -3284.5805 
 8413000    267.53847   -4815.1842   -4280.0743   -4815.1842            0    9432.6018     17.85204    23.004761    19.187007    7879.7568    10012.278     8432.817    9852.7104    126.17298   -971.66852    1518.8064   -3196.0969 
 8414000    266.03633   -4825.7239   -4293.6184   -4825.7239            0    8432.4076    17.862033    23.329092    19.083769    7952.3022    7349.1733    8276.8075    9671.2419   -680.37433   -139.19136   -2628.5256     -3315.66 
 8415000    261.30287   -4816.2551    -4293.617   -4816.2551            0    8766.6265    17.624974    23.278987    19.297228    7917.4892     9160.679     9187.896    7951.3045    2616.9816    520.70152    210.92435   -3281.3482 
 8416000     277.0532   -4792.5372   -4238.3966   -4792.5372            0    8239.5682    17.853674    23.185256    19.220883    7956.3307    8052.7786    7925.6835    8740.2424    344.67053    313.90493    11.985623    -3282.319 
 8417000     255.9667   -4807.2157   -4295.2507   -4807.2157            0    8048.6755    17.860139    22.967139    19.343541     7934.649    7495.6686    7722.3595    8927.9983    2004.3187    928.30501   -282.67045   -3363.8683 
 8418000    274.14732    -4800.414   -4252.0855    -4800.414            0    11119.838    17.975486    22.892068    19.135299    7874.1001    12118.689    10745.892    10494.933    1047.7275   -669.09284    881.07838   -2975.1314 
 8419000    265.58937   -4762.3716     -4231.16   -4762.3716            0    10430.328    17.803224    22.904635    19.352588    7891.5277    10735.787    10331.587     10223.61   -143.08977    -799.9677    947.28671   -3030.7353 
 8420000    262.18076   -4796.9167   -4272.5228   -4796.9167            0    9681.5227    18.152313    22.750246     19.18267     7921.859    6931.0354    9811.8905    12301.642    452.02166   -524.69462   -1349.2764   -3153.9953 
 8421000    264.73723   -4790.1961   -4260.6889   -4790.1961            0    10738.952    17.996498    22.675954    19.349842    7896.4339    9762.3411    11453.481    11001.035    1395.3971    580.43715    1553.7668   -3023.9762 
 8422000    265.66472   -4824.3391   -4292.9768   -4824.3391            0    8925.7624    17.922705     22.92372    19.259892    7913.0241    9731.2112     9574.702     7471.374    1412.6129   -526.61424    1874.4737    -3262.914 
 8423000    253.51654   -4805.8186   -4298.7542   -4805.8186            0    7891.6491    17.843883    22.911745    19.401969    7932.1945     8651.516    7438.8347    7584.5964   -1488.5781   -876.65766   -1944.9518   -3385.8252 
 8424000    265.96598   -4831.0131   -4299.0482   -4831.0131            0     8135.485    18.047249    22.790331     19.31876    7945.8597    7690.2912    8369.9148     8346.249    -552.7205    191.22898    1125.8177   -3356.2902 
 8425000    257.15722   -4806.0157   -4291.6695   -4806.0157            0    10506.526    18.019734    22.589327    19.440997    7913.5289    9924.5314    12001.541     9593.506   -888.97763    1741.2035    -666.4902   -3079.1039 
 8426000    262.90537   -4804.9905   -4279.1473   -4804.9905            0    9785.4197    17.864394     22.78874     19.36446     7883.408    9124.6195     10144.34    10087.299    161.72344    -1697.079    723.63833   -3154.1037 
 8427000    275.25112     -4799.25   -4248.7138     -4799.25            0    10546.615     17.89439     22.91361    19.192751    7869.5089    11639.663    10749.146    9251.0352   -196.42367   -809.87407   -1456.3834   -3038.2924 
 8428000    259.28356   -4791.7749   -4273.1757   -4791.7749            0    8701.3824    17.888788    22.818747    19.434178    7933.0261    8425.2874    9421.6723    8257.1876    2484.0452   -316.52711    1027.6817   -3266.4688 
 8429000    270.33411   -4803.0658   -4262.3642   -4803.0658            0    7440.0806    18.026245    22.906295    19.296325     7967.732    6773.9672    7721.3757    7824.8988    1655.5505   -122.65474    243.25797    -3397.818 
 8430000    259.55416   -4792.6546   -4273.5142   -4792.6546            0    8251.2098    17.849155    23.026958    19.356381    7955.6998    8335.8315    8188.4069    8229.3909    438.08206   -523.70596   -1623.7532   -3316.1616 
 8431000    258.89059   -4808.0103   -4290.1972   -4808.0103            0    11478.797    17.934962     22.91783    19.145199    7869.2587    12985.553    10577.422    10873.416    956.04911   -180.65058    -1472.329   -2972.8322 
 8432000     274.8941   -4821.2013   -4271.3791   -4821.2013            0    9401.2476    17.868849    22.823191    19.419281    7919.6517    8897.7911    10244.289    9061.6623   -101.68999    280.20715   -1162.4236   -3185.5351 
 8433000    261.26076   -4827.8998    -4305.346   -4827.8998            0    10426.823    17.964836    22.821995    19.207774    7875.0605     9519.995    10655.457    11105.016     466.0875   -1284.8347   -717.22103   -3107.8288 
 8434000    258.45201   -4824.7676   -4307.8316   -4824.7676            0    9035.3417     17.88395    22.651884    19.573386    7929.2796    9089.8464    10208.962    7807.2162    927.08207   -732.86128    862.01826    -3262.981 
 8435000    278.59152   -4808.6327   -4251.4152   -4808.6327            0    9694.2821    18.229993    22.599734    19.232815    7923.7851    9032.5283    9827.0312    10223.287   -684.36935   -8.0638115    97.830277   -3131.1413 
 8436000    263.41993   -4772.8722   -4245.9998   -4772.8722            0    10076.758    17.840857    22.567313    19.595203    7889.4243    10627.655    11576.155    8026.4641   -21.734917     -28.9877   -950.79468   -3086.5765 
 8437000    261.31313   -4813.3319   -4290.6734   -4813.3319            0     7520.461    18.238357    22.825357    19.072867    7939.9777    4509.9892    8753.4936    9297.9001   -77.211107   -291.16063    220.97968   -3419.8309 
 8438000    275.90694   -4798.6812   -4246.8332   -4798.6812            0    9588.7166     17.91788    22.788405    19.348201    7900.2559    10156.307    8415.6702    10194.173     138.6016    51.590907   -414.13209   -3142.0488 
 8439000    253.69061   -4833.0805   -4325.6679   -4833.0805            0    7527.3047    18.184952     22.80739    19.226208    7974.0944    8662.6297    7432.4332    6486.8511     474.2671   -74.149492   -1041.6282   -3450.2876 
 8440000    272.83725   -4781.6442    -4235.936   -4781.6442            0    9097.6345    17.986728    22.807545    19.385604    7952.6167    8150.9738    9782.6588    9359.2709   -2064.5043    859.63343   -1420.6858   -3180.7855 
 8441000    264.96039   -4791.5847   -4261.6312   -4791.5847            0    10479.546    17.844882    22.920177    19.335674    7908.4422    10560.609    11950.726    8927.3026    129.53327    578.71205    1699.0372   -3052.9569 
 8442000    272.69155   -4817.5858    -4272.169   -4817.5858            0    8501.8256    17.946138     23.07499    19.200654    7951.1243    7650.1224    8783.5108    9071.8437   -382.86864    599.59531   -1311.1729   -3286.3059 
 8443000    262.04381   -4811.8274   -4287.7074   -4811.8274            0     9601.181     17.89244    22.931642    19.250619    7898.5872    11303.736    8403.7097    9096.0972   -962.43418    916.09467    1103.8841   -3181.7205 
 8444000    272.42437   -4820.7658   -4275.8834   -4820.7658            0    8786.1039    17.934067    22.907305     19.34543    7947.5119    10503.879    8623.1961    7231.2361    3.1641312      355.087    341.44925   -3257.5185 
 8445000    275.17122   -4824.4409   -4274.0645   -4824.4409            0     7156.047    18.140717    22.647948    19.376872    7960.9881    8696.2379    7232.5774    5539.3256    588.51694   -1149.8585   -623.79437   -3443.2271 
 8446000    256.90204   -4811.9659   -4298.1301   -4811.9659            0    6762.1928    18.038182    22.859724    19.398176    7998.7962     4809.174    8237.9714     7239.433    612.05843    1.3464465    550.07672   -3509.2917 
 8447000    253.49952   -4789.8762   -4282.8458   -4789.8762            0    9217.6901    18.141814    22.717626    19.255794    7936.0628     7955.105    10237.086    9460.8789    1581.4781    1202.5815    612.46529   -3215.9965 
 8448000    263.16233   -4801.9185   -4275.5613   -4801.9185            0    9496.6397    17.984291    22.812087    19.292845    7915.0674    7741.9144    9157.7113    11590.293     1615.341   -376.45525    254.73622   -3179.3344 
 8449000    263.96525   -4781.5591    -4253.596   -4781.5591            0    9420.2352    17.849404    22.843094    19.427105    7921.1226    10386.733     8805.975     9067.997   -1124.5653   -371.21081    -658.6334   -3165.3568 
 8450000    258.30827   -4809.6125    -4292.964   -4809.6125            0    7760.3567    18.004477    23.000958    19.201558    7951.7537    8427.1323     6815.365    8038.5729    1130.7303   -1661.4949   -781.18373   -3393.0096 
 8451000    265.64173   -4806.3774   -4275.0611   -4806.3774            0    9401.1147    17.686245     23.07536    19.435259    7931.8497    10093.991    9679.0634    8430.2901    271.38679    1465.0752   -2176.8579     -3187.56 
 8452000    263.37712   -4803.7637   -4276.9769   -4803.7637            0    9901.3823    17.952519    23.110418    18.999074    7882.5301    10419.437    9605.0503    9679.6597    322.46239   -332.64346   -724.22559   -3138.7277 
 8453000    261.46011   -4837.9804   -4315.0279   -4837.9804            0    9332.0527    17.885483    22.938039    19.282198    7910.6744    9593.2874    9382.6619    9020.2089    544.91209    1531.1513    65.983563   -3238.3977 
 8454000    252.90813    -4822.109   -4316.2615    -4822.109            0    9087.9391    17.990434    22.999512    19.148928    7923.2752    8990.1886    7960.6786     10312.95    562.77169    -1064.165    2026.4434   -3266.1243 
 8455000     260.8093   -4835.2066   -4313.5558   -4835.2066            0    8987.8467    17.901547    22.938714    19.285881    7919.5247    10756.923    7474.9395    8731.6774    409.15906   -391.43151   -3175.6979   -3275.4762 
 8456000    260.71159    -4806.988   -4285.5326    -4806.988            0     11577.36    17.902304    23.220858    18.890453    7852.8908    9736.9049    12878.802    12116.373   -871.37083    1095.8467   -340.44057   -2959.6197 
 8457000    271.00685   -4825.6763   -4283.6291   -4825.6763            0     7316.968    17.706569    23.185477    19.307994    7926.6123    9805.0813    5485.3127    6660.5099   -751.15484   -480.27246    643.41442   -3437.7766 
 8458000    262.21536   -4777.1965   -4252.7333   -4777.1965            0     10017.64    17.829743    23.147825    19.060001    7866.4391    10027.517    9389.5061    10635.896    -136.6205   -405.99336    604.97903   -3103.4702 
 8459000    265.34141   -4807.0237   -4276.3081   -4807.0237            0    8771.1168    17.855925    23.006194    19.293941    7925.8906    8675.8303     8391.374    9246.1461    737.18029    995.47638   -1139.3452    -3262.446 
 8460000    276.21526   -4820.9183   -4268.4536   -4820.9183            0    8241.5695    17.959717    22.951852    19.308834    7959.2706    7709.7052    9242.5122    7772.4909    170.90584    1293.4566   -89.233447   -3311.7904 
 8461000    270.43151   -4817.9263   -4277.0299   -4817.9263            0     8514.649    17.957903    22.955023    19.176938    7905.1954    8487.1935    8851.7797    8204.9737   -1074.1589   -473.49933   -1124.7804   -3295.3831 
 8462000    265.77316   -4804.6171    -4273.038   -4804.6171            0    9739.6326    17.805032    23.013575    19.230781    7879.9553    11740.245    8329.2315    9149.4215    421.60951   -1542.0855   -653.61461    -3153.749 
 8463000    263.03212   -4807.5565   -4281.4598   -4807.5565            0    9683.1793    17.940648    23.087336     19.09103    7907.5383    7863.7258    10302.992     10882.82   -143.42583    87.663078   -398.58754   -3164.7633 
 8464000    274.56928   -4833.3046   -4284.1322   -4833.3046            0    6731.5212    17.920448    23.071835    19.300651     7980.001    6380.8996    6776.3638    7037.3001    1128.2143    1141.4231    1181.2273   -3500.7169 
 8465000     258.0481   -4849.5876   -4333.4595   -4849.5876            0    8751.3232    17.830695    23.210953    19.143643    7922.9302    9307.0263    7500.2921    9446.6513   -1538.0417    141.56073    -1444.699   -3322.2633 
 8466000    268.81986   -4824.3172   -4286.6442   -4824.3172            0    9157.0992    17.744272    23.119137    19.223991     7886.301    9206.4134     9374.261    8890.6232    901.39487   -233.78877    2120.1714   -3233.4532 
 8467000    270.03815   -4859.3022   -4319.1925   -4859.3022            0    7967.8691    17.786709    23.242266    19.131996    7909.2325    8914.2525    6804.2325    8185.1223    119.58063   -425.53867   -581.21502   -3400.1144 
 8468000    277.40488   -4817.5415   -4262.6975   -4817.5415            0    7041.5029    17.841189    23.257727    19.219591    7975.0827    7578.8757     6491.163    7054.4702   -1115.9211    382.49526    81.332658   -3443.7115 
 8469000     267.6303   -4814.4132   -4279.1195   -4814.4132            0    9784.7994    17.855513    23.258375    19.087119    7926.6936     10486.42    8850.2901    10017.688    61.324074   -13.334938    2396.6001   -3147.9703 
 8470000    251.66282   -4822.1572   -4318.8004   -4822.1572            0    8184.3619     17.83304    23.035027    19.237768    7902.5781    9718.9049    8071.8469     6762.334   -903.65842   -176.62584    1010.9748   -3375.5446 
 8471000    263.37968    -4813.892   -4287.1001    -4813.892            0    9469.7354    17.876488    23.075856    19.145315    7897.7348    9169.0146    9483.4348    9756.7569   -330.54129    377.91425    1770.0688   -3196.3726 
 8472000    255.06685    -4841.678   -4331.5128    -4841.678            0    7937.6885    17.932051    22.991586    19.304091     7958.812    8388.7066    7999.3927    7424.9661    219.26063    58.189986    658.82781   -3410.1765 
 8473000    252.22405   -4828.1696   -4323.6904   -4828.1696            0    9552.1884    17.970802    22.862369    19.292219    7926.3064    9039.1159    9775.1062    9842.3432    103.49816    343.11803   -100.41727   -3219.4856 
 8474000    269.73496   -4817.8747   -4278.3715   -4817.8747            0    9973.7228    18.092048    22.563318    19.394669    7917.2267    10146.097    9287.2288    10487.842    1195.4073   -1126.3226    1149.3572   -3126.7592 
 8475000    255.85348   -4806.6005   -4294.8619   -4806.6005            0    10547.308    18.058127    22.655692    19.264723    7881.5714    9358.4028    11752.069    10531.453   -1932.4928    -1139.159   -1824.3144   -3082.5055 
 8476000    259.62768   -4808.7445   -4289.4571   -4808.7445            0     9288.509    17.863454    22.536726    19.707565     7933.946    8954.3035    9516.6382    9394.5851    17.939459   -492.57878    709.94314    -3214.698 
 8477000      279.863   -4777.2015   -4217.4409   -4777.2015            0     7772.232    18.053464    22.988948    19.199303    7968.2896    9470.7091    6857.2302    6988.7567    -124.5775    805.47531    1719.1552    -3314.235 
 8478000    267.58231   -4794.2267    -4259.029   -4794.2267            0    9064.7613    17.872075    22.894514    19.425258    7948.2805    9804.3381    9515.6608     7874.285   -1246.8519   -367.08652    1570.7316   -3208.2644 
 8479000    268.27792   -4797.2709   -4260.6819   -4797.2709            0    10551.472     18.03327    22.902328    19.158316    7912.4584    11640.754    10557.296    9456.3642   -375.47826   -70.304324    2395.3712   -3043.0939 
 8480000    281.91172    -4800.931   -4237.0728    -4800.931            0    8358.5297    17.862811    23.084982    19.259296    7941.8148     5991.382     8563.078    10521.129   -1694.7934     -158.164   -1249.3079   -3268.9609 
 8481000    259.50338    -4765.217   -4246.1782    -4765.217            0    10046.547    17.920906    22.915458    19.216794    7891.6795     10998.23    8650.1536    10491.257   -386.55621   -827.22292   -929.14767   -3089.9004 
 8482000     269.0968   -4807.8479    -4269.621   -4807.8479            0     9680.098    17.872614    23.123208     19.15553    7916.4474    10511.754    9763.7692    8764.7706   -1143.4373    273.90269   -112.39579   -3152.0221 
 8483000      263.084   -4810.9023   -4284.7018   -4810.9023            0     10155.26    17.844992    22.916108    19.248297    7871.3558    9811.8931    10050.852    10603.035   -1310.2909   -507.39898    2035.2661   -3118.9221 
 8484000    273.87023   -4803.9129   -4256.1386   -4803.9129            0    9212.1206     17.88794    23.026639    19.259465     7932.957    11201.819    9151.2299     7283.313   -1077.1856      744.145   -1615.1223   -3190.3512 
 8485000     260.0303   -4837.3194   -4317.2266   -4837.3194            0    7462.9323    17.845806    23.014839    19.329495    7938.9787    5900.9562    8573.3088     7914.532     382.2424    181.54114    53.807856   -3453.1544 
 8486000    274.47964   -4831.7175   -4282.7244   -4831.7175            0     9279.477    17.897592    23.062026    19.194957    7922.8091     9629.323    8836.9367    9372.1713    92.886918   -409.92945   -850.67798   -3210.5175 
 8487000    265.18683   -4813.2065   -4282.8001   -4813.2065            0    10341.226    17.840357    22.910461     19.27616    7878.7604    11367.383    9398.2614    10258.034   -167.56686    220.13744    94.602264   -3094.5556 
 8488000    269.14682   -4806.7662   -4268.4393   -4806.7662            0    10297.307    17.947887    22.921621    19.201517    7899.4013    9709.7289    10309.306    10872.886   -1396.7679   -8.0175033     316.4053   -3082.1415 
 8489000    268.38205   -4820.0334   -4283.2361   -4820.0334            0    8529.1204    17.912126    22.886805    19.333892    7925.9546    7899.4083    8316.7523    9371.2007   -1799.5088   -257.37013    569.43551   -3297.3387 
 8490000    266.69425   -4800.3506   -4266.9292   -4800.3506            0    8587.9379    17.827361    22.985006    19.394109     7946.969    8296.9803    8550.9572    8915.8762   -1013.3867    386.10486   -1959.2933    -3271.601 
 8491000    261.95295   -4822.4533   -4298.5151   -4822.4533            0    10603.739    17.981692    23.008305    19.067447    7888.7416    9810.9017    10735.018    11265.296    633.11045    1530.7778    465.05854   -3078.5634 
 8492000    259.49149   -4802.3973   -4283.3823   -4802.3973            0     9683.415    17.763851    23.212522    19.232249    7930.2984    10390.176    10305.903    8354.1654    2466.2528    1602.0386    1541.1178   -3163.4443 
 8493000    272.15245   -4784.7087   -4240.3702   -4784.7087            0    9221.3676    17.751226    23.149611    19.215066    7896.1235    9680.9281    8746.7467     9236.428   -441.32054   -1593.7849     1370.575   -3178.4665 
 8494000    272.36029   -4805.3161   -4260.5619   -4805.3161            0    9178.1164     17.89594    23.087712    19.178511    7924.1065    9420.4043    8399.8536    9714.0912    914.66176   -1294.2864    131.98163   -3199.8932 
 8495000    268.40551   -4774.7012    -4237.857   -4774.7012            0    7393.2568    17.856276    23.062938    19.406173    7991.8147    7936.7401    5993.4766    8249.5536    1666.2232    764.72139    -3265.034    -3376.155 
 8496000    261.48242   -4805.8947   -4282.8976   -4805.8947            0    8796.6561    18.088942    23.015985    18.999734    7910.2507    6262.0435    8868.7064    11259.219    216.81964   -51.029223    748.72632   -3268.0899 
 8497000    261.10474   -4802.6603   -4280.4186   -4802.6603            0    8370.0176     17.86528    22.958826     19.38245    7950.0191    8937.0703    8691.6017    7481.3807     479.0328    241.31147   -341.09257   -3309.9747 
 8498000    270.18012   -4810.2362   -4269.8425   -4810.2362            0    6622.8254    18.059252    22.909707    19.320159    7993.3713    6275.2091    6272.5088    7320.7584    1221.6179   -727.71494    1126.9523   -3497.7859 
 8499000    267.32973   -4831.2791   -4296.5866   -4831.2791            0    8318.4962    18.050903    22.646783    19.438329    7946.2898    7891.2789    9158.1708    7906.0389    963.35348   -704.13898    240.83121   -3332.5687 
 8500000    276.39074   -4803.0497    -4250.234   -4803.0497            0    5772.8267    18.166288    22.762814    19.390682    8018.3539     4249.158    5391.7307    7677.5914   -141.55555   -470.14784   -427.70943   -3575.1628 
Loop time of 581.997 on 64 procs for 250000 steps with 1008 atoms

Performance: 74.227 ns/day, 0.323 hours/ns, 429.555 timesteps/s
99.2% CPU use with 64 MPI tasks x 1 OpenMP threads

MPI task timing breakdown:
Section |  min time  |  avg time  |  max time  |%varavg| %total
---------------------------------------------------------------
Pair    | 28.631     | 32.276     | 37.591     |  33.9 |  5.55
Bond    | 0.28587    | 0.29451    | 0.31194    |   1.2 |  0.05
Kspace  | 262.84     | 273.26     | 285.54     |  34.6 | 46.95
Neigh   | 4.3411     | 5.2678     | 6.3167     |  22.0 |  0.91
Comm    | 118.94     | 130.57     | 141.84     |  53.8 | 22.44
Output  | 0.84719    | 0.84792    | 0.85261    |   0.1 |  0.15
Modify  | 127.02     | 130.89     | 135.2      |  20.8 | 22.49
Other   |            | 8.589      |            |       |  1.48

Nlocal:        15.7500 ave          20 max          10 min
Histogram: 1 1 3 3 9 11 12 12 5 7
Nghost:        2487.58 ave        2513 max        2461 min
Histogram: 3 7 3 7 11 7 9 9 7 1
Neighs:        5220.33 ave        6647 max        3304 min
Histogram: 1 3 3 4 12 11 13 7 7 3

Total # of neighbors = 334101
Ave neighs/atom = 331.44940
Ave special neighs/atom = 2.0000000
Neighbor list builds = 9976
Dangerous builds = 0

unfix		3
unfix		2
unfix		1

write_data	data.final.${pid}
write_data	data.final.0
System init for write_data ...
PPPM initialization ...
  extracting TIP4P info from pair style
  using 12-bit tables for long-range coulomb (../kspace.cpp:340)
  G vector (1/distance) = 0.37926313
  grid = 24 27 36
  stencil order = 5
  estimated absolute RMS force accuracy = 0.0024362751
  estimated relative force accuracy = 7.3367702e-06
  using double precision FFTW3
  3d grid and FFT values/proc = 4050 480
Last active /omp style is kspace_style pppm/tip4p/omp
WARNING: Not all mixed pair coeffs generated from mixing. Use write_data with 'pair ij' option to store all pair coeffs. (../write_data.cpp:312)

write_restart   restart.lmp.${pid}
write_restart   restart.lmp.0
System init for write_restart ...
PPPM initialization ...
  extracting TIP4P info from pair style
  using 12-bit tables for long-range coulomb (../kspace.cpp:340)
  G vector (1/distance) = 0.37926313
  grid = 24 27 36
  stencil order = 5
  estimated absolute RMS force accuracy = 0.0024362751
  estimated relative force accuracy = 7.3367702e-06
  using double precision FFTW3
  3d grid and FFT values/proc = 4050 480
Last active /omp style is kspace_style pppm/tip4p/omp
Total wall time: 0:09:46
