LAMMPS data file via write_data, version 30 Jul 2021, timestep = 13250000

1296 atoms
2 atom types
864 bonds
1 bond types
432 angles
1 angle types

-10.485703956003134 12.465703956003134 xlo xhi
-9.070520109349617 12.060518109349617 ylo yhi
0.28511875214141824 21.574880247865757 zlo zhi
-9.109391060737781 1.7414805955421868 2.6910812432132203 xy xz yz

Masses

1 1.008
2 15.999

Pair Coeffs # lj/cut/tip4p/long/omp

1 0 0
2 0.21084 3.1668

Bond Coeffs # harmonic/omp

1 450 0.9572

Angle Coeffs # harmonic/omp

1 55 104.52

Atoms # full

282 94 1 0.5897 -10.314000049423571 -4.166876526488899 1.7272616452956235 1 1 0
280 94 2 -1.1794 -9.427993465842965 -4.528107528994711 1.69937731554065 1 1 0
299 100 1 0.5897 -6.488242387961221 -7.851518510038782 4.19909095486968 1 1 0
163 55 2 -1.1794 -7.119875569744067 -7.864321884382916 1.123948853665873 1 1 0
164 55 1 0.5897 -6.2785526477595655 -8.171358846642192 1.4617383932468402 1 1 0
270 90 1 0.5897 -8.362342157590557 -7.3550036503892695 2.2837249938000097 1 1 0
269 90 1 0.5897 -9.15893473080591 -6.086246320352835 2.502712180736484 1 1 0
268 90 2 -1.1794 -9.055866795200913 -6.9808793932459245 2.827237933311387 1 1 0
324 108 1 0.5897 -7.00586405316736 -4.279596553463337 3.6987095647562227 1 1 0
73 25 2 -1.1794 -8.313486585181115 -3.753428503518614 4.835754376166728 1 0 0
298 100 2 -1.1794 -5.877840662584344 -7.114824804829736 4.2288357161345465 1 1 0
314 105 1 0.5897 -8.718366466961426 -6.738749379529111 4.550349318186478 1 1 0
323 108 1 0.5897 -6.269760421166051 -5.580841025652398 3.459600787602626 1 1 0
259 87 2 -1.1794 -6.656954738922881 -5.2513480629624905 0.44039141441516394 1 1 0
261 87 1 0.5897 -6.607427219920425 -4.948124050860038 1.3469417688277288 1 1 0
315 105 1 0.5897 -8.550171604344017 -5.479566460461815 5.373879433105137 1 1 0
313 105 2 -1.1794 -8.674807881631413 -6.425289733640424 5.4537201379987135 1 1 0
260 87 1 0.5897 -6.851643401111813 -6.1859649570624295 0.5102176104459255 1 1 0
275 92 1 0.5897 -10.479630809302677 -7.882910840072471 3.4460347429458267 1 1 0
300 100 1 0.5897 -5.011299508565268 -7.519466630070989 4.188099131314367 1 1 0
54 18 1 0.5897 -11.365359043657852 -0.24188435390846585 2.13877233662958 1 0 0
281 94 1 0.5897 -8.856039612362594 -3.7606089202566553 1.6951087449129811 1 1 0
75 25 1 0.5897 -9.117069399174026 -3.3609796477228215 4.494500834182239 1 0 0
59 20 1 0.5897 -13.44672992348298 -0.7716875896609494 3.4316699929189105 1 0 0
322 108 2 -1.1794 -6.356773740500761 -4.687941393639168 3.1257405683923647 1 1 0
53 18 1 0.5897 -12.186987125692443 1.0027254644675878 2.3997896770442027 1 0 0
52 18 2 -1.1794 -12.025951795852185 0.11887745086045065 2.7302265509994736 1 0 0
82 28 2 -1.1794 -8.84484651385052 -0.034815559403416074 4.184771196759794 1 0 0
107 36 1 0.5897 -9.21265822767756 1.5454242209893945 3.4660414664424413 1 0 0
301 101 2 -1.1794 -7.824619070162772 -2.2463285843623915 1.688325875890068 1 1 0
98 33 1 0.5897 -11.681266090913969 0.36452473593772616 4.488561870564755 1 0 0
256 86 2 -1.1794 -11.845593749170524 -3.2862294661071143 1.9531012698433288 1 1 0
67 23 2 -1.1794 -10.536548593507353 -2.2985370427861316 4.1604592901947814 1 0 0
97 33 2 -1.1794 -11.69194295501376 0.6618235425491008 5.398366305451699 1 0 0
83 28 1 0.5897 -9.454616205678938 -0.7722525462736414 4.161107263540654 1 0 0
68 23 1 0.5897 -11.234562839490598 -2.4638159307955405 4.794282366967706 1 0 0
99 33 1 0.5897 -11.631604976098515 1.6153780123999706 5.340018336771898 1 0 0
271 91 2 -1.1794 -10.080501810276969 -0.862542138873545 0.9833627916151163 1 1 0
272 91 1 0.5897 -9.255148514727436 -1.244056007881471 1.2824541016340527 1 1 0
69 23 1 0.5897 -10.928851621248477 -2.5048478099553657 3.312118464204411 1 0 0
44 15 1 0.5897 -9.756660524761347 0.8606708023714269 0.4642913753941247 1 0 0
258 86 1 0.5897 -12.282151198659758 -2.7249934314606783 1.3122775370085504 1 1 0
84 28 1 0.5897 -7.978459619970046 -0.4380469891753087 4.129406567735948 1 0 0
165 55 1 0.5897 -7.36779776517932 -8.51667786924708 0.4688198929512042 1 1 0
74 25 1 0.5897 -8.031239811581209 -3.157307981765416 5.529431524800405 1 0 0
420 140 1 0.5897 -9.052630797043918 -6.535816780239132 9.837525417279414 1 0 0
414 138 1 0.5897 -6.75252286503139 -4.8921837734303475 7.593448091137868 1 0 0
413 138 1 0.5897 -7.603570228381015 -3.648898041612524 7.7424506905880826 1 0 0
412 138 2 -1.1794 -7.455392366634653 -4.514849688660629 8.122545876172168 1 0 0
350 117 1 0.5897 -7.080651595459903 -4.160816464750841 9.823796890595615 0 0 0
429 143 1 0.5897 -6.286180851446621 -7.103898296141532 8.776666359393312 1 0 0
428 143 1 0.5897 -6.543260350435922 -7.078842033367175 10.268383969196721 1 0 0
427 143 2 -1.1794 -5.866888801798435 -6.904877915756353 9.613761960671303 1 0 0
627 209 1 0.5897 -10.210801585442299 -6.7429251610401355 6.345744566402528 1 1 0
618 206 1 0.5897 -7.695324312880764 -7.241850195916527 6.745381671790562 1 1 0
419 140 1 0.5897 -8.787620257135456 -5.472768365759151 8.792708476174973 1 0 0
418 140 2 -1.1794 -9.493552089503464 -5.976031614601572 9.198424657470873 1 0 0
616 206 2 -1.1794 -7.268723282174195 -7.809370203218372 7.3873746382260705 1 1 0
349 117 2 -1.1794 -7.060121405306564 -3.8430812241197536 10.72649435754382 0 0 0
351 117 1 0.5897 -6.949735126708173 -2.8957244123768167 10.645048273326022 0 0 0
425 142 1 0.5897 -7.260584211292191 -1.3393801636627813 6.981830868409529 1 0 0
401 134 1 0.5897 -11.00922426840061 -1.3349669581428634 7.644581558037992 1 0 0
537 179 1 0.5897 -9.430831138363619 -0.08891443828425238 8.60752568539733 1 0 0
536 179 1 0.5897 -9.699995793417726 -0.01386678824548504 10.095432310863558 1 0 0
535 179 2 -1.1794 -9.02992392056646 0.17028004721468726 9.437128977744711 1 0 0
528 176 1 0.5897 -12.12371282960616 0.6634398608423062 9.85947854311987 1 0 0
424 142 2 -1.1794 -7.879453883307601 -2.069537109118869 6.989905667945958 1 0 0
417 139 1 0.5897 -8.745438047496176 1.0566939961835047 5.657574784212834 1 0 0
435 145 1 0.5897 -7.58043388878467 -0.8375379774343461 9.769561989564355 0 0 0
411 137 1 0.5897 -13.240075409112777 0.38646537507647594 6.281963701932336 1 0 0
400 134 2 -1.1794 -10.3031099507863 -0.8303347169891975 7.240888602500686 1 0 0
402 134 1 0.5897 -10.741713407361653 -0.28115415763554985 6.591082635335322 1 0 0
527 176 1 0.5897 -11.834697765539326 1.6441208223165944 8.742935391072749 1 0 0
522 174 1 0.5897 -9.83938346980814 2.202317015185052 7.5166142933525295 1 0 0
426 142 1 0.5897 -8.740792772904664 -1.653571053192585 7.026706209826586 1 0 0
526 176 2 -1.1794 -12.55029200664226 1.1752560106154526 9.172252267396232 1 0 0
410 137 1 0.5897 -13.490515154098535 0.44070273778061164 7.774034898958704 1 0 0
633 211 1 0.5897 -5.73684478292472 -6.018014249693612 5.6961325821648865 1 1 0
626 209 1 0.5897 -10.420371549114865 -6.693195760325421 7.8442556816770095 1 1 0
415 139 2 -1.1794 -8.536350120743343 1.6428062107918535 6.384886654253596 1 0 0
652 218 2 -1.1794 -5.74151686935359 -5.417222095731434 12.588000749909087 0 0 0
788 263 1 0.5897 -5.01506426644505 -4.628859095073134 15.443835796885999 0 0 0
780 260 1 0.5897 -7.401051631323661 -4.049058221151904 15.203478128095611 0 0 0
779 260 1 0.5897 -7.128469249533125 -3.0363255427003137 14.111686981587523 0 0 0
778 260 2 -1.1794 -7.8393650402496435 -3.5039835932148558 14.550033959308866 0 0 0
768 256 1 0.5897 -9.451025992366752 -2.7541521232286357 14.801848250073265 0 0 0
654 218 1 0.5897 -6.2193769281567235 -4.874105570307779 11.961188433957181 0 0 0
653 218 1 0.5897 -6.422071146634026 -5.910637335480758 13.04583429485296 0 0 0
766 256 2 -1.1794 -10.305539195212566 -2.3253917594375224 14.849439896402671 0 0 0
740 247 1 0.5897 -10.710885260171281 -3.3364772476265294 12.0796223294181 1 0 0
729 243 1 0.5897 -8.090426840561932 -7.1384570304208435 12.006743993342592 1 0 0
684 228 1 0.5897 -8.504540035542162 -6.529032400479787 14.303871593973842 0 0 0
682 228 2 -1.1794 -7.805556112685251 -6.864746802628661 13.742566100088043 0 0 0
663 221 1 0.5897 -8.582268000021665 -4.23594872505196 11.684747972705283 0 0 0
662 221 1 0.5897 -8.75957484291083 -4.183442130524464 13.187320724344087 0 0 0
661 221 2 -1.1794 -9.225231405148453 -4.389909167388529 12.376968951885376 0 0 0
727 243 2 -1.1794 -8.091053009493093 -7.4484993321398 11.101141535007788 1 0 0
767 256 1 0.5897 -10.934593120546706 -3.0463741212894773 14.875304204356583 0 0 0
757 253 2 -1.1794 -9.748183206917274 -5.9659038249488265 15.513482768052029 0 0 0
769 257 2 -1.1794 -12.372799494320258 2.660535106289233 12.375332243530657 0 0 0
790 264 2 -1.1794 -10.78539111473565 0.122953198191313 13.722451346005386 0 0 0
761 254 1 0.5897 -9.526199097190624 1.2381631760385403 13.050965043829779 0 0 0
888 296 1 0.5897 -10.533854831076422 3.0165250942160498 15.176057635789931 0 0 0
762 254 1 0.5897 -9.283442234440592 2.2699564056577497 11.97003484259677 0 0 0
792 264 1 0.5897 -11.455389337457957 0.5164958829820847 14.28153960563647 0 0 0
760 254 2 -1.1794 -8.83515542333929 1.763026257983885 12.64699077454266 0 0 0
837 279 1 0.5897 -11.097048599371178 -0.09266746858874164 11.979023852331276 1 0 0
835 279 2 -1.1794 -11.168933829745592 -0.36846174165835777 11.065245042098029 1 0 0
896 299 1 0.5897 -8.099378198210477 2.4995220286781485 15.47777979537753 0 0 0
771 257 1 0.5897 -11.72838996541825 2.7761157879447964 11.677010134443075 0 0 0
791 264 1 0.5897 -10.672222388445146 -0.7618186918695802 14.069837542893104 0 0 0
770 257 1 0.5897 -11.905167402071932 2.899771988817614 13.175470576325582 0 0 0
836 279 1 0.5897 -11.346909385928758 -1.3078711806860692 11.111361471899276 1 0 0
789 263 1 0.5897 -4.815202369853889 -4.67227362714382 13.94380397593295 0 0 0
865 289 2 -1.1794 -12.75063086975612 1.0839989522946052 15.47219362160024 0 0 0
866 289 1 0.5897 -12.459730130613726 1.6829757780184522 16.159807253746884 0 0 0
1101 367 1 0.5897 -10.146539801507881 -1.2183555537189514 16.214067735858343 0 0 0
1089 363 1 0.5897 -6.4025374649786215 -4.743589410171502 17.32233190740073 0 0 0
1152 384 1 0.5897 -6.827306666920284 -4.0384724881171685 19.594752788502788 0 0 0
1225 409 2 -1.1794 -8.05722464492601 -3.46723826515459 20.790914320777905 0 0 0
1227 409 1 0.5897 -8.863732135174804 -3.0968555140259895 20.432347708932237 0 0 0
1109 370 1 0.5897 -8.68060973485376 -3.4970550622122962 17.648589652656046 0 0 0
1219 407 2 -1.1794 -10.345843893061215 -2.0751023152782224 20.118466446046284 0 0 0
1108 370 2 -1.1794 -9.264565142916702 -4.255349131326589 17.662226736006364 0 0 0
1129 377 2 -1.1794 -7.6630277031489165 -1.9673725516387135 17.67788340307567 0 0 0
1151 384 1 0.5897 -5.94752451751174 -5.259414266898552 19.428822783641568 0 0 0
1150 384 2 -1.1794 -6.112339313299265 -4.389894872234862 19.064024434631946 0 0 0
1248 416 1 0.5897 -5.85639291388898 -1.5994881014090563 20.54710430322653 0 0 0
1097 366 1 0.5897 -8.932481165030698 -5.779882046899368 18.50150064598469 0 0 0
1130 377 1 0.5897 -7.228720488967464 -1.7769553515406002 18.50930338643947 0 0 0
1143 381 1 0.5897 -8.376343373477088 -5.205938116786141 21.366492693989404 0 0 0
1229 410 1 0.5897 -7.863072767901249 3.5791677529717063 18.41528401232881 0 0 0
1088 363 1 0.5897 -6.589220563903076 -5.9899663245838966 16.483453900034974 0 0 0
1087 363 2 -1.1794 -6.433866416006159 -5.047884048106512 16.41532659862522 0 0 0
1110 370 1 0.5897 -10.143118957284052 -3.880483239862544 17.724711734078426 0 0 0
1141 381 2 -1.1794 -8.59497684834454 -6.13410200775014 21.45012390774001 0 0 0
1121 374 1 0.5897 -4.832156888406631 -3.442306474359137 18.28409730381942 0 0 0
1131 377 1 0.5897 -7.002776961366653 -1.7739661493907155 17.012350686178834 0 0 0
1217 406 1 0.5897 -11.733466001600407 3.527375956912735 17.65556566427758 0 0 0
1142 381 1 0.5897 -8.614018999102058 -6.458271705382568 20.549684403002974 0 0 0
1251 417 1 0.5897 -11.431690935496535 1.8359905781844628 21.36378495964716 0 0 0
1218 406 1 0.5897 -13.19844353018528 3.149294651678874 17.7069035794708 0 0 0
1195 399 2 -1.1794 -9.58074741740528 2.059952240370057 16.39393187672288 0 0 0
1249 417 2 -1.1794 -11.56916631004014 0.8901675847701984 21.416880949697763 0 0 0
1204 402 2 -1.1794 -11.783125215043139 0.31856385226345907 18.73824723082612 0 0 0
1196 399 1 0.5897 -9.662450892008755 1.1065829109506815 16.42076326780352 0 0 0
1246 416 2 -1.1794 -6.287519109962568 -1.0402416930926073 19.900889628092653 0 0 0
1250 417 1 0.5897 -11.563818851521342 0.5953580621256194 20.50622107862159 0 0 0
1009 337 2 -1.1794 -11.145285918389837 3.544893133054705 20.797837198942656 0 -1 0
1260 420 1 0.5897 -9.879802729042417 2.9643127840579364 19.62553432957101 0 0 0
1259 420 1 0.5897 -9.070918453967339 1.7098776617898288 19.3718397577833 0 0 0
1258 420 2 -1.1794 -9.180006757562502 2.6132743143747525 19.074711498568263 0 0 0
1100 367 1 0.5897 -9.130211611163675 -0.9560091368071983 17.304867983783694 0 0 0
1236 412 1 0.5897 -7.9049393807130715 -0.2506636679139458 20.120827412212215 0 0 0
1235 412 1 0.5897 -9.375883722669247 -0.6084859017011528 20.11648082538673 0 0 0
1234 412 2 -1.1794 -8.778902084617782 0.13936483845182757 20.139468411087382 0 0 0
1205 402 1 0.5897 -11.974757014027928 1.196875824345243 18.40937439107093 0 0 0
1197 399 1 0.5897 -9.579494771461983 2.326709654412955 17.313212864824806 0 0 0
1216 406 2 -1.1794 -12.32152442913662 2.772438687091455 17.63424464855352 0 0 0
1206 402 1 0.5897 -11.113105728292755 -0.019415966605397017 18.14394994875796 0 0 0
1099 367 2 -1.1794 -9.94030896900862 -0.6137879039487242 16.92694787693893 0 0 0
1226 409 1 0.5897 -7.82376201223267 -2.8815237357509593 21.51109147864847 0 0 0
1011 337 1 0.5897 -11.957657393054285 3.910485443225582 20.447690955291883 0 -1 0
1221 407 1 0.5897 -10.794129127755955 -2.306509325154865 19.30505941052857 0 0 0
1096 366 2 -1.1794 -8.843354856844334 -6.689824651142493 18.784995801328165 0 0 0
273 91 1 0.5897 -8.626285782129562 1.253090528714372 21.564220834367497 1 1 -1
758 253 1 0.5897 -9.513596802365766 -5.409775716627222 16.256387757109255 0 0 0
40 14 2 -1.1794 -14.940258497165889 3.7281269819662715 1.9503538809073704 1 0 0
177 59 1 0.5897 -14.038991161364631 4.485579452018353 3.3301929312127303 1 0 0
42 14 1 0.5897 -15.38621587609913 4.334133721966817 1.3586501230928274 1 0 0
85 29 2 -1.1794 -10.881900246331956 4.9097595725557355 1.7067765021904564 1 0 0
55 19 2 -1.1794 -13.174364058402748 6.257356097696954 1.0173456729147918 1 0 0
56 19 1 0.5897 -12.340473727106314 5.899202886562112 1.3215926936661895 1 0 0
66 22 1 0.5897 -13.344172545123099 2.992086881210131 1.6515893572127034 1 0 0
65 22 1 0.5897 -11.871713652513833 3.338047153993072 1.5889254843308303 1 0 0
64 22 2 -1.1794 -12.473986988334975 2.5946674720042253 1.6181200536183264 1 0 0
191 64 1 0.5897 -12.603032466193765 6.262167012017182 4.208425661640968 1 0 0
190 64 2 -1.1794 -11.982072979467661 6.989856123325117 4.175682246491977 1 0 0
183 61 1 0.5897 -12.155882615019278 3.6870243703938375 4.488626270728583 1 0 0
181 61 2 -1.1794 -11.339387910306346 3.3211259096649073 4.828719371366482 1 0 0
176 59 1 0.5897 -14.268130319911489 4.623286832773706 4.820319375676572 1 0 0
175 59 2 -1.1794 -13.606329818282154 4.753028041645109 4.1410070200279865 1 0 0
108 36 1 0.5897 -10.087209639230535 2.762934385316216 3.6783531324324996 1 0 0
162 54 1 0.5897 -14.386314405839704 6.826881258112138 2.2020050837974594 1 0 0
45 15 1 0.5897 -9.634087388861015 2.0848426143800793 1.3465736480140018 1 0 0
167 56 1 0.5897 -16.421986922028683 6.283905591258309 3.4472018425280373 1 0 0
43 15 2 -1.1794 -9.627254234050355 1.8085053423154296 0.430150022243297 1 0 0
206 69 1 0.5897 -14.867760826739982 7.446719128649429 4.5375603651555805 1 0 0
192 64 1 0.5897 -11.123261573590511 6.570250522255476 4.124041562565596 1 0 0
214 72 2 -1.1794 -12.447914596936698 9.487506691706828 3.117863654150913 1 0 0
291 97 1 0.5897 -15.145803436152669 10.805035741824112 4.503647680286947 1 0 0
207 69 1 0.5897 -14.662999269023812 8.6846029944163 5.384750239334594 1 0 0
152 51 1 0.5897 -12.875191615184454 7.936765949184435 0.5011872597025071 1 0 0
205 69 2 -1.1794 -14.822324138771478 7.742757375694302 5.4466960481374205 1 0 0
284 95 1 0.5897 -17.256721498323326 11.668376367925779 4.8355017146821915 1 0 0
153 51 1 0.5897 -12.693577297483918 9.167553177009504 1.3638577219658086 1 0 0
151 51 2 -1.1794 -12.729866578661373 8.881577695427678 0.45109609092630254 1 0 0
216 72 1 0.5897 -13.134932309016996 9.829507063701977 3.6900440185674044 1 0 0
215 72 1 0.5897 -12.268445932730756 8.610189709724862 3.456116748657888 1 0 0
174 58 1 0.5897 -16.339455666346467 10.07931307558672 1.7075926018863319 1 0 0
173 58 1 0.5897 -14.857282956267749 10.383992174316107 1.6618686033036614 1 0 0
172 58 2 -1.1794 -15.480533211582474 9.657730466457748 1.6791109523454408 1 0 0
161 54 1 0.5897 -15.19390291091241 8.07999779724206 2.4661247209227297 1 0 0
193 65 2 -1.1794 -13.881672634576693 11.926497837239227 1.7153870667529734 1 0 0
283 95 2 -1.1794 -16.59152442852372 11.760330453606185 4.153346891438471 1 0 0
285 95 1 0.5897 -17.037955322435167 11.503501096286564 3.3465766082512656 1 0 0
148 50 2 -1.1794 -17.99253562387077 10.762141763028476 1.9604212893148285 1 0 0
150 50 1 0.5897 -18.43650311274864 11.332981432887776 1.3333161824559008 1 0 0
289 97 2 -1.1794 -14.350215515879828 10.424181748473396 4.875396516669201 1 0 0
160 54 2 -1.1794 -15.053447282944877 7.188597692818332 2.7854808812009724 1 0 0
106 36 2 -1.1794 -9.388063982909088 2.420938620110192 3.1210560318559586 1 0 0
57 19 1 0.5897 -13.444349638408571 5.670048540292125 0.31137828173497045 1 0 0
182 61 1 0.5897 -11.064686774728537 3.9375788739990423 5.507498350904002 1 0 0
290 97 1 0.5897 -14.091964034247301 11.034774969959974 5.5658307105925955 1 0 0
532 178 2 -1.1794 -10.921597115982696 5.069170870205978 6.956729506112814 1 0 0
521 174 1 0.5897 -10.623796638768038 3.4831273077615794 7.7075874866693725 1 0 0
534 178 1 0.5897 -11.798445902565913 5.452586822096432 6.976884987346751 1 0 0
645 215 1 0.5897 -12.471808906967041 6.901886036952215 8.640576750821745 1 0 0
644 215 1 0.5897 -12.651498681942982 6.999239765086328 10.140629931230327 1 0 0
643 215 2 -1.1794 -12.008958033672918 7.137198888947859 9.444650156635824 1 0 0
510 170 1 0.5897 -13.844122782696584 6.817159110101562 6.6880158106845835 1 0 0
508 170 2 -1.1794 -13.402095372176404 6.222320414456398 7.293830757584996 1 0 0
543 181 1 0.5897 -10.533103079835842 6.164622537182039 9.775166750070339 0 0 0
509 170 1 0.5897 -14.112789678195831 5.753795209155564 7.731576960766848 1 0 0
636 212 1 0.5897 -15.153333118877203 7.615105534744908 9.870504038916513 1 0 0
459 153 1 0.5897 -10.101102503662016 4.106188577184666 10.722522630544914 0 0 0
457 153 2 -1.1794 -10.263107537441062 3.163197045500606 10.751102078828465 0 0 0
327 109 1 0.5897 -13.559385547519526 13.17594112544876 9.875967940801639 0 -1 0
533 178 1 0.5897 -10.330181049479695 5.820526225691141 7.00018082267059 1 0 0
519 173 1 0.5897 -16.327451587465955 7.4407811270040884 6.397375109871412 1 0 0
458 153 1 0.5897 -10.322737034696484 2.9019630581576568 9.832175633455314 0 0 0
635 212 1 0.5897 -14.917660615705376 8.656882346277635 8.797610409811153 1 0 0
634 212 2 -1.1794 -15.614136713404857 8.192303081229559 9.261629538251281 1 0 0
566 189 1 0.5897 -13.266849735522728 9.842216613303927 9.794621104757335 0 0 0
565 189 2 -1.1794 -13.159331609220981 10.11945785106703 10.70445223639616 0 0 0
642 214 1 0.5897 -14.815450679389127 12.530856180782157 7.05765893435343 1 0 0
640 214 2 -1.1794 -13.953501039994688 12.130907478104758 6.941961749678196 1 0 0
617 206 1 0.5897 -17.099631677152754 12.871947920631309 7.8271325764275685 1 0 0
567 189 1 0.5897 -13.01837621550407 11.064817100008183 10.65223524439614 0 0 0
630 210 1 0.5897 -12.873888389890904 9.2492490296027 7.523789682346754 1 0 0
628 210 2 -1.1794 -13.587917136859604 9.594721819476566 8.059661531662073 1 0 0
629 210 1 0.5897 -13.702597262365252 10.495006738094252 7.755283357765946 1 0 0
518 173 1 0.5897 -16.557662614783172 7.60947401224197 7.884148358192514 1 0 0
641 214 1 0.5897 -13.342820360991478 12.867759404844199 6.959587975474343 1 0 0
520 174 2 -1.1794 -10.542914185144337 2.5885133750204723 8.038387578885729 1 0 0
525 175 1 0.5897 -11.813528936153949 8.049046719272303 5.641776592673338 1 0 0
874 292 2 -1.1794 -13.381277630356204 4.789120507989782 14.846052403479677 0 0 0
887 296 1 0.5897 -10.28018121920483 4.08079401479422 14.129671410613026 0 0 0
876 292 1 0.5897 -12.514529792746195 4.385641413431971 14.798707530015747 0 0 0
945 315 1 0.5897 -14.06905678047884 6.972028142365096 12.039015455986318 1 0 0
848 283 1 0.5897 -13.841906330971444 3.6549316716933102 12.015864317263473 1 0 0
900 300 1 0.5897 -14.50430903892488 7.585476744233043 14.296591037927648 0 0 0
899 300 1 0.5897 -13.670884844163389 6.3393686256203114 14.084751104079013 0 0 0
898 300 2 -1.1794 -13.806149674721901 7.2256673378387095 13.749360820576744 0 0 0
886 296 2 -1.1794 -10.982302516789794 3.581793096857142 14.547098952035771 0 0 0
944 315 1 0.5897 -14.299838179684507 5.750816378851882 11.174503148816067 1 0 0
869 290 1 0.5897 -12.457670567836244 8.207701367963944 13.083931516286789 0 0 0
943 315 2 -1.1794 -14.119539608387617 6.689652196671885 11.125810035090545 1 0 0
875 292 1 0.5897 -13.990959938129585 4.051736489640234 14.81875759685015 0 0 0
879 293 1 0.5897 -14.703419808804764 9.751895115796083 11.670697531961688 0 0 0
878 293 1 0.5897 -14.843767712068964 9.914591407304789 13.16928170048784 0 0 0
680 227 1 0.5897 -11.070605573895788 9.441913053432737 15.480744344935784 0 -1 0
728 243 1 0.5897 -17.363306469684638 12.741753373489457 11.169646070635222 1 -1 0
672 224 1 0.5897 -13.50400479067536 9.981749246540074 15.238594639588124 0 -1 0
683 228 1 0.5897 -16.751699712487024 13.380376001430017 14.066316749329147 0 -1 0
658 220 2 -1.1794 -16.366655938477372 11.79962321647409 14.820913831029898 0 -1 0
870 290 1 0.5897 -12.225541477998584 9.172510821413377 11.94060785622221 0 0 0
671 224 1 0.5897 -13.150115554113468 11.044825209286286 14.22047147777608 0 -1 0
659 220 1 0.5897 -16.978548197791582 11.063933933135628 14.797628662095043 0 -1 0
868 290 2 -1.1794 -11.762894874832064 8.644812093105267 12.591535291806364 0 0 0
660 220 1 0.5897 -15.500802212583501 11.392518079723912 14.791846941028467 0 -1 0
670 224 2 -1.1794 -13.894995729463496 10.58063575133266 14.602440006351328 0 -1 0
956 319 1 0.5897 -16.81419969442431 10.6866273901919 12.029309578807228 1 0 0
877 293 2 -1.1794 -15.339617576481706 9.686703325543759 12.382941097405437 0 0 0
649 217 2 -1.1794 -15.734260676719728 8.158038446077311 15.462034042761672 0 -1 0
681 227 1 0.5897 -10.848647569206651 9.372494209153293 13.984800049567387 0 -1 0
650 217 1 0.5897 -15.520763216813585 8.72914474652291 16.199923504269186 0 -1 0
1018 340 2 -1.1794 -11.770605941901572 7.185704613256741 20.2189281184354 0 -1 0
1019 340 1 0.5897 -12.369594847179759 6.439544605309008 20.19339388883452 0 -1 0
1020 340 1 0.5897 -10.89810469535123 6.794588617094194 20.1736219064674 0 -1 0
1030 344 2 -1.1794 -9.343688163437388 5.978425853283072 19.922846933147998 0 -1 0
1043 348 1 0.5897 -12.08124977199532 8.768821911895484 19.431905856587246 0 -1 0
1032 344 1 0.5897 -8.906868009253625 5.467767021273572 20.60448007388299 0 -1 0
1239 413 1 0.5897 -10.047920176848072 5.187582622493776 17.058865302078644 0 0 0
1237 413 2 -1.1794 -10.700308393147086 5.014219052181581 17.737545528846038 0 0 0
1003 335 2 -1.1794 -13.393822923788054 4.975234246129633 20.098507028388838 0 -1 0
1208 403 1 0.5897 -12.107958625238213 6.038742041207767 17.355873929899573 0 0 0
1207 403 2 -1.1794 -12.945574856902173 6.399699052591409 17.065487827439703 0 0 0
1238 413 1 0.5897 -10.265919724357266 5.2561074485338 18.555432417924727 0 0 0
990 330 1 0.5897 -14.194175152721872 6.9800400406904775 18.251796503470032 0 -1 0
989 330 1 0.5897 -15.024094781877093 8.240179212108346 18.37639529373824 0 -1 0
1034 345 1 0.5897 -14.675525580530042 7.738053075336159 20.54800567960444 0 -1 0
1035 345 1 0.5897 -14.462421240011633 8.948571781613856 21.43188036532922 0 -1 0
1033 345 2 -1.1794 -14.628502043714235 8.006459856435681 21.465597421342224 0 -1 0
980 327 1 0.5897 -12.665273347887291 8.087280914553139 16.48611689344675 0 -1 0
1128 376 1 0.5897 -13.998132303920936 13.889746760666918 20.15063351143684 0 -1 0
1022 341 1 0.5897 -13.367737639660223 12.3095464629732 18.525356002610394 0 -1 0
1013 338 1 0.5897 -10.842539250117252 10.533085883837225 18.383209746481167 0 -1 0
1209 403 1 0.5897 -13.204653518345893 5.8434997806875515 16.330823475401015 0 0 0
1126 376 2 -1.1794 -14.875925338870015 14.257362009034592 20.25371784283946 0 -1 0
979 327 2 -1.1794 -12.527333766918005 9.03159807599855 16.411707406820028 0 -1 0
1117 373 2 -1.1794 -14.11310385588632 10.664701052269221 20.821040705655907 0 -1 0
1044 348 1 0.5897 -12.898350218525353 10.024548384240498 19.65044741141244 0 -1 0
1002 334 1 0.5897 -16.26505119454503 10.215922893570609 17.67459461565414 0 -1 0
1127 376 1 0.5897 -15.457741543286396 13.497491217536785 20.236799736834918 0 -1 0
1119 373 1 0.5897 -14.93784227007668 11.006796394026503 20.47610657881367 0 -1 0
1042 348 2 -1.1794 -12.214456861646305 9.653913147984499 19.092528343724396 0 -1 0
1021 341 2 -1.1794 -13.745309821599959 12.064263984128354 17.680708447698176 0 -1 0
1098 366 1 0.5897 -17.295116567187108 14.069834541498457 18.19681822392885 0 -1 0
992 331 1 0.5897 -15.215365762741854 13.079075042774582 17.319203403415106 0 -1 0
1001 334 1 0.5897 -14.801299816143242 10.601148118035878 17.646865868727183 0 -1 0
1000 334 2 -1.1794 -15.385350480639392 9.8435455062386 17.613385805511687 0 -1 0
991 331 2 -1.1794 -16.043923949693045 13.441302956075647 17.005369467646602 0 -1 0
1111 371 2 -1.1794 -16.45066689738926 11.946240255789613 20.146438174070482 0 -1 0
1023 341 1 0.5897 -13.05219495226781 12.246091521255133 17.046043310960744 0 -1 0
981 327 1 0.5897 -12.534200864067092 9.347108957930514 17.3153951939658 0 -1 0
1140 380 1 0.5897 -11.939882391153136 12.529284118971495 20.543152586842908 0 -1 0
1138 380 2 -1.1794 -12.409499699585833 13.063425798558322 19.902554138219493 0 -1 0
1010 337 1 0.5897 -10.860079962773975 4.179903042722456 21.45482736034675 0 -1 0
988 330 2 -1.1794 -14.897921932822172 7.375204432772639 18.766519828667217 0 -1 0
1005 335 1 0.5897 -13.819388858216538 4.798600211826489 19.259557679903665 0 -1 0
1118 373 1 0.5897 -13.882373471400843 11.264837349158716 21.530141568133615 0 -1 0
993 331 1 0.5897 -16.3142034119733 12.848968614574785 16.303727318980236 0 -1 0
305 102 1 0.5897 -1.4567084028208708 -6.027532282649173 2.469376796874882 1 1 0
293 98 1 0.5897 -4.99179246654567 -3.80996009418934 2.4158252620511482 1 1 0
3 1 1 0.5897 -1.4655587744533296 -3.2946460132668385 4.494614546021385 0 0 0
304 102 2 -1.1794 -1.3304993100533107 -6.927004888209636 2.771588326605156 1 1 0
318 106 1 0.5897 -2.6191465044110327 -4.071210745978136 1.8033991801605962 1 1 0
310 104 2 -1.1794 -3.4184135790471846 -8.300492540836789 3.9195034152082497 1 1 0
242 81 1 0.5897 -1.1026170380158753 -6.616349219878217 4.516615584120671 0 1 0
311 104 1 0.5897 -2.695784432711352 -7.842540412935882 3.490187161609647 1 1 0
316 106 2 -1.1794 -1.7468173076911544 -4.458719176357402 1.7314887268163943 1 1 0
243 81 1 0.5897 -0.9762118660572057 -5.342987615581974 5.325704758899537 0 1 0
241 81 2 -1.1794 -1.0768250325987268 -6.290600849309577 5.416316716896173 0 1 0
306 102 1 0.5897 -0.6250884366517369 -7.268239589522041 2.221770761424688 1 1 0
302 101 1 0.5897 -7.381211238447938 -2.085128023808103 2.521117066760725 1 1 0
89 30 1 0.5897 -4.562730654408021 0.9720590356453283 2.3754199360963084 1 0 0
292 98 2 -1.1794 -4.259556295508964 -3.3897843683856994 1.964705454837388 1 1 0
105 35 1 0.5897 -3.3564662524955082 -2.626648846983035 3.3203651292889242 1 0 0
26 9 1 0.5897 -4.16715522391491 0.3377337282897379 4.524272315585388 0 0 0
95 32 1 0.5897 -5.732621458268041 -0.8684810575097153 3.485365675247143 1 0 0
88 30 2 -1.1794 -4.4336065021674935 0.08780014867178032 2.7185231144803477 1 0 0
96 32 1 0.5897 -6.014731881055599 -1.847620251933206 4.605023049872739 1 0 0
90 30 1 0.5897 -3.7562729146522287 -0.2907003191827826 2.1578923008608006 1 0 0
94 32 2 -1.1794 -6.4463349750249455 -1.3310838775404186 3.924496860745842 1 0 0
104 35 1 0.5897 -3.598643875537557 -2.480077704989271 4.807583046257956 1 0 0
303 101 1 0.5897 -7.149256557687352 -2.103451589154596 1.0251917837757076 1 1 0
25 9 2 -1.1794 -4.172655538158867 0.6726948594964774 5.420943083822507 0 0 0
294 98 1 0.5897 -4.6727170355680485 -2.807405475581027 1.3272425347525525 1 1 0
27 9 1 0.5897 -4.013185339852328 1.6118937738007268 5.327299720070148 0 0 0
103 35 2 -1.1794 -2.9268929113009445 -2.3664805164427793 4.135180052736819 1 0 0
307 103 2 -1.1794 -2.42678026567922 -0.9450213330461601 1.0053184800213795 1 1 0
317 106 1 0.5897 -1.1535890314807187 -3.7085678257378047 1.6920671030620968 1 1 0
309 103 1 0.5897 -2.6664590227443057 -1.534041101413668 0.28989595945957763 1 1 0
201 67 1 0.5897 0.37143127795316744 -8.491127116896813 0.32927166271006053 1 1 0
544 182 2 -1.1794 0.3138990099957475 -7.8193657917490125 7.3445631845173525 0 1 0
335 112 1 0.5897 -4.816876252179069 -5.424159201293786 9.651103242584291 0 0 0
546 182 1 0.5897 -0.11863659009690863 -7.253479512754426 6.70510736294764 0 1 0
553 185 2 -1.1794 -3.2028626954578723 -6.805280350409468 7.102681356230302 0 1 0
348 116 1 0.5897 -1.3971629896446132 -6.455315677855799 9.920630013569058 0 0 0
347 116 1 0.5897 -1.0914932263335864 -5.5003987006288195 8.786332873679878 0 0 0
404 135 1 0.5897 -5.101951294315601 -3.7030793610745834 5.892285013320981 1 0 0
336 112 1 0.5897 -3.3499963694570187 -5.065770763185539 9.543473757995969 0 0 0
334 112 2 -1.1794 -4.223624958033976 -4.6763077382180125 9.580566781201686 0 0 0
346 116 2 -1.1794 -1.818120344104189 -5.904336700187573 9.260755709767144 0 0 0
632 211 1 0.5897 -4.625479617075271 -5.799797883703398 6.7005410989439795 1 1 0
356 119 1 0.5897 1.134271915591773 -7.034573627437732 10.18382322654314 0 0 0