LAMMPS data file via MDAnalysis

        3840  atoms
        2560  bonds
        1280  angles
           0  dihedrals
           0  impropers

           2  atom types
           1  bond types
           1  angle types
           0  dihedral types
           0  improper types

0.000000 52.789078 xlo xhi
0.000000 24.955999 ylo yhi
0.000000 22.997000 zlo zhi


Masses

1 1.008000
2 15.999000

Atoms

1 0 2 -1.179400 5.660915 22.345251 5.485100
2 0 1 0.589700 5.590858 23.285252 5.648176
3 0 1 0.589700 6.178065 22.012465 6.217811
4 0 2 -1.179400 2.154505 10.620876 13.340461
5 0 1 0.589700 2.076732 10.350119 14.254345
6 0 1 0.589700 2.319133 11.562307 13.382288
7 0 2 -1.179400 20.342388 13.735675 4.810412
8 0 1 0.589700 20.160734 13.788499 5.747831
9 0 1 0.589700 20.285221 12.802630 4.607313
10 0 2 -1.179400 0.794406 1.748380 2.838063
11 0 1 0.589700 -0.044712 1.567075 2.415190
12 0 1 0.589700 1.446896 1.585938 2.157505
13 0 2 -1.179400 -0.617437 2.500526 5.089321
14 0 1 0.589700 -0.083548 2.280598 4.326671
15 0 1 0.589700 -1.324372 3.042469 4.739814
16 0 2 -1.179400 50.959103 1.372957 2.007231
17 0 1 0.589700 50.575558 0.573577 1.647954
18 0 1 0.589700 50.363136 2.069203 1.732383
19 0 2 -1.179400 7.596868 12.018878 9.266946
20 0 1 0.589700 7.636259 11.998664 10.222206
21 0 1 0.589700 8.488070 11.812123 8.985877
22 0 2 -1.179400 -0.469972 4.136271 1.321154
23 0 1 0.589700 -0.917825 3.428426 0.859003
24 0 1 0.589700 -0.637574 4.913629 0.789575
25 0 2 -1.179400 1.420091 22.243698 22.005922
26 0 1 0.589700 1.380498 21.823616 21.147686
27 0 1 0.589700 2.026213 21.701790 22.510223
28 0 2 -1.179400 -0.504784 24.871437 5.393068
29 0 1 0.589700 -0.620323 0.664021 5.515068
30 0 1 0.589700 -1.136438 24.638523 4.713346
31 0 2 -1.179400 20.861223 2.567931 10.874249
32 0 1 0.589700 21.675962 2.472198 11.366954
33 0 1 0.589700 21.127419 2.967649 10.047153
34 0 2 -1.179400 6.627828 9.003756 17.068689
35 0 1 0.589700 7.213501 9.227160 17.791344
36 0 1 0.589700 5.933052 8.485230 17.473637
37 0 2 -1.179400 4.656413 3.563368 13.078038
38 0 1 0.589700 4.006052 4.224460 13.313749
39 0 1 0.589700 5.254001 3.537145 13.824594
40 0 2 -1.179400 14.858161 0.701611 10.613958
41 0 1 0.589700 15.451818 1.435290 10.456493
42 0 1 0.589700 15.095773 0.054454 9.950933
43 0 2 -1.179400 9.708245 24.116253 21.457464
44 0 1 0.589700 10.460000 24.548800 21.053196
45 0 1 0.589700 9.763423 24.354666 22.381933
46 0 2 -1.179400 16.260799 3.043803 10.349884
47 0 1 0.589700 16.712934 3.712692 10.863041
48 0 1 0.589700 15.706403 3.538028 9.746889
49 0 2 -1.179400 6.638612 21.014877 12.253862
50 0 1 0.589700 7.020474 20.992083 11.377272
51 0 1 0.589700 6.630075 20.100718 12.535460
52 0 2 -1.179400 21.408625 20.556713 13.213916
53 0 1 0.589700 20.997351 20.198921 12.427963
54 0 1 0.589700 22.154165 21.059896 12.887323
55 0 2 -1.179400 2.252083 18.682920 16.767923
56 0 1 0.589700 1.371353 18.830561 16.423752
57 0 1 0.589700 2.759821 19.432472 16.458530
58 0 2 -1.179400 11.127789 15.274558 3.890812
59 0 1 0.589700 10.988672 14.984593 2.990179
60 0 1 0.589700 11.816863 14.700264 4.223915
61 0 2 -1.179400 20.258768 22.882328 10.927314
62 0 1 0.589700 20.447250 22.234137 10.249701
63 0 1 0.589700 19.469761 22.555511 11.359021
64 0 2 -1.179400 9.480866 20.539995 13.715590
65 0 1 0.589700 9.293409 20.539576 14.653357
66 0 1 0.589700 8.739902 20.078979 13.323051
67 0 2 -1.179400 11.352970 10.092971 22.916389
68 0 1 0.589700 12.234372 10.180408 0.012324
69 0 1 0.589700 10.921653 9.455391 0.217758
70 0 2 -1.179400 0.647012 19.851364 1.656021
71 0 1 0.589700 0.930567 19.058598 2.110096
72 0 1 0.589700 1.275588 19.956383 0.942518
73 0 2 -1.179400 21.286358 2.847013 18.457758
74 0 1 0.589700 21.013290 2.011516 18.835224
75 0 1 0.589700 22.085947 2.641789 17.973778
76 0 2 -1.179400 17.414761 16.839912 2.311200
77 0 1 0.589700 17.675259 17.417572 3.027642
78 0 1 0.589700 17.705124 15.970827 2.586046
79 0 2 -1.179400 21.290995 0.511675 6.812280
80 0 1 0.589700 21.232731 1.299973 6.273664
81 0 1 0.589700 20.411888 0.134542 6.781295
82 0 2 -1.179400 17.569098 3.711237 3.562015
83 0 1 0.589700 17.803085 4.430741 4.147252
84 0 1 0.589700 17.823538 2.921814 4.038568
85 0 2 -1.179400 12.038623 9.993326 12.266536
86 0 1 0.589700 11.503497 10.780957 12.359882
87 0 1 0.589700 12.330169 10.007885 11.355806
88 0 2 -1.179400 12.550319 18.597704 17.504253
89 0 1 0.589700 13.288657 18.157318 17.084084
90 0 1 0.589700 12.858994 18.791357 18.388504
91 0 2 -1.179400 23.705061 2.678167 0.234581
92 0 1 0.589700 23.888422 3.617008 0.245012
93 0 1 0.589700 24.447495 2.283870 0.691675
94 0 2 -1.179400 13.331395 6.821235 11.081457
95 0 1 0.589700 13.028085 7.019592 10.196394
96 0 1 0.589700 12.567108 6.974762 11.636326
97 0 2 -1.179400 25.042719 4.559841 3.388329
98 0 1 0.589700 25.736376 4.360519 2.760226
99 0 1 0.589700 25.392769 5.280790 3.910598
100 0 2 -1.179400 6.113071 4.673565 5.617269
101 0 1 0.589700 5.604631 4.624114 6.425975
102 0 1 0.589700 5.629282 5.289356 5.067791
103 0 2 -1.179400 14.345393 0.810774 21.779467
104 0 1 0.589700 13.910233 1.662813 21.779789
105 0 1 0.589700 14.186221 0.459966 22.654802
106 0 2 -1.179400 13.728245 4.890539 15.903717
107 0 1 0.589700 13.509710 4.245653 16.575447
108 0 1 0.589700 14.612749 4.655291 15.623925
109 0 2 -1.179400 21.265629 2.858877 1.574718
110 0 1 0.589700 22.122534 2.693034 1.182194
111 0 1 0.589700 21.112278 2.104918 2.143003
112 0 2 -1.179400 15.491619 -0.009358 7.844087
113 0 1 0.589700 14.583891 0.258667 7.701762
114 0 1 0.589700 15.559643 24.286768 7.416662
115 0 2 -1.179400 24.017632 5.466475 0.513007
116 0 1 0.589700 23.097775 5.655180 0.698302
117 0 1 0.589700 24.498066 5.894006 1.221128
118 0 2 -1.179400 20.753939 11.197693 13.092522
119 0 1 0.589700 20.142860 11.819901 13.486076
120 0 1 0.589700 21.168560 10.764124 13.837531
121 0 2 -1.179400 30.114540 1.175642 4.205057
122 0 1 0.589700 29.440514 1.142497 3.526887
123 0 1 0.589700 30.941380 1.164332 3.723432
124 0 2 -1.179400 28.350382 1.143633 2.255394
125 0 1 0.589700 27.393290 1.131089 2.256983
126 0 1 0.589700 28.600704 0.307433 1.864000
127 0 2 -1.179400 31.539164 4.287278 3.299925
128 0 1 0.589700 31.978342 4.360639 2.453413
129 0 1 0.589700 31.752047 3.405854 3.604680
130 0 2 -1.179400 28.692034 4.343464 3.646054
131 0 1 0.589700 29.618694 4.552064 3.528181
132 0 1 0.589700 28.337862 4.313004 2.758164
133 0 2 -1.179400 26.575333 2.544559 4.874978
134 0 1 0.589700 27.261854 2.910726 4.318146
135 0 1 0.589700 25.799278 3.067771 4.675529
136 0 2 -1.179400 25.637442 1.132324 2.009160
137 0 1 0.589700 25.020456 1.286462 2.723845
138 0 1 0.589700 25.251875 0.412176 1.511322
139 0 2 -1.179400 30.111626 2.677911 0.553578
140 0 1 0.589700 30.145796 3.633688 0.532676
141 0 1 0.589700 29.316000 2.477044 1.045836
142 0 2 -1.179400 27.055338 4.178461 1.208863
143 0 1 0.589700 26.915176 4.916794 0.617160
144 0 1 0.589700 27.091494 3.414218 0.634832
145 0 2 -1.179400 30.164005 5.598324 0.402771
146 0 1 0.589700 30.893526 5.982624 0.888247
147 0 1 0.589700 30.266947 5.931724 22.778942
148 0 2 -1.179400 26.678005 24.985613 4.975433
149 0 1 0.589700 25.891970 24.650717 4.544507
150 0 1 0.589700 26.608738 0.787181 4.895247
151 0 2 -1.179400 36.359657 0.737898 4.078010
152 0 1 0.589700 35.659096 0.863974 3.438699
153 0 1 0.589700 37.159142 0.695693 3.553873
154 0 2 -1.179400 34.517715 1.109938 2.032282
155 0 1 0.589700 33.581848 0.917237 2.088421
156 0 1 0.589700 34.558216 2.040178 1.812976
157 0 2 -1.179400 37.655483 4.376395 3.572752
158 0 1 0.589700 38.068977 4.228455 2.723077
159 0 1 0.589700 38.139050 3.812574 4.175583
160 0 2 -1.179400 34.981514 4.082993 3.618875
161 0 1 0.589700 35.937042 4.119558 3.576417
162 0 1 0.589700 34.745029 4.740188 4.272368
163 0 2 -1.179400 32.894260 2.552791 4.794916
164 0 1 0.589700 33.599045 2.955348 4.288215
165 0 1 0.589700 33.008114 1.612729 4.659139
166 0 2 -1.179400 31.729069 0.977449 1.790386
167 0 1 0.589700 31.357662 1.777397 1.419818
168 0 1 0.589700 31.194380 0.273255 1.424905
169 0 2 -1.179400 36.750404 2.994528 0.597616
170 0 1 0.589700 36.585453 2.678377 22.976818
171 0 1 0.589700 36.603439 3.938455 0.547194
172 0 2 -1.179400 33.470192 4.233685 1.376490
173 0 1 0.589700 34.158802 4.434937 2.009501
174 0 1 0.589700 33.553406 4.912823 0.708165
175 0 2 -1.179400 36.281528 5.632875 0.386038
176 0 1 0.589700 37.007111 5.867559 0.963924
177 0 1 0.589700 36.365116 6.228834 22.909256
178 0 2 -1.179400 33.307709 25.021141 4.741212
179 0 1 0.589700 32.496895 24.602852 4.452349
180 0 1 0.589700 33.494282 24.621861 5.589989
181 0 2 -1.179400 42.752338 1.317359 4.039786
182 0 1 0.589700 42.783092 0.506676 4.546525
183 0 1 0.589700 42.070587 1.165547 3.385927
184 0 2 -1.179400 40.947258 1.231722 1.926423
185 0 1 0.589700 41.403221 1.861099 1.368638
186 0 1 0.589700 41.274467 0.378733 1.642647
187 0 2 -1.179400 44.243958 4.219478 3.409903
188 0 1 0.589700 44.646355 4.985763 3.817424
189 0 1 0.589700 44.587814 3.476434 3.904605
190 0 2 -1.179400 41.335918 4.391333 3.322439
191 0 1 0.589700 42.284595 4.286213 3.393987
192 0 1 0.589700 40.975159 3.625799 3.768466
193 0 2 -1.179400 39.828518 2.575788 4.654443
194 0 1 0.589700 39.628746 1.645791 4.756173
195 0 1 0.589700 39.679821 2.949383 5.522160
196 0 2 -1.179400 38.207512 1.206668 2.161729
197 0 1 0.589700 37.812435 1.869552 1.596420
198 0 1 0.589700 39.143391 1.250645 1.965999
199 0 2 -1.179400 42.707676 2.790380 0.394857
200 0 1 0.589700 42.884853 3.722103 0.519918
201 0 1 0.589700 43.467678 2.348946 0.773304
202 0 2 -1.179400 39.458412 4.470138 1.431237
203 0 1 0.589700 40.152763 4.518382 2.087686
204 0 1 0.589700 39.527832 5.292858 0.948257
205 0 2 -1.179400 42.752060 5.624866 0.601966
206 0 1 0.589700 42.025181 5.849516 1.182203
207 0 1 0.589700 43.521534 6.011238 1.019480
208 0 2 -1.179400 39.412975 24.839855 4.865933
209 0 1 0.589700 40.151749 24.360710 4.491387
210 0 1 0.589700 39.324123 24.489326 5.751266
211 0 2 -1.179400 48.858799 1.066972 4.135184
212 0 1 0.589700 49.597904 1.238251 3.552172
213 0 1 0.589700 49.222126 0.513816 4.825798
214 0 2 -1.179400 47.263023 0.955535 1.767551
215 0 1 0.589700 47.614204 1.010937 2.655421
216 0 1 0.589700 46.321995 1.095797 1.872087
217 0 2 -1.179400 50.748856 4.286454 3.561074
218 0 1 0.589700 49.864502 4.369739 3.204816
219 0 1 0.589700 -1.471291 4.274301 2.792145
220 0 2 -1.179400 47.667152 3.965512 3.689865
221 0 1 0.589700 47.375961 4.688742 4.244071
222 0 1 0.589700 47.129967 4.036711 2.901587
223 0 2 -1.179400 45.802429 2.369989 5.058372
224 0 1 0.589700 45.794815 1.413592 5.077341
225 0 1 0.589700 46.609295 2.594276 4.595344
226 0 2 -1.179400 44.436966 0.954295 1.938512
227 0 1 0.589700 43.917015 0.353958 1.405142
228 0 1 0.589700 43.908001 1.096921 2.722648
229 0 2 -1.179400 48.964256 2.848461 0.688278
230 0 1 0.589700 48.960281 2.479314 23.072651
231 0 1 0.589700 48.274807 2.372360 1.150347
232 0 2 -1.179400 46.171078 4.369049 1.541881
233 0 1 0.589700 45.451305 4.404068 2.171283
234 0 1 0.589700 45.956684 3.629809 0.973987
235 0 2 -1.179400 49.250107 5.539083 0.690795
236 0 1 0.589700 49.009590 4.615203 0.629360
237 0 1 0.589700 49.111893 5.882051 23.075405
238 0 2 -1.179400 45.884201 24.733770 4.902633
239 0 1 0.589700 45.904884 24.340649 5.774191
240 0 1 0.589700 45.166145 24.286863 4.455138
241 0 2 -1.179400 17.938450 4.982386 11.204562
242 0 1 0.589700 17.521563 5.775912 11.538867
243 0 1 0.589700 18.037481 5.140623 10.266656
244 0 2 -1.179400 12.949292 2.553594 3.229744
245 0 1 0.589700 13.841816 2.668889 2.904046
246 0 1 0.589700 12.846887 3.233870 3.894242
247 0 2 -1.179400 1.709731 5.969906 21.964367
248 0 1 0.589700 0.762311 5.911603 22.087452
249 0 1 0.589700 2.042568 6.280121 22.805639
250 0 2 -1.179400 12.949442 24.518076 4.561698
251 0 1 0.589700 12.163658 24.567146 4.017854
252 0 1 0.589700 13.576279 -0.050065 4.131661
253 0 2 -1.179400 3.099281 7.312859 16.523081
254 0 1 0.589700 2.551309 8.094817 16.461987
255 0 1 0.589700 3.681663 7.484877 17.262251
256 0 2 -1.179400 50.901855 7.260247 2.212782
257 0 1 0.589700 50.436188 6.519512 1.825834
258 0 1 0.589700 50.482681 7.388836 3.062828
259 0 2 -1.179400 2.561905 1.458488 0.692162
260 0 1 0.589700 3.456479 1.798361 0.675637
261 0 1 0.589700 2.566853 0.739718 0.061145
262 0 2 -1.179400 1.384426 18.022331 3.665015
263 0 1 0.589700 2.077205 18.681425 3.701423
264 0 1 0.589700 0.729541 18.327095 4.292381
265 0 2 -1.179400 6.285728 0.455796 2.446959
266 0 1 0.589700 5.429097 0.289704 2.839977
267 0 1 0.589700 6.847907 24.913168 2.794492
268 0 2 -1.179400 -0.759170 6.049052 5.525207
269 0 1 0.589700 -0.858616 6.995080 5.423929
270 0 1 0.589700 -1.299189 5.675310 4.829638
271 0 2 -1.179400 4.909126 15.229867 18.343019
272 0 1 0.589700 4.135798 15.606524 17.923750
273 0 1 0.589700 5.530367 15.955567 18.397635
274 0 2 -1.179400 3.257674 16.982019 7.673093
275 0 1 0.589700 3.952054 17.459509 7.219910
276 0 1 0.589700 2.735138 16.594444 6.971783
277 0 2 -1.179400 12.552656 24.324194 18.015137
278 0 1 0.589700 11.750301 23.936750 17.665997
279 0 1 0.589700 13.163808 24.315857 17.279202
280 0 2 -1.179400 2.263993 24.673166 5.893438
281 0 1 0.589700 1.341640 24.475206 5.731685
282 0 1 0.589700 2.678737 23.817274 5.997082
283 0 2 -1.179400 1.416795 12.333829 22.151249
284 0 1 0.589700 1.751770 13.102131 22.612335
285 0 1 0.589700 0.471070 12.359878 22.296406
286 0 2 -1.179400 3.928726 19.056196 3.706729
287 0 1 0.589700 4.209806 18.353327 3.121972
288 0 1 0.589700 4.327091 19.845659 3.341682
289 0 2 -1.179400 11.473886 10.015124 17.276310
290 0 1 0.589700 10.861137 10.215196 16.569407
291 0 1 0.589700 11.568595 9.063578 17.249584
292 0 2 -1.179400 7.618383 16.782082 21.879530
293 0 1 0.589700 6.674938 16.920013 21.795641
294 0 1 0.589700 7.739789 15.847667 21.714476
295 0 2 -1.179400 21.704765 7.871897 13.520808
296 0 1 0.589700 20.866144 8.183348 13.860763
297 0 1 0.589700 21.477125 7.121880 12.972520
298 0 2 -1.179400 2.612071 3.486386 6.509800
299 0 1 0.589700 3.286435 3.526906 7.187234
300 0 1 0.589700 1.906330 2.973810 6.903226
301 0 2 -1.179400 8.429284 18.850155 3.749585
302 0 1 0.589700 8.424071 18.755096 4.701122
303 0 1 0.589700 9.270332 18.484028 3.476679
304 0 2 -1.179400 -1.474209 14.917306 10.867455
305 0 1 0.589700 -1.509846 13.972006 10.725190
306 0 1 0.589700 51.071648 15.296248 10.023694
307 0 2 -1.179400 7.514835 15.541587 14.622367
308 0 1 0.589700 6.589929 15.512177 14.866817
309 0 1 0.589700 7.875764 14.717828 14.948471
310 0 2 -1.179400 21.536467 12.377922 1.683906
311 0 1 0.589700 21.637278 13.296820 1.929977
312 0 1 0.589700 22.331367 12.172894 1.192197
313 0 2 -1.179400 2.454272 8.020153 0.697657
314 0 1 0.589700 1.962278 7.690518 1.448848
315 0 1 0.589700 3.364071 8.036425 0.994340
316 0 2 -1.179400 1.996897 9.739103 7.492107
317 0 1 0.589700 2.152583 10.258129 8.280195
318 0 1 0.589700 1.810426 8.858974 7.817192
319 0 2 -1.179400 22.155474 12.419974 7.796893
320 0 1 0.589700 22.782993 12.212840 7.105115
321 0 1 0.589700 22.042599 11.597586 8.272194
322 0 2 -1.179400 18.712557 1.287842 4.074978
323 0 1 0.589700 18.337845 1.096879 3.215972
324 0 1 0.589700 19.630753 1.028316 3.999757
325 0 2 -1.179400 15.333675 20.222910 1.256356
326 0 1 0.589700 14.609394 19.692314 0.925398
327 0 1 0.589700 15.346045 20.051298 2.197045
328 0 2 -1.179400 9.361855 17.850094 19.913479
329 0 1 0.589700 10.209855 17.603378 20.282103
330 0 1 0.589700 8.740431 17.715300 20.628231
331 0 2 -1.179400 19.152601 14.946170 -0.046373
332 0 1 0.589700 19.490259 15.497566 22.515327
333 0 1 0.589700 18.256128 15.252520 0.089736
334 0 2 -1.179400 23.051247 5.795889 6.768062
335 0 1 0.589700 23.316227 5.854409 5.851015
336 0 1 0.589700 23.688314 6.334816 7.236183
337 0 2 -1.179400 24.949900 10.496537 3.404341
338 0 1 0.589700 25.320791 11.245660 3.869507
339 0 1 0.589700 25.171274 9.742195 3.949250
340 0 2 -1.179400 1.170656 21.902050 8.974041
341 0 1 0.589700 0.783126 21.410372 9.697227
342 0 1 0.589700 1.949444 21.400864 8.733043
343 0 2 -1.179400 16.027697 22.919828 10.239298
344 0 1 0.589700 15.808152 22.940630 9.308741
345 0 1 0.589700 16.722088 23.570982 10.336710
346 0 2 -1.179400 9.398191 9.585373 5.460275
347 0 1 0.589700 10.096996 10.004275 4.958575
348 0 1 0.589700 9.019027 8.946832 4.857341
349 0 2 -1.179400 20.646051 7.176871 7.314553
350 0 1 0.589700 21.422073 6.674360 7.067474
351 0 1 0.589700 20.559383 7.837425 6.628294
352 0 2 -1.179400 15.810380 13.405562 4.652143
353 0 1 0.589700 16.287565 12.580530 4.735748
354 0 1 0.589700 15.767756 13.749420 5.543495
355 0 2 -1.179400 18.653381 1.990639 9.496616
356 0 1 0.589700 19.356981 2.415735 9.986277
357 0 1 0.589700 17.849623 2.366352 9.855213
358 0 2 -1.179400 15.971843 10.968402 7.504864
359 0 1 0.589700 15.874929 10.630957 8.394422
360 0 1 0.589700 15.758958 11.898303 7.576478
361 0 2 -1.179400 30.146755 7.314785 4.176913
362 0 1 0.589700 29.923035 7.987973 4.818516
363 0 1 0.589700 29.473160 7.393943 3.502129
364 0 2 -1.179400 28.587896 7.387052 1.838754
365 0 1 0.589700 28.923532 6.745241 1.213932
366 0 1 0.589700 27.651783 7.442318 1.647055
367 0 2 -1.179400 31.498199 10.366982 3.323686
368 0 1 0.589700 32.033012 9.672375 3.706887
369 0 1 0.589700 31.791777 10.421485 2.415125
370 0 2 -1.179400 28.610096 10.497540 3.442272
371 0 1 0.589700 29.562126 10.406403 3.481040
372 0 1 0.589700 28.431446 10.767982 2.542531
373 0 2 -1.179400 26.796206 8.933783 5.037414
374 0 1 0.589700 26.846025 7.990338 4.887310
375 0 1 0.589700 27.513533 9.297351 4.518964
376 0 2 -1.179400 25.447725 7.559267 1.823504
377 0 1 0.589700 25.105736 7.552877 2.716644
378 0 1 0.589700 24.867275 8.153797 1.349200
379 0 2 -1.179400 30.125978 9.117545 0.485816
380 0 1 0.589700 29.425314 8.628301 0.916242
381 0 1 0.589700 30.924965 8.834665 0.930030
382 0 2 -1.179400 26.954212 10.556308 1.206293
383 0 1 0.589700 26.163322 10.483229 1.739959
384 0 1 0.589700 26.883839 9.841441 0.574743
385 0 2 -1.179400 29.997738 11.967394 0.255025
386 0 1 0.589700 29.279270 12.364714 0.746443
387 0 1 0.589700 29.876453 11.025764 0.372271
388 0 2 -1.179400 26.978096 6.164677 4.741668
389 0 1 0.589700 27.679651 5.597168 4.423272
390 0 1 0.589700 26.849642 5.899555 5.651485
391 0 2 -1.179400 36.215889 7.702790 4.065505
392 0 1 0.589700 36.222458 6.881162 4.555232
393 0 1 0.589700 36.059837 8.375506 4.727275
394 0 2 -1.179400 34.736759 7.669318 1.725295
395 0 1 0.589700 35.220486 7.566877 2.544096
396 0 1 0.589700 34.941120 6.879415 1.226016
397 0 2 -1.179400 37.582153 10.439538 3.512057
398 0 1 0.589700 37.961720 11.233253 3.887732
399 0 1 0.589700 36.647861 10.632910 3.435696
400 0 2 -1.179400 34.774933 10.430669 3.238471
401 0 1 0.589700 34.413750 9.713325 3.758126
402 0 1 0.589700 34.551708 11.219758 3.730924
403 0 2 -1.179400 33.222801 8.675950 4.754178
404 0 1 0.589700 32.952465 9.041742 5.595499
405 0 1 0.589700 33.123764 7.730454 4.860696
406 0 2 -1.179400 31.719952 7.299940 1.847309
407 0 1 0.589700 32.655304 7.501684 1.870851
408 0 1 0.589700 31.429018 7.404283 2.752359
409 0 2 -1.179400 36.690708 9.237141 0.589382
410 0 1 0.589700 36.014809 8.886552 1.168745
411 0 1 0.589700 36.557762 10.184225 0.611543
412 0 2 -1.179400 33.246536 10.607026 1.014895
413 0 1 0.589700 33.837524 10.576842 1.766527
414 0 1 0.589700 33.456730 9.820116 0.513315
415 0 2 -1.179400 36.615360 12.007965 0.432974
416 0 1 0.589700 35.727932 12.351041 0.536895
417 0 1 0.589700 37.181667 12.697957 0.777376
418 0 2 -1.179400 33.045162 5.927458 4.964593
419 0 1 0.589700 32.962547 5.346482 5.719820
420 0 1 0.589700 32.565395 5.482687 4.266706
421 0 2 -1.179400 42.798252 7.384936 4.013569
422 0 1 0.589700 42.612011 8.045650 4.679615
423 0 1 0.589700 42.087952 7.477546 3.379283
424 0 2 -1.179400 41.127628 7.323138 1.991064
425 0 1 0.589700 40.179253 7.406349 2.090125
426 0 1 0.589700 41.344414 7.902626 1.261682
427 0 2 -1.179400 44.114071 10.596426 3.455655
428 0 1 0.589700 44.522804 11.323245 3.924511
429 0 1 0.589700 44.483902 10.641638 2.574795
430 0 2 -1.179400 41.188511 10.729636 3.390760
431 0 1 0.589700 40.847485 10.037041 3.955597
432 0 1 0.589700 42.128120 10.555207 3.337348
433 0 2 -1.179400 39.357422 8.864394 4.993446
434 0 1 0.589700 39.317112 7.921340 4.838130
435 0 1 0.589700 38.642654 9.224606 4.469157
436 0 2 -1.179400 38.277496 7.269125 2.105100
437 0 1 0.589700 37.759048 7.443578 2.889815
438 0 1 0.589700 38.050713 7.979145 1.505630
439 0 2 -1.179400 42.665222 9.320656 0.281085
440 0 1 0.589700 42.387028 9.043910 22.675486
441 0 1 0.589700 42.623596 10.275991 0.254294
442 0 2 -1.179400 39.370808 10.916808 1.335800
443 0 1 0.589700 38.518406 10.794119 1.753172
444 0 1 0.589700 39.998020 10.891971 2.057744
445 0 2 -1.179400 42.550659 12.014771 0.757938
446 0 1 0.589700 42.623051 12.597878 0.003305
447 0 1 0.589700 43.252552 12.294458 1.344938
448 0 2 -1.179400 39.362286 6.038504 4.754748
449 0 1 0.589700 40.115189 5.779356 4.224127
450 0 1 0.589700 38.601677 5.811589 4.220358
451 0 2 -1.179400 49.369446 7.280612 4.470644
452 0 1 0.589700 48.982166 7.971200 5.007481
453 0 1 0.589700 48.736439 7.141166 3.767012
454 0 2 -1.179400 47.419048 7.251418 2.489659
455 0 1 0.589700 46.471752 7.363383 2.568745
456 0 1 0.589700 47.523975 6.506821 1.898518
457 0 2 -1.179400 50.581081 10.523361 3.658515
458 0 1 0.589700 50.957039 9.777138 4.124281
459 0 1 0.589700 51.017719 10.519028 2.807536
460 0 2 -1.179400 47.607285 10.517891 3.294855
461 0 1 0.589700 47.350227 11.101046 4.008080
462 0 1 0.589700 48.560337 10.460908 3.362806
463 0 2 -1.179400 45.776627 8.852080 4.892423
464 0 1 0.589700 45.102661 9.330309 4.410186
465 0 1 0.589700 46.603527 9.183936 4.543230
466 0 2 -1.179400 44.654530 7.548501 1.804623
467 0 1 0.589700 44.266808 8.087814 1.116311
468 0 1 0.589700 44.002956 7.549864 2.505136
469 0 2 -1.179400 48.919346 9.016035 0.652481
470 0 1 0.589700 48.103920 8.753118 1.078771
471 0 1 0.589700 49.607300 8.602630 1.173340
472 0 2 -1.179400 45.651611 10.772363 1.073643
473 0 1 0.589700 45.611435 9.943542 0.597827
474 0 1 0.589700 46.286556 10.617126 1.772208
475 0 2 -1.179400 48.806061 11.689887 0.622307
476 0 1 0.589700 49.017200 10.756841 0.618719
477 0 1 0.589700 48.191185 11.794017 1.347756
478 0 2 -1.179400 45.801979 5.899828 4.793898
479 0 1 0.589700 45.407246 5.549767 5.591703
480 0 1 0.589700 45.547314 6.821922 4.785062
481 0 2 -1.179400 -0.639826 10.497306 18.850731
482 0 1 0.589700 0.311404 10.599809 18.821976
483 0 1 0.589700 -0.845854 9.955187 18.090193
484 0 2 -1.179400 6.497723 14.407316 7.940336
485 0 1 0.589700 6.880516 13.662304 8.402465
486 0 1 0.589700 6.536924 14.162147 7.016821
487 0 2 -1.179400 14.946247 20.654388 16.280176
488 0 1 0.589700 15.317959 20.260866 15.491623
489 0 1 0.589700 14.002681 20.668203 16.120090
490 0 2 -1.179400 3.922188 9.104193 5.681892
491 0 1 0.589700 4.499382 9.857008 5.556953
492 0 1 0.589700 3.345716 9.360334 6.401070
493 0 2 -1.179400 -0.825829 15.044574 4.805501
494 0 1 0.589700 -0.809987 15.638550 5.554945
495 0 1 0.589700 -0.952533 14.177454 5.189009
496 0 2 -1.179400 50.393166 13.788914 2.009652
497 0 1 0.589700 50.005402 14.623515 1.748268
498 0 1 0.589700 50.014740 13.149559 1.407116
499 0 2 -1.179400 0.564580 13.602466 2.228211
500 0 1 0.589700 -0.381753 13.707525 2.326025
501 0 1 0.589700 0.874991 13.391754 3.107948
502 0 2 -1.179400 2.176503 24.298546 18.443146
503 0 1 0.589700 3.011251 24.766489 18.430729
504 0 1 0.589700 1.535991 24.956627 18.711874
505 0 2 -1.179400 1.740657 12.401196 4.491256
506 0 1 0.589700 1.620839 11.533200 4.107512
507 0 1 0.589700 2.425166 12.280298 5.148668
508 0 2 -1.179400 -0.794560 12.230646 5.300653
509 0 1 0.589700 -1.289571 11.709476 4.669408
510 0 1 0.589700 0.101690 12.227502 4.964944
511 0 2 -1.179400 10.294704 13.354904 6.372139
512 0 1 0.589700 10.375409 12.742065 7.101981
513 0 1 0.589700 11.174352 13.716232 6.264097
514 0 2 -1.179400 18.842363 0.536244 13.325312
515 0 1 0.589700 19.398060 0.040163 12.725036
516 0 1 0.589700 17.952234 0.249715 13.121403
517 0 2 -1.179400 9.065014 2.490548 18.399717
518 0 1 0.589700 9.765735 2.866251 18.932001
519 0 1 0.589700 8.790689 1.710057 18.879950
520 0 2 -1.179400 21.925858 14.573719 14.059447
521 0 1 0.589700 21.857635 15.347109 14.618123
522 0 1 0.589700 22.407936 13.937970 14.587289
523 0 2 -1.179400 5.359755 18.238037 15.615380
524 0 1 0.589700 5.599673 18.469614 16.511726
525 0 1 0.589700 4.829383 18.973978 15.311283
526 0 2 -1.179400 16.377104 18.732285 18.449652
527 0 1 0.589700 16.008390 18.937286 17.591290
528 0 1 0.589700 15.614453 18.600613 19.012325
529 0 2 -1.179400 19.449205 9.002346 14.809379
530 0 1 0.589700 18.613258 9.467518 14.782259
531 0 1 0.589700 19.622290 8.874162 15.741128
532 0 2 -1.179400 9.789721 24.595549 5.312060
533 0 1 0.589700 9.379400 24.398436 4.470869
534 0 1 0.589700 10.303947 23.815186 5.516987
535 0 2 -1.179400 5.571605 24.659712 13.314669
536 0 1 0.589700 6.124760 24.593739 14.092304
537 0 1 0.589700 6.068553 24.214392 12.629241
538 0 2 -1.179400 11.166162 1.432060 16.829775
539 0 1 0.589700 11.573059 0.663704 17.228849
540 0 1 0.589700 10.397548 1.606171 17.372469
541 0 2 -1.179400 17.766747 8.311274 18.558865
542 0 1 0.589700 17.307358 8.339513 17.720392
543 0 1 0.589700 18.689787 8.216082 18.324327
544 0 2 -1.179400 13.871297 15.963107 22.938686
545 0 1 0.589700 14.738945 15.737411 22.603781
546 0 1 0.589700 13.988948 16.025248 0.619103
547 0 2 -1.179400 18.224661 24.752943 10.465487
548 0 1 0.589700 18.353191 0.469653 10.079774
549 0 1 0.589700 19.081848 24.332169 10.401089
550 0 2 -1.179400 16.244049 16.184484 8.886505
551 0 1 0.589700 16.914558 16.120144 9.565915
552 0 1 0.589700 15.797557 17.011141 9.067097
553 0 2 -1.179400 12.770337 7.288711 8.546277
554 0 1 0.589700 13.197475 7.863058 7.911669
555 0 1 0.589700 12.209599 6.721546 8.017899
556 0 2 -1.179400 6.872063 16.416964 4.205582
557 0 1 0.589700 7.103446 16.253258 3.292203
558 0 1 0.589700 7.670162 16.774158 4.594429
559 0 2 -1.179400 20.779266 8.591290 2.338611
560 0 1 0.589700 19.881496 8.919896 2.384210
561 0 1 0.589700 21.270788 9.151026 2.938818
562 0 2 -1.179400 14.712044 11.893304 21.317129
563 0 1 0.589700 14.936429 11.134686 20.779427
564 0 1 0.589700 15.546540 12.338328 21.463694
565 0 2 -1.179400 13.334169 13.171308 9.276247
566 0 1 0.589700 14.075873 13.482628 9.794441
567 0 1 0.589700 13.230187 12.255466 9.532181
568 0 2 -1.179400 2.871041 21.964872 5.918833
569 0 1 0.589700 2.446907 21.909069 5.063373
570 0 1 0.589700 3.807868 21.932896 5.725322
571 0 2 -1.179400 23.726366 15.851549 6.468690
572 0 1 0.589700 24.059160 16.733425 6.305096
573 0 1 0.589700 23.274197 15.917798 7.308938
574 0 2 -1.179400 22.180050 22.583454 20.265762
575 0 1 0.589700 23.111931 22.791958 20.330959
576 0 1 0.589700 21.861086 22.625137 21.166426
577 0 2 -1.179400 24.915110 17.003994 3.199403
578 0 1 0.589700 25.110023 16.365841 3.884678
579 0 1 0.589700 23.965221 17.115278 3.238061
580 0 2 -1.179400 13.553259 17.631845 11.056478
581 0 1 0.589700 12.954196 18.377398 11.084920
582 0 1 0.589700 13.021990 16.910547 10.720550
583 0 2 -1.179400 3.819963 12.363775 2.235108
584 0 1 0.589700 3.109549 11.738536 2.093411
585 0 1 0.589700 3.526665 12.896106 2.973645
586 0 2 -1.179400 8.927767 8.302082 10.625852
587 0 1 0.589700 8.013384 8.451929 10.386058
588 0 1 0.589700 9.419668 8.490499 9.827424
589 0 2 -1.179400 23.708199 15.866607 0.190116
590 0 1 0.589700 23.598070 15.326285 22.675266
591 0 1 0.589700 24.079454 15.272748 0.841640
592 0 2 -1.179400 21.177752 22.150520 23.003170
593 0 1 0.589700 20.919827 23.056799 -0.098175
594 0 1 0.589700 22.068846 22.087992 0.080103
595 0 2 -1.179400 8.691958 19.376930 23.049585
596 0 1 0.589700 8.905150 18.449356 22.953068
597 0 1 0.589700 7.913162 19.387615 0.338859
598 0 2 -1.179400 5.682257 25.042814 6.104948
599 0 1 0.589700 6.134576 0.656776 5.746745
600 0 1 0.589700 5.076494 0.255166 6.751175
601 0 2 -1.179400 30.029409 13.488765 3.875964
602 0 1 0.589700 29.989290 14.293978 4.390700
603 0 1 0.589700 29.978052 12.786905 4.523715
604 0 2 -1.179400 28.339586 13.570484 1.774437
605 0 1 0.589700 28.613937 14.319686 1.246764
606 0 1 0.589700 28.959969 13.550395 2.502391
607 0 2 -1.179400 31.490129 16.636372 3.320825
608 0 1 0.589700 31.972235 15.985299 3.829633
609 0 1 0.589700 31.923147 16.642105 2.468011
610 0 2 -1.179400 28.524466 16.495720 3.691700
611 0 1 0.589700 29.447800 16.666664 3.506452
612 0 1 0.589700 28.142124 17.362297 3.826341
613 0 2 -1.179400 26.514530 14.867792 4.640405
614 0 1 0.589700 26.657207 13.922351 4.670774
615 0 1 0.589700 27.343334 15.225171 4.322267
616 0 2 -1.179400 24.572340 14.043708 2.391887
617 0 1 0.589700 23.984648 14.016728 3.146217
618 0 1 0.589700 25.439695 14.193048 2.767769
619 0 2 -1.179400 29.842342 15.608316 0.451113
620 0 1 0.589700 29.998352 16.546635 0.349334
621 0 1 0.589700 30.692944 15.249999 0.704096
622 0 2 -1.179400 26.944887 16.660418 1.133546
623 0 1 0.589700 26.190306 16.984373 1.624739
624 0 1 0.589700 27.613045 16.497538 1.798649
625 0 2 -1.179400 30.093109 18.327728 0.467636
626 0 1 0.589700 30.893059 18.739058 0.794250
627 0 1 0.589700 29.408104 18.625431 1.065595
628 0 2 -1.179400 26.941582 12.248208 4.835196
629 0 1 0.589700 27.035730 11.806531 5.678221
630 0 1 0.589700 27.519173 11.764468 4.245579
631 0 2 -1.179400 36.450352 13.394059 3.876866
632 0 1 0.589700 36.280552 14.079705 4.521780
633 0 1 0.589700 35.779915 13.524223 3.206868
634 0 2 -1.179400 34.684402 13.716692 1.802579
635 0 1 0.589700 34.886044 14.433146 1.201791
636 0 1 0.589700 33.771648 13.861773 2.051322
637 0 2 -1.179400 37.676125 16.970119 3.323400
638 0 1 0.589700 37.989811 16.231419 3.843943
639 0 1 0.589700 38.209396 17.710276 3.611806
640 0 2 -1.179400 34.886688 17.077583 3.467265
641 0 1 0.589700 35.840424 17.111897 3.393887
642 0 1 0.589700 34.701836 16.192709 3.780172
643 0 2 -1.179400 33.354088 14.859107 4.545618
644 0 1 0.589700 33.443970 13.947936 4.822670
645 0 1 0.589700 33.499817 15.367697 5.342360
646 0 2 -1.179400 31.855047 13.584292 1.625810
647 0 1 0.589700 31.319729 12.898447 1.227830