LAMMPS data file via write_data, version 30 Jul 2021, timestep = 1750000

1920 atoms
2 atom types
1280 bonds
1 bond types
640 angles
1 angle types

-0.10448492910516549 24.834485929108197 xlo xhi
-0.15016637970818714 24.8801673797063 ylo yhi
-0.14590075207019915 22.95590075207184 zlo zhi

Masses

1 1.008
2 15.999

Pair Coeffs # lj/cut/tip4p/long/omp

1 0 0
2 0.21084 3.1668

Bond Coeffs # harmonic/omp

1 450 0.9572

Angle Coeffs # harmonic/omp

1 55 104.52

Atoms # full

1 1 2 -1.1794 4.157140877073023 1.587702605254745 4.3334078803155816 0 0 0
2 1 1 0.5897 4.3236058531425545 2.387021289319529 4.8329111076835405 0 0 0
3 1 1 0.5897 4.867974041743385 1.552240589327651 3.693410550366999 0 0 0
4 2 2 -1.1794 2.7239870971975826 1.176509467389686 1.723673423116203 0 0 0
5 2 1 0.5897 3.1384006512211324 1.060128601525532 2.5785815380073114 0 0 0
6 2 1 0.5897 1.84319495691138 1.4924699885667168 1.9249810282447384 0 0 0
9 3 1 0.5897 4.911575151104642 4.579257992495589 3.10497158186259 0 0 0
10 4 2 -1.1794 3.0393955531707157 4.774314299083115 3.157082804443708 0 0 0
11 4 1 0.5897 2.490619521934855 5.3938022652888105 3.6379292162555803 0 0 0
12 4 1 0.5897 2.6396205985982286 4.723263468179643 2.2889090876108122 0 0 0
13 5 2 -1.1794 1.389000186741971 2.804938558013593 4.687046516944571 0 0 0
14 5 1 0.5897 2.087423567030425 3.2363303440697626 4.194847619613731 0 0 0
15 5 1 0.5897 1.5823232967971772 1.8707563948622483 4.609232231487853 0 0 0
20 7 1 0.5897 3.6137432037000687 2.86797698645101 0.6332023883542354 0 0 0
22 8 2 -1.1794 1.415237625753083 4.448852498887038 1.063538811350986 0 0 0
24 8 1 0.5897 1.1425032593989877 5.117985181344283 0.43583524534169804 0 0 0
23 8 1 0.5897 0.5974386362448979 4.131351601283859 1.4463317949403227 0 0 0
19 7 2 -1.1794 4.432013319255632 3.214377691542192 0.2774331812445938 0 0 0
21 7 1 0.5897 5.098075721055367 2.9598715155632576 0.9159669886167592 0 0 0
27 9 1 0.5897 4.350672524520486 5.062889065070099 0.36545622382456944 0 0 0
28 10 2 -1.1794 1.6427629307829392 0.11798672077415667 4.783305879497119 0 0 0
867 289 1 0.5897 4.579425064583746 0.04198175779437341 5.542685203097084 0 1 0
25 9 2 -1.1794 4.31834196554537 6.011975293921844 0.4850610116564109 0 0 0
7 3 2 -1.1794 5.841737765297684 4.467499132510793 3.3010348773645317 0 0 0
150 50 1 0.5897 1.2235827799990135 5.778368937226988 5.443785654698559 0 0 0
8 3 1 0.5897 6.056942877298965 5.204960756366187 3.8719701466900522 0 0 0
98 33 1 0.5897 -0.021783290733797117 5.191678000372296 3.600280215780121 1 0 0
47 16 1 0.5897 5.667912348343507 0.6786876154503145 1.5260035324601136 0 0 0
99 33 1 0.5897 -0.0584424198323496 3.687643576924294 3.768017833681367 1 0 0
46 16 2 -1.1794 5.949833883268815 1.4110800291589913 2.073954467524068 0 0 0
16 6 2 -1.1794 -0.056173796475061266 1.377645002363727 1.6229803592444265 0 0 0
487 163 2 -1.1794 5.924526243090754 4.872336608221755 9.449467454180912 0 0 0
500 167 1 0.5897 3.896020009272023 2.9705808601709305 7.058923799705579 0 0 0
508 170 2 -1.1794 1.0168705732074135 0.11996611964770543 10.611245552875694 0 0 0
528 176 1 0.5897 5.940938206840077 2.191671950795127 7.3758203422780895 0 0 0
493 165 2 -1.1794 1.463204652341449 2.839215067493546 10.371857783393995 0 0 0
578 193 1 0.5897 0.12516011382441813 3.6688901415494914 9.525949357863677 1 0 0
1347 449 1 0.5897 4.3104645969792585 0.2399400458027986 11.376801541155334 0 1 0
496 166 2 -1.1794 -0.07149663800808029 1.546628758390473 7.588866826958605 0 0 0
489 163 1 0.5897 4.988825222256374 4.690612384163862 9.536455764445227 0 0 0
490 164 2 -1.1794 3.039607172429528 4.655924618809541 9.161203741518394 0 0 0
482 161 1 0.5897 4.903034925952576 1.4537977900623482 9.516821726917065 0 0 0
494 165 1 0.5897 1.4719776697076874 1.8955284501517151 10.531527108158167 0 0 0
527 176 1 0.5897 5.780970075474586 0.6966538083899737 7.551690477180244 0 0 0
485 162 1 0.5897 2.8587719964246032 1.2699560083105184 8.443358253123277 0 0 0
498 166 1 0.5897 0.8700064898754848 1.3858566252883486 7.5267683063731505 0 0 0
503 168 1 0.5897 0.4945018232585071 4.704015439531933 7.5030038656551294 0 0 0
501 167 1 0.5897 4.389171939783872 4.280461352463823 6.4821826793282415 0 0 0
504 168 1 0.5897 1.0929468727639693 3.8546030421448645 6.402079841852017 0 0 0
629 210 1 0.5897 1.9473498666949927 5.929622045179241 10.162748122671418 0 0 0
484 162 2 -1.1794 2.6495138184544915 1.3744778056803462 7.515221086831033 0 0 0
483 161 1 0.5897 4.209021379537406 2.1092337624049073 10.6917319439603 0 0 0
499 167 2 -1.1794 4.638524838672855 3.3639951418971217 6.6006191526974405 0 0 0
486 162 1 0.5897 3.174505192482373 0.7066586269329468 7.074167397469363 0 0 0
491 164 1 0.5897 2.7580830631444337 4.9742829772936155 8.303567762519949 0 0 0
492 164 1 0.5897 2.482906568439367 3.895753079304705 9.329587008276391 0 0 0
481 161 2 -1.1794 4.083190351619369 1.448507989802027 10.010745761582488 0 0 0
502 168 2 -1.1794 1.195469948837455 4.6935266116104035 6.851332373864185 0 0 0
579 193 1 0.5897 0.03270421454032618 5.1750113455785405 9.647063312263677 1 0 0
505 169 2 -1.1794 4.220100853028264 5.946454682305913 6.153453860064003 0 0 0
526 176 2 -1.1794 6.104990271313108 1.4805576221055803 7.995121084992686 0 0 0
495 165 1 0.5897 1.3607453347098426 3.2285727415452286 11.240216793692067 0 0 0
961 321 2 -1.1794 4.385805530581434 1.7562340952271167 15.53626553535007 0 0 0
962 321 1 0.5897 5.185208273698797 1.9607362292565456 15.051221720445408 0 0 0
963 321 1 0.5897 4.585409574269455 0.9400564571363421 15.994670286265292 0 0 0
964 322 2 -1.1794 2.663890641042503 1.5047015012774674 13.318421996826315 0 0 0
965 322 1 0.5897 2.935650094522057 1.458290356461247 14.23502473901533 0 0 0
966 322 1 0.5897 1.707535923292609 1.523865028076525 13.35235021695814 0 0 0
970 324 2 -1.1794 3.2304856483273685 4.652554131260256 15.286375142012343 0 0 0
971 324 1 0.5897 4.016870957831865 4.115051577566974 15.192481578746252 0 0 0
972 324 1 0.5897 2.8776483191798934 4.71865706317974 14.399084463169304 0 0 0
973 325 2 -1.1794 1.3477550888325853 2.819541052670501 16.30116261687094 0 0 0
980 327 1 0.5897 3.56703691203501 2.8905084740790876 12.498638042614031 0 0 0
982 328 2 -1.1794 1.5659429236109026 4.574559768838568 12.96431091718127 0 0 0
983 328 1 0.5897 1.490040951454166 5.17277641333823 12.220998441072219 0 0 0
984 328 1 0.5897 0.7446004223759376 4.682203858524552 13.443833669717602 0 0 0
990 330 1 0.5897 1.095177219701872 1.1034802261782302 16.33681605866775 0 0 0
979 327 2 -1.1794 4.255306616434205 3.348202987790566 12.01600636345714 0 0 0
974 325 1 0.5897 2.063256776639248 3.360925827117086 15.967855470066313 0 0 0
981 327 1 0.5897 5.068790910817513 3.071177204713311 12.43747664660119 0 0 0
987 329 1 0.5897 4.369718838470909 5.277679734696387 12.116339355601067 0 0 0
988 330 2 -1.1794 1.0730173270919956 0.14782278208685917 16.288411574949023 0 0 0
1008 336 1 0.5897 5.8147804653004425 0.9525399507719436 13.131333891013128 0 0 0
1346 449 1 0.5897 3.6288090679401868 0.19159365401894385 12.727617229591255 0 1 0
1109 370 1 0.5897 0.7250241246931728 5.820463238357944 16.37951666079416 0 0 0
976 326 2 -1.1794 -0.02471165529918906 1.5864429129344357 13.52457022668919 0 0 0
1110 370 1 0.5897 2.1892887889442454 5.819116097230702 15.995372152796422 0 0 0
967 323 2 -1.1794 6.112910349087648 4.225273489050797 14.734150794505807 0 0 0
1460 487 1 0.5897 4.46207584840616 2.6494086681292948 17.079602610640556 0 0 0
1058 353 1 0.5897 -0.07006115320400191 3.795186329842288 15.309743191032991 1 0 0
968 323 1 0.5897 6.042596290280115 5.024961713296649 15.255380024486001 0 0 0
1456 486 2 -1.1794 -0.0338661401499538 1.2042017624042525 19.250488087952604 0 0 0
1453 485 2 -1.1794 1.6512958361882157 2.829988753947347 22.056397120245308 0 0 0
1590 530 1 0.5897 2.2531103686710634 6.023234081783342 21.75745268008898 0 0 0
1469 490 1 0.5897 1.5559328214056785 0.922163747325706 22.13396962799189 0 0 0
989 330 1 0.5897 1.2124555087845779 -0.14142557889506385 17.190107971110287 0 0 0
1445 482 1 0.5897 1.7606939691885775 1.3703908491673926 19.364517827322757 0 0 0
1538 513 1 0.5897 0.3924359708344064 3.6499186053687085 20.863787566436706 1 0 0
1467 489 1 0.5897 5.098683866848731 5.9757479482422955 18.54789151191293 0 0 0
1451 484 1 0.5897 4.181364159824294 4.8728934587910535 20.672751657877022 0 0 0
1539 513 1 0.5897 0.14429982405226213 5.092936645660159 21.2481514020051 1 0 0
1441 481 2 -1.1794 4.853914232489865 1.1964851638445864 21.37808397296193 0 0 0
1459 487 2 -1.1794 4.345913380427357 3.0262069934502227 17.95176910923425 0 0 0
1454 485 1 0.5897 2.35674385509902 3.3144061444389266 21.627661128286938 0 0 0
975 325 1 0.5897 1.2911405780068825 3.04214692305383 17.230350340577168 0 0 0
1450 484 2 -1.1794 3.2601579136405556 4.663442330194994 20.826504946314408 0 0 0
1462 488 2 -1.1794 1.5586677812349945 4.25750867107124 18.56285648869813 0 0 0
1446 482 1 0.5897 3.0129787897607136 1.770846563116749 18.614141675520884 0 0 0
1487 496 1 0.5897 5.908955878663632 1.690847980089411 19.757402213319637 0 0 0
1444 482 2 -1.1794 2.682426086656511 1.138307874386854 19.251924128637782 0 0 0
1442 481 1 0.5897 4.050684307887782 1.2007856122360419 20.85756359155299 0 0 0
1466 489 1 0.5897 4.408154632907893 4.800034708869475 17.89023738287625 0 0 0
1463 488 1 0.5897 1.6191178879002652 5.0454239066601225 18.022794261920104 0 0 0
1452 484 1 0.5897 2.9231100742832714 4.416992532025214 19.96522333198765 0 0 0
1461 487 1 0.5897 5.066376944630749 2.6641556208441703 18.4675090765651 0 0 0
1464 488 1 0.5897 0.8120185031768675 4.418619488098137 19.139659388375357 0 0 0
1443 481 1 0.5897 4.699840848381587 1.8476046325934476 22.06250994307375 0 0 0
1465 489 2 -1.1794 4.309211354953756 5.736321686048153 18.062558559234716 0 0 0
1447 483 2 -1.1794 5.933122169049929 4.635532025333723 20.502092851317677 0 0 0
1468 490 2 -1.1794 1.8686377506195253 0.020138468635106266 22.202400681119208 0 0 0
1826 609 1 0.5897 3.9906785295447254 -0.021010575144140398 18.444334142836837 0 1 0
1455 485 1 0.5897 1.489066590168266 3.3104955936599634 22.868146500628193 0 0 0
386 129 1 0.5897 4.732350970379758 0.07997682255865599 22.771816467230103 0 1 -1
121 41 2 -1.1794 4.657129591634124 7.466625041853263 4.041022185094303 0 0 0
122 41 1 0.5897 3.8921396825969232 7.44866672554488 3.4660356824148804 0 0 0
123 41 1 0.5897 5.404700409730127 7.3896384457989965 3.448269166260721 0 0 0
124 42 2 -1.1794 2.573709271021384 7.61142128886329 2.1669990594982496 0 0 0
125 42 1 0.5897 2.786026467768264 6.732074955816262 1.8542764240246825 0 0 0
126 42 1 0.5897 3.0696356315047155 8.196120130244246 1.5940077108595547 0 0 0
129 43 1 0.5897 5.049777898154944 10.776525285747626 3.2756584002228193 0 0 0
130 44 2 -1.1794 3.1711775821654684 10.471825003636608 3.079694958394569 0 0 0
132 44 1 0.5897 2.798245703479472 9.671097384902977 3.4483133046205663 0 0 0
133 45 2 -1.1794 1.5695974415332636 8.952626843665652 4.643549744630705 0 0 0
135 45 1 0.5897 0.714955064232587 9.159745421790488 4.26563591241081 0 0 0
137 46 1 0.5897 0.8715614596294302 7.946097737241686 2.015069403142943 0 0 0
139 47 2 -1.1794 4.824321011483194 9.152191000046072 0.5355853214199032 0 0 0
142 48 2 -1.1794 1.0746552357284653 11.047793367770906 1.2034250453238782 0 0 0
143 48 1 0.5897 1.8974550303110451 10.86441536434475 1.6567559948511235 0 0 0
144 48 1 0.5897 1.324422465767861 11.611855564976544 0.4715856847744011 0 0 0
149 50 1 0.5897 1.2317748298855165 7.076809469646644 4.665564712250526 0 0 0
131 44 1 0.5897 2.7820960044630003 11.177585101524107 3.596073426014333 0 0 0
140 47 1 0.5897 4.683005928072054 10.098318431798418 0.5041581287771503 0 0 0
621 207 1 0.5897 4.265962283916137 8.992027848527917 5.364606301244304 0 0 0
1574 525 1 0.5897 1.3591025158129737 9.620282327575815 0.009769642442673754 0 0 1
134 45 1 0.5897 1.575927513763168 9.406899927441774 5.486009736406249 0 0 0
168 56 1 0.5897 6.0492379041846265 8.103432017146062 1.4689465447740608 0 0 0
507 169 1 0.5897 4.463335697975021 6.557420977283378 5.45797387777452 0 0 0
127 43 2 -1.1794 5.967214283104617 10.938082381178235 3.4955387563518987 0 0 0
146 49 1 0.5897 5.0861495578667695 12.28029416194434 0.8462510495767711 0 0 0
148 50 2 -1.1794 1.2386321105563656 6.12641977786306 4.5522792793858775 0 0 0
26 9 1 0.5897 5.024532830495346 6.200151698225042 1.1031407827800812 0 0 0
270 90 1 0.5897 0.8752224990691946 11.803660967700052 4.393919254310962 0 0 0
145 49 2 -1.1794 4.253459165424805 11.960805961617714 0.49884391537801254 0 0 0
128 43 1 0.5897 5.9525479211556105 11.746994514958349 4.006982313890169 0 0 0
136 46 2 -1.1794 -0.07709587118726802 8.056504802856033 1.9519165199497297 0 0 0
218 73 1 0.5897 0.090161952720198 10.95409249788858 2.8982825719199856 1 0 0
268 90 2 -1.1794 1.6678184245306404 12.296414124374966 4.606312331399097 0 0 0
647 216 1 0.5897 5.608718660016051 7.432220332614647 8.428913630834284 0 0 0
628 210 2 -1.1794 1.256252959907058 6.29143394788909 10.717377166765239 0 0 0
613 205 2 -1.1794 1.2931611209789746 9.066942353185237 10.363029388747508 0 0 0
620 207 1 0.5897 5.024120101596732 8.87526895546474 6.669696506251614 0 0 0
625 209 2 -1.1794 4.708450468865601 12.298217245591125 6.113565424022981 0 0 0
607 203 2 -1.1794 5.721268803022396 10.86211944030518 9.093290603377623 0 0 0
615 205 1 0.5897 0.5473779245643927 9.65198800175029 10.23015636251395 0 0 0
646 216 2 -1.1794 6.040117077177658 7.288813977158681 7.586610032665917 0 0 0
506 169 1 0.5897 3.5701668576769316 6.420072932774914 6.6724943264416465 0 0 0
698 233 1 0.5897 0.08044768654043935 11.639334753967443 9.76737259912811 1 0 0
606 202 1 0.5897 1.849154735118422 7.613876823076386 7.747767010488891 0 0 0
630 210 1 0.5897 1.282123349476834 7.233340230193699 10.549276832702986 0 0 0
626 209 1 0.5897 4.6624542819297385 11.41361007207467 6.476157806478153 0 0 0
610 204 2 -1.1794 2.9985155124649476 10.793530826430855 9.079200971605145 0 0 0
624 208 1 0.5897 1.6385007490040429 11.441500693219353 6.186469658533566 0 0 0
614 205 1 0.5897 2.041391807293243 9.547812553874664 10.009399387474405 0 0 0
605 202 1 0.5897 3.0944649579779457 8.28260987757556 7.205880833590038 0 0 0
604 202 2 -1.1794 2.804677775590289 7.560285360324 7.763016391358046 0 0 0
603 201 1 0.5897 3.5662620435523125 7.65723086262136 9.45018797646865 0 0 0
612 204 1 0.5897 2.7656078290063495 11.573128081536177 9.583291508337 0 0 0
623 208 1 0.5897 2.1284919763588284 11.017415255908098 7.554585055996183 0 0 0
622 208 2 -1.1794 1.488261908539807 10.79708125352381 6.878052036944184 0 0 0
619 207 2 -1.1794 4.2916409470394 9.333887540704186 6.258266695789221 0 0 0
611 204 1 0.5897 3.9556169985116165 10.784376428361513 9.079921682870381 0 0 0
602 201 1 0.5897 4.386855017758023 7.123786517511976 10.60505873432926 0 0 0
601 201 2 -1.1794 4.230649093545889 7.914774970894378 10.089247515160592 0 0 0
699 233 1 0.5897 0.17106510754013793 10.814586323017203 8.501179685908822 1 0 0
648 216 1 0.5897 5.405688149538236 6.787644660741404 7.074300422772167 0 0 0
616 206 2 -1.1794 -0.09487230094302444 7.430810899897576 7.798131611741208 0 0 0
1106 369 1 0.5897 4.7795971776760044 12.224274580322682 11.164061868034377 0 0 0
1081 361 2 -1.1794 4.516538956445186 7.598157896854459 15.95560543890013 0 0 0
1082 361 1 0.5897 4.449220586307896 8.32726539155802 16.57205138463594 0 0 0
1083 361 1 0.5897 4.553511060648975 6.818354485690555 16.509381321157377 0 0 0
1084 362 2 -1.1794 2.684621695022132 7.663760125691328 13.770528564986952 0 0 0
1085 362 1 0.5897 3.117254300049142 7.725326301083729 14.622106272595923 0 0 0
1086 362 1 0.5897 3.118316775658404 8.326062408920444 13.232576945663137 0 0 0
1089 363 1 0.5897 4.983134516453402 10.857456061806287 15.053261635616906 0 0 0
1090 364 2 -1.1794 3.2692501641920093 11.11758291075356 14.964171591246803 0 0 0
1091 364 1 0.5897 2.734707495255386 11.800692057736779 15.368856553830879 0 0 0
1092 364 1 0.5897 2.868555140866595 10.297357195986152 15.251927833327944 0 0 0
1094 365 1 0.5897 1.3952984594350966 8.160268436872334 16.72405215957447 0 0 0
1097 366 1 0.5897 0.9392930537462056 7.561721034811999 13.643236003275456 0 0 0
1099 367 2 -1.1794 4.084601299302221 9.414946086204345 12.323467403989884 0 0 0
1100 367 1 0.5897 4.821140797282335 9.124696596395525 12.861430282194 0 0 0
1102 368 2 -1.1794 1.4561308325178135 10.643375172909654 12.841670510689163 0 0 0
1103 368 1 0.5897 1.7941409427973096 9.90463122301376 12.335575049793185 0 0 0
1104 368 1 0.5897 2.144696054911158 10.832746209006674 13.478978450526276 0 0 0
1093 365 2 -1.1794 1.576433163274183 9.096456568616992 16.641245101453315 0 0 0
1095 365 1 0.5897 0.7769992835321954 9.463066876874251 16.263575444958363 0 0 0
1105 369 2 -1.1794 4.748932634920363 12.014273253922626 12.097396466603017 0 0 0
1107 369 1 0.5897 4.436671814896486 11.110075622403656 12.129783881359069 0 0 0
1178 393 1 0.5897 0.1988889758967542 11.526393929612423 15.619285848212606 1 0 0
986 329 1 0.5897 3.7778482337936006 6.553735596888887 12.675798860661697 0 0 0
1179 393 1 0.5897 0.2467309349707616 10.779197405271198 14.303580825609188 1 0 0
1087 363 2 -1.1794 5.872031850398564 10.57059860692093 15.262317357648287 0 0 0
1127 376 1 0.5897 5.649717356811253 7.848333755325795 14.262215300717434 0 0 0
1128 376 1 0.5897 5.860840113327287 7.131641858252492 12.94560758331294 0 0 0
1096 366 2 -1.1794 0.023254928269633546 7.33322815381342 13.48574790146419 0 0 0
1108 370 2 -1.1794 1.567049404879552 6.215811080675333 16.604952265261673 0 0 0
1101 367 1 0.5897 4.1331439879475145 8.871697447061772 11.536916084686622 0 0 0
985 329 2 -1.1794 4.491887320723862 6.2269120741092125 12.12855929055328 0 0 0
1566 522 1 0.5897 3.0527877909077783 6.950453900113078 19.19868331853285 0 0 0
1658 553 1 0.5897 -0.007676092937149548 10.327782246553653 21.583322820272933 1 0 0
1576 526 2 -1.1794 0.11879116815493956 7.867912159705325 19.402254640288014 0 0 0
1608 536 1 0.5897 5.934824652197543 7.661281911687755 19.939358284667428 0 0 0
1709 570 1 0.5897 0.7028557381979488 12.065322233317174 21.660796364475125 0 0 0
1570 524 2 -1.1794 3.277191408626825 10.871001812923629 20.94746143468562 0 0 0
1580 527 1 0.5897 4.058124461444344 9.00319772121525 18.539460121801973 0 0 0
141 47 1 0.5897 4.639660593148086 8.852285823291673 22.747382470238456 0 0 -1
1562 521 1 0.5897 4.630451166633304 6.908948682954884 22.03312937821954 0 0 0
1589 530 1 0.5897 1.439061574936416 7.24808106810844 22.116185221443708 0 0 0
1573 525 2 -1.1794 1.3312227818658755 9.098037740891973 22.309930796153978 0 0 0
1585 529 2 -1.1794 5.149188741737061 12.225155506647736 17.583579407010937 0 0 0
1563 521 1 0.5897 3.9764580563406797 7.6968703018268725 20.91816409577315 0 0 0
1571 524 1 0.5897 2.8290565982835316 10.967493820421303 20.10721802953897 0 0 0
1564 522 2 -1.1794 2.8901817917815285 7.828701258809899 19.542717069919306 0 0 0
1587 529 1 0.5897 5.013818532402706 11.3322762922741 17.90069130984557 0 0 0
1561 521 2 -1.1794 4.809145489816852 7.58134322716814 21.375796376169752 0 0 0
1565 522 1 0.5897 1.9365572928001105 7.910262540776172 19.551415148442196 0 0 0
1584 528 1 0.5897 1.7638682382477227 10.297308693204306 17.909231964559332 0 0 0
1579 527 2 -1.1794 4.735642433741805 9.489426111481135 18.069692188669194 0 0 0
1575 525 1 0.5897 2.121505860184903 9.349521439053346 21.83207807446928 0 0 0
1582 528 2 -1.1794 1.4624862446984177 10.945543257190456 18.545707703177293 0 0 0
1583 528 1 0.5897 0.6858586211395653 10.550173530253998 18.941530252688032 0 0 0
1572 524 1 0.5897 4.188478916737739 10.693829833777473 20.714445152918948 0 0 0
1581 527 1 0.5897 5.546646963591276 9.019862014790158 18.264389488541504 0 0 0
1710 570 1 0.5897 2.2046234148094026 11.900913411665357 21.757284592599973 0 0 0
1588 530 2 -1.1794 1.3670998043173272 6.3022686839996975 21.988220745878948 0 0 0
241 81 2 -1.1794 4.6555492131779035 13.892899981520253 4.050952077677557 0 0 0
242 81 1 0.5897 4.636136003972342 13.194669914170257 4.705343477310051 0 0 0
243 81 1 0.5897 3.8714726188897166 13.747540172734778 3.5215804531648733 0 0 0
244 82 2 -1.1794 2.6263448012167454 13.795244641609584 1.8736694311398887 0 0 0
245 82 1 0.5897 1.7456330325555667 13.971464104023026 2.2044688334254934 0 0 0
246 82 1 0.5897 2.855212848199624 14.577536454177345 1.3719070678947636 0 0 0
250 84 2 -1.1794 3.0010897963935528 17.18690560252118 3.530783934748771 0 0 0
251 84 1 0.5897 2.5222217940454192 17.04904101156248 2.7135728121530915 0 0 0
252 84 1 0.5897 3.9130548687287057 16.998932876771725 3.3091661343835863 0 0 0
253 85 2 -1.1794 1.3722725025591713 15.143854654279165 4.939721476632735 0 0 0
255 85 1 0.5897 2.2046919295503518 15.579082626807695 4.7559195226890845 0 0 0
259 87 2 -1.1794 4.302195461827849 15.726628094078265 0.6970552575620869 0 0 0
262 88 2 -1.1794 1.411774219627943 17.093461208566026 1.248061548796262 0 0 0
263 88 1 0.5897 1.1234125928506398 16.42455061217501 0.6271462253511078 0 0 0
269 90 1 0.5897 1.3820218278275163 13.209408554682062 4.636083299241531 0 0 0
254 85 1 0.5897 0.7388227650358158 15.590465637069459 4.3781030873886975 0 0 0
264 88 1 0.5897 1.4309194159373415 17.902697295017454 0.7372756726731496 0 0 0
260 87 1 0.5897 4.487444332878853 16.657867061975402 0.576198702778135 0 0 0
338 113 1 0.5897 0.17221028655924886 17.1416635770832 2.6151786344670174 1 0 0
288 96 1 0.5897 5.566159500660634 14.797448528610245 1.4562708205356159 0 0 0
147 49 1 0.5897 3.587863323483232 12.413912682711029 1.0163488518931045 0 0 0
740 247 1 0.5897 4.707654136710984 15.477983285891982 5.620042396277225 0 0 0
339 113 1 0.5897 0.060903735725236885 17.731178501836105 4.005064423736943 1 0 0
287 96 1 0.5897 6.044097138668342 14.053229638843284 2.684837553632861 0 0 0
265 89 2 -1.1794 4.737050981163976 18.516971461423296 0.5907020260560754 0 0 0
247 83 2 -1.1794 5.951993251723259 16.73818946806255 3.4013785741348848 0 0 0
389 130 1 0.5897 1.924431924288971 18.545498815987948 4.454913677240396 0 0 0
818 273 1 0.5897 0.16730879631243667 16.778364169913957 8.611970107579552 1 0 0
736 246 2 -1.1794 0.22112456491314836 13.927490930199657 7.605814843007164 0 0 0
627 209 1 0.5897 5.300848807186826 12.767725652532812 6.700734087865857 0 0 0
728 243 1 0.5897 4.82888821707014 17.519192642898908 9.607645319795541 0 0 0
1221 407 1 0.5897 4.268006591191975 15.205086787407405 11.178889146723645 0 0 0
748 250 2 -1.1794 1.1903644803340303 12.750831679735965 10.67782355430776 0 0 0
723 241 1 0.5897 5.283553927625769 13.860835554502383 9.303626866657062 0 0 0
735 245 1 0.5897 0.8417041426837929 15.519378265834641 10.408112566856182 0 0 0
731 244 1 0.5897 2.616140858186 17.077121943829788 8.287533276176696 0 0 0
869 290 1 0.5897 0.4804951437267986 18.332247559803285 10.463183184680513 0 0 0
725 242 1 0.5897 3.6209654298180265 14.532114027724232 7.338648383617025 0 0 0
721 241 2 -1.1794 4.567766199637103 13.769874060728696 9.932529166650612 0 0 0
749 250 1 0.5897 1.4073322954566523 13.67881966793405 10.76661310138027 0 0 0
741 247 1 0.5897 4.609255430689142 16.74351449501348 6.4448962587634 0 0 0
742 248 2 -1.1794 0.8717693175275933 16.96643842766815 7.0592912290433825 0 0 0
733 245 2 -1.1794 1.6017498543853645 15.408426237681685 10.979214294491298 0 0 0
724 242 2 -1.1794 2.941311316055872 13.955189810278853 7.687024326463266 0 0 0
729 243 1 0.5897 6.008863628564259 18.32203719744465 10.112363513622428 0 0 0
732 244 1 0.5897 2.504392902551901 16.590684434520334 9.716728656363637 0 0 0
737 246 1 0.5897 1.1716165962329048 13.93746102745737 7.718046139324862 0 0 0
722 241 1 0.5897 3.773204553361482 13.835510889912156 9.4029060882399 0 0 0
730 244 2 -1.1794 2.960825370156061 17.228092582278194 9.167622653129607 0 0 0
744 248 1 0.5897 1.1066530748216417 16.19755739581983 6.539887258309787 0 0 0
726 242 1 0.5897 2.9829231585528695 13.174562385018374 7.1347429783096565 0 0 0
743 248 1 0.5897 1.0973312139621196 17.710852466620153 6.501524267230997 0 0 0
739 247 2 -1.1794 4.810610359316434 15.81018716615964 6.511776467975358 0 0 0
727 243 2 -1.1794 5.770412381530802 17.639856995385443 9.484743306795348 0 0 0
768 256 1 0.5897 6.05416098051645 14.686076524661189 7.356917411937164 0 0 0
745 249 2 -1.1794 4.151752267600705 18.505568355157614 6.700953210456977 0 0 0
1201 401 2 -1.1794 4.345359684685984 13.974267697376549 15.646361992735809 0 0 0
1202 401 1 0.5897 4.986447597023015 13.967534020713797 14.935656771958877 0 0 0
1203 401 1 0.5897 4.554980975160043 13.19827681247955 16.165998897682478 0 0 0
1204 402 2 -1.1794 2.83494018590187 14.05558185318835 13.426116621530227 0 0 0
1205 402 1 0.5897 3.3236918951603918 13.812620906210462 14.212405508405634 0 0 0
1206 402 1 0.5897 3.1629715999638846 13.465402861829084 12.747721065742097 0 0 0
1210 404 2 -1.1794 3.3600393484700453 17.21483804585351 14.760403005786685 0 0 0
1212 404 1 0.5897 4.304021898046833 17.247745406921844 14.915153925294948 0 0 0
1213 405 2 -1.1794 1.6388632555163423 15.5556492174515 16.186007542814274 0 0 0
1215 405 1 0.5897 2.362530747282541 15.601186733536306 15.561200490013231 0 0 0
1218 406 1 0.5897 1.0932620583149324 13.930301478371556 13.581614420627822 0 0 0
1220 407 1 0.5897 3.5736739956368635 15.63870709337673 12.452288878871226 0 0 0
1222 408 2 -1.1794 1.5424547512555258 17.298882560362088 12.832016021976992 0 0 0
1223 408 1 0.5897 1.7016928799194264 17.89855756197921 12.103200129230807 0 0 0
1224 408 1 0.5897 2.228779018061356 17.504819845894097 13.466598826801787 0 0 0
1211 404 1 0.5897 2.984026793263132 17.755626227687117 15.454886337238886 0 0 0
1214 405 1 0.5897 0.8819824751770735 15.884213240942335 15.700917829189482 0 0 0
1227 409 1 0.5897 4.620145194402441 17.596422016581883 12.304470581133954 0 0 0
1229 410 1 0.5897 1.479433139417398 13.680834339600986 16.452538266977086 0 0 0
1219 407 2 -1.1794 4.370440798413278 15.77627466044375 11.94006509301125 0 0 0
1700 567 1 0.5897 4.841446610144675 15.154165230642311 17.0348255410967 0 0 0
734 245 1 0.5897 1.3756568675338787 15.888775915073738 11.775636590916173 0 0 0
1216 406 2 -1.1794 0.19057570551740294 13.61243892896358 13.565610759934973 0 0 0
1225 409 2 -1.1794 4.471630025466576 18.539569533591305 12.237113576366315 0 0 0
1298 433 1 0.5897 0.2707614047462685 17.34883656204697 13.96762816498751 1 0 0
1248 416 1 0.5897 5.9281551207249805 13.306535142147503 12.922489479626925 0 0 0
1228 410 2 -1.1794 1.4749896029810536 12.723715860530538 16.44820003522628 0 0 0
1247 416 1 0.5897 5.68970084261366 14.801090899458801 12.954837372400327 0 0 0
1207 403 2 -1.1794 6.077366347885117 17.341163123399298 14.998745815799658 0 0 0
750 250 1 0.5897 1.2487838368545503 12.404483576891046 11.568209470949569 0 0 0
1705 569 2 -1.1794 4.649752664711645 18.467298013175437 18.223661385132758 0 0 0
1685 562 1 0.5897 3.738764942404647 13.125886499977724 18.848014079731307 0 0 0
1696 566 2 -1.1794 0.3464784111084116 14.157605656802012 19.405457813775712 0 0 0
1708 570 2 -1.1794 1.474568143429804 12.409102335788882 22.110692740184852 0 0 0
1702 568 2 -1.1794 1.649597088225334 17.1658572236919 18.650066399354543 0 0 0
1681 561 2 -1.1794 4.562225702968158 13.976949044323586 21.496588929835774 0 0 0
1778 593 1 0.5897 0.3770083917588398 17.342831385245262 20.10961146695454 1 0 0
1697 566 1 0.5897 1.2745620305934242 13.979057324962588 19.25410006046406 0 0 0
1694 565 1 0.5897 0.6116394331438116 15.459781809735784 21.67980693466911 0 0 0
1690 564 2 -1.1794 3.257317468925619 17.327368564489497 20.855753444039983 0 0 0
1777 593 2 -1.1794 -0.05147729624112078 17.66090217987989 20.904209635011668 1 0 0
261 87 1 0.5897 4.260900362791176 15.372898585749505 22.910422658245068 0 0 -1
1701 567 1 0.5897 4.231065978440465 15.264801286310977 18.415723551337607 0 0 0
1779 593 1 0.5897 0.5766690171382903 18.27342287855067 21.286821611364942 1 0 0
1687 563 2 -1.1794 5.997333723575281 17.431499693101394 21.02652863182862 0 0 0
1707 569 1 0.5897 4.637560593358206 17.52898179496983 18.035168430141937 0 0 0
1689 563 1 0.5897 5.060674449551409 17.519506531216678 20.850282544152286 0 0 0
1691 564 1 0.5897 2.6944254146597744 16.665263942241744 21.25687033292691 0 0 0
1699 567 2 -1.1794 4.900343417533977 15.65094785567521 17.850839688982035 0 0 0
1693 565 2 -1.1794 1.4285849057486522 15.292995429374153 22.149822674505693 0 0 0
1684 562 2 -1.1794 3.0263574211536888 13.686344241426754 19.155422210315322 0 0 0
1682 561 1 0.5897 5.330695421177934 13.978104220580647 20.925983930540795 0 0 0
1686 562 1 0.5897 3.2711590651702225 13.91565757173244 20.051886303583593 0 0 0
1695 565 1 0.5897 1.4835107491108845 14.339000769290834 22.204507843555227 0 0 0
1683 561 1 0.5897 4.709693120850036 13.245666065094726 22.096262852078844 0 0 0
1704 568 1 0.5897 1.7821981266791076 17.96494543268674 18.14016149763117 0 0 0
1692 564 1 0.5897 2.953294971338784 17.383989221020272 19.949931077197718 0 0 0
1703 568 1 0.5897 1.5896513597671704 16.470458847543753 17.995117575452383 0 0 0
1698 566 1 0.5897 0.08274043412742144 14.701948284439954 18.663654685051405 0 0 0
1230 410 1 0.5897 1.5487564596598922 12.47921615122189 17.370656868065645 0 0 0
1586 529 1 0.5897 5.804106062454537 12.593641918154281 18.176398990353434 0 0 0
361 121 2 -1.1794 4.528072476261809 20.21817891403031 4.358438879958882 0 0 0
362 121 1 0.5897 3.860698218541391 20.16452704877954 3.6744259339094194 0 0 0
364 122 2 -1.1794 2.9939727228734 20.05559918097262 2.0395021734956784 0 0 0
365 122 1 0.5897 3.2495109754550024 20.768895854194618 1.4546626713587605 0 0 0
366 122 1 0.5897 2.0911848772573167 19.85484467344058 1.7929213787591483 0 0 0
370 124 2 -1.1794 3.4027282036465625 23.44560320800273 3.476714956411448 0 0 0
371 124 1 0.5897 4.3274986309623475 23.271444287232548 3.651643058745203 0 0 0
372 124 1 0.5897 2.9367505378109295 22.738959403765335 3.9235340059438553 0 0 0
373 125 2 -1.1794 1.2094839015140852 21.7102256082239 4.931024923259087 0 0 0
381 127 1 0.5897 5.487196180641076 21.418705570692502 1.0232207357218601 0 0 0
382 128 2 -1.1794 1.6360057344346113 23.035828015033374 1.1630687789814746 0 0 0
383 128 1 0.5897 2.4577162809508906 23.073228321992723 1.6524905712048994 0 0 0