LAMMPS data file via write_data, version 30 Jul 2021, timestep = 12250000

864 atoms
2 atom types
576 bonds
1 bond types
288 angles
1 angle types

0.4457197258732375 17.761852674123674 xlo xhi
1.61653023237705 22.012647567623425 ylo yhi
0.5437770244889943 21.669418775504816 zlo zhi

Masses

1 1.00794
2 15.9994

Pair Coeffs # lj/cut/tip4p/long/omp

1 0 0
2 0.21084 3.1668

Bond Coeffs # harmonic/omp

1 450 0.9572

Angle Coeffs # harmonic/omp

1 55 104.52

Atoms # full

611 1 1 0.5897 3.3657763752337333 4.3545287299249225 4.00571304183509 2 4 -1
239 1 1 0.5897 1.7045232550947933 6.02087245417 4.980717597695605 -6 -5 -3
610 1 2 -1.1794 3.303113042364712 4.867399973255557 4.811483718821318 2 4 -1
708 1 1 0.5897 3.6992750290408183 4.754569027261521 1.5601686758191673 1 -1 -6
706 1 2 -1.1794 3.3459952812006137 4.029374435319077 2.07545306279604 1 -1 -6
612 1 1 0.5897 4.048343853472989 5.466876981369536 4.772959544777585 2 4 -1
575 1 1 0.5897 3.8982997504209034 2.122121927406813 2.4375033852372545 2 2 1
707 1 1 0.5897 2.5259561698151765 3.8010474168666546 1.6376923591655679 1 -1 -6
238 1 2 -1.1794 0.8847901870973216 6.515024473666376 4.971670402570381 -6 -5 -3
820 1 2 -1.1794 0.8382325683213726 3.3965401970242795 0.6713457718608955 3 3 3
68 1 1 0.5897 4.415728867289347 3.677472943391099 8.148246601570115 7 -3 -5
210 1 1 0.5897 0.7159842128697499 5.85075021153175 10.90038880309357 3 -2 3
452 1 1 0.5897 2.318428832673494 3.908503898354165 7.226375482199968 1 0 1
753 1 1 0.5897 2.2992386361514017 1.714918229546284 6.523860744828019 2 3 0
778 1 2 -1.1794 1.310194527943168 2.4846548682661647 10.27776557512672 -4 -5 1
453 1 1 0.5897 3.4051411320397533 3.543839306929705 6.237447694435172 1 0 1
451 1 2 -1.1794 3.054014457175809 3.309909808835357 7.096644446235627 1 0 1
302 1 1 0.5897 0.6841827331784625 5.634338321476693 6.852402810754791 -5 1 10
301 1 2 -1.1794 0.9733505058390604 5.1554494415017995 7.629117984403811 -5 1 10
779 1 1 0.5897 1.5693472599428557 3.338873216517934 10.623408540803151 -4 -5 1
207 1 1 0.5897 2.6893549932401153 6.552397971895065 14.442900850941612 -7 5 -2
37 1 2 -1.1794 1.8711225943790213 4.758672350744521 13.814938667784402 3 3 -4
189 1 1 0.5897 1.4987754291170123 5.57547933207926 16.09686740520352 -3 3 0
38 1 1 0.5897 2.6223868800298 4.179733660789605 13.685784135833407 3 3 -4
689 1 1 0.5897 3.980187166762041 3.6936462472231124 11.944683642862973 3 -2 7
39 1 1 0.5897 1.430062221790212 4.772633978483863 12.965522901899673 3 3 -4
652 1 2 -1.1794 3.9532891384801094 2.762349376605573 13.638984178614635 -3 2 1
208 1 2 -1.1794 0.6895837013472075 5.008370984329668 11.354186280461612 3 -2 3
653 1 1 0.5897 3.541698253139629 2.091432862804578 14.183683396742667 -3 2 1
690 1 1 0.5897 4.723411687307356 4.970263885138094 11.613355438986158 3 -2 7
188 1 1 0.5897 2.6342196087991936 4.616688108861443 16.385696410793074 -3 3 0
688 1 2 -1.1794 4.447401130281267 4.135210600740818 11.235485256176151 3 -2 7
698 1 1 0.5897 2.047137680529967 5.5523158372692905 18.449048501587903 -4 2 -6
775 1 2 -1.1794 4.375998609351657 2.1934078285902543 20.5844631501051 4 -4 1
822 1 1 0.5897 0.6808087614393824 4.256572227769585 21.407375554328944 3 3 2
777 1 1 0.5897 4.286871415534765 3.131777601678932 20.751104800269623 4 -4 1
676 1 2 -1.1794 4.528397533601933 1.7964974967071137 17.89034029072981 3 -3 -2
821 1 1 0.5897 0.7527364619157763 2.783138091398415 21.06713988720835 3 3 2
41 1 1 0.5897 2.820224808311802 1.9910179004881838 17.579839719739795 1 1 4
651 1 1 0.5897 0.6173255002065184 6.348309192931375 20.407533833502633 3 2 0
460 1 2 -1.1794 4.172122593841898 5.540208184164069 20.96681286709704 4 8 -3
187 1 2 -1.1794 1.8954382161299757 5.062012808550477 16.800600395474106 -3 3 0
697 1 2 -1.1794 2.0402582874723607 5.969401265797409 19.31057053704515 -4 2 -6
699 1 1 0.5897 2.8735663888666307 5.715080512249283 19.706986016843665 -4 2 -6
462 1 1 0.5897 4.395298078355105 6.368674790643524 21.391181592385202 4 8 -3
258 1 1 0.5897 0.8676692993118551 2.202539473715591 19.00781997988679 -4 -1 -2
40 1 2 -1.1794 1.9044076317873735 2.264022789400361 17.52521580412497 1 1 4
42 1 1 0.5897 1.9353923708164311 3.126680339704457 17.111547088014007 1 1 4
609 1 1 0.5897 3.522076881626953 7.424876728151028 2.4461854896130806 7 2 3
607 1 2 -1.1794 4.421125999966197 7.0983850546270375 2.4088050828072065 7 2 3
89 1 1 0.5897 0.49089573979376727 10.15754331531142 5.2442247208416495 5 -1 5
28 1 2 -1.1794 1.456090208654484 11.116685989379055 2.3847650206587336 -6 3 7
90 1 1 0.5897 1.8853102772614234 10.738233362985712 5.142603937749584 5 -1 5
30 1 1 0.5897 1.213806517619313 10.931028904167553 3.2920003625640297 -6 3 7
221 1 1 0.5897 1.6464610771933212 9.248458839237575 1.9625368514337456 5 -6 5
88 1 2 -1.1794 0.9610697178192025 10.9668490959392 5.04371448642889 5 -1 5
220 1 2 -1.1794 2.040500551716762 8.388391481560122 1.8167571462382641 5 -6 5
181 1 2 -1.1794 3.6202952537459314 10.832891337655099 4.724843275221293 -3 5 -2
222 1 1 0.5897 1.295713972917653 7.804186924845651 1.6745175098525913 5 -6 5
666 1 1 0.5897 4.551598578780482 10.407643071623502 1.3106516972853361 2 -1 3
182 1 1 0.5897 3.8588128363973015 10.57161101160935 3.8354184122052972 -2 5 -2
665 1 1 0.5897 4.69568007494543 9.059487798481253 1.9841514852728381 2 -1 3
664 1 2 -1.1794 4.74521680480275 10.000047874542538 2.154812922748837 2 -1 3
608 1 1 0.5897 4.696745460212409 7.049059666302499 3.3241564762435236 7 2 3
183 1 1 0.5897 3.7457548112181285 11.78174199447847 4.738024634024896 -3 5 -2
594 1 1 0.5897 1.8449676252645444 7.864855419689412 6.047544131569895 -3 -3 -1
717 1 1 0.5897 2.438208630062978 7.9208399349645955 10.23184385730283 1 -9 0
592 1 2 -1.1794 2.6564087312957634 7.9556373772880775 6.547105946820492 -3 -3 -1
786 1 1 0.5897 1.5699422868962203 10.108517070973182 8.790927515412184 3 5 5
296 1 1 0.5897 4.071432972489903 10.468475302214886 8.650155906493591 -3 3 1
593 1 1 0.5897 2.568445266354566 8.795860270407896 6.9971392790956966 -3 -3 -1
784 1 2 -1.1794 2.3124484867029675 10.25179524602767 8.204070105543877 3 5 5
785 1 1 0.5897 2.229436235080022 11.165344009519995 7.9306283208364725 3 5 5
716 1 1 0.5897 3.7690890636477827 7.733841857103525 9.534940531743416 1 -9 0
715 1 2 -1.1794 3.3531073910930522 8.200876027654811 10.259555036262581 1 -9 0
551 1 1 0.5897 4.117373299588058 6.8955720143300425 7.685011831807967 0 7 -7
43 1 2 -1.1794 0.6774447449161898 7.277670816281304 9.868324396152698 2 5 -2
44 1 1 0.5897 0.5601172403335966 6.797352147328835 9.048717755380599 2 5 -2
550 1 2 -1.1794 4.634706464920088 6.884960452754375 8.49030122439764 0 7 -7
51 1 1 0.5897 1.3300570829181795 9.138076939745524 13.268794599156177 5 2 -2
290 1 1 0.5897 3.0105396158337925 8.573109914152255 14.582103594801655 -10 -4 -8
289 1 2 -1.1794 2.6269025170010183 9.438512255787874 14.440184507538536 -10 -4 -8
704 1 1 0.5897 1.1315764927416465 10.204011971537842 15.263996367721813 4 -2 0
192 1 1 0.5897 3.172189333634117 9.59907818222235 11.515627874862439 2 6 -3
291 1 1 0.5897 2.9955306238007684 9.730645752623449 13.606503465544868 -10 -4 -8
703 1 2 -1.1794 0.660838818508979 10.690050557924224 15.941067901332943 4 -2 0
191 1 1 0.5897 3.3118995839487204 11.097976878964246 11.675893062114284 2 6 -3
190 1 2 -1.1794 3.584527839289182 10.266549980515887 12.06402186143722 2 6 -3
179 1 1 0.5897 4.241687964296882 7.2345473384786985 11.411157934277075 -5 0 -3
120 1 1 0.5897 3.3936054502548276 10.420343409614281 16.151011669952407 0 -5 -2
205 1 2 -1.1794 3.4825184224071672 6.951997530285182 14.799960157866074 -7 5 -2
178 1 2 -1.1794 4.761942386339589 6.77491494383488 12.070172944500415 -5 0 -3
49 1 2 -1.1794 0.45951938103069523 9.19462964892979 12.874849869008061 5 2 -2
206 1 1 0.5897 4.022390748915456 7.141019075557126 14.032450004985577 -7 5 -2
744 1 1 0.5897 2.8824299184147497 7.431180071334483 18.10095972956873 2 -3 2
819 1 1 0.5897 4.246277777319704 11.050823929736985 20.58735765006832 3 -4 1
595 1 2 -1.1794 3.1406590279027466 9.575416679767166 20.58699315698665 4 -5 0
596 1 1 0.5897 2.7746175187399142 9.298978045098274 21.42712505537054 5 -5 0
743 1 1 0.5897 3.9443700671360884 7.054231499091922 17.089973141498824 2 -3 2
597 1 1 0.5897 3.884939513340339 8.990427425771683 20.445360048789027 4 -5 0
31 1 2 -1.1794 1.015017799355041 9.196792479378392 18.613859889815352 3 9 0
33 1 1 0.5897 1.8448811392479616 9.328839720097573 19.072251586165876 3 9 0
742 1 2 -1.1794 3.7224233686256447 7.718161251347205 17.742790957113343 2 -3 2
119 1 1 0.5897 3.51568118864691 9.526799850073175 17.366988700044246 0 -5 -2
118 1 2 -1.1794 3.542649876577983 10.444517494947167 17.09622830306474 0 -5 -2
705 1 1 0.5897 1.0589591402424865 10.40332005505016 16.762980285080133 4 -2 0
274 1 2 -1.1794 0.6590715437239039 16.30528351114068 4.384685654584484 -2 4 -3
140 1 1 0.5897 2.621469070611389 13.651419282152817 3.3678587262198882 -1 -4 -1
275 1 1 0.5897 1.1059927518213875 16.585406708103456 3.585920488569393 -2 4 -3
605 1 1 0.5897 1.3151131021017095 14.350951495832403 1.3383267542298933 -1 3 2
139 1 2 -1.1794 2.6527199152699676 13.481231051296646 2.4264263276399403 -1 -4 -1
195 1 1 0.5897 3.732962107105269 14.269471283899714 5.347105909954569 3 -2 2
193 1 2 -1.1794 2.8805339121697076 13.849060518961362 5.233760111682506 3 -2 2
141 1 1 0.5897 3.5702949545647678 13.614656959120225 2.188748595737027 -1 -4 -1
604 1 2 -1.1794 0.6442412066201059 14.837458941244128 0.8592649727127752 -1 3 2
29 1 1 0.5897 1.9334512585448844 11.945202052685659 2.428601024458282 -6 3 7
352 1 2 -1.1794 3.9547405321306677 15.984367069992912 8.038086785294938 5 0 -1
862 1 2 -1.1794 2.589826415957934 13.083553052830986 8.101462372315872 2 -2 0
863 1 1 0.5897 2.1715480525116755 13.848393950488662 8.496847294865944 2 -2 0
630 1 1 0.5897 2.760105360601201 12.588287833630373 10.14345828184331 -3 -2 1
864 1 1 0.5897 3.5281237422834897 13.246145687848873 8.198555252544068 2 -2 0
194 1 1 0.5897 2.500995289865078 13.835321652324204 6.112391731197505 3 -2 2
578 1 1 0.5897 1.2415139486612996 15.647833246728878 8.505195331754832 2 1 -1
577 1 2 -1.1794 1.242090560166034 15.102099947818393 9.29158231934949 2 1 -1
795 1 1 0.5897 1.926990481667107 15.919784177742203 10.616655584486159 -3 3 2
354 1 1 0.5897 4.103299323563583 16.613799326093634 7.332380709051885 5 0 -1
233 1 1 0.5897 0.741220618497062 16.865976875256514 6.022364889196631 -3 1 -2
579 1 1 0.5897 0.5166786983754077 14.491507105307907 9.16049264913545 2 1 -1
353 1 1 0.5897 4.442866261782767 15.205328124387583 7.7715202264033865 5 0 -1
628 1 2 -1.1794 2.777486748197671 12.560446463148768 11.100098075307798 -3 -2 1
629 1 1 0.5897 1.8556924465716067 12.577290375906008 11.357467803821578 -3 -2 1
809 1 1 0.5897 3.5037069817965936 15.504638288884658 12.090400388032771 4 -1 0
808 1 2 -1.1794 4.096958299005648 14.85467408591882 12.467002917425951 4 -1 0
52 1 2 -1.1794 0.7717188107382356 16.30717407380427 13.635525359032757 -4 -4 4
810 1 1 0.5897 3.6839173906773537 14.012850961101915 12.274750592133573 4 -1 0
643 1 2 -1.1794 1.954626768956522 13.290861662333137 14.617402890459813 3 -1 0
645 1 1 0.5897 2.8399091109654337 13.135495863525668 14.288212645289432 3 -1 0
793 1 2 -1.1794 2.254983988147775 16.43809663078417 11.351516078139998 -3 3 2
644 1 1 0.5897 1.686823669367932 12.451354899050644 14.991224082828522 3 -1 0
726 1 1 0.5897 2.1793063140975457 14.352218415523867 16.241110690156468 3 -5 3
853 1 2 -1.1794 4.466550772926865 12.004507471814035 14.441174188851223 -3 0 1
54 1 1 0.5897 0.986107731682039 16.332862226831068 12.702999957051713 -4 -4 4
539 1 1 0.5897 0.9098175027121433 13.702835746375461 13.009999606732798 -2 -4 3
53 1 1 0.5897 1.5118852196753285 16.737173766805277 14.063870933894263 -4 -4 4
175 1 2 -1.1794 4.491718556090382 16.62278829587038 16.301326944240188 -2 -3 9
562 1 2 -1.1794 1.4654948178671279 15.811401715315991 19.436867359318533 2 1 2
313 1 2 -1.1794 0.6641711300737225 12.783997950762268 20.045367324179807 -2 0 -2
767 1 1 0.5897 3.9574402155086768 13.089155572998642 18.953029080759798 2 -1 -2
77 1 1 0.5897 4.036561186610651 15.634303240876594 21.130534081052645 -3 -3 -5
177 1 1 0.5897 3.9340399278175444 15.864953409284864 16.47720022405607 -2 -3 9
725 1 1 0.5897 2.8221864361512314 14.065772919879795 17.5814694991358 3 -5 3
766 1 2 -1.1794 3.103464491211006 12.715296747857222 18.735762376664205 2 -1 -2
76 1 2 -1.1794 3.673359442916448 16.448876009930533 20.782946337255694 -3 -3 -5
563 1 1 0.5897 1.7265933330083287 15.501728009442246 18.56958770898791 2 1 2
724 1 2 -1.1794 2.5947956618476216 14.782080474670234 16.988654839924315 3 -5 3
78 1 1 0.5897 2.8955996637392203 16.17634523779291 20.296068641450198 -3 -3 -5
564 1 1 0.5897 1.0047751246528902 16.63356354986705 19.269473218686514 2 1 2
606 1 1 0.5897 1.12356113670503 15.28223491114687 21.285867116001832 -1 3 1
314 1 1 0.5897 1.5184547900379837 12.65051720517885 19.63474715013198 -2 0 -2
315 1 1 0.5897 0.7873601123920249 13.544115913602644 20.613986449708115 -2 0 -2
768 1 1 0.5897 3.295472916823258 12.040962496567882 18.084122378707647 2 -1 -2
790 1 2 -1.1794 1.502662447141575 20.74674074472157 3.2313315777285405 2 5 0
576 1 1 0.5897 3.1240057444271283 21.309314678135067 2.9179993089544416 2 1 1
96 1 1 0.5897 1.1539339553477646 19.90389790488137 1.517881745817676 -2 -3 -1
792 1 1 0.5897 1.410696035317839 20.513353233622937 4.155080954058075 2 5 0
63 1 1 0.5897 3.6970372567699807 18.14282075918929 5.505221599525669 -2 -2 0
443 1 1 0.5897 1.8589098063816496 17.903808725159642 1.624191944379767 7 6 0
757 1 2 -1.1794 4.488621833241889 17.709618449929728 3.9597127134437295 2 0 2
759 1 1 0.5897 3.742643737489371 17.605645320023402 3.3689943718091997 2 0 2
442 1 2 -1.1794 2.3563547971016687 17.233417712020593 2.092547031153079 7 6 0
349 1 2 -1.1794 4.6675920160245985 19.706724141065806 0.6897868858591822 -11 -1 -4
94 1 2 -1.1794 1.1189126265596117 19.429368857891916 0.687309766349106 -2 -3 -1
574 1 2 -1.1794 4.007614426081057 21.603236290773182 2.6964547933695355 2 1 1
350 1 1 0.5897 4.405691996904487 20.43289207706092 1.2557838482240218 -11 -1 -4
791 1 1 0.5897 0.6883253501799813 21.201648530566516 3.0165184129679163 2 5 0
444 1 1 0.5897 3.0331882642512897 16.960315247951222 1.47323620813117 7 6 0
308 1 1 0.5897 4.578841895232471 21.911675860644543 4.252235905352586 1 3 1
234 1 1 0.5897 1.6894362091404544 17.54985115105265 6.984238106762065 -3 1 -2
751 1 2 -1.1794 1.9454154625314644 21.280448559060957 6.205775087284136 2 2 0
491 1 1 0.5897 2.8009586977870944 21.540601174770764 9.722998436185934 3 7 4
61 1 2 -1.1794 3.4025216613267326 18.211841986538168 6.413364815522427 -2 -2 0
492 1 1 0.5897 4.175710603300999 21.04479504984579 10.118125891437494 3 7 4
496 1 2 -1.1794 4.364635572638268 18.01598620989379 9.98263611068901 -2 1 1
490 1 2 -1.1794 3.5621038958517572 21.069549415407756 9.383886268717715 3 7 4
718 1 2 -1.1794 1.3899012776429172 18.882646971547658 10.30774949987194 6 5 2
497 1 1 0.5897 3.7703517329215113 18.62377606745263 9.542572466955257 -2 1 1
322 1 2 -1.1794 0.588731073908546 20.198265500788352 8.165292447303418 10 0 -4
719 1 1 0.5897 1.148957398664913 19.29938309441951 9.480400069255715 6 5 2
498 1 1 0.5897 4.227387127237332 17.18051994588111 9.536100189678004 -2 1 0
232 1 2 -1.1794 0.792364685586051 17.22462290755614 6.908374275040114 -3 1 -2
324 1 1 0.5897 1.0892175304850586 20.78414643555594 7.597412896165069 10 0 -4
62 1 1 0.5897 3.9851486953825948 18.86207569577848 6.805850551746749 -2 -2 0
662 1 1 0.5897 4.306535708456663 20.79098973968476 7.746455169693629 -6 -3 2
794 1 1 0.5897 2.1546144891592074 17.34683783121324 11.067991200534289 -3 3 2
752 1 1 0.5897 2.674103963245486 20.66440722255225 6.281623364606942 2 2 0
720 1 1 0.5897 1.320743315299362 19.58190101476152 10.957753046935556 6 5 2
143 1 1 0.5897 1.2698509016572124 20.725443462356942 13.262459134819197 4 2 3
765 1 1 0.5897 1.5492680027913501 20.957984339308197 15.097528314293934 -5 0 -5
157 1 2 -1.1794 2.853361948010702 18.212387740917464 14.59701298755127 6 2 -4
159 1 1 0.5897 3.3710676656677605 17.703699886521008 15.221072336416826 6 2 -4
764 1 1 0.5897 2.6366227281427355 19.976010333001575 14.716355048818393 -5 0 -5
763 1 2 -1.1794 2.451150857751994 20.912921520366957 14.780025474365262 -5 0 -5
158 1 1 0.5897 3.445423027729268 18.362342605372532 13.859989728995995 6 2 -4
230 1 1 0.5897 4.628274820504142 18.093840078132054 11.923466147285897 5 4 2
229 1 2 -1.1794 4.546910450727822 18.638632463766115 12.706290018090613 5 4 2
142 1 2 -1.1794 0.693522065569271 20.460109779355108 12.545746569959253 4 2 3
231 1 1 0.5897 4.58886165119913 19.537104396705324 12.378811429486909 5 4 2
586 1 2 -1.1794 2.4862602222575902 20.647114906010167 19.84811987885447 2 1 5
525 1 1 0.5897 4.426374569944598 19.483024141193397 16.690191450846335 -2 -1 3
518 1 1 0.5897 2.8616384138958484 19.89450609062935 18.276272926906486 0 -2 -3
517 1 2 -1.1794 2.6843009588040285 19.533566741886297 17.407643019822572 0 -2 -3
587 1 1 0.5897 3.153165809764772 21.253539538142334 20.170248348144618 2 1 5
588 1 1 0.5897 1.7014841342676446 21.185629857453513 19.746115573524293 2 1 5
519 1 1 0.5897 2.3602094903026645 20.2776488784191 16.900160925259115 0 -2 -3
489 1 1 0.5897 1.3259928361685303 18.525174743272515 16.717075176608788 5 -5 1
95 1 1 0.5897 1.7755691647592589 19.857838702778153 21.26389488560791 -1 -3 -2
174 1 1 0.5897 4.730167730177005 17.21568302571127 19.54903395145898 5 2 -1
487 1 2 -1.1794 0.4610796610572227 18.259836968939887 16.40438094443791 5 -5 1
173 1 1 0.5897 4.721977287124616 17.338869773900313 18.040144371825242 5 2 -1
678 1 1 0.5897 4.617124727631281 21.953527684004946 18.81294326696434 3 -4 -2
265 1 2 -1.1794 6.86667581488099 3.7037270964702667 4.008054867808322 -3 -4 1
722 1 1 0.5897 5.846890077388146 5.989279745950513 1.9588098677720263 0 4 -3
723 1 1 0.5897 6.881195634171141 5.179683914763034 2.7115785135062613 0 4 -3
721 1 2 -1.1794 6.674543622487258 5.522780491781679 1.8422049809948693 0 4 -3
404 1 1 0.5897 6.760665484127605 3.5450777788400876 1.2685180445498374 4 -5 1
267 1 1 0.5897 6.881569466027666 3.936908269312191 4.936301730463716 -3 -4 1
309 1 1 0.5897 5.621328437119832 2.557515616725627 4.597845078852713 1 4 1
266 1 1 0.5897 7.690194405043105 3.2374250499769284 3.8645033124659918 -3 -4 1
403 1 2 -1.1794 6.871868013320933 2.7386195048978266 0.7650378556428993 4 -5 1
98 1 1 0.5897 6.322005841502599 6.037594573332611 5.416678362770975 5 -6 6
97 1 2 -1.1794 5.533512030020622 6.435863884073411 5.048048153442183 5 -6 6
307 1 2 -1.1794 5.084972653035121 1.865829439684059 4.985350967462055 1 4 1
582 1 1 0.5897 7.702318531376218 6.688202085971748 0.8832933432850197 -6 -1 0
559 1 2 -1.1794 8.150404248655008 4.796890127443346 9.539642550326752 5 1 3
321 1 1 0.5897 6.788113762755646 4.261866631320698 7.24302353057668 4 -5 3
132 1 1 0.5897 7.974892176925052 3.068368815632275 9.040030280934776 -5 2 -1
561 1 1 0.5897 7.71367204858391 5.605914479308091 9.27319507988575 5 1 3
319 1 2 -1.1794 7.283475059879334 4.6131907183584 6.5031405764002495 4 -5 3
320 1 1 0.5897 8.063142646245124 5.002222859154441 6.899386772593482 4 -5 3
131 1 1 0.5897 6.600151388524214 2.6486737592819893 8.564794789536505 -5 2 -1
130 1 2 -1.1794 7.4998923990858755 2.3337438842821223 8.651523661912956 -5 2 -1
67 1 2 -1.1794 5.216028469076808 3.9978992901639163 8.564299674317274 7 -3 -5
69 1 1 0.5897 5.000284911415295 4.044215172180387 9.49573264243516 7 -3 -5
560 1 1 0.5897 9.043091144893793 4.884803647817051 9.205539147781515 5 1 3
552 1 1 0.5897 4.817015937222004 5.958310314627295 8.646231079310398 0 7 -7
476 1 1 0.5897 6.971005658631628 5.535838004348293 14.50834551080681 3 -4 -1
659 1 1 0.5897 8.318681918898953 2.132223394791148 15.458781249733875 2 -2 1
500 1 1 0.5897 7.663859081248578 3.800106689656186 11.327939871326585 -2 0 -2
499 1 2 -1.1794 7.156284738182046 3.5318183060559973 12.09385751380592 -2 0 -2
477 1 1 0.5897 7.004754309563257 4.30798320181294 13.623371242719399 3 -4 -1
617 1 1 0.5897 5.413249592481203 4.326931790265673 15.94088513487216 1 4 2
475 1 2 -1.1794 6.862164322796303 4.585049477725073 14.528437224968853 3 -4 -1
660 1 1 0.5897 7.684040390319901 3.5048173896992036 15.530703742279602 2 -2 1
501 1 1 0.5897 6.243474859051202 3.6388608621760796 11.826354704158012 -2 0 -2
654 1 1 0.5897 4.812552620038974 2.4009942283106627 13.421437520847654 -3 2 1
658 1 2 -1.1794 8.099834896508892 2.8337998897587178 16.0720999480281 2 -2 1
618 1 1 0.5897 4.851949374347878 3.421398011385793 17.016452776319333 1 4 2
730 1 2 -1.1794 8.836251515017205 5.33710772112585 19.705539568859344 2 0 -3
510 1 1 0.5897 6.165756171093011 3.678838335194727 19.43100463621841 5 -5 2
732 1 1 0.5897 7.966762605279284 5.111950955968547 19.37450230202174 2 0 -3
58 1 2 -1.1794 7.281779004940815 1.9095837553421795 18.912857283755386 0 3 -1
59 1 1 0.5897 7.2800246538448095 1.9401728825630151 17.956134172748676 0 3 -1
508 1 2 -1.1794 6.21571148024695 4.61000374780129 19.214939384490016 5 -5 2
509 1 1 0.5897 5.880218440794933 4.667107860021755 18.320278075737782 5 -5 2
731 1 1 0.5897 8.684901657913192 6.076905335570452 20.293792787854926 2 0 -3
776 1 1 0.5897 5.0851567577805294 1.9131953436517513 21.1631214222545 4 -4 1
461 1 1 0.5897 4.942414397647142 5.324763593523823 20.440985952338643 4 8 -3
405 1 1 0.5897 7.639965369646197 2.9014879084474012 21.343198356865763 4 -5 0
616 1 2 -1.1794 4.909835228407365 4.340362313407279 16.754907297684547 1 4 2
129 1 1 0.5897 7.293513644347803 11.267273984381857 3.7477859285142134 1 0 -4
332 1 1 0.5897 8.501954383523126 9.70864504345592 2.8610159412914378 -4 -2 -3
127 1 2 -1.1794 7.376199571296427 11.277591466881681 2.7942131194230324 1 0 -4
216 1 1 0.5897 4.80062134101784 9.795289823633125 5.558426835106929 0 3 3
99 1 1 0.5897 5.480439182562172 7.29503308839911 5.46667348574254 5 -6 6
581 1 1 0.5897 8.44931942412266 8.00436013944751 0.9235393321695582 -6 -1 0
796 1 2 -1.1794 7.6751947195546935 10.591245938863375 5.531622206559266 2 -2 -3
128 1 1 0.5897 6.549922360629405 10.912462563968809 2.4777100009055957 1 0 -4
798 1 1 0.5897 7.365359321720658 11.45174464949875 5.814198307561187 2 -2 -3
615 1 1 0.5897 6.380620810105147 7.536145722980166 8.85591935178961 -8 3 4
613 1 2 -1.1794 7.323246733152826 7.396510100281515 8.946526520322234 -8 3 4
47 1 1 0.5897 8.618270543181596 7.740378021779555 7.447504542490428 2 -2 0
225 1 1 0.5897 7.48320860711497 10.885090525292506 9.652883334658194 -1 0 -7
215 1 1 0.5897 5.289722475689733 9.470631802174655 6.95386975302705 0 3 3
223 1 2 -1.1794 6.889189668966281 10.610923321400787 10.351597502838295 -1 0 -7
214 1 2 -1.1794 5.361207011442186 9.188507780113266 6.041981579214262 0 3 3
614 1 1 0.5897 7.499459298763818 7.5439279190458235 9.875744786486829 -8 3 3
224 1 1 0.5897 6.092257747478489 10.339282714274383 9.89625329413059 -1 0 -7
295 1 2 -1.1794 5.000385859245445 10.566993185740609 8.44141707182404 -3 3 1
297 1 1 0.5897 5.110125766115792 11.502451678158703 8.270825943675291 -3 3 1
797 1 1 0.5897 7.038731626091025 9.97567639105339 5.895261096758466 2 -2 -3
812 1 1 0.5897 6.6824779566646155 10.2579066245815 15.708020307394355 -9 7 -4
55 1 2 -1.1794 7.128805528771971 7.228297082705512 14.885635378344531 -5 2 0
57 1 1 0.5897 6.790069206428255 8.122401982079687 14.840180108161581 -5 2 0
811 1 2 -1.1794 6.692804751933619 10.162756305472163 14.755601626967708 -9 7 -4
636 1 1 0.5897 8.218923612355535 7.786503496699186 11.835605433747832 -6 0 3
702 1 1 0.5897 8.50479083371845 9.912101811047483 13.567549741587358 3 -2 2
813 1 1 0.5897 5.985494421171991 10.730750921216094 14.450004754143109 -9 7 -4
180 1 1 0.5897 5.60390467670553 7.2302502912466675 12.0716339569522 -5 0 -3
56 1 1 0.5897 8.078660643130966 7.333944134208436 14.938923548001936 -5 2 0
634 1 2 -1.1794 7.339303588497777 7.9164538440384264 11.481194269702428 -6 0 3
635 1 1 0.5897 7.349047476174855 8.809275110692123 11.136220914840328 -6 0 3
425 1 1 0.5897 6.341614595817931 11.761822023772517 11.804440915496588 4 -5 2
381 1 1 0.5897 5.49339941616937 7.873955142446766 19.43507776695941 7 3 3
478 1 2 -1.1794 7.023400902599181 7.499498691706788 17.65911829998894 -3 4 0
254 1 1 0.5897 7.301106689836741 10.451214729008491 19.10605191710087 4 4 -4
479 1 1 0.5897 7.978887397744691 7.480143525257965 17.713207145815517 -3 4 0
380 1 1 0.5897 6.229011572780125 8.121051296594683 20.734973270259168 7 3 3
379 1 2 -1.1794 5.3523827113927105 8.115048436352506 20.350625188910456 7 3 3
583 1 2 -1.1794 6.287107766534575 10.191871004125815 17.388609314775344 3 -5 -1
584 1 1 0.5897 6.410454658273332 9.26527550986027 17.594612827998276 3 -5 -1
818 1 1 0.5897 5.751186468084584 11.213196870244504 20.55945582736947 3 -3 1
255 1 1 0.5897 8.272980071513167 10.533156066171273 20.26390731693511 4 4 -4
253 1 2 -1.1794 7.36736323545439 10.725396793600757 20.02074306955629 4 4 -4
585 1 1 0.5897 5.3374581251609525 10.31159362733763 17.380624523389173 3 -5 -1
480 1 1 0.5897 6.820116500250729 7.046425706855604 16.840807733692458 -3 4 0
817 1 2 -1.1794 4.960270883914165 11.557396428361722 20.974479502343165 3 -3 1
580 1 2 -1.1794 7.964120082257939 7.427089372982364 21.45962647255002 -6 -1 -1
711 1 1 0.5897 6.777654563282397 16.080910561056356 2.3016944406337156 -8 -3 -4
709 1 2 -1.1794 6.870671336396654 15.241251339132937 2.751750650805735 -8 -3 -4
710 1 1 0.5897 7.514865204954714 15.407862857308746 3.4398667661898092 -8 -3 -4
632 1 1 0.5897 8.127978163495335 16.290548549744706 5.150103747381242 2 6 4
631 1 2 -1.1794 8.466934231012523 15.436629091844816 4.881476708860829 2 6 4
528 1 1 0.5897 5.8910738097325615 14.99217876134215 4.389799791060382 -2 -5 -2
167 1 1 0.5897 5.580030879454158 14.613860631490594 1.551163848745441 -1 1 3
526 1 2 -1.1794 5.247478551103249 15.207830425784774 5.064711701133019 -2 -5 -2
356 1 1 0.5897 9.002181451850056 12.157987523414745 2.8641133422016485 0 0 3
527 1 1 0.5897 4.852907703198279 16.02750423334892 4.766904473444667 -2 -5 -2
166 1 2 -1.1794 4.907284000656774 14.258719234011927 0.9701953709041949 -1 1 3
168 1 1 0.5897 5.235393840889293 13.394033070783417 0.723425831053973 -1 1 3
435 1 1 0.5897 6.052656271122434 13.335881703263508 7.528479573426456 1 2 -1
439 1 2 -1.1794 8.772446261586202 11.841113477315838 8.709914826217894 3 1 1
375 1 1 0.5897 8.261540703623261 13.739502991185272 5.94630909140613 4 7 -2
374 1 1 0.5897 8.17978863454341 13.089350999039844 7.311043943635959 4 7 -2
434 1 1 0.5897 5.7657764304156585 13.719457984862961 8.96464380077651 1 2 -1
169 1 2 -1.1794 8.289669405165995 16.341414393447387 9.975187656904012 -4 4 -3
373 1 2 -1.1794 7.703685645639785 13.178859274504322 6.485486628725174 4 7 -2
801 1 1 0.5897 6.805191031952427 15.349619552254952 10.214030885114662 -1 -2 1
433 1 2 -1.1794 5.370960316581374 13.301098311689838 8.199556342036999 1 2 -1
170 1 1 0.5897 8.907118281475004 15.610146534638066 9.990573366378811 -4 4 -3
799 1 2 -1.1794 6.198674318678311 14.645149994249339 10.442259708199899 -1 -2 1
800 1 1 0.5897 5.43033436490609 15.094599582150453 10.794226167775674 -1 -2 1
389 1 1 0.5897 8.033690423818104 12.753155838961154 13.09285002744141 3 6 4
282 1 1 0.5897 5.477139066762297 15.225907075382858 13.621720310181175 -5 -1 3
855 1 1 0.5897 4.93386308948266 12.421866290200727 15.16481730701606 -3 0 1
426 1 1 0.5897 6.436440010774155 13.272295212322408 11.841368338312657 4 -6 2
281 1 1 0.5897 6.123063647650926 14.895599097976758 14.950466693460731 -5 -1 3
280 1 2 -1.1794 6.0932112041859625 15.56780355779545 14.269656858274193 -5 -1 3
424 1 2 -1.1794 6.494507486270673 12.49635781789397 12.398841191750252 4 -5 2
400 1 2 -1.1794 6.014615502350165 13.593984167258059 16.219358937618438 -4 -2 -1
423 1 1 0.5897 8.867854217313429 13.19521231531163 15.304845530812715 -5 1 5
388 1 2 -1.1794 8.915952762383478 12.918612263578007 13.425342114412928 3 6 5
401 1 1 0.5897 6.815467984440443 13.081852463363752 16.33154659018833 -4 -2 -1
421 1 2 -1.1794 8.551380105850205 12.81566373275106 16.124615648517533 -5 1 5
854 1 1 0.5897 4.971643588139625 12.238630483080318 13.662525750543546 -3 0 1
176 1 1 0.5897 4.9873596591306875 16.379703649882366 15.519343057505015 -2 -3 9
422 1 1 0.5897 8.88413894715556 11.91819423945515 16.11777570756905 -5 1 5
279 1 1 0.5897 9.078218488667822 14.804008904717103 13.28372044612856 0 1 0
816 1 1 0.5897 7.681260852153046 12.900494157683342 20.4350701552088 0 9 -5
204 1 1 0.5897 8.696642228925171 16.353564068644012 20.824522345274346 -7 3 1
268 1 2 -1.1794 8.015312522424658 16.194095296774208 17.789876222647123 1 3 4
814 1 2 -1.1794 7.734141667263532 13.806707492969448 20.13141198581576 0 9 -5
270 1 1 0.5897 7.5117076666641305 15.397462889454015 17.957162616486315 1 3 4
624 1 1 0.5897 6.105578482254624 14.136466684607324 19.40255868036939 5 -2 1
269 1 1 0.5897 8.675534590122137 15.930482303029459 17.148907367561762 1 3 4
402 1 1 0.5897 5.645001529992197 13.657456720828005 17.10003142297375 -4 -2 -1
622 1 2 -1.1794 5.386354493435957 14.452768381626186 18.85583653730412 5 -2 1
623 1 1 0.5897 5.411757608602186 15.404691441039091 18.952975431853446 5 -2 1
815 1 1 0.5897 8.42076775110613 14.20049573468731 20.66972576373111 0 9 -5
203 1 1 0.5897 7.972001982557705 16.899990585404566 19.612826866556425 -7 3 1
351 1 1 0.5897 5.287036457357191 19.202557847500074 1.2174033300179108 -11 -1 -4
445 1 2 -1.1794 7.307201969063595 20.549187811112546 4.665037380667453 2 -2 1
446 1 1 0.5897 7.591322828151756 20.67138149819656 3.759165105112239 2 -2 1
603 1 1 0.5897 7.416651474679958 18.069940595171225 2.149047477201081 5 0 0
602 1 1 0.5897 6.924748633274945 17.502089016451222 0.8347202457594459 5 0 -1
601 1 2 -1.1794 6.63097222944321 17.737898429773658 1.71467238688792 5 0 0
447 1 1 0.5897 6.457757494665825 20.98799867141161 4.7113993797439475 3 -2 1
857 1 1 0.5897 8.794093933499775 21.504431579538952 2.4732276076550566 -1 -1 -1
536 1 1 0.5897 7.123005011839722 18.66797847107039 5.522442759877026 6 5 7
856 1 2 -1.1794 8.039405345854798 21.074622730827933 2.0707969334403185 -1 -1 -1