LAMMPS (30 Jul 2021)
Processor partition = 1
  using 2 OpenMP thread(s) per MPI task
using multi-threaded neighbor list subroutines
variable        pid world 0 1
variable        phase world IceIII Liquid

shell cd ${phase}
shell cd Liquid
include Restart.lmp
echo both
log log.lammps
#include		in.partitions
include		in.temp
variable        temperature equal 260.07
variable	tempDamp equal 100.0
include		in.pressure
variable        pressure equal 8625.0
variable        pressureDamp equal 1000.0 # This is 1 ps
include		in.seed
variable        seed equal 745823

units		real
atom_style	full
read_restart	restart.lmp.${pid}
read_restart	restart.lmp.1
Reading restart file ...
  restart file = 30 Jul 2021, LAMMPS = 30 Jul 2021
  restoring atom style full from restart
  orthogonal box = (0.64185103 1.8475470 0.78305676) to (17.565721 21.781631 21.430139)
  2 by 4 by 4 MPI processor grid
  restoring pair style lj/cut/tip4p/long/omp from restart
  restoring bond style harmonic/omp from restart
  restoring angle style harmonic/omp from restart
  864 atoms
  576 bonds
  288 angles
Finding 1-2 1-3 1-4 neighbors ...
  special bond factors lj:    0        0        0       
  special bond factors coul:  0        0        0       
     2 = max # of 1-2 neighbors
     1 = max # of 1-3 neighbors
     1 = max # of 1-4 neighbors
     2 = max # of special neighbors
  special bonds CPU = 0.003 seconds
  read_restart CPU = 0.009 seconds
include 	in.setup
variable	out_freq equal 1000
variable	out_freq2 equal 10000
variable	out_freq3 equal 1000

timestep	2.0

neigh_modify    delay 7 every 1

include		in.tip4p
# This is TIP4P/Ice

# create groups ###
group ox type 2
288 atoms in group ox
group hy type 1
576 atoms in group hy

# set charges - beside manually ###
set group ox charge -1.1794
Setting atom values ...
  288 settings made for charge
set group hy charge 0.5897
Setting atom values ...
  576 settings made for charge

# ### TIP3P Potential Parameters ###
pair_style lj/cut/tip4p/long/omp 2 1 1 1 0.1577 8.5
pair_coeff 1 1*2 0.000 0.000
pair_coeff 2 2 0.21084 3.1668
bond_style  harmonic
bond_coeff  1 450 0.9572
angle_style harmonic
angle_coeff 1 55 104.52
kspace_style pppm/tip4p/omp 1.0e-5
pair_modify tail yes

thermo          ${out_freq}
thermo          1000
thermo_style    custom step temp pe etotal epair emol press lx ly lz vol pxx pyy pzz pxy pxz pyz enthalpy

restart 	${out_freq3} restart.lmp.${pid} restart2.lmp.${pid}
restart 	1000 restart.lmp.${pid} restart2.lmp.${pid}
restart 	1000 restart.lmp.1 restart2.lmp.${pid}
restart 	1000 restart.lmp.1 restart2.lmp.1


include         in.dump
dump            myDump all atom ${out_freq2} dump.water.${pid}
dump            myDump all atom 10000 dump.water.${pid}
dump            myDump all atom 10000 dump.water.1
dump            myDump2 all dcd ${out_freq2} dump.dcd
dump            myDump2 all dcd 10000 dump.dcd
dump_modify     myDump append yes
dump_modify     myDump2 append yes


variable natoms 	equal  "count(all)"                        # NUMBER ATOMS
variable H      	equal  "enthalpy/v_natoms"                 # ENTHALPY-per-atom
variable Vol      	equal  "vol/v_natoms"                 # volume-per-atom
fix AVG all 		ave/time ${out_freq} 1 ${out_freq} v_Vol v_H file vol_enthalpy.dat
fix AVG all 		ave/time 1000 1 ${out_freq} v_Vol v_H file vol_enthalpy.dat
fix AVG all 		ave/time 1000 1 1000 v_Vol v_H file vol_enthalpy.dat


timer           timeout 23:50:00 every 1000
New timer settings: style=normal  mode=nosync  timeout=23:50:00

fix 		1 all shake 1e-6 200 0 b 1 a 1
Finding SHAKE clusters ...
       0 = # of size 2 clusters
       0 = # of size 3 clusters
       0 = # of size 4 clusters
     288 = # of frozen angles
  find clusters CPU = 0.000 seconds
fix             2 all nph iso ${pressure} ${pressure} ${pressureDamp}
fix             2 all nph iso 8625 ${pressure} ${pressureDamp}
fix             2 all nph iso 8625 8625 ${pressureDamp}
fix             2 all nph iso 8625 8625 1000
fix             3 all temp/csvr ${temperature} ${temperature} ${tempDamp} ${seed}
fix             3 all temp/csvr 260.07 ${temperature} ${tempDamp} ${seed}
fix             3 all temp/csvr 260.07 260.07 ${tempDamp} ${seed}
fix             3 all temp/csvr 260.07 260.07 100 ${seed}
fix             3 all temp/csvr 260.07 260.07 100 745823

run             250000
PPPM initialization ...
  extracting TIP4P info from pair style
  using 12-bit tables for long-range coulomb (../kspace.cpp:340)
  G vector (1/distance) = 0.37451016
  grid = 24 24 24
  stencil order = 5
  estimated absolute RMS force accuracy = 0.0031327581
  estimated relative force accuracy = 9.4342081e-06
  using double precision FFTW3
  3d grid and FFT values/proc = 3549 432
Last active /omp style is kspace_style pppm/tip4p/omp
Neighbor list info ...
  update every 1 steps, delay 7 steps, check yes
  max neighbors/atom: 2000, page size: 100000
  master list distance cutoff = 10.8154
  ghost atom cutoff = 10.8154
  binsize = 5.4077, bins = 4 4 4
  1 neighbor lists, perpetual/occasional/extra = 1 0 0
  (1) pair lj/cut/tip4p/long/omp, perpetual
      attributes: half, newton on, omp
      pair build: half/bin/newton/omp
      stencil: half/bin/3d
      bin: standard
Setting up Verlet run ...
  Unit style    : real
  Current step  : 26500000
  Time step     : 2
  Walltime left : 23:49:59.93
Per MPI rank memory allocation (min/avg/max) = 10.20 | 10.20 | 10.20 Mbytes
Step Temp PotEng TotEng E_pair E_mol Press Lx Ly Lz Volume Pxx Pyy Pzz Pxy Pxz Pyz Enthalpy 
26500000    262.62826   -3833.6377   -3383.5018   -3833.6377            0      9512.43     16.92387    19.934084    20.647082    6965.5379    7801.9799    10327.554    10407.756   -553.50099    188.55171    115.44968   -2417.1795 
26501000    266.45465   -3874.4776   -3417.7835   -3874.4776            0    10051.649    16.905549    19.912504    20.624731    6942.9404    10441.009    9860.9755    9852.9627    1111.0298   -3090.1695     1684.401   -2399.9971 
26502000    258.56195   -3869.3807   -3426.2144   -3869.3807            0    8689.6268    16.913703    19.922108    20.634678     6952.991    9137.7421    7903.0545    9028.0838     991.1556    423.27941   -2929.6777   -2545.0667 
26503000    260.71583   -3870.2782   -3423.4202   -3870.2782            0    8029.4863    16.935997    19.948367    20.661876    6980.5215    9433.7756    5161.5911    9493.0922   -233.77184    1717.0748   -465.89058   -2605.9884 
26504000    250.37554   -3906.0147   -3476.8796   -3906.0147            0     7412.285    17.009283    20.034688    20.751285    7071.5332    6911.5167    7377.7182      7947.62    224.58396    271.13428    50.320989   -2712.4428 
26505000    259.34883   -3858.4668   -3413.9518   -3858.4668            0    10232.727    16.973266    19.992266    20.707345    7026.7071    11894.164    8676.5512    10127.466    470.71237     973.2796   -85.588129   -2365.3294 
26506000    264.01094    -3867.294   -3414.7883    -3867.294            0    8615.8071    16.936501    19.948961    20.662492     6981.145    9778.8099    7816.3598    8252.2516   -1457.3104   -166.52162    61.201316   -2537.5885 
26507000    265.26919   -3876.9378   -3422.2755   -3876.9378            0    9366.4441    16.916275    19.925138    20.637816    6956.1639    9420.5773    9646.1512    9032.6039   -290.72295    27.754663   -1631.4944   -2472.0636 
26508000    260.67575   -3855.3806   -3408.5913   -3855.3806            0    8684.2289     16.96572    19.983377    20.698138    7017.3388    8226.2552    7147.9163    10678.515   -47.572364   -295.98116   -687.02013   -2519.8413 
26509000    274.01601   -3858.2279   -3388.5738   -3858.2279            0    7436.7284    17.054617    20.088086    20.806592    7128.2262    7198.3422    6564.5314    8547.3118    490.62926   -1053.7419   -607.71067   -2615.4674 
26510000    267.61412   -3898.3114   -3439.6299   -3898.3114            0    8451.3299    16.988454    20.010155    20.725874    7045.5866    8522.2314    7687.5999    9144.1585    349.43403   -345.82497    -2.723704   -2571.2333 
26511000    255.44056   -3870.4017   -3432.5853   -3870.4017            0    8505.4881    16.999812    20.023533     20.73973    7059.7271    7501.7583    8681.6719    9333.0341    419.37334   -262.90961    374.68583   -2556.8698 
26512000    269.20659   -3835.0953   -3373.6844   -3835.0953            0    9339.6792    16.924073    19.934322    20.647329    6965.7876     9603.067    9144.5487    9271.4218    1907.3789    1138.2805    -473.3676    -2424.877 
26513000    268.73427   -3865.8239   -3405.2226   -3865.8239            0    10570.607    16.916374    19.925254    20.637936    6956.2854    10027.249    11421.913    10262.661   -665.19246     772.2467   -2313.1688   -2332.8314 
26514000    251.51426   -3872.8357   -3441.7489   -3872.8357            0    10164.859    16.930189    19.941526     20.65479    6973.3421    8676.5317    12518.729    9299.3166   -2029.0756    992.12373   -495.33859   -2407.9924 
26515000    254.79587   -3858.4324    -3421.721   -3858.4324            0    10504.707    16.965252    19.982826    20.697568    7016.7591    9875.4269     10058.45    11580.245   -539.91002   -28.541623   -225.22005   -2346.7508 
26516000    266.85224   -3877.5579   -3420.1823   -3877.5579            0    8244.5298    16.978681    19.998644    20.713951    7033.4344    8543.0189    8829.3659    7361.2047    2127.2597    43.981596    939.53379   -2574.4961 
26517000    268.75434   -3878.4247    -3417.789   -3878.4247            0    7025.3206     16.99083    20.012953    20.728773    7048.5431    5785.1702    7127.0235    8163.7681   -695.57683    1023.3259   -109.60827   -2695.6157 
26518000    248.58831    -3872.911   -3446.8392    -3872.911            0     7433.705    16.948893    19.963558     20.67761    6996.4806    7907.5293    7364.9803    7028.6053   -440.65631   -587.28869   -82.916879     -2688.33 
26519000    267.18729   -3874.2252   -3416.2753   -3874.2252            0    10882.419     16.90492    19.911763    20.623963    6942.1659    9843.1062    11070.022    11734.128    -439.7265    1308.5422    2139.1091   -2314.4917 
26520000    247.28651   -3895.0648   -3471.2242   -3895.0648            0    7528.1672    17.011116    20.036848    20.753522    7073.8204    8844.5674    7500.2119    6239.7223   -1283.4343   -376.48812   -754.69474   -2694.5852 
26521000      252.999   -3886.4384   -3452.8068   -3886.4384            0    6505.4197    17.009121    20.034498    20.751088    7071.3321    6385.4491    6220.3966    6910.4135    17.428843   -1200.1341   -71.852166   -2781.9151 
26522000    268.39001   -3861.8754   -3401.8641   -3861.8754            0    7162.3349    16.950374    19.965302    20.679417    6998.3146     7658.019    6543.1773    7285.8085   -1213.7699   -1550.5453    313.65329    -2670.853 
26523000    257.34558   -3872.0331   -3430.9516   -3872.0331            0    10652.475    16.876752    19.878584    20.589598    6907.5203    11518.044    12095.678    8343.7019    589.18182   -2214.1999   -63.526702   -2357.8309 
26524000    273.45615   -3848.0323   -3379.3379   -3848.0323            0    11187.402    16.899209    19.905036    20.616995    6935.1318    10543.473     11699.67    11319.062    201.34863    718.86789    214.02926   -2247.8241 
26525000     256.1961   -3895.8729   -3456.7616   -3895.8729            0    7991.7922    16.925264    19.935726    20.648783    6967.2593    8085.0966     7402.633    8487.6471   -1477.2783    36.193208    -1080.561    -2644.713 
26526000    262.64335   -3860.8517     -3410.69   -3860.8517            0    9428.9402    16.940587    19.953774    20.667476    6986.1988    8521.8299    9726.5432    10038.447   -267.43646    1353.5363    684.17407   -2450.0079 
26527000    264.39561   -3880.8324   -3427.6673   -3880.8324            0    8637.6967    16.896765    19.902158    20.614014    6932.1238    8436.0914    9395.5222    8081.4766    481.28133   -926.99139     362.8826   -2554.4142 
26528000    249.25288   -3866.3551   -3439.1442   -3866.3551            0    9293.9809    16.897493    19.903015    20.614902    6933.0196    8460.9481     10283.25    9137.7441   -1422.5978   -1054.1439   -1431.3484   -2499.4207 
26529000    253.11773   -3907.3547   -3473.5196   -3907.3547            0    5937.8993    16.969543    19.987881    20.702803    7022.0847    6448.1366    5131.8029    6233.7585    1469.2483   -599.57879    721.23396   -2865.4199 
26530000    264.91251   -3846.3403   -3392.2894   -3846.3403            0    8217.7126    17.000348    20.024164    20.740385    7060.3952    9554.4935    7294.4053     7804.239   -655.85668     -110.132    242.16689   -2546.1228 
26531000    268.76832   -3862.4616   -3401.8019   -3862.4616            0    10933.862    16.960987    19.977802    20.692364    7011.4679    10963.863    10214.253    11623.468   -1066.8351   -527.83622    837.43019   -2283.7592 
26532000     259.0923   -3872.8927   -3428.8174   -3872.8927            0    7721.2605    17.004425    20.028967    20.745359    7065.4768    7685.4173    7008.1917    8470.1725    246.59225   -61.076776   -548.35459   -2633.1976 
26533000    268.42098   -3900.4245   -3440.3601   -3900.4245            0    8474.5278    16.961184    19.978034    20.692604    7011.7119    8157.5462    7853.5109    9412.5264    -84.14819   -775.51012   -2164.0546   -2573.7665 
26534000    256.27881   -3896.4988   -3457.2457   -3896.4988            0     8567.412    16.938217    19.950982    20.664585    6983.2675    9295.3675    8999.5196    7407.3489   -397.59657    1105.2959   -2699.1361    -2584.708 
26535000    256.40729   -3889.2958   -3449.8225   -3889.2958            0    8459.4491     16.94273    19.956298    20.670091    6988.8502    8324.8108    8590.0813    8463.4553   -92.754174   -738.75867   -1399.6315   -2587.5913 
26536000    259.73296   -3872.5999   -3427.4265   -3872.5999            0    10149.405    16.911714    19.919765    20.632252    6950.5386    10890.614    11292.365    8265.2369    -1278.935    422.49367    2237.4013   -2398.6171 
26537000    260.46824   -3842.1489   -3395.7153   -3842.1489            0    9723.5875    16.964024     19.98138     20.69607    7015.2355    8914.9446    10757.759    9498.0586    2109.9855    27.119231   -398.94129   -2400.8949 
26538000    258.76816   -3851.8076   -3408.2878   -3851.8076            0    9328.7597    16.915918    19.924718    20.637381     6955.724    8263.8245    8684.9558    11037.499    528.20043    -833.3456     898.7738   -2461.9589 
26539000    261.89846   -3865.1579   -3416.2729   -3865.1579            0    7926.7297    16.954481     19.97014    20.684428    7003.4031    7127.9046    8373.2605     8279.024   -235.85034   -269.71713    156.80169    -2606.657 
26540000    257.73608   -3869.9769    -3428.226   -3869.9769            0    7165.8187     16.99256    20.014991    20.730883    7050.6964    6227.7048    8419.4467    6850.3047    524.85419   -1818.2096   -1656.0748   -2691.3851 
26541000    251.88821   -3850.4982   -3418.7704   -3850.4982            0    8859.1411    16.908306    19.915751    20.628093     6946.337    8100.3571    8327.9586    10149.108    945.89803    130.90608   -1445.6113   -2521.2933 
26542000     263.8187    -3881.022   -3428.8458    -3881.022            0    8724.6014    16.914147    19.922631     20.63522    6953.5388    9251.9033    7312.7343    9609.1666   -1401.2795   -569.54226    556.07313   -2544.0819 
26543000    256.88334   -3862.9823    -3422.693   -3862.9823            0     7527.067    17.034202     20.06404    20.781687     7102.659    8089.0986     7204.738    7287.3643   -36.743441    157.97253    1570.8916   -2643.0018 
26544000    250.38227   -3848.7896   -3419.6429   -3848.7896            0     10424.68    16.945124    19.959118    20.673012    6991.8136    12097.353     11327.65     7849.038    1077.8087    4.0509596    60.726622   -2356.6547 
26545000     247.5741   -3888.2308   -3463.8973   -3888.2308            0     8431.612    16.982656    20.003325    20.718801    7038.3753    7961.8426    9358.6986    7974.2947   -134.74126    120.60979    671.49565   -2598.4135 
26546000    269.56145   -3872.0565   -3410.0374   -3872.0565            0    7462.0426     16.93475    19.946899    20.660356    6978.9804    8601.2521    5882.5481    7902.3277    18.748636    -1571.421     273.2152   -2650.5412 
26547000     254.2452   -3869.5354   -3433.7679   -3869.5354            0    10311.655    16.988209    20.009866    20.725575     7045.282    11492.811    8317.8996    11124.255    372.71228   -643.48725    792.58896   -2374.2637 
26548000     258.2824   -3843.2315   -3400.5443   -3843.2315            0    8164.8837    16.976617    19.996213    20.711433    7030.8699    8988.6923    7551.2041    7954.7548    1137.2935   -327.13472   -367.24284   -2563.3332 
26549000    262.63603   -3858.9857   -3408.8366   -3858.9857            0    7900.0395    16.974515    19.993737    20.708869    7028.2585     10093.02    6694.8228    6912.2758   -904.01264   -511.33773   -1163.9658    -2599.083 
26550000    268.19843   -3878.1365   -3418.4536   -3878.1365            0    8982.8631    16.911197    19.919157    20.631621    6949.9018    9227.4411    7883.5529    9837.5951   -853.50134    1306.6015   -848.53531   -2507.9759 
26551000    263.73801   -3859.3425   -3407.3046   -3859.3425            0    6128.6466    16.997206    20.020463    20.736551    7056.4811    5582.7547    6659.4315    6143.7537   -761.82221   -452.80944   -311.89171   -2776.5962 
26552000     258.0191   -3887.8419    -3445.606   -3887.8419            0    6558.1511    17.015419    20.041916    20.758772    7079.1898    5491.2738    6947.9462    7235.2334   -494.71734    -780.4554   -472.89271   -2768.5246 
26553000    260.63423    -3887.077   -3440.3588    -3887.077            0    9639.0703    16.931945    19.943594    20.656933    6975.5122      10617.9    9043.6612      9255.65    211.57725   -156.83635   -323.92756   -2459.7696 
26554000    271.62513   -3879.4442    -3413.888   -3879.4442            0    5851.4764     17.05719    20.091116    20.809732     7131.453    7660.6928    4903.4553    4990.2811    121.92598   -575.12827    841.87824   -2805.3056 
26555000    255.15455   -3884.5212    -3447.195   -3884.5212            0    7928.0064    16.960873    19.977668    20.692225    7011.3262    7702.1389     9430.111    6651.7692    119.14348    637.91171   -2664.2465   -2636.5326 
26556000    265.82895   -3858.4963   -3402.8745   -3858.4963            0    7151.2617    17.023414    20.051333    20.768525     7089.173    6195.9827    8412.2844     6845.518    -1188.835   -1309.7994    370.17158   -2663.5176 
26557000    273.52674   -3887.7136   -3418.8981   -3887.7136            0    10046.449    16.967889    19.985932    20.700785    7020.0314    10194.486    9896.6392    10048.223   -641.30947    1026.1913    -439.1039    -2390.343 
26558000    262.52867   -3885.7473   -3435.7821   -3885.7473            0    7771.2451    17.014832    20.041225    20.758056    7078.4571    7669.2192    8630.5538    7013.9625   -277.89369   -2360.1977   -292.04809   -2633.5407 
26559000    256.75447   -3874.0545   -3433.9861   -3874.0545            0    9233.1248    16.967236    19.985162    20.699988    7019.2202    8194.8879    10037.452     9467.035    194.65073   -1370.8447   -1305.9817   -2488.8084 
26560000    255.72185   -3899.8644   -3461.5659   -3899.8644            0    7128.3038     16.96396    19.981305    20.695992     7015.156    6482.9159    7365.6483    7536.3472     317.9064   -1538.9859   -586.22341   -2732.2773 
26561000    267.03246   -3899.6278   -3441.9433   -3899.6278            0    8581.4815    16.954277    19.969898    20.684178    7003.1492    6883.3505     9960.655    8900.4391   -992.30227   -363.43669   -1549.9831   -2565.4844 
26562000    257.86723   -3856.9564   -3414.9808   -3856.9564            0    8611.8332    17.023653    20.051614    20.768817    7089.4712    7815.9468    9727.2439    8292.3087    1197.8503    181.74381   -901.75734   -2524.5804 
26563000     274.9286   -3847.4696   -3376.2514   -3847.4696            0    8312.0715    16.967041    19.984934    20.699751    7018.9792     8523.616    8300.9299    8111.6687    -119.8336   -927.23819   -1340.0058   -2525.3894 
26564000    262.24294   -3873.1828   -3423.7074   -3873.1828            0    6491.9458    17.046177    20.078145    20.796296    7117.6488    6700.1921    5944.6227    6831.0227    -1667.089    1907.9854    1142.7043     -2749.82 
26565000    247.33822   -3875.5525   -3451.6232   -3875.5525            0    7535.9771    16.955155    19.970933     20.68525    7004.2383    9008.5819    6685.9954    6913.3542    -602.4569    548.85565   -706.11271    -2681.826 
26566000    267.37091   -3859.3153   -3401.0508   -3859.3153            0    6113.2765    17.016513    20.043205    20.760106     7080.555    6097.7955    5101.5713    7140.4628    785.52628   -872.30459   -564.28462   -2769.7777 
26567000    254.45735   -3914.8753   -3478.7442   -3914.8753            0    7465.8716    16.943161    19.956805    20.670617    6989.3838    9677.5677    4899.7912     7820.256   -274.66329   -362.37896    99.082919   -2717.7255 
26568000    253.84117   -3877.4248   -3442.3497   -3877.4248            0    8575.9219    16.932988    19.944823    20.658206    6976.8018    7316.4789    9572.2125    8839.0742    397.28516   -10.045699   -666.97218    -2569.754 
26569000    253.51948   -3897.4321   -3462.9084   -3897.4321            0    10304.384      16.8995    19.905379    20.617351    6935.4903    11251.525    9740.7634    9920.8639   -470.71001    397.25006   -391.49997   -2420.6507 
26570000    257.96198   -3877.5336   -3435.3956   -3877.5336            0    8456.7493    17.011261    20.037018    20.753699    7074.0008    10077.497    8690.4023    6602.3483   -22.650167    584.79669    361.42811   -2562.9378 
26571000    261.89925    -3879.944   -3431.0577    -3879.944            0    5918.4108    16.992676    20.015127    20.731025    7050.8407    6530.4811    4111.4286    7113.3227    828.38083    434.51367   -390.48447   -2822.4718 
26572000    267.26154   -3812.7844   -3354.7073   -3812.7844            0     7280.887    17.003163    20.027481     20.74382    7063.9039    6224.3065    7474.6326    8143.7218    642.85537      298.932    431.27067   -2604.6318 
26573000    265.06201   -3885.1346   -3430.8274   -3885.1346            0    7285.1697    16.932761    19.944555    20.657928    6976.5207    9178.2367    4872.7511    7804.5214   -882.58012    16.069179    664.89402   -2689.5949 
26574000    267.12438   -3890.9176   -3433.0756   -3890.9176            0    7251.0859    16.929226    19.940392    20.653616    6972.1524     8527.709    5202.3688      8023.18    1375.9995   -278.94284    520.31854   -2695.7729 
26575000    256.19212   -3854.0947   -3414.9902   -3854.0947            0    7518.3982    16.987868    20.009465    20.725159    7044.8576     8618.472    7174.7077     6762.015   -1008.9904    795.62361   -77.754526   -2642.5348 
26576000    259.44646   -3877.8501   -3433.1678   -3877.8501            0    9551.0611    16.959438    19.975978    20.690475    7009.5477    10107.247    8019.7387    10526.197   -482.66201   -1087.2101    2.4902907   -2456.7909 
26577000    266.49743   -3891.8748   -3435.1073   -3891.8748            0    8313.7854    16.920752    19.930411    20.643278    6961.6883    9005.1165    6736.1511    9200.0885   -819.63058    -832.5545    1011.2502   -2591.0163 
26578000    277.59715   -3862.6716   -3386.8795   -3862.6716            0    9912.4329    16.890537    19.894822    20.606416    6924.4612     10466.76    10417.012    8853.5265   -611.71372    1582.5093    188.02269    -2385.861 
26579000    255.73031   -3888.7099   -3450.3969   -3888.7099            0    9737.3668    16.924323    19.934617    20.647635    6966.0973    8388.6581    11736.887    9086.5548   -594.91432   -454.20347   -574.46292   -2461.1448 
26580000    278.49033   -3868.5477   -3391.2248   -3868.5477            0    5817.1101    17.026806    20.055329    20.772664    7093.4119    4925.6243    7047.2877    5478.4184    -748.8194   -978.81018   -578.72022    -2789.444 
26581000    262.31563   -3886.5124   -3436.9124   -3886.5124            0    8342.2554    16.925052    19.935475    20.648523    6966.9965    8058.2658    7575.7888    9392.7116    1491.3128    547.08508    1166.6132   -2589.2851 
26582000    254.57904   -3898.0951   -3461.7553   -3898.0951            0    9692.5489    16.905577    19.912537    20.624765    6942.9748    10076.312     8808.974     10192.36   -393.31799    234.37217   -1039.7667    -2480.325 
26583000    255.08326    -3890.635    -3453.431    -3890.635            0    10875.003    16.880301    19.882765    20.593928    6911.8799    9622.9389    12636.473    10365.596    209.30911   -729.35891   -171.49325   -2357.2016 
26584000    276.32414   -3912.1183   -3438.5082   -3912.1183            0    8706.9408    16.984275    20.005232    20.720776    7040.3883    9825.0733    8706.1884    7589.5607   -144.43106   -281.10792   -1164.8859    -2544.507 
26585000    259.50703   -3916.8689   -3472.0828   -3916.8689            0     8400.406    16.978081    19.997937    20.713219    7032.6889    7911.1527    8722.1613    8567.9039      647.308    1497.8404   -1595.0297   -2610.4989 
26586000    262.37133   -3917.2804   -3467.5849   -3917.2804            0    7377.0484    16.975206     19.99455    20.709712    7029.1167    7976.5327    6647.8055    7506.8071    1546.4687   -1259.2782   -207.92729   -2711.3456 
26587000    247.31682   -3915.4056   -3491.5131   -3915.4056            0    10485.046    16.945418    19.959464    20.673371     6992.178      8727.51    9601.3022    13126.325    434.75266   -331.14648    346.50737   -2422.3137 
26588000    266.41092   -3885.9055   -3429.2863   -3885.9055            0    8274.0491    16.976327    19.995871    20.711079    7030.5092    10421.726    6708.6082     7691.813    710.42773    -1878.807    784.32551   -2580.9251 
26589000    257.04601   -3937.7899   -3497.2218   -3937.7899            0    7066.8674    16.956875    19.972959    20.687348    7006.3702    8813.8339    5999.5892     6387.179    666.05772    65.455238    571.13521   -2775.1242 
26590000    263.83078   -3917.8818   -3465.6849   -3917.8818            0    8632.4984    16.958343    19.974688    20.689139    7008.1895     9885.325    8384.6373    7627.5327    1525.3035   -300.09999   -1197.9997   -2583.3809 
26591000    250.28639   -3926.3453    -3497.363   -3926.3453            0    7065.3111    17.017218    20.044035    20.760966     7081.435    8556.4449    6166.5125    6472.9758   -1168.3035   -815.13177    595.39248   -2767.6897 
26592000    254.81671    -3887.119   -3450.3719    -3887.119            0    7761.4853    17.084697    20.123516     20.84329    7166.0103    10073.232    6103.4168    7107.8068   -1794.1376    276.82887   -875.77403   -2639.2275 
26593000    260.70254   -3905.4123   -3458.5771   -3905.4123            0    7651.8678    17.029475    20.058472     20.77592    7096.7476    7539.1203    6854.9215    8561.5617    939.61543    1870.4462   -394.21067    -2666.618 
26594000    257.71812   -3894.8916   -3453.1715   -3894.8916            0    7526.3624    17.018026    20.044987    20.761952    7082.4443    8334.3937     7790.366    6454.3274   -1459.0863    1742.9285    1.9136473   -2675.7722 
26595000    253.15301   -3892.5324   -3458.6368   -3892.5324            0    9220.2648     16.93937     19.95234    20.665992    6984.6933    8839.8861    8794.8128    10026.095   -127.03743   -1748.9017    1188.5577   -2519.4184 
26596000     253.2257   -3866.4375   -3432.4173   -3866.4375            0    9551.3558    16.945455    19.959507    20.673415    6992.2228    11260.398    8080.8899      9312.78   -244.04033    698.35547   -617.53978   -2458.4236 
26597000    271.83769   -3907.4095    -3441.489   -3907.4095            0    8290.9012    16.989111    20.010929    20.726676    7046.4046    9483.6989    7706.4168    7682.5878    329.13757    1026.1022    210.26941    -2589.478 
26598000    256.62273   -3898.8793   -3459.0367   -3898.8793            0    9039.4436     16.94133    19.954649    20.668383    6987.1183    9566.0544    8148.0125    9404.2639   -371.09526    117.88781   -1530.1933   -2537.9178 
26599000     272.3216   -3904.6594   -3437.9095   -3904.6594            0    9664.6169    16.992112    20.014464    20.730337    7050.1391    6951.9538    11904.294    10137.603    1377.3629    -281.8726     262.5885   -2444.2028 
26600000     254.5155   -3913.6091   -3477.3782   -3913.6091            0    8754.6611       16.965    19.982529    20.697261    7016.4462    7556.3701    8733.5277    9974.0854    -712.5423    290.59864    -928.8079   -2581.5341 
26601000     261.1695   -3937.1237   -3489.4881   -3937.1237            0    8142.5552    17.018951    20.046076     20.76308    7083.5985    6136.3325    7104.3023    11187.031   -786.19183   -80.935886   -831.36842    -2648.305 
26602000     267.3472   -3875.7633   -3417.5393   -3875.7633            0    9052.3316    16.952181    19.967431    20.681622    7000.5533    10701.938     7327.166    9127.8904   -1074.0462    -519.8899    2021.4294   -2493.3335 
26603000      265.566   -3854.9046   -3399.7336   -3854.9046            0    10242.369    16.981465    20.001923    20.717348     7036.895    10784.534    8932.4711    11010.101    1288.0749    98.949868    2135.1622   -2348.6014 
26604000    253.13989   -3844.0047   -3410.1316   -3844.0047            0    6286.3917    16.946181    19.960363    20.674301    6993.1221    9308.3911    3782.9766    5767.8073    1104.7803    -1114.816    311.71914   -2768.9982 
26605000    261.42971   -3848.2729   -3400.1913   -3848.2729            0    7699.3765     16.95017    19.965062    20.679168    6998.0619    8369.2008    7101.4231    7627.5057    2491.0754   -2128.9881    412.13191   -2614.3964 
26606000    259.36249   -3904.8112   -3460.2728   -3904.8112            0    9509.2065    16.907115    19.914348    20.626641    6944.8697    9599.5503    11038.887    7889.1826    373.83432   -724.37714    -944.6866   -2497.1442 
26607000    256.66333   -3893.8812    -3453.969   -3893.8812            0    8790.7108    16.919212    19.928597    20.641399    6959.7875    7197.6119    9511.1213    9663.3992     450.2922    655.84968    1778.8318   -2561.6999 
26608000    254.71646   -3859.2272   -3422.6519   -3859.2272            0    7645.5049    16.960952    19.977761    20.692322    7011.4245    7511.9205    8167.6878    7256.9063    716.42972   -877.95016   -281.79555   -2640.8651 
26609000    269.30069   -3877.5364   -3415.9642   -3877.5364            0    9235.5002    16.878842    19.881046    20.592148    6910.0872    8078.8205    9372.9242    10254.756   -610.93236   -220.80342   -965.19601   -2485.2425 
26610000      261.835   -3877.7752    -3428.999   -3877.7752            0    9708.3505    16.934501    19.946605    20.660052    6978.6722    11182.642    9329.2987    8613.1112   -134.21821    639.97594   -2385.8506   -2440.9144 
26611000    261.02908   -3856.0929    -3408.698   -3856.0929            0    9541.6814     16.90568    19.912658    20.624891     6943.102     9453.306    10373.602    8798.1358    33.621207   -1176.9311    438.10637   -2442.5262 
26612000    264.57361   -3867.8154   -3414.3453   -3867.8154            0    8567.0478    16.977533    19.997291    20.712551    7032.0079    9124.9792    8488.7794    8087.3849   -388.39482     773.2396   -414.43881   -2535.7549 
26613000    267.04536   -3881.2786   -3423.5719   -3881.2786            0    9851.2922    16.954505    19.970167    20.684456    7003.4322    9286.9966    10613.109    9653.7708   -1785.9563   -1603.4581    1166.4464   -2417.3819 
26614000    262.17525   -3839.0927   -3389.7332   -3839.0927            0    7995.5638    16.953115     19.96853    20.682761    7001.7102    7689.3194    9457.9647    6839.4071     612.5288   -185.04074    -266.8801   -2573.2841 
26615000    265.97503   -3868.0286   -3412.1565   -3868.0286            0    8345.9363    16.983541    20.004368     20.71988    7039.4757    8336.2875    9407.8071    7293.7144    387.24854    1476.7067    158.82431   -2555.3332 
26616000    253.64692   -3885.7859   -3451.0438   -3885.7859            0    6818.2651    17.021198    20.048723    20.765822    7086.4051    7265.0601    7305.7673    5883.9679    666.18513   -348.20978    390.05588   -2746.3901 
26617000    253.84845   -3897.5508   -3462.4632   -3897.5508            0    8130.0811     16.91007    19.917829    20.630246    6948.5117     8712.661    7106.9346    8570.6477   -168.89437   -1102.0351   -1485.9358   -2638.5859 
26618000    262.88475    -3895.279   -3444.7035    -3895.279            0    8805.9773    16.911848    19.919923    20.632415    6950.7043    9007.6511    9069.0305    8341.2504    850.50315    324.80161   -652.12797   -2552.0513 
26619000    261.40571   -3844.5959   -3396.5555   -3844.5959            0    9984.2219    16.924536    19.934868    20.647895      6966.36    11164.712    9225.2268    9562.7268   -340.95921   -13.318418   -331.00011   -2382.1864 
26620000    260.07154   -3875.8494   -3430.0957   -3875.8494            0     10680.93    16.946082    19.960246     20.67418    6992.9995    10443.172    11657.462    9942.1564   -933.58127   -923.27766    588.39912   -2340.7933 
26621000     262.3976    -3850.057   -3400.3165    -3850.057            0    9499.8627    16.909686    19.917376    20.629777    6948.0381    8632.4948     9995.661    9871.4322    386.56492    139.75375   -1507.5965   -2437.6954 
26622000    262.80136   -3841.9995   -3391.5669   -3841.9995            0    7517.7493     16.96788    19.985921    20.700773    7020.0193    6268.3925    9029.9497    7254.9058    -1061.881   -438.27378    1307.9557   -2621.9014 
26623000    251.98179   -3872.3327   -3440.4445   -3872.3327            0    9346.4055    16.906589    19.913728    20.625999    6944.2213    8800.0937    8590.7694    10648.353   -6.2376066    201.86762   -396.04287   -2493.8934 
26624000    260.11291   -3854.4372   -3408.6126   -3854.4372            0    7533.6135    16.987842    20.009434    20.725127    7044.8251    7583.9397    7851.5714    7165.3293    129.93005    1722.0983    -934.5927   -2634.5974 
26625000     272.9739   -3847.9826   -3380.1147   -3847.9826            0    8818.4236    16.988376    20.010063    20.725779    7045.4896    11195.934    8850.2075    6409.1294    873.95792    691.07321    231.40255   -2474.0107 
26626000     262.5242   -3861.1783   -3411.2208   -3861.1783            0      10490.9    16.967079    19.984978    20.699797    7019.0262    11380.348    11252.659    8839.6926   -686.08839    514.20003   -478.68436   -2337.3167 
26627000    266.52347   -3853.6814   -3396.8693   -3853.6814            0    8546.9507    16.998758    20.022292    20.738445    7058.4147    7727.0236    7787.2766    10126.552    481.39709   -1398.4521     6.427303   -2517.0484 
26628000    251.84683   -3839.2282   -3407.5713   -3839.2282            0    8944.3397     16.94927    19.964001     20.67807    6996.9472      10854.4    6721.1321    9257.4868   -1680.4787    176.60883   -961.04416   -2494.8614 
26629000    269.78959   -3856.3008   -3393.8907   -3856.3008            0    9015.8996     17.02761    20.056276    20.773645    7094.4168    7826.3313    9992.8805    9228.4868   -101.84419   -173.50728    1130.7512   -2461.0625 
26630000    265.82831   -3908.0525   -3452.4319   -3908.0525            0    7641.9635    16.970314    19.988789    20.703744    7023.0419     6987.938    7730.1875    8207.7649   -660.58974   -1743.3426    328.47503   -2669.7125 
26631000    255.83815   -3891.0943   -3452.5965   -3891.0943            0    9845.3974    16.976582    19.996172    20.711391    7030.8267    11178.637    9617.8926    8739.6626   -83.603056    863.81345    746.47098   -2443.0751 
26632000    262.95926   -3838.0062    -3387.303   -3838.0062            0     10105.08    16.897291    19.902777    20.614655    6932.7705    10464.738    9783.9868    10066.514   -209.39967   -45.544739    1525.5226   -2365.6053 
26633000    265.36979   -3891.7773   -3436.9425   -3891.7773            0    6167.9918    17.053878    20.087216    20.805692    7127.3006    5412.5371    4905.0565     8186.382   -1676.2989   -1946.2209   -519.95375   -2795.8145 
26634000    241.93823   -3875.5668    -3460.893   -3875.5668            0    10194.681    16.951061    19.966111    20.680255    6999.1657     8961.522    11480.016    10142.505   -112.80271   -2196.2664    1290.3299   -2420.2643 
26635000    260.17612   -3895.4573   -3449.5244   -3895.4573            0    10796.246     16.82536    19.818051    20.526899    6844.6091    10096.002    9550.9803    12741.756    497.38201   -1295.8798   -657.70444   -2371.8258 
26636000    260.43918   -3880.1789   -3433.7951   -3880.1789            0    9665.0176    16.951141    19.966205    20.680352    6999.2642    8977.7779    9434.1806    10583.094    364.86696   -1063.8525     751.2732   -2447.2182 
26637000    246.00631   -3863.0627   -3441.4163   -3863.0627            0    8165.2092    16.965148    19.982703     20.69744     7016.629    8194.0311    8839.7252    7461.8714    180.90093   -251.17713    407.17914   -2605.8677 
26638000    259.37553    -3888.932   -3444.3712    -3888.932            0    10402.116    16.930798    19.942244    20.655534    6974.0956    10410.467    11760.756    9035.1235    -178.7645   -334.75827   -2774.8974   -2386.3717 
26639000    240.80054   -3884.4602   -3471.7363   -3884.4602            0    9793.6345    16.875398     19.87699    20.587946    6905.8584    9598.3692    11561.384    8221.1501   -262.15788    -487.7534     2009.822   -2485.3718 
26640000    264.96819   -3892.2935   -3438.1471   -3892.2935            0    10265.688    16.906522     19.91365    20.625918    6944.1394    11227.471    10501.537    9068.0561   -293.85492   -10.981467   -1082.6945   -2398.5085 
26641000    250.98392   -3893.2231   -3463.0452   -3893.2231            0    8316.5264    16.982121    20.002695    20.718148      7037.71    8852.7541    9067.6653    7029.1599    901.05334    1265.4281   -402.86707   -2609.4554 
26642000    253.50368    -3884.392   -3449.8953    -3884.392            0    7657.9498    17.003202    20.027526    20.743867     7063.952    8737.1571     6848.443    7388.2495   -738.61167    365.48004    -201.4698   -2660.9696 
26643000     258.2335   -3885.2737   -3442.6703   -3885.2737            0    8290.3256    16.944701     19.95862    20.672496    6991.2902    7719.2665    9248.7316    7902.9786    586.32474     553.7595   -1542.2129   -2597.3821 
26644000    257.69969    -3870.042   -3428.3536    -3870.042            0    8768.1837     16.90377    19.910408     20.62256    6940.7484    8300.5878    7979.7524    10024.211   -409.18748   -438.58126   -1457.6544   -2540.8056 
26645000    260.38951   -3829.9618   -3383.6631   -3829.9618            0    10738.156    16.883301    19.886298    20.597587    6915.5647    12617.812     9608.123    9988.5325   -455.84667    1802.4897    197.66503   -2300.6511 
26646000    268.47393   -3904.9958   -3444.8406   -3904.9958            0    7226.8842    16.971754    19.990484      20.7055    7024.8293    7423.0862    7080.1586    7177.4078    -350.2122    458.43419   -622.62109   -2704.4469 
26647000    244.96943   -3886.0729   -3466.2037   -3886.0729            0    8487.4467    16.986961    20.008396    20.724053    7043.7291    9127.4628    8473.8942     7860.983      -876.81    1054.5441    193.39522   -2594.3259 
26648000    251.23479   -3896.4172   -3465.8094   -3896.4172            0    7350.1556     16.94046    19.953625    20.667322    6986.0424    6815.2949    7358.0218      7877.15    371.34973    1061.5842    1391.0707   -2716.9442 
26649000    278.93809   -3843.7786   -3365.6882   -3843.7786            0    8516.6166    16.988215    20.009873    20.725583    7045.2894    7545.4139    7811.0562     10193.38    1288.9935    2295.8847   -413.03043   -2490.6202 
26650000    255.88805   -3867.3656   -3428.7822   -3867.3656            0    7113.0634    17.040781    20.071789    20.789713    7110.8921    6513.5928    7396.1893    7429.4082     185.6162   -1218.8342   -182.71631   -2691.1215 
26651000    265.35048   -3832.5507   -3377.7491   -3832.5507            0    10664.483    16.926927    19.937685    20.650812    6969.3132    11403.911    9790.9015    10798.635    1045.9116    345.46584     391.6001    -2293.808 
26652000    256.39301   -3891.6835   -3452.2347   -3891.6835            0    7108.1844    16.997573    20.020896       20.737    7056.9388    6153.5151    6319.3782    8851.6598      840.393     265.0044   -928.85369    -2720.673 
26653000     270.9555   -3892.8105   -3428.4021   -3892.8105            0    7172.2589    16.997984     20.02138    20.737501    7057.4503    7482.0235    8065.2962     5969.457   -373.72421    560.25503   -1116.0833   -2690.1925 
26654000    243.11795   -3855.0007   -3438.3049   -3855.0007            0    8717.0697    16.987558    20.009099    20.724781    7044.4716    11592.174     7289.381    7269.6546    484.58833    1301.3663   -1256.6179   -2542.7446 
26655000    254.54423   -3869.1545   -3432.8744   -3869.1545            0    6971.8255    17.020035    20.047353    20.764403    7084.9523    8692.1493    6842.4982    5380.8291    1023.7508    209.46364     725.3004   -2712.4983 
26656000      241.574   -3891.6288   -3477.5792   -3891.6288            0    7623.8256    16.992601    20.015039    20.730933    7050.7473    6852.0275    7641.4049    8378.0444    1013.5107    1702.8459    760.58264   -2693.6371 
26657000    243.38971   -3839.8914   -3422.7298   -3839.8914            0    8705.8872    16.974363    19.993558    20.708684    7028.0698    7605.4894    10016.968    8495.2041    1075.9532   -976.14424    378.37154   -2530.4008 
26658000    249.43128    -3843.088   -3415.5713    -3843.088            0    7939.0936     16.94351    19.957216    20.671042    6989.8154     10603.86    7701.6431     5511.778    721.17945   -884.14915   -1746.3866   -2606.2658 
26659000    250.69615   -3846.5377   -3416.8531   -3846.5377            0    9111.3092    16.869515     19.87006    20.580769    6898.6384    9790.3466      8380.63    9162.9509    2373.2538   -125.40391    -679.2439   -2500.1682 
26660000    267.50414    -3828.658    -3370.165    -3828.658            0    10391.358    16.867187    19.867318    20.577929    6895.7828    11399.564    10637.208    9137.3017   -664.74152   -897.97263   -408.62826   -2325.1278 
26661000    243.64503   -3860.4684   -3442.8692   -3860.4684            0    9096.0219    16.918899    19.928228    20.641017     6959.401    7969.7546    10358.251    8960.0603   -1429.0034    1168.9628    1068.9898   -2519.6618 
26662000    259.00187   -3860.0758   -3416.1554   -3860.0758            0     9519.637    16.893242    19.898008    20.609716    6927.7888    9301.6675    9853.1979    9404.0456   -27.066781    650.33573   -378.60514   -2454.3418 
26663000    257.10004   -3852.2151   -3411.5544   -3852.2151            0    9264.0625    16.832088    19.825976    20.535108    6852.8235    10875.492    8589.3271    8327.3687     920.4694   -555.46452    182.43713   -2485.6911 
26664000    268.12763    -3881.597   -3422.0354    -3881.597            0    8880.9063    16.867248     19.86739    20.578003    6895.8576    9843.8126    7479.9176    9318.9887    1469.4527    646.41457    266.02735   -2528.8914 
26665000    252.21697   -3837.8597   -3405.5684   -3837.8597            0    9022.9151    16.894042     19.89895    20.610692    6928.7722    7159.6277    10544.697    9364.4208   -312.84675    1699.7012   -904.11436   -2493.8116 
26666000    266.86098    -3867.144   -3409.7534    -3867.144            0    9706.7531    16.898663    19.904393    20.616329    6934.4597    10045.502    9308.4834    9766.2736    635.74749    921.28091    1451.7104   -2428.0902 
26667000     257.7463   -3899.2198   -3457.4515   -3899.2198            0     7913.733    16.961658    19.978593    20.693183    7012.3002    9451.0088    8418.3053     5871.885   -118.84434   -897.60728    12.563408   -2648.1361 
26668000    271.85864   -3844.3349   -3378.3785   -3844.3349            0    6821.3126    16.926483    19.937161     20.65027    6968.7644    6995.7499    5870.0141    7598.1739    616.97391    450.51751   -72.254971    -2685.113 
26669000    265.87019   -3834.6361   -3378.9437   -3834.6361            0    8261.4283    16.964096    19.981465    20.696158    7015.3246    8060.8937    9971.0407    6752.3505    550.34727    906.07471    711.89293   -2533.7061 
26670000    265.82905   -3872.3319     -3416.71   -3872.3319            0    8398.7482    16.966638    19.984459    20.699259    7018.4786    9972.9546    10085.419    5137.8709   -154.00078   -170.12557   -2002.5514   -2557.0367 
26671000    252.85748   -3884.2814   -3450.8923   -3884.2814            0    7913.8075    16.967058    19.984953    20.699771    7018.9992    4693.4566    10667.142    8380.8239    19.276682    217.45298     880.1785   -2640.7962 
26672000    254.80588    -3881.529   -3444.8005    -3881.529            0     9578.551    16.939669    19.952693    20.666357    6985.0638    7786.5307    10879.574    10069.548   -276.94056     396.2173   -842.96333   -2469.0336 
26673000    253.50593   -3872.7001   -3438.1996   -3872.7001            0    8098.2816    16.947145    19.961498    20.675477     6994.315    8509.6756    6733.5924    9051.5769     479.3073    446.95489   -2279.2038   -2612.1351 
26674000    247.71063   -3894.9271   -3470.3596   -3894.9271            0    4726.4259    17.074345    20.111323    20.830661    7152.9918    5373.5614     5611.179    3194.5374   -841.57419   -520.76855   -1194.2172   -2977.3034 
26675000    260.96449   -3870.4804   -3423.1962   -3870.4804            0    9119.5451    16.896714    19.902097    20.613952    6932.0605     8600.194    10119.683     8638.758    119.29553   -1245.8335    1255.8331   -2501.2376 
26676000    262.35252    -3924.286   -3474.6228    -3924.286            0    7220.4124    16.963819    19.981138     20.69582     7014.981    7434.8945    7320.6712    6905.6714   -995.93428    51.734995   -85.863933   -2735.9291 
26677000    252.53306   -3866.6789   -3433.8458   -3866.6789            0    10213.377    16.939788    19.952833    20.666502    6985.2108    10409.188    11144.372    9086.5712    -883.6665   -1957.8004   -804.36953   -2393.3873 
26678000      253.883   -3875.9034   -3440.7566   -3875.9034            0    9750.1004    16.933869     19.94586     20.65928    6977.8905    10173.148     9158.155    9918.9978   -36.119032   -329.12894    443.86891    -2448.534 
26679000    264.07746   -3916.4201   -3463.8004   -3916.4201            0     7821.847    17.005878    20.030679    20.747132    7067.2882    8788.4072    8009.5969    6667.5368   -459.30636   -1292.4586     516.2116   -2657.6093 
26680000    264.84083    -3925.939   -3472.0109    -3925.939            0    9157.1238    16.939463    19.952449    20.666105     6984.808    8879.8801    9411.1737    9180.3177    464.35153   -46.927003    -668.5406   -2539.2089 
26681000    272.03842   -3932.9638   -3466.6992   -3932.9638            0    9629.6624    16.921482     19.93127    20.644168    6962.5889    10246.062    10591.413    8051.5127   -75.327738   -474.85884    1284.3888    -2488.882 
26682000    278.18928   -3912.3178   -3435.5109   -3912.3178            0    8899.0852    16.891138    19.895529    20.607149    6925.1998     7152.285     10249.02    9295.9503   -792.67894    2377.5924   -576.14954   -2536.7305 
26683000    264.11523   -3927.5529   -3474.8684   -3927.5529            0    9615.5827    16.899698    19.905612    20.617592    6935.7336    11055.911    8945.1457    8845.6918    830.72689     832.2323    349.34368   -2502.2468 
26684000    271.76897   -3941.5769   -3475.7742   -3941.5769            0     10310.22    16.888284    19.892168    20.603667    6921.6902    10514.861    9237.5441    11178.255    1046.9805    829.79238    43.111976   -2435.0013 
26685000    260.81735   -3879.5992   -3432.5672   -3879.5992            0    7410.7524    16.972346    19.991182    20.706223    7025.5648    7123.1038    5675.0212    9434.1322    1256.2317   -974.78147   -195.56495   -2673.2567 
26686000    268.83105   -3878.5555   -3417.7882   -3878.5555            0    9652.8977    16.894383    19.899352    20.611108     6929.192    9453.2344    7560.4701    11944.988   -892.54391   -1580.6782   -777.50462   -2442.3131 
26687000     256.9835   -3885.7784   -3445.3174   -3885.7784            0     6700.971    16.967554    19.985538    20.700376    7019.6155    7852.2333    6241.4397    6009.2399    1065.6874   -1100.3208   -524.36356    -2759.313 
26688000    268.88175   -3842.4125   -3381.5584   -3842.4125            0    9828.4232    16.880615    19.883135    20.594311    6912.2654    9461.8017    10683.188    9340.2798     1081.546   -1858.9693    700.63268   -2390.7717 
26689000    252.60581   -3893.2304   -3460.2727   -3893.2304            0    7567.8653    16.924653    19.935005    20.648037     6966.504    8415.4132    6275.2057    8012.9771   -39.648549   -693.81192   -1082.4728   -2691.3827 
26690000    264.94212   -3857.4252   -3403.3235   -3857.4252            0     7346.335    16.957072    19.973191    20.687589    7006.6143    5806.8823    8812.7918    7419.3309   -2004.1885   -946.59535   -543.00328   -2652.6435 
26691000    268.58143   -3878.4462   -3418.1068   -3878.4462            0    6767.0089    16.992383    20.014783    20.730668    7050.4762    5579.0574    9086.2397    5635.7296   -760.22779    1185.2408    303.98492   -2722.2961 
26692000      250.412   -3839.2342   -3410.0366   -3839.2342            0    9234.8893    16.918916    19.928248    20.641038     6959.422    9091.0276    9113.5883    9500.0518   -1595.5733    308.49498    52.004884    -2472.732 
26693000    270.51203   -3868.4604    -3404.812   -3868.4604            0    7991.0606    16.883575    19.886621    20.597922    6915.9021    8208.1788    7897.4332    7867.5698    53.584448    341.82287    -1234.583    -2598.823 
26694000    271.86234   -3860.5885   -3394.6257   -3860.5885            0     8634.025    16.852252    19.849727    20.559709     6877.482    7882.1869     8885.953    9133.9352    77.150382   -517.90016    1020.7583   -2528.6242 
26695000    263.61482   -3895.6955   -3443.8688   -3895.6955            0    6965.8249    16.954922    19.970659    20.684966    7003.9494    6065.8263    7717.2135    7114.4349    556.36249   -1242.8153   -6.6345763   -2732.3417 
26696000    261.63756   -3867.9675   -3419.5297   -3867.9675            0    7029.5741    16.936213    19.948621     20.66214    6980.7886     8216.978    6147.9975    6723.7467      158.425   -440.26166   -476.88879   -2703.8654 
26697000    263.67032   -3872.2462   -3420.3243   -3872.2462            0    10025.877    16.879128    19.881383    20.592496     6910.438    9684.8831    10857.859    9534.8895   -922.68156    2006.9276    -2025.301   -2409.8998 
26698000    270.32761   -3899.6447   -3436.3124   -3899.6447            0    9025.0358    16.962144    19.979165    20.693776    7012.9024    8104.6228    9584.0313    9386.4534   -1383.0825   -1132.0417    469.55741    -2513.268 
26699000    270.73952   -3888.3741   -3424.3358   -3888.3741            0    8041.5326     16.98937    20.011234    20.726992    7046.7263     8178.163    9470.8093    6475.6254   -848.01843   -215.83616   -799.37199   -2597.9133 
26700000    259.65556   -3871.4765   -3426.4358   -3871.4765            0    8346.5937    16.979211    19.999268    20.714598    7034.0929    7450.2561    9224.4679    8365.0572   -955.83067    420.97019    1901.5826   -2570.2002 
26701000    254.41492   -3834.9715    -3398.913   -3834.9715            0    9799.0905     16.86637    19.866355    20.576931    6894.7802    10121.231    9834.9094     9441.131    -110.7904     823.8287   -741.48515   -2413.5821 
26702000    260.92662    -3835.852   -3388.6327    -3835.852            0    7795.7058    16.945443    19.959493    20.673401    6992.2082    6400.3579    8717.5301    8269.2294    228.75211    1517.6012    1941.2454    -2593.672 
26703000    248.62534   -3863.1257   -3436.9903   -3863.1257            0    9811.7538    16.891323    19.895747    20.607374    6925.4273    10657.673    9287.9391    9489.6497   -134.34638   -1669.8099    1540.5356   -2446.0007 
26704000    254.52738   -3883.9279   -3447.6767   -3883.9279            0    7071.7636    16.940424    19.953582    20.667278    6985.9977    7897.2049    6093.8139     7224.272   -641.51985    785.89843   -374.33448   -2727.1799 
26705000    256.56087    -3904.876   -3465.1395    -3904.876            0    7657.6929    16.960648    19.977403    20.691951    7011.0478    7570.1903    8575.6026    6827.2857    899.46677   -313.01618   -263.45576   -2682.1485 
26706000     249.2853   -3877.2031   -3449.9366   -3877.2031            0    7480.6283    16.971285    19.989932    20.704928    7024.2468    6162.5273     8359.018    7920.3396    1718.1735   -973.82796    926.15169   -2683.6103 
26707000    254.75695   -3882.4389   -3445.7942   -3882.4389            0     7388.282    16.999888    20.023622    20.739823    7059.8219    6186.7964    6842.0105    9136.0389   -1018.1072   -602.43956    760.65538   -2685.0948 
26708000    263.38465   -3906.1498   -3454.7175   -3906.1498            0    7638.4845    17.000278    20.024082    20.740299    7060.3082    6726.2518     7435.546    8753.6556    1030.9442    387.19749   -366.76499    -2668.203 
26709000    258.90629   -3910.0416    -3466.285   -3910.0416            0    8831.7727    16.948483    19.963075     20.67711    6995.9727    8531.2542     7957.332    10006.732    1340.4172    -567.7552    768.56562   -2565.1873 
26710000     262.9788   -3865.2967     -3414.56   -3865.2967            0    9438.5019     16.92485    19.935237    20.648277    6966.7472    10593.718    10146.907     7574.881    1090.2718   -1941.3705    1162.2185   -2455.5812 
26711000    271.17265   -3932.8025   -3468.0218   -3932.8025            0    8396.9919    16.946543    19.960789    20.674743    6993.5703    8205.7614    8107.5088    8877.7055    425.39947    515.90251   -194.52269   -2611.5786 
26712000    273.66231   -3902.2243   -3433.1765   -3902.2243            0    11407.415    16.876923    19.878786    20.589807    6907.7309     13866.61     10483.28    9872.3562    1191.3484   -943.79319    1387.9578   -2283.9687 
26713000    270.44486   -3867.3238   -3403.7906   -3867.3238            0    9191.8898    16.936614    19.949094    20.662629    6981.2844    8918.3625    9230.2403    9427.0666    265.43969   -629.42389   -275.22319   -2467.9195 
26714000    254.13813      -3891.2   -3455.6159      -3891.2            0    6983.7724     16.99168    20.013954     20.72981    7049.6009    6107.3632    7097.8546    7746.0995   -1670.1935    1179.7214    781.56866   -2737.6059 
26715000    254.32728   -3930.9544   -3495.0461   -3930.9544            0    8451.0308    16.930245    19.941592     20.65486    6973.4121    6891.3926    9609.8153    8851.8844      73.5679    422.28645    252.02689   -2635.5758 
26716000    257.56553   -3895.0756   -3453.6171   -3895.0756            0    7352.3057     16.91902    19.928371    20.641165    6959.5512     7740.337    7629.7563    6686.8238   -982.95306   -1218.4026   -670.75688   -2707.3734 
26717000    247.13153   -3902.9532   -3479.3782   -3902.9532            0    7886.6674    16.941907    19.955328    20.669087    6987.8319    8408.3028    7929.6311    7322.0684    362.66707   -1921.7346     2341.457   -2675.6451 
26718000    257.45638   -3902.5206   -3461.2492   -3902.5206            0    9611.7563    16.914373    19.922897    20.635496    6953.8179    9007.2264    10992.489    8835.5538    452.70331   -781.00363   -751.73741   -2486.4796 
26719000    256.34681   -3877.1769   -3437.8072   -3877.1769            0    8674.8321    16.995055     20.01793    20.733927    7053.8026    8313.6682    9472.0777    8238.7503    768.29674   -836.69563   -1824.3691   -2545.4058 
26720000    260.49801   -3942.6997    -3496.215   -3942.6997            0    8805.8268    16.980168    20.000395    20.715765    7035.2819    9189.7739    8257.7978    8969.9088    1387.1725    855.32847   -510.85932   -2592.7163 
26721000    252.98629   -3901.4223   -3467.8125   -3901.4223            0    7885.2338     16.99339    20.015969    20.731896    7051.7297     8709.071    7600.0744     7346.556    -596.4675   -439.48753    698.37349   -2656.8773 
26722000    242.02504   -3895.1811   -3480.3585   -3895.1811            0    8453.7251    16.992511    20.014933    20.730823    7050.6353    9110.0589    6470.3421    9780.7742   -730.39218    139.99817    351.59371   -2611.0933 
26723000    251.34521   -3896.5252   -3465.7282   -3896.5252            0     7607.289    16.941879    19.955296    20.669053    6987.7982    8029.5793    7243.5889    7548.6988   -1101.1418   -30.400142    775.70923   -2690.4703 
26724000    262.71748   -3882.1536   -3431.8649   -3882.1536            0    6902.7702    17.008775    20.034091    20.750666    7070.9003    6237.1551    8083.9275     6387.228   -6.4811491   -163.99286   -1158.7477   -2720.0386 
26725000    258.51217   -3880.8366   -3437.7556   -3880.8366            0    10612.818    16.876492    19.878279    20.589281    6907.2017    11137.453    12033.841    8667.1594   -1193.9476   -864.24003    757.89931   -2368.6792 
26726000    257.33342   -3856.3657   -3415.3051   -3856.3657            0    10953.775    16.890127    19.894339    20.605916    6923.9567    11169.583    10965.339    10726.402   -1139.7115    292.98286    166.45946    -2309.206 
26727000    278.46134   -3845.4148   -3368.1416   -3845.4148            0    8215.2411    17.037204    20.067576    20.785349    7106.4146    9761.1843    6677.5936    8206.9454   -1156.1026    299.43014    1180.0482   -2516.7159 
26728000    260.29601   -3841.6017   -3395.4632   -3841.6017            0    9217.1957    16.956761    19.972825    20.687209    7006.2282    10224.211     9926.428    7500.9482    85.414709    7.8570758      130.717   -2453.6626 
26729000    264.10469   -3856.5674    -3403.901   -3856.5674            0    9050.5145    16.978969    19.998983    20.714302    7033.7922    8886.0078     9881.857    8383.6787    1483.9282   -506.59794    483.38631   -2475.4934 
26730000    273.34534    -3860.247   -3391.7425    -3860.247            0    6720.3854    17.019649    20.046898    20.763932    7084.4702    5534.9486    7177.6485    7448.5589    739.31471    71.687519   -468.35324   -2697.3941 
26731000    265.32613   -3844.0687   -3389.3088   -3844.0687            0    8832.7131     16.95034    19.965261    20.679375    6998.2716    8218.2006    8149.6848    10130.254   -131.11417   -348.16579   -335.54483    -2487.819 
26732000    257.16489   -3842.8159   -3402.0441   -3842.8159            0    7861.2583    16.906787    19.913962     20.62624    6944.4654    7058.6528    8414.7132     8110.409    758.90742   -300.13326   -47.017683   -2605.8723 
26733000    253.00893   -3856.6514   -3423.0028   -3856.6514            0    7545.8531     16.92616    19.936781    20.649876    6968.3659     7919.636    6859.6682    7858.2552    1099.2397    1395.3902   -1591.7751   -2656.1444 
26734000    260.66238   -3839.2002   -3392.4338   -3839.2002            0    8202.8205    16.933758     19.94573    20.659145    6977.7534    9437.0719    7692.3092    7479.0803    483.81811   -647.45888    1505.3082   -2557.6871 
26735000    250.03246   -3842.2239   -3413.6768   -3842.2239            0     11640.96    16.830603    19.824227    20.533297    6851.0105    11986.071    11629.782    11307.027   -274.98838   -1007.2082    194.35651   -2250.5707 
26736000    252.83483   -3864.9991   -3431.6488   -3864.9991            0    7032.5694    16.990539    20.012611    20.728418    7048.1811    6986.1358    5505.4791    8606.0933    104.30803    2377.8702    160.61153   -2708.7676 
26737000    273.85346   -3886.8714    -3417.496   -3886.8714            0    6696.5485    16.995618    20.018593    20.734614    7054.5036    6279.8107    6307.1356    7502.6992    1081.4095    229.51552    757.94208    -2728.537 
26738000    272.55237   -3871.4021   -3404.2567   -3871.4021            0    8981.8943    16.968628    19.986803    20.701687    7020.9488    8383.4708    8501.5478    10060.664    2023.0235    1361.4276   -586.77146   -2484.5706 
26739000    266.17425   -3897.4808   -3441.2673   -3897.4808            0    7896.2709    16.946259    19.960454    20.674396    6993.2185     8256.202    7702.5092    7730.1014   -1653.6647   -1047.5025     687.9297   -2635.9351 
26740000    254.46803   -3877.7066   -3441.5571   -3877.7066            0     8180.243    17.054785    20.088284    20.806798    7128.4372    7377.1644      6256.17    10907.395    941.28976    -142.0725    874.69209   -2591.1313 
26741000    254.80419   -3907.4781   -3470.7524   -3907.4781            0    7271.0629    17.009887      20.0354    20.752022    7072.2869    6175.6914    7673.5498    7963.9475   -1277.9231    2004.2627     214.3601   -2720.8001 
26742000    256.16142   -3887.7875   -3448.7356   -3887.7875            0    7949.2302    17.064128    20.099289    20.818196    7140.1591    6744.5707    9057.0971    8046.0229    675.84684   -666.43248    626.46047   -2620.9672 
26743000    274.17642   -3859.9361   -3390.0071   -3859.9361            0    7049.9475    16.984153    20.005088    20.720627    7040.2365     8023.867     6356.188    6769.7874   -1.1246439    820.76353   -224.80934   -2666.1564 
26744000    266.65527   -3852.1216   -3395.0836   -3852.1216            0    6872.5232    17.010699    20.036357    20.753013       7073.3    7211.5426    7323.1585    6082.8686     560.2347    470.35208   -1310.2614   -2686.1359 
26745000    246.93379   -3812.6096   -3389.3735   -3812.6096            0    7312.6885    17.059395    20.093714    20.812422    7134.2195     8463.382    6710.5781    6764.1053    581.64218   -600.78544    40.151906   -2628.5229 
26746000     245.3596   -3855.7289    -3435.191   -3855.7289            0    7821.5476    17.017177    20.043987    20.760917    7081.3842    7660.7986    7407.8538    8395.9905    -1335.382   -1403.1103    1001.3933   -2627.4228 
26747000       265.33   -3878.0628   -3423.2963   -3878.0628            0    9967.9827    16.939747    19.952784    20.666452    6985.1596    7773.6913    11273.567     10856.69    -45.45391   -2320.7021   -2880.5375    -2407.844 
26748000    277.67214   -3874.4989   -3398.5783   -3874.4989            0      7897.71    16.973474    19.992511    20.707599    7026.9659    7754.1566     8908.311    7030.6623   -775.71632   -83.447795   -1739.2148   -2589.2124 
26749000    250.18851   -3876.8954   -3448.0808   -3876.8954            0     7078.893    17.071953    20.108506    20.827743    7149.9867    8318.1184    6027.7072    6890.8535   -426.54139    1215.3023    154.81233   -2709.9277 
26750000    264.94474    -3827.508   -3373.4018    -3827.508            0     7806.702    17.021398    20.048958    20.766066    7086.6544    8030.7571    7986.3895    7402.9595   -127.73868    1121.0314     999.8243   -2566.5667 
Loop time of 439.338 on 64 procs for 250000 steps with 864 atoms

Performance: 98.330 ns/day, 0.244 hours/ns, 569.038 timesteps/s
190.1% CPU use with 32 MPI tasks x 2 OpenMP threads

MPI task timing breakdown:
Section |  min time  |  avg time  |  max time  |%varavg| %total
---------------------------------------------------------------
Pair    | 26.972     | 33.368     | 41.444     |  60.3 |  7.60
Bond    | 0.73942    | 1.1028     | 1.7393     |  18.2 |  0.25
Kspace  | 193.61     | 204.43     | 213.1      |  30.7 | 46.53
Neigh   | 4.3661     | 4.8821     | 5.1951     |  12.5 |  1.11
Comm    | 86.86      | 92.251     | 97.569     |  32.2 | 21.00
Output  | 0.51157    | 0.51193    | 0.51407    |   0.1 |  0.12
Modify  | 79.829     | 83.135     | 86.554     |  20.5 | 18.92
Other   |            | 19.65      |            |       |  4.47

Nlocal:        27.0000 ave          34 max          19 min
Histogram: 1 0 1 3 11 2 7 5 1 1
Nghost:        2581.47 ave        2615 max        2542 min
Histogram: 3 1 3 4 4 3 3 2 7 2
Neighs:        8694.31 ave       11501 max        6369 min
Histogram: 1 3 4 6 5 4 4 3 1 1

Total # of neighbors = 278218
Ave neighs/atom = 322.01157
Ave special neighs/atom = 2.0000000
Neighbor list builds = 13971
Dangerous builds = 0

unfix		3
unfix		2
unfix		1

write_data	data.final.${pid}
write_data	data.final.1
System init for write_data ...
PPPM initialization ...
  extracting TIP4P info from pair style
  using 12-bit tables for long-range coulomb (../kspace.cpp:340)
  G vector (1/distance) = 0.37403628
  grid = 24 24 24
  stencil order = 5
  estimated absolute RMS force accuracy = 0.003186807
  estimated relative force accuracy = 9.5969746e-06
  using double precision FFTW3
  3d grid and FFT values/proc = 3549 432
Last active /omp style is kspace_style pppm/tip4p/omp
WARNING: Not all mixed pair coeffs generated from mixing. Use write_data with 'pair ij' option to store all pair coeffs. (../write_data.cpp:312)

write_restart   restart.lmp.${pid}
write_restart   restart.lmp.1
System init for write_restart ...
PPPM initialization ...
  extracting TIP4P info from pair style
  using 12-bit tables for long-range coulomb (../kspace.cpp:340)
  G vector (1/distance) = 0.37403628
  grid = 24 24 24
  stencil order = 5
  estimated absolute RMS force accuracy = 0.003186807
  estimated relative force accuracy = 9.5969746e-06
  using double precision FFTW3
  3d grid and FFT values/proc = 3549 432
Last active /omp style is kspace_style pppm/tip4p/omp
Total wall time: 0:07:19
