LAMMPS data file via write_data, version 30 Jul 2021, timestep = 12000000

864 atoms
2 atom types
576 bonds
1 bond types
288 angles
1 angle types

0.10509806452391857 18.102474335477503 xlo xhi
1.2153229078220456 22.413854892175905 ylo yhi
0.12821939324969378 22.08497640675045 zlo zhi

Masses

1 1.00794
2 15.9994

Pair Coeffs # lj/cut/tip4p/long/omp

1 0 0
2 0.21084 3.1668

Bond Coeffs # harmonic/omp

1 450 0.9572

Angle Coeffs # harmonic/omp

1 55 104.52

Atoms # full

483 1 1 0.5897 2.7514380312520283 5.561047036695372 3.967670114385926 -2 3 -3
374 1 1 0.5897 3.0686568837473627 3.058709035159937 3.8722827147688648 5 5 0
432 1 1 0.5897 1.6342299011571761 5.572640576884427 1.9687396726485966 -7 -3 0
671 1 1 0.5897 4.314114340252478 5.311777227737048 2.341190096602591 3 1 -3
102 1 1 0.5897 0.9391229138242521 3.413330328098164 1.851462064555563 4 -4 -2
709 1 2 -1.1794 2.051626401498789 4.150162707053454 5.268268665983995 -5 1 -2
100 1 2 -1.1794 1.1410439099038594 2.487612169253874 1.7154632726729988 4 -4 -2
430 1 2 -1.1794 0.9077481489820397 5.350557951883104 1.3863595756685545 -7 -3 0
711 1 1 0.5897 1.1124832316787552 4.321619205623165 5.198744949620409 -5 1 -2
101 1 1 0.5897 2.0017421913867413 2.488735316685489 1.2966310271776134 4 -4 -2
481 1 2 -1.1794 2.958571239351742 6.090129794772608 3.197348832071256 -2 3 -3
373 1 2 -1.1794 3.6842796603866783 2.4023392073313423 3.5460806672613403 5 5 0
375 1 1 0.5897 3.2533629444084755 1.5644185146408576 3.7146580804126894 5 5 0
431 1 1 0.5897 1.3254258186040269 5.140581869877736 0.551053916781326 -7 -3 0
672 1 1 0.5897 4.581331318796211 3.824132460118333 2.255081140472243 3 1 -3
718 1 2 -1.1794 3.368237801467477 1.464271716994534 0.1330435922516351 6 6 2
147 1 1 0.5897 3.3852208109277693 5.31957928031568 7.844073039804565 -1 3 -6
478 1 2 -1.1794 0.4849214084602335 1.8826409626440304 10.88581230231708 -2 4 -6
146 1 1 0.5897 2.004349923768792 4.9703113325547115 8.35698148254906 -1 3 -6
145 1 2 -1.1794 2.764650477423075 4.594122271295317 7.913534757187429 -1 3 -6
799 1 2 -1.1794 4.146222958351569 2.2217148739744665 7.993932807679724 0 3 -2
710 1 1 0.5897 2.2731708601892247 4.388888870937726 6.168356258039715 -5 1 -2
800 1 1 0.5897 3.8811419989028866 3.0607503393003554 8.370726573134263 0 3 -2
721 1 2 -1.1794 0.3378366995681802 5.467753374362879 9.488723505668167 1 5 1
521 1 1 0.5897 3.0401395655804864 1.4079776241697048 6.782386551718577 -6 0 -2
4 1 2 -1.1794 4.510949408000529 3.4333822863548322 10.681765464904718 -4 0 -1
761 1 1 0.5897 0.694097891282175 5.86836186971033 11.088485642791065 -2 -1 1
638 1 1 0.5897 2.1575887224208707 3.422533627574283 12.98530250693778 -6 -2 9
760 1 2 -1.1794 0.7569804171063504 6.202700043830926 11.983193747479381 -2 -1 1
762 1 1 0.5897 0.9697193124416116 5.433901218994429 12.512269609477983 -2 -1 1
310 1 2 -1.1794 0.2094876830164478 2.396807365137268 15.559278884413212 2 -1 3
637 1 2 -1.1794 1.3142584675027857 3.831321339630885 13.180056518311586 -6 -2 9
312 1 1 0.5897 0.21710500343829864 3.2362049022839354 16.019316129260773 2 -1 3
94 1 2 -1.1794 4.191100100949474 5.29597056945895 16.55344169077554 0 -1 0
311 1 1 0.5897 0.8170899439657573 1.846663292752238 16.053655137049734 2 -1 3
639 1 1 0.5897 1.06372539274898 3.471124983275329 14.030769512758722 -6 -2 9
187 1 2 -1.1794 3.351777101698358 2.024700119660939 12.731587921482822 -2 7 2
480 1 1 0.5897 0.8169003420851758 2.345637499651271 11.655007713589498 -2 4 -6
204 1 1 0.5897 4.5870386131792555 3.9896083095491823 15.133722060254357 -6 -1 1
6 1 1 0.5897 4.02763207300365 2.881697134189367 11.296821441075657 -4 0 -1
189 1 1 0.5897 3.8675379759141766 2.2232325067447833 13.513129786788456 -2 7 2
96 1 1 0.5897 4.46058079396217 6.079193209907438 16.0736758092955 0 -1 0
212 1 1 0.5897 2.3546079072048314 4.780780080998539 16.402923256203955 6 2 1
213 1 1 0.5897 1.4999021260572138 4.177725434235805 17.497312782411274 6 2 1
292 1 2 -1.1794 1.6676854583508203 3.283063526336349 19.256452746865353 1 -2 0
842 1 1 0.5897 2.118973642928381 4.7993248984052554 20.192326485754528 -3 1 3
294 1 1 0.5897 0.9513635656701949 2.965231433326622 19.80608381096159 1 -2 0
719 1 1 0.5897 3.675846671581243 2.0198375572694487 21.373591928620563 6 6 1
843 1 1 0.5897 3.2495596878392683 5.060388249453551 21.164744636110747 -3 1 3
293 1 1 0.5897 2.439710640310011 2.8145366802826373 19.573753918790864 1 -2 0
841 1 2 -1.1794 2.3183212072933945 5.230706518955774 21.02324908162871 -3 1 3
461 1 1 0.5897 0.7088527562686588 1.264495402705709 20.845106356564298 4 2 -1
16 1 2 -1.1794 4.24462734461744 2.7476447660510672 19.8589748795652 -1 3 0
767 1 1 0.5897 0.7309439071083449 6.320863285497105 16.642188009381538 2 2 3
462 1 1 0.5897 0.40458727041887016 2.2082422659943157 21.98907700679886 4 2 -1
211 1 2 -1.1794 1.4442335577863992 4.614125574850078 16.64720496956187 6 2 1
437 1 1 0.5897 3.8697002371272995 11.41468757764983 0.6108930262072851 -4 2 2
682 1 2 -1.1794 1.6007606584331666 8.369842012191686 4.12027645890758 2 2 -3
396 1 1 0.5897 0.9340414640768009 10.179500202275877 0.7414434617254316 3 0 4
684 1 1 0.5897 0.8646679152750905 8.79750822447518 3.6826722536728433 2 2 -3
683 1 1 0.5897 1.9006323930981273 9.009608037379497 4.766027293928628 2 2 -3
108 1 1 0.5897 0.4715696061111671 7.225633739640066 5.198256621029583 -4 3 3
679 1 2 -1.1794 1.9860089295424375 11.798514161558064 0.8287929940690348 -6 -7 -1
750 1 1 0.5897 3.9671391093743673 7.960331524259909 0.6933709805427284 5 10 2
482 1 1 0.5897 2.6587186834287615 6.970626284167407 3.4232644527401908 -2 3 -3
394 1 2 -1.1794 0.5341940119908439 9.330091548988822 0.5547767252746068 3 0 5
585 1 1 0.5897 2.2489631340516123 11.593056556411689 4.1927325794149475 7 -6 3
688 1 2 -1.1794 2.9415095399544007 8.938966955224311 7.890081351936256 5 -5 2
554 1 1 0.5897 1.186495005931562 10.88386290039836 6.26578811398274 -5 -3 3
689 1 1 0.5897 3.504454478684959 8.215039880573153 7.61574634670585 5 -5 2
690 1 1 0.5897 2.085662792180549 8.535667646193337 8.035376710938962 5 -5 2
555 1 1 0.5897 2.5388174412735465 10.210050487691609 6.361200694877502 -5 -3 3
553 1 2 -1.1794 1.8819277529483034 10.502953640085618 5.729580770960658 -5 -3 3
448 1 2 -1.1794 4.594203952187173 6.792949688304366 7.4458883066890325 5 -1 -7
425 1 1 0.5897 3.489318845979453 9.121325960538698 9.653023326031892 7 -4 -2
451 1 2 -1.1794 0.17803598292447248 8.184291877336726 8.215029930692863 -2 -1 4
424 1 2 -1.1794 3.7443080656588963 9.454807821548503 10.513258505183769 7 -4 -2
426 1 1 0.5897 3.6876862429428376 8.694396907530582 11.091868920414306 7 -5 -2
336 1 1 0.5897 2.0296468236357885 10.181205632701763 11.001219393223623 0 2 5
529 1 2 -1.1794 3.5508238194586674 7.038316088886774 12.27057048185953 -5 -1 -4
727 1 2 -1.1794 0.6386246955815231 9.387751969834857 13.709035842951018 4 4 -1
335 1 1 0.5897 1.019577648874888 10.030887365457874 12.11884433545866 0 2 5
166 1 2 -1.1794 3.9086390460431844 10.734784259046972 15.101761112914222 -1 1 -1
334 1 2 -1.1794 1.1845833091423463 10.510627838295639 11.307144316631728 0 2 5
168 1 1 0.5897 3.5980360954115707 9.837363980659633 14.981837892594045 -1 1 -1
728 1 1 0.5897 1.0449977049356902 9.218720521037932 14.55903970778949 4 4 -1
218 1 1 0.5897 3.6445245243507594 7.747135060671978 15.39205223978587 3 -3 -3
531 1 1 0.5897 4.020905816384355 6.521831835319266 11.615980260678562 -5 -1 -4
65 1 1 0.5897 1.5001009821382054 8.102297046947111 16.374752765524 6 2 -5
219 1 1 0.5897 4.18503589967199 7.0918569665040385 14.138893145563829 3 -3 -3
217 1 2 -1.1794 4.457424893265896 7.448241584869631 14.984492984408524 3 -3 -3
64 1 2 -1.1794 2.3222946411119327 8.550148034198617 16.17562190182722 6 2 -5
530 1 1 0.5897 2.6261691889046657 6.863552002998504 12.095367469031174 -5 -1 -4
766 1 2 -1.1794 0.15889436331756568 7.07092804168144 16.479734154340065 2 2 3
229 1 2 -1.1794 3.297550882261934 8.823137695741138 18.767007222895195 0 4 5
231 1 1 0.5897 3.2606828310906018 8.285494406522222 19.558093038133055 0 4 5
22 1 2 -1.1794 2.6115479479355663 7.889657566342743 21.367192339292842 -4 3 1
230 1 1 0.5897 2.5246605159184052 9.385085614764284 18.822513223983663 0 4 5
66 1 1 0.5897 2.692944087379664 8.763387565765846 17.031990965168077 6 2 -5
23 1 1 0.5897 1.8539582981189904 8.310243036585014 21.773876939274892 -4 3 1
24 1 1 0.5897 2.3733707253338983 6.963965201243542 21.316019072720287 -4 3 1
104 1 1 0.5897 0.3125376314839462 10.500077779694553 19.30360362590066 1 1 9
103 1 2 -1.1794 1.168027608061952 10.881775315236354 19.106971016493514 1 1 9
105 1 1 0.5897 1.0058880779107908 11.465038553773153 18.365531655704135 1 1 9
510 1 1 0.5897 4.23971225366357 11.735025342546853 18.053173355817194 3 -4 2
509 1 1 0.5897 3.6518986954556567 11.686282324132373 16.65890880300544 3 -4 2
584 1 1 0.5897 3.170058744412864 12.671536281825686 3.663194079644076 7 -6 3
862 1 2 -1.1794 1.5222449129479017 15.913850853527785 0.8554118558280475 0 1 4
416 1 1 0.5897 4.265791164745271 16.589398882249657 4.6422608627196205 0 -2 -2
863 1 1 0.5897 2.456626278290442 15.809222541944122 0.6759322815640817 0 1 4
110 1 1 0.5897 4.364426794117423 16.514504559935332 0.984243953353809 2 -2 -7
224 1 1 0.5897 0.508705727764615 15.657426701291454 2.3360213580753277 3 2 -6
417 1 1 0.5897 2.863192926385208 16.769837429843086 4.101802935149491 0 -2 -2
803 1 1 0.5897 0.7703659562441921 12.879802824093797 4.2416050424081115 2 1 -6
583 1 2 -1.1794 2.285218329640391 12.31861149449915 3.5694532723787256 7 -6 3
415 1 2 -1.1794 3.483411222293749 16.09961136554186 4.388765762646142 0 -2 -2
502 1 2 -1.1794 4.405516824031995 14.044697546644525 2.8491539601313955 -3 -1 3
504 1 1 0.5897 4.3169740781297525 14.273302438767724 1.923884318152266 -3 -1 3
503 1 1 0.5897 4.154474480723649 14.840511415905674 3.3180625420525893 -3 -1 3
681 1 1 0.5897 1.854489689566984 12.47127803237661 0.16072450385746306 -6 -7 -1
109 1 2 -1.1794 4.295375915843972 15.676963709750265 0.5259799732886945 2 -2 -7
680 1 1 0.5897 1.9480563152422072 12.273839041057501 1.6587669552504352 -6 -7 -1
789 1 1 0.5897 0.3219171126200145 12.919855086150477 7.760549544855416 5 -2 4
136 1 2 -1.1794 0.9266334317737285 13.270441815722352 10.733427488287672 9 -6 3
778 1 2 -1.1794 0.7170187312160496 14.494115946252395 8.330919101929446 -1 1 -3
780 1 1 0.5897 0.7957609632273724 14.09585763218081 9.19775972905727 -1 1 -3
651 1 1 0.5897 2.6661862890609944 13.836411512822608 10.889657833921818 1 -2 2
48 1 1 0.5897 3.8100297668131287 13.578615587622382 6.357244182723676 4 -3 -1
779 1 1 0.5897 1.6185109165074023 14.684425158619293 8.071462143260817 -1 1 -3
344 1 1 0.5897 3.9198645391004305 15.565818847508869 7.477090923622308 -7 -1 0
343 1 2 -1.1794 3.0383884004401933 15.407608857167766 7.139174719048181 -7 -1 0
649 1 2 -1.1794 3.4452754296840946 14.39094178234993 10.931476171235147 1 -2 2
46 1 2 -1.1794 3.938892580330086 12.64228431566293 6.205903409720353 4 -3 -1
650 1 1 0.5897 4.074687635072257 13.964771215039484 10.349710350927348 1 -2 2
35 1 1 0.5897 2.8689126496989137 16.14915324965397 10.325571100591711 -7 2 -2
627 1 1 0.5897 0.5790313080949813 16.987858320272483 10.37722156361506 -7 -3 -1
34 1 2 -1.1794 2.580183887005838 17.059227169393274 10.393641596793026 -7 2 -2
345 1 1 0.5897 3.091537586670952 15.63974209270048 6.212068280596296 -7 -1 0
125 1 1 0.5897 0.5009780184363071 15.464558735133 6.504293270941684 0 3 4
124 1 2 -1.1794 0.18739727445594695 16.05273994006336 5.817322340756195 0 3 4
47 1 1 0.5897 3.1005501943202973 12.337717979900077 5.858569321275014 4 -3 -1
787 1 2 -1.1794 0.20768912166357276 11.99291662708546 7.55086891676322 5 -2 4
794 1 1 0.5897 4.5671379445871985 12.794245716802743 7.9644374106358296 -4 -1 7
137 1 1 0.5897 0.9804842246832266 12.329591456730482 10.901116854352539 9 -6 3
174 1 1 0.5897 3.038988598839522 13.721730211087964 14.295965930863046 0 -1 -1
798 1 1 0.5897 3.750799852104914 14.884211978122007 12.622688579802618 2 0 -3
797 1 1 0.5897 3.585626754698455 16.152405024128324 13.43279050627672 2 0 -3
796 1 2 -1.1794 3.895641906853359 15.2489945609418 13.49571306315795 2 0 -3
172 1 2 -1.1794 2.5702795944598114 13.168849449174816 14.921165386404153 0 -1 -1
173 1 1 0.5897 2.8289729521274753 12.2759762876108 14.69294056905969 0 -1 -1
515 1 1 0.5897 1.4995242258927444 12.582265203173925 16.242775530561456 -2 -2 1
329 1 1 0.5897 2.1127869307162332 15.011678048296226 15.88813264376104 -1 5 -3
326 1 1 0.5897 0.2867629885015668 15.980738904337366 15.861342868478093 -6 -1 -4
516 1 1 0.5897 0.13976165413893235 11.928911938193442 16.369451306545205 -2 -2 1
328 1 2 -1.1794 2.0588903400539573 15.84336245544961 16.358900413231137 -1 5 -3
611 1 1 0.5897 4.487050264415931 13.867646307594303 18.157524409771227 3 8 1
514 1 2 -1.1794 0.8660434570871007 12.272210727906533 16.889915186090935 -2 -2 1
248 1 1 0.5897 0.8793039200625601 16.057403975554536 19.525164024755377 -1 -1 -6
378 1 1 0.5897 1.1391157363055813 12.348319045216567 20.337313408996156 3 3 2
247 1 2 -1.1794 1.1224227721477846 15.334836050581668 18.946344715084617 -1 -1 -6
249 1 1 0.5897 1.1992065403237462 14.577700966887393 19.52693186990032 -1 -1 -6
377 1 1 0.5897 0.22751386819093486 13.32545544186103 21.048688715443387 3 3 2
376 1 2 -1.1794 1.1133939454443482 13.234714329266813 20.697686082156363 3 3 2
330 1 1 0.5897 1.8430590625527388 15.596531414438925 17.258190402095977 -1 5 -3
864 1 1 0.5897 1.1936717302613842 16.433498205931265 22.078526788160698 0 1 3
508 1 2 -1.1794 3.851049368618776 12.2885103032079 17.375786807936663 3 -4 2
755 1 1 0.5897 1.7341467294260975 20.860456828778997 2.558193986845937 -7 -3 -5
303 1 1 0.5897 3.7148924866611543 20.400396641772645 3.2601037691798123 1 5 5
640 1 2 -1.1794 1.2382417079648023 19.698652360341175 1.0086197761174578 0 3 -4
301 1 2 -1.1794 4.545198866931757 19.935080408845963 3.158589186145451 1 5 5
756 1 1 0.5897 1.2641548025812426 21.464532207358914 3.8643604287495377 -7 -3 -5
641 1 1 0.5897 1.3858923825112797 18.920944930660585 1.5467570387094125 0 3 -4
259 1 2 -1.1794 1.7610243707711901 18.12118708927398 3.6306354461039656 0 -3 5
754 1 2 -1.1794 1.9703184751728193 20.943566944035403 3.482063851938298 -7 -3 -5
260 1 1 0.5897 1.7041381542215774 19.063682027177084 3.7877890763321216 0 -3 5
261 1 1 0.5897 0.9838485102271655 17.75953084897325 4.056571187497193 0 -3 5
642 1 1 0.5897 1.8689426052392697 19.618607039780454 0.2930442186464113 0 3 -4
720 1 1 0.5897 4.1669717778513435 22.296856035264742 0.5129548937910937 6 5 2
309 1 1 0.5897 3.7784325451037972 19.381520081599803 7.854660864020657 1 3 -1
545 1 1 0.5897 1.9829503304191745 22.04445740242304 10.105706553032668 0 3 4
468 1 1 0.5897 0.9427790409212047 17.839646224107362 6.536980311979081 2 -4 5
563 1 1 0.5897 3.827910722995255 20.086749013269973 9.91554454819291 3 2 1
307 1 2 -1.1794 3.568231555534549 19.366623253209386 6.920939064874518 1 3 -1
135 1 1 0.5897 1.2665755203194151 20.61497220835568 8.886589000790948 1 -6 -4
546 1 1 0.5897 3.236932277561492 22.19530512179575 9.271048141534722 0 3 4
562 1 2 -1.1794 4.135782997150998 19.213627223331592 9.672458482706272 3 2 1
564 1 1 0.5897 3.393722213043937 18.637664873385347 9.85639819423633 3 2 1
133 1 2 -1.1794 0.45985781260337283 20.110184214202345 8.989799614729847 1 -6 -4
544 1 2 -1.1794 2.6795155484436575 21.53813984098083 9.687754406159216 0 3 4
308 1 1 0.5897 3.3004276635707286 20.26355810989971 6.720894372409315 1 3 -1
134 1 1 0.5897 0.5087449579566471 19.43801130539304 8.310085491567527 1 -6 -4
520 1 2 -1.1794 2.4595037297357485 21.963876559445154 6.3748141399706935 -6 -1 -2
522 1 1 0.5897 1.577483571269337 22.289671913558394 6.554052231675786 -6 -1 -2
467 1 1 0.5897 1.8444767168164975 19.054968922734716 6.494419588818764 2 -4 5
466 1 2 -1.1794 0.9338892649383816 18.792369075084004 6.628979906983153 2 -4 5
243 1 1 0.5897 4.5306935071149175 18.475959593851172 5.699972879394093 0 -3 0
29 1 1 0.5897 0.32940346108664187 19.920800479888012 10.841063006153348 -5 0 7
784 1 2 -1.1794 2.373303696499483 20.67400680177546 13.03265346336472 6 4 4
313 1 2 -1.1794 3.371856052659525 18.079420676703933 12.754734140844699 1 -1 1
36 1 1 0.5897 2.7566901328931532 17.29961528401569 11.303199058870462 -7 2 -2
188 1 1 0.5897 3.0230788366429624 22.336538338700986 12.879812593870192 -2 6 2
314 1 1 0.5897 3.2359856086595107 18.97973388274629 13.050047009889681 1 -1 1
666 1 1 0.5897 2.577129013225553 19.28593544137982 16.249776276527044 6 -3 3
665 1 1 0.5897 1.1746175238894279 19.69831090272487 15.85632546724959 6 -3 3
315 1 1 0.5897 4.306272177264311 18.03153653102819 12.552766094020253 1 -1 1
786 1 1 0.5897 2.1711407160870437 20.668192121609852 13.968235458657427 6 4 4
785 1 1 0.5897 1.5526044378405193 20.423916607804603 12.608232845973022 6 4 4
664 1 2 -1.1794 2.0928048266731256 19.951519649190292 15.761244650468026 6 -3 3
192 1 1 0.5897 2.202488292062096 21.52488860826815 16.5652714031958 11 8 -5
233 1 1 0.5897 2.456459243964155 21.215804003376117 20.430310245247657 -1 -1 0
361 1 2 -1.1794 0.13563788031667198 17.29538456764381 20.73127234630619 3 -3 0
770 1 1 0.5897 3.088705264867301 18.4654239108576 20.340672931014513 5 1 0
609 1 1 0.5897 3.949732307748417 17.736977134707356 18.148252785502823 9 -1 4
769 1 2 -1.1794 3.0988372981203596 19.208065436874005 20.94449550273006 5 1 0
771 1 1 0.5897 3.8185599865662794 19.018229047969033 21.546321268529777 5 1 0
607 1 2 -1.1794 3.5678564509652593 18.0059869626832 17.31275052867028 9 -1 4
608 1 1 0.5897 3.014038515272547 17.26947796239364 17.053788217878367 9 -1 4
232 1 2 -1.1794 1.8887679244213633 21.542797162490764 19.732428406891298 -1 -1 0
234 1 1 0.5897 1.1745582741955132 20.90717642713471 19.68644127642436 -1 -1 0
404 1 1 0.5897 4.000324035665621 22.285872211268906 17.502953277230866 7 -4 1
190 1 2 -1.1794 2.0666291922247826 22.35415730263732 17.023617752482025 11 8 -5
191 1 1 0.5897 1.7686264226204949 22.09966087834766 17.896924577450395 11 8 -5
731 1 1 0.5897 7.870536015835651 4.118373945481063 3.8924831723212807 4 0 -4
670 1 2 -1.1794 4.836665420067476 4.662601078794649 1.870308308156038 3 1 -3
99 1 1 0.5897 6.521206557434634 1.5138172251897428 0.23297642522869502 1 -7 7
630 1 1 0.5897 7.006312858458475 5.0866867538432725 2.4118510320628026 -4 -6 4
629 1 1 0.5897 8.421815180738246 5.540365110374681 2.124815324091739 -4 -6 4
155 1 1 0.5897 4.764021966863314 2.652150473260289 5.135591554693315 4 3 -5
184 1 2 -1.1794 8.027865293414445 2.6809067231991266 0.36688174369430104 3 6 5
628 1 2 -1.1794 7.880806612991586 4.755112266061376 2.2080171779504107 -4 -6 4
185 1 1 0.5897 7.884799846453791 3.411984422749445 0.9679633186770361 3 6 5
732 1 1 0.5897 7.837205289449676 4.676815042673194 5.29922379123269 4 0 -4
730 1 2 -1.1794 8.219964556030778 3.975485221381283 4.772100287606691 4 0 -4
488 1 1 0.5897 8.149992288705377 2.297554313437975 5.304962331121693 -1 -8 2
487 1 2 -1.1794 7.907671463602134 1.3902750849539478 5.4902921633415165 -1 -8 2
353 1 1 0.5897 5.919940287145436 5.946615024284738 4.99568085040204 2 3 -4
687 1 1 0.5897 5.0247583929135375 4.808125827780456 0.21758365928525336 8 -8 -4
262 1 2 -1.1794 8.2520032059501 5.842945891795506 7.651973942046247 1 -3 6
270 1 1 0.5897 6.031000785779505 6.305953777907768 10.44233683433515 6 7 7
269 1 1 0.5897 5.008540352667795 5.25586388672777 10.063114572176625 6 7 7
702 1 1 0.5897 8.54810390549235 3.4453301155068625 9.608300984226311 4 0 0
701 1 1 0.5897 8.869650468783309 4.51931158764782 8.590929939866843 4 0 0
352 1 2 -1.1794 6.244772686268261 5.471033863964257 5.760227547547143 2 3 -4
5 1 1 0.5897 5.311461247620598 2.9422686241610467 10.496804454473875 -4 0 -1
392 1 1 0.5897 6.927304674592324 1.5727103713087487 9.675421332474139 7 -1 2
268 1 2 -1.1794 5.181936603922654 6.1959649442542135 10.014252237669075 6 7 7
263 1 1 0.5897 7.439857301433821 5.928684963160657 7.152660073231715 1 -3 6
154 1 2 -1.1794 5.446958710025354 2.772882681037567 5.795319794554621 4 3 -5
391 1 2 -1.1794 6.9909550168870735 2.3423962213079603 10.240887980430912 7 -1 2
156 1 1 0.5897 6.07231806958587 2.0684917947090105 5.625061248643187 4 3 -5
801 1 1 0.5897 4.7529089187446285 2.4551381566843675 7.291320746278789 0 3 -2
449 1 1 0.5897 5.193954511709674 6.228345291435192 6.958285174788113 5 -1 -7
393 1 1 0.5897 7.443278641657334 2.0282594812002217 11.02380395220845 7 -1 2
354 1 1 0.5897 5.832581404670105 4.609241162615605 5.699731047307996 2 3 -4
636 1 1 0.5897 9.042863519460493 2.4998529468881205 15.073394086285463 -8 5 -1
635 1 1 0.5897 8.471362601384042 1.3291656117114943 14.302192675618468 -8 5 -1
634 1 2 -1.1794 8.858172565047214 1.5634415878575256 15.14582486471562 -8 5 -1
744 1 1 0.5897 8.33957009482913 4.501136521265824 13.383834477780992 -1 -1 6
119 1 1 0.5897 7.7055987328775695 2.258597029643357 16.271856254088785 1 -2 -3
742 1 2 -1.1794 7.820478544767777 4.540614231710883 12.580563471224615 -1 -1 6
743 1 1 0.5897 7.030392197796881 4.038607150297979 12.78049497579776 -1 -1 6
861 1 1 0.5897 8.79581564818143 4.822812288605828 15.548563402288202 -4 -1 1
203 1 1 0.5897 5.745939573441629 3.0401458648521484 15.35134099181901 -6 -1 1
202 1 2 -1.1794 5.06606513964162 3.272259378802002 14.718789681600471 -6 -1 1
477 1 1 0.5897 7.664950771446855 6.1257325879974305 11.965999761502562 5 -1 -3
186 1 1 0.5897 7.924371689673178 3.0629859427877557 21.45211859524588 3 6 4
809 1 1 0.5897 7.192187414493741 5.767339043180187 17.860595924294415 5 -1 -3
605 1 1 0.5897 8.392125131814618 3.0475637852735833 19.156268478284762 -8 1 1
606 1 1 0.5897 7.458794814777434 4.2137539544116915 19.402752351639915 -8 1 1
810 1 1 0.5897 6.764111905260459 4.373276387960907 17.454122728481767 5 -1 -3
808 1 2 -1.1794 6.491006365457037 5.126411340029146 17.97798433185119 5 -1 -3
604 1 2 -1.1794 8.148254428383865 3.695250649038139 19.81753189733175 -8 1 1
118 1 2 -1.1794 7.008990807761346 2.758611724908909 16.697234629296826 1 -2 -3
686 1 1 0.5897 5.664443969412211 5.8011879121856635 21.227457566641547 8 -8 -5
95 1 1 0.5897 4.806285143981758 5.238851860621721 17.284551642869555 1 -1 0
685 1 2 -1.1794 5.1205501399231705 5.01370212132753 21.244387546644475 8 -8 -5
120 1 1 0.5897 6.376456324121163 2.0975321243682603 16.978474650610767 1 -2 -3
559 1 2 -1.1794 8.401132347115128 6.4701025304645015 16.75107934456044 5 3 1
18 1 1 0.5897 4.7553918540288285 3.4852786855269606 20.19250679899255 -1 3 0
17 1 1 0.5897 4.733536622864656 2.443421539508897 19.09435877459282 -1 3 0
226 1 2 -1.1794 5.7238962231208745 9.54829223537192 5.594560866737032 3 -3 -1
737 1 1 0.5897 5.746212386771357 8.173613908845489 4.459060652516623 5 1 4
436 1 2 -1.1794 4.713448087497401 11.065221815905936 0.3241877415468747 -4 2 2
580 1 2 -1.1794 5.483419717982224 11.814555724990113 4.027792472731727 0 -4 1
384 1 1 0.5897 7.430264960177274 8.605459910046132 3.6003756898701798 -8 -3 -1
738 1 1 0.5897 5.3733624643666715 7.7652415725185575 3.0497744809154046 5 1 4
749 1 1 0.5897 5.461227121137645 7.91340782567418 0.9329039228144272 5 10 2
589 1 2 -1.1794 7.410515991652683 11.056181045157075 1.375058189882963 -1 4 1
591 1 1 0.5897 6.457062484658377 11.005526668249098 1.3072195964774667 -1 4 1
736 1 2 -1.1794 5.92650135088015 7.5138476203299485 3.7894076079548595 5 1 4
382 1 2 -1.1794 8.043583562230534 9.340168393320536 3.617053325885342 -8 -3 -1
748 1 2 -1.1794 4.6617917394551815 8.353631568775814 1.2215720682081406 5 10 2
383 1 1 0.5897 7.830986546746074 9.848068811874425 2.8340726796069777 -8 -3 -1
227 1 1 0.5897 5.876142264573395 10.323272527265779 5.05376826049442 3 -3 -1
197 1 1 0.5897 7.867321775577556 7.239392375386429 0.30422326130504385 -3 3 1
438 1 1 0.5897 4.657915065523643 10.126626172037787 0.5036605583218113 -4 2 2
816 1 1 0.5897 7.631454020628482 9.64900656683931 8.49704374915375 -7 6 -2
814 1 2 -1.1794 7.476605277936442 9.767606769080713 7.559930041623227 -7 6 -2
380 1 1 0.5897 8.060640176599541 8.65515189468012 10.679194454792503 8 2 -1
815 1 1 0.5897 7.696729953598387 10.684332695542187 7.394446728001168 -7 6 -2
379 1 2 -1.1794 8.052238209331932 9.53224930496038 10.295981175902652 8 2 -1
50 1 1 0.5897 4.964912363257521 10.734156041196162 10.568707241825672 9 -3 1
228 1 1 0.5897 6.440435150301383 9.553966370669377 6.229200233554893 3 -3 -1
49 1 2 -1.1794 5.786674812684253 11.220348019546508 10.501318520026867 9 -3 1
51 1 1 0.5897 6.463692227226698 10.544345064027377 10.471144687491213 9 -3 1
264 1 1 0.5897 8.749499500608945 6.632319408750605 7.438383502586957 1 -3 6
381 1 1 0.5897 8.976717063129865 9.758803419827318 10.194805199457281 8 2 -1
450 1 1 0.5897 4.906632418717511 6.75113649054058 8.34969803578093 5 -1 -7
153 1 1 0.5897 8.918476176856657 8.794592229117798 6.987093842836854 -2 1 2
622 1 2 -1.1794 6.843542215236726 8.741066453557965 16.068607388443947 6 -4 1
476 1 1 0.5897 7.827218983742793 7.57314592614163 12.378954215927614 5 -1 -3
79 1 2 -1.1794 8.1581153263334 8.653434466077318 13.740251122663556 1 2 -5
81 1 1 0.5897 7.613386164333101 8.630001053813011 14.526981686225197 1 2 -5
475 1 2 -1.1794 7.749624612072905 7.0098070594776125 11.608978482507206 5 -1 -3
289 1 2 -1.1794 6.873693119277851 11.620647946891252 16.36311329063556 -7 -4 -7
624 1 1 0.5897 6.063977847200415 8.479046536028127 15.578839534113836 6 -4 1
524 1 1 0.5897 6.064428286729366 10.796864138160494 12.416663423841525 5 0 1
525 1 1 0.5897 6.964960082126934 10.122696416821912 13.42978031760718 5 0 1
80 1 1 0.5897 9.041033480478644 8.457497896445698 14.053757734034654 1 2 -5
523 1 2 -1.1794 6.2548917174456475 10.760112651659835 13.354005532489431 5 0 1
623 1 1 0.5897 6.789806549062161 9.695769309198347 16.112345214319486 6 -4 1
560 1 1 0.5897 8.008760991597022 7.326088054071353 16.5791413946167 5 3 1
167 1 1 0.5897 4.695867847590941 10.79066589583422 14.560127673812358 -1 1 -1
364 1 2 -1.1794 7.7213396868587525 8.841358648788578 19.602801130002458 4 5 1
792 1 1 0.5897 5.930649583922946 10.738396371850321 17.932798438423074 5 5 -1
366 1 1 0.5897 7.059178084115609 9.407612692151556 19.20639272311487 4 5 1
790 1 2 -1.1794 5.616786432805094 10.430274778533 18.78296002351557 5 5 -1
198 1 1 0.5897 7.241058777563314 7.867571105452129 21.034168066814562 -3 3 0
365 1 1 0.5897 8.266284234671167 9.434763935233603 20.119656598222374 4 5 1
791 1 1 0.5897 4.938500267652457 9.789206396420305 18.570401759268 5 5 -1
714 1 1 0.5897 8.82256275930808 10.418791915457605 21.94685761105523 -9 2 2
561 1 1 0.5897 9.080214139347138 6.643943181154881 17.402922595765222 5 3 1
196 1 2 -1.1794 7.025178390619317 7.377172822711616 21.827357147734737 -3 3 0
582 1 1 0.5897 5.2140357810028455 12.41697933250277 3.334437784002961 0 -4 1
317 1 1 0.5897 7.909814082171661 15.122358640904137 4.9755751996379125 -5 -4 2
90 1 1 0.5897 7.210562326054149 14.188903639006865 2.1638189883670536 4 -1 4
88 1 2 -1.1794 7.743914774846848 13.624765985445144 2.7237381832823644 4 -1 4
89 1 1 0.5897 7.535866111488479 13.905384290778265 3.6149145928196824 4 -1 4
316 1 2 -1.1794 7.1755845980652815 14.534263790168676 5.15243109776466 -5 -4 3
581 1 1 0.5897 5.2635290308579386 12.270154196776332 4.840381046653825 0 -4 1
782 1 1 0.5897 7.342144087844019 16.594084863857873 0.3369227462898246 1 -2 -1
590 1 1 0.5897 7.572530607994363 11.841435396390423 1.8979094070497828 -1 4 1
318 1 1 0.5897 6.478595996979925 15.108990981251607 5.4689398045327025 -5 -4 3
8 1 1 0.5897 6.605609558733188 15.774891505318934 7.433458925870996 1 0 -3
556 1 2 -1.1794 8.304853655148627 13.030752739891 10.79587053796591 0 1 3
695 1 1 0.5897 7.56536913884962 13.25866964916443 6.412325284334473 4 -2 -2
696 1 1 0.5897 8.655955315645608 13.011232066299513 7.432940695078613 4 -2 -2
571 1 2 -1.1794 7.463155489027241 16.225031355723992 10.800522586300776 6 -1 -5
526 1 2 -1.1794 8.25836719188591 16.439351539106255 8.250778713228106 -2 -5 1
7 1 2 -1.1794 5.744012887407819 15.416888227592933 7.219657553435165 1 0 -3
527 1 1 0.5897 7.856484595196362 16.51329299362864 9.116366995374573 -2 -5 1
9 1 1 0.5897 5.662359774272857 14.640755318097467 7.773891542231725 1 0 -3
795 1 1 0.5897 5.484264280103558 12.456013459156814 9.120444553200516 -4 -1 7
528 1 1 0.5897 8.837789392968869 15.680526308497315 8.319231072420568 -2 -5 1
694 1 2 -1.1794 8.077452014787207 12.559348001088026 6.818554548258123 4 -2 -2
793 1 2 -1.1794 5.10836215815744 13.19620324936279 8.643951123252192 -4 -1 7
573 1 1 0.5897 7.175247447508342 15.328048354600474 10.630941814629205 6 -1 -5
558 1 1 0.5897 7.558801852055486 12.464454135227355 10.993270214042838 0 1 3
342 1 1 0.5897 8.467603449865335 16.6254184859449 13.656659887568248 -1 2 4
572 1 1 0.5897 7.861955255296126 16.18874753718456 11.669929456765436 6 -1 -5
677 1 1 0.5897 4.992626667229543 16.09464982355615 14.924488680560115 2 -3 -4
676 1 2 -1.1794 5.465547353409869 16.666939668947776 15.528688547811198 2 -3 -4
340 1 2 -1.1794 8.823978582696373 16.136405823351975 12.914972237100466 -1 2 4
557 1 1 0.5897 8.767795373050815 13.116999904267237 11.629215970159045 0 1 3
663 1 1 0.5897 6.674367907262936 15.58205523769005 16.485345446839748 -6 -5 1
341 1 1 0.5897 8.879620599338367 15.233339451882008 13.227399764674395 -1 2 4
291 1 1 0.5897 6.242818731787428 12.18002013423989 15.909986289460909 -7 -4 -7
678 1 1 0.5897 4.804935287946312 16.943958969524722 16.16356707472289 2 -3 -4
290 1 1 0.5897 7.727114040519543 11.993764901865898 16.142476957689713 -7 -4 -7
493 1 2 -1.1794 7.899111042825187 14.93672503319778 21.699527711629464 2 -4 -1
661 1 2 -1.1794 7.157159100623899 15.005658041309289 17.077710485655146 -6 -5 1
253 1 2 -1.1794 8.629329852103563 12.931232505913336 19.302215203172274 0 6 -6
255 1 1 0.5897 8.746446930134974 13.46659879858153 18.517424463941428 0 6 -6
644 1 1 0.5897 6.665152112477987 12.724166492948381 20.31597804161108 9 0 -3
610 1 2 -1.1794 4.949762468980307 14.563356264666835 18.62454104545648 3 8 1
632 1 1 0.5897 8.144186738007534 15.748443281513405 20.140142826002176 2 7 4
643 1 2 -1.1794 5.989731408470569 13.21789028865293 20.78106457588394 9 0 -3
662 1 1 0.5897 6.478216916824566 14.54759490365898 17.57313415865674 -6 -5 1
633 1 1 0.5897 7.8925804311031555 15.635696541113813 18.651570926090553 2 7 4