LAMMPS data file via write_data, version 30 Jul 2021, timestep = 9750000

864 atoms
2 atom types
576 bonds
1 bond types
288 angles
1 angle types

0.28464944216309007 17.922922957835 xlo xhi
1.4268107138480417 22.20236708615561 ylo yhi
0.34727165458058984 21.865924145424614 zlo zhi

Masses

1 1.00794
2 15.9994

Pair Coeffs # lj/cut/tip4p/long/omp

1 0 0
2 0.21084 3.1668

Bond Coeffs # harmonic/omp

1 450 0.9572

Angle Coeffs # harmonic/omp

1 55 104.52

Atoms # full

728 1 1 0.5897 0.5955411624220441 3.9760607321126082 5.0796133723262695 -2 2 -1
305 1 1 0.5897 3.029977018743673 1.5649248265198563 3.398385220459112 6 1 -7
355 1 2 -1.1794 6.49489069315726 3.4869065756397912 1.9825891537181033 -1 -3 3
356 1 1 0.5897 5.91548750771081 3.605695966749961 1.2299593801587017 -1 -3 3
64 1 2 -1.1794 8.909581003433953 3.657470753435388 5.360186929718914 4 -2 -5
459 1 1 0.5897 7.674094041571699 1.6700821530671799 5.02189146317656 2 -1 -1
361 1 2 -1.1794 6.3070875195941 6.002678422758736 3.007841371611244 4 -2 -2
795 1 1 0.5897 5.6773823118428615 3.304656161719967 3.9432713398113504 -4 3 6
89 1 1 0.5897 2.050444752991266 3.7372813953583424 3.4555076080426943 8 -2 2
88 1 2 -1.1794 2.0502661918659157 4.489991531613162 4.046858410444989 8 -2 2
756 1 1 0.5897 3.0799247566313763 3.163489385498133 1.293468928548568 -4 0 -4
793 1 2 -1.1794 5.620978897736461 2.9902554240818273 4.845625755245372 -4 3 6
90 1 1 0.5897 2.0035718566802228 5.250440430536236 3.4673692593380165 8 -2 2
754 1 2 -1.1794 2.4604646158202472 2.72238905474482 1.8748274356102028 -4 0 -4
735 1 1 0.5897 3.5106801472033298 5.100249016543545 4.956162413742404 -3 1 -1
755 1 1 0.5897 1.6109393453324599 2.831199146387814 1.4473422432826277 -4 0 -4
794 1 1 0.5897 5.20794710189709 3.7086936536578627 5.324710293125534 -4 3 6
362 1 1 0.5897 5.751636923609384 5.750724587339747 3.745583511814537 4 -2 -2
707 1 1 0.5897 6.152468234488497 1.5740717484585385 2.070530461584223 -2 -1 -7
431 1 1 0.5897 1.541182401307829 6.096316682105636 0.8322418777494676 -5 -3 -3
357 1 1 0.5897 6.679509255365654 4.375802295000094 2.2859937462890567 -1 -3 3
306 1 1 0.5897 4.045841464289886 1.8903717269880476 4.472671247382089 6 1 -7
363 1 1 0.5897 6.938645327044841 6.617144028311734 3.381808036390916 4 -2 -2
733 1 2 -1.1794 4.377204436825145 5.4306194306072495 5.193370121771249 -3 1 -1
47 1 1 0.5897 9.057435277259342 1.8322202621919124 2.488231173050538 3 -1 1
660 1 1 0.5897 2.4300687657142217 6.5209778308548785 10.985273134345057 -3 0 5
291 1 1 0.5897 2.9606785244118123 1.96128988105756 6.093243050616757 -9 -5 -6
734 1 1 0.5897 4.2075937761127244 6.082557619971153 5.873430254431545 -3 1 -1
677 1 1 0.5897 1.7873090306468742 5.010964537120656 8.452733556255199 6 -1 -4
718 1 2 -1.1794 5.472282488364749 6.027275934000824 10.183306344182855 6 6 1
454 1 2 -1.1794 7.167075907698513 5.198018363590412 7.02724632705839 1 0 2
678 1 1 0.5897 2.749906938664532 4.023554816865017 7.827894915758113 6 -1 -4
577 1 2 -1.1794 0.6450852796868752 1.485666248551798 8.350810167649833 3 3 -3
456 1 1 0.5897 6.691161354059865 5.6674508015896645 6.342112602614394 1 0 2
237 1 1 0.5897 3.785927343359643 6.0049813260509035 7.862971068286388 2 0 -4
164 1 1 0.5897 6.565537735945975 3.7557360953206143 8.324038044209146 -1 2 -1
20 1 1 0.5897 5.466085968673657 1.6212446601172805 8.85741182954918 -4 -4 -1
165 1 1 0.5897 6.635905504732821 3.412623560474459 9.796902820474797 -1 2 -1
163 1 2 -1.1794 6.780588647669511 3.0430693358664858 8.925815063002219 -1 2 -1
455 1 1 0.5897 7.329537642135962 5.857621197466363 7.701638543381628 1 0 2
676 1 2 -1.1794 2.704884576195806 4.738512410258895 8.462782909139262 6 -1 -4
297 1 1 0.5897 8.582272340445066 3.0170059050103335 9.202649043575912 -2 4 -1
579 1 1 0.5897 1.3550227895278584 1.9354275611837028 7.892549199973255 3 3 -3
289 1 2 -1.1794 2.9870485448672177 2.5594846636776367 6.8400740732284575 -9 -5 -6
65 1 1 0.5897 8.252004887069727 4.138488878942438 5.862670671748537 4 -2 -5
719 1 1 0.5897 5.154547437341982 6.2684106351960525 9.31312555540553 6 6 1
290 1 1 0.5897 3.654592991078145 2.1913381025214407 7.418989958240318 -9 -5 -6
659 1 1 0.5897 3.824854685581277 5.93268247314404 10.96131280928673 -3 0 5
56 1 1 0.5897 9.101456855996934 1.8495656684185278 10.902500989579497 -1 0 1
214 1 2 -1.1794 2.691469596121777 2.976605689602608 15.241836878675139 -1 0 3
576 1 1 0.5897 1.5380936603472866 6.3720885900288735 13.585340510082624 2 2 -2
41 1 1 0.5897 6.35374773004629 2.3001029976451375 14.204215451841659 -3 1 2
40 1 2 -1.1794 5.6383351084720985 2.922744945085732 14.07459365509191 -3 1 2
788 1 1 0.5897 2.6337712389058376 2.645680908647522 11.817456881068283 5 -1 4
574 1 2 -1.1794 0.5810354906190788 6.387368677717314 13.575468774715032 2 2 -2
789 1 1 0.5897 2.5435142595815634 4.155708529159993 11.878078610620086 5 -1 4
42 1 1 0.5897 5.598031542803713 3.04802597472759 13.126461992419957 -3 1 2
686 1 1 0.5897 8.97153651200103 6.411549783007912 14.994455947847245 8 -8 -3
658 1 2 -1.1794 2.9915445122338915 5.885982009831994 11.430058948529775 -3 0 5
501 1 1 0.5897 2.386798559096854 4.4808327659808285 16.333668034051744 0 1 -3
494 1 1 0.5897 7.1593971092965445 4.113112391947859 12.001473669329876 -1 0 -2
216 1 1 0.5897 2.043768078774875 2.308872412296292 15.467417354897647 -1 0 3
575 1 1 0.5897 0.3255374926136463 5.9394971833655195 14.381942804313178 2 2 -2
323 1 1 0.5897 8.279426535263827 1.8752338248125318 13.809550296731489 6 2 -4
515 1 1 0.5897 4.356597510352294 5.725267450417394 15.048059340874792 -3 -2 -1
514 1 2 -1.1794 4.961567725793004 5.25692588348126 15.623339030472833 -3 -2 -1
215 1 1 0.5897 2.565416234087427 3.1263736209482937 14.304846633099158 -1 0 3
516 1 1 0.5897 5.206673656581885 4.47509688379073 15.128414256277376 -3 -2 -1
826 1 2 -1.1794 8.767549975489482 4.2518906708099 12.810610431866003 0 3 0
787 1 2 -1.1794 2.3267023047877373 3.3640485799454405 12.370564695562896 5 -1 4
359 1 1 0.5897 6.596914061391428 6.590011740783827 15.406345140190949 1 0 -4
45 1 1 0.5897 3.7374405384247273 1.8249409250032593 16.23438645833095 0 6 -1
493 1 2 -1.1794 6.370984785564401 3.846980741926528 11.528294754208652 -1 0 -2
495 1 1 0.5897 6.000561722092085 4.666054483151691 11.199379323855913 -1 0 -2
630 1 1 0.5897 0.5546174192754412 3.1800769055363913 11.492519920702124 -1 -5 5
239 1 1 0.5897 1.2307837675561735 4.246664324470425 18.42107609769399 -8 -4 0
238 1 2 -1.1794 1.029837142960404 3.886558706340894 19.28494187024296 -8 -4 0
61 1 2 -1.1794 2.827107425472066 1.8830137503390354 19.23480192185641 0 -2 3
62 1 1 0.5897 2.128821457156425 2.5367500848160276 19.270932064475076 0 -2 3
543 1 1 0.5897 9.0019199653574 2.1258381005982017 21.500892897560902 -1 0 1
299 1 1 0.5897 6.951169540759871 3.5913177173280544 18.438534939377227 -6 -2 -1
353 1 1 0.5897 8.613766951432602 6.501292487070805 21.761691037326806 5 3 -2
298 1 2 -1.1794 7.452599838957733 4.406673901454656 18.44417028372179 -6 -2 -1
611 1 1 0.5897 4.296061198546403 3.2656264766559104 20.888479368576057 2 3 0
207 1 1 0.5897 8.651353548536578 3.6507248714874656 19.5455574418501 -6 3 -5
240 1 1 0.5897 1.505267657713378 4.44935956659628 19.896117985094783 -8 -4 0
300 1 1 0.5897 6.7909364034110995 5.0957487865373245 18.383786477266554 -6 -2 -1
499 1 2 -1.1794 1.9093410805990139 5.028983631378065 16.956431103531685 0 1 -3
229 1 2 -1.1794 6.22269966773436 2.1119438052592487 18.592171131881855 2 4 -1
213 1 1 0.5897 8.993615615066652 4.0061589294762445 16.89220721962807 4 3 2
432 1 1 0.5897 1.4703048041923557 6.558971585064004 20.91108916154208 -5 -3 -4
430 1 2 -1.1794 1.4517940139570336 5.771437598274571 21.45491617048252 -5 -3 -4
477 1 1 0.5897 5.191417750797935 6.102807489443739 20.118638596977135 5 -4 -1
612 1 1 0.5897 4.620466069853515 4.591460647580479 21.543400768963423 2 3 0
475 1 2 -1.1794 5.469027371709013 6.033774043198098 21.032126973028085 5 -4 -1
385 1 2 -1.1794 5.183931624778889 5.975584118414429 18.311204180550874 -4 2 0
386 1 1 0.5897 4.92556359054745 5.7016937497607225 17.431133298007097 -4 2 0
610 1 2 -1.1794 4.3574147707940005 3.692957499239711 21.742819380574353 2 3 0
230 1 1 0.5897 5.4534913775266896 1.9202578584421988 18.055651753294768 2 4 -1
14 1 1 0.5897 0.5298473896166794 4.172506259255105 21.809585503994626 2 -4 -3
500 1 1 0.5897 1.0430481783737466 5.138943955959153 16.564360742182487 0 1 -3
680 1 1 0.5897 5.963200022913038 10.89828701597767 0.8624210953324525 -4 -6 1
102 1 1 0.5897 3.060270284614069 10.07035829895864 4.3562223341653565 7 -4 0
526 1 2 -1.1794 4.561688239095287 7.766471281915379 1.6949111288544898 -3 -3 1
318 1 1 0.5897 0.9427346683900817 7.3028445177799926 4.562380564641082 -6 -4 1
292 1 2 -1.1794 7.734303558212505 11.306177036855784 3.522445576973228 -3 -1 3
426 1 1 0.5897 8.415731787143422 8.335168637187735 3.4465266461318578 9 -4 1
101 1 1 0.5897 2.9530430708321784 8.635237558212568 4.826298020739977 7 -4 0
740 1 1 0.5897 1.0266097930215623 9.808257495310606 1.3190459695791839 -1 1 3
73 1 2 -1.1794 2.419783699838359 10.985128351181835 0.9426204150043652 3 0 3
83 1 1 0.5897 8.789967001262273 8.540201068397309 1.2850633247618513 -1 -1 -4
425 1 1 0.5897 7.338577465947313 8.369489494582083 4.50979830514638 9 -3 1
428 1 1 0.5897 0.63872838400912 10.21535300115805 3.4152843550874072 1 0 -3
225 1 1 0.5897 5.228955839215653 9.580609819234171 5.217302378876059 0 -1 -6
223 1 2 -1.1794 6.164555495970703 9.568822266684966 5.419261857576804 0 -1 -6
424 1 2 -1.1794 7.868956374693182 7.7665885718889776 3.9887638332876563 9 -3 1
739 1 2 -1.1794 0.5516777583453008 9.109377229317722 1.7688689179914767 -1 1 3
38 1 1 0.5897 4.848729270849579 11.352859005767279 2.5991211021515483 0 0 -3
527 1 1 0.5897 5.053899207441179 8.58740946694246 1.6869593349288732 -3 -3 1
404 1 1 0.5897 2.7946395260659216 7.351162386810717 2.2804937526420153 6 -1 0
681 1 1 0.5897 6.853733719983719 10.60697460453857 2.051573663749471 -4 -6 1
405 1 1 0.5897 1.2927649565081665 7.541839518353652 2.2782748408536797 6 -1 0
74 1 1 0.5897 2.9872624712347124 11.205606549622354 1.6812898432405503 3 0 3
679 1 2 -1.1794 6.087313926077854 10.278644179221974 1.5813844981086018 -4 -6 1
224 1 1 0.5897 6.524022881876921 10.31209556783207 4.9348941704926474 0 -1 -6
316 1 2 -1.1794 1.2857747353071374 7.549795151338194 5.421221455553364 -6 -4 1
37 1 2 -1.1794 4.035327866467808 11.532410376649718 3.070826330972295 0 0 -3
528 1 1 0.5897 5.109467089156704 7.16306627100497 2.1970203455062784 -3 -3 1
100 1 2 -1.1794 3.496217578980384 9.419373244891712 4.906172896833444 7 -4 0
293 1 1 0.5897 8.532628566334155 11.260950925960401 4.0486601228503964 -3 -1 3
403 1 2 -1.1794 1.978295091886148 6.934549030546176 2.5566910548566804 6 -1 0
427 1 2 -1.1794 0.7875070874415028 10.965177716993871 3.9913931514851924 1 0 -3
236 1 1 0.5897 3.8649513455110713 7.483180277832851 7.545689292092306 2 0 -4
235 1 2 -1.1794 4.410433948899674 6.711835838306415 7.699804864941325 2 0 -4
534 1 1 0.5897 6.331710279206121 9.75221181378585 7.201074898595585 -7 -2 1
768 1 1 0.5897 0.3230675747964316 7.5636317754769395 10.27672472195916 -1 -2 0
532 1 2 -1.1794 6.333977963120178 10.013163031499353 8.122053205094186 -7 -2 1
533 1 1 0.5897 6.530452799703037 9.207056486941461 8.59940305957982 -7 -2 1
765 1 1 0.5897 8.863772619767893 10.238809088120043 10.325822608122813 -7 2 -2
764 1 1 0.5897 8.949266594298479 8.940378086925172 9.55202852753879 -7 2 -2
767 1 1 0.5897 1.4226800272270996 7.856845790920523 9.278294431267133 -1 -2 0
808 1 2 -1.1794 2.316247082041688 8.613226841318168 7.762685403189162 4 -1 -2
809 1 1 0.5897 2.002672911025757 8.409894886733854 6.881429189987429 4 -1 -2
70 1 2 -1.1794 3.0021742228722648 11.542333015220004 7.982517516685468 2 1 -3
766 1 2 -1.1794 1.2733859893116968 7.649714516556555 10.20083577444136 -1 -2 0
810 1 1 0.5897 2.740688052287314 9.46675214220415 7.675394396711563 4 -1 -2
720 1 1 0.5897 5.896560314871534 6.819868914274745 10.512043054592905 6 6 1
334 1 2 -1.1794 8.203331938646976 7.596444226761545 8.557771015718023 4 0 2
86 1 1 0.5897 5.375155318243022 11.320025353859501 9.29044501204165 -1 5 1
331 1 2 -1.1794 6.53217541823723 8.652284988632557 10.92127646860585 -1 -3 -5
335 1 1 0.5897 8.700090751466423 7.702769273663827 7.746466225104136 4 0 2
327 1 1 0.5897 7.243240810424864 11.633638155110607 8.397950844965928 1 -1 -1
336 1 1 0.5897 8.747019647986827 7.023723969993721 9.098759178515497 4 0 2
317 1 1 0.5897 0.5067463275735545 7.691632745500074 5.95908653648404 -6 -4 0
72 1 1 0.5897 2.096312814041883 11.80712401897784 7.822556311017378 2 1 -3
780 1 1 0.5897 1.526963753098183 9.38314212470335 11.106321779149344 -2 -1 -1
132 1 1 0.5897 3.447234550915248 9.797537577443757 12.146593387641232 -6 2 -1
198 1 1 0.5897 7.489498426658061 9.697615942396308 13.553290801716663 -2 -2 0
196 1 2 -1.1794 6.683520314744956 9.598547270516452 14.06012128074951 -2 -2 0
840 1 1 0.5897 3.381660445354692 7.725681076464887 14.085018197149768 -3 -1 -3
131 1 1 0.5897 4.609583745269404 10.55921985877588 11.545881455600139 -6 2 -1
130 1 2 -1.1794 4.402909138829039 9.851331403738003 12.156179420701491 -6 2 -1
779 1 1 0.5897 1.2422175073839814 9.929693901609793 12.489146518056586 -2 -1 -1
396 1 1 0.5897 7.857258170451782 11.77976332355816 12.199174283752294 3 -2 4
415 1 2 -1.1794 1.613276050646248 11.581461528617947 16.010743573194993 0 -1 -1
394 1 2 -1.1794 7.623736053593336 11.353061923376492 11.374739073222703 3 -2 5
360 1 1 0.5897 7.267913186762058 7.900810949946965 15.05484339807683 1 0 -4
358 1 2 -1.1794 7.388237112588563 7.103110184958467 15.570077498516069 1 0 -4
644 1 1 0.5897 8.86935900058132 10.743498756415253 16.284800808098552 3 -2 0
778 1 2 -1.1794 1.7543974108823366 10.099916601473897 11.698598556134558 -2 -1 -1
197 1 1 0.5897 5.9941945988866925 9.9230611962591 13.480636639325944 -2 -2 0
762 1 1 0.5897 2.472142448635731 10.046221882247828 15.595272884875019 -2 -3 -3
760 1 2 -1.1794 3.1262197463190526 9.347650069640258 15.573712638176934 -2 -3 -3
761 1 1 0.5897 3.9667401032300855 9.805014860266308 15.598874996209725 -2 -3 -3
839 1 1 0.5897 3.492918554916794 6.762805925312412 12.922055640142405 -3 -1 -3
332 1 1 0.5897 5.708735996264497 8.971719715565698 11.290323139705666 -1 -3 -5
751 1 2 -1.1794 5.316490094505263 11.172261976563368 16.259419163564537 3 0 -1
752 1 1 0.5897 6.2436524476506365 10.944621138196618 16.189786696387117 3 0 -1
838 1 2 -1.1794 3.523013039966687 6.80186380993299 13.87800395806357 -3 -1 -3
753 1 1 0.5897 5.159379002688946 11.766114370218558 15.525282180354584 3 0 -1
643 1 2 -1.1794 8.178797844435525 11.404570694256057 16.333600035984098 3 -2 0
333 1 1 0.5897 7.191137474985525 9.273465184249737 11.23143935811301 -1 -3 -5
395 1 1 0.5897 6.736529130365518 11.660343339153192 11.1883477280051 3 -2 5
420 1 1 0.5897 0.8505238553212626 10.579763184784664 17.08911185886152 -10 -3 5
844 1 2 -1.1794 7.6964025235170705 8.98381416244639 19.624382134163113 -2 0 3
375 1 1 0.5897 2.9259404480556244 9.34725727401128 19.95902870046251 3 5 -1
592 1 2 -1.1794 5.273849095576792 8.695491962257563 18.22978887945836 -3 1 -2
407 1 1 0.5897 1.9636945410156235 7.681142078675775 19.133808189053255 -2 -2 1
846 1 1 0.5897 7.775121150950956 8.354108279514694 20.34100624883697 -2 0 3
408 1 1 0.5897 0.7850404627895761 8.193881508197528 19.933727739992364 -2 -2 1
594 1 1 0.5897 5.19911488533568 9.298139405827076 17.489853073434183 -3 1 -2
373 1 2 -1.1794 3.637765816640443 9.987199802795914 19.96582771891373 3 5 -1
354 1 1 0.5897 7.135553384426069 6.823875389321779 21.708651971208546 5 3 -2
374 1 1 0.5897 4.293661638591494 9.622924454184881 19.371353681090433 3 5 -1
406 1 2 -1.1794 1.7273147775625153 8.035425035778271 19.991058789349253 -2 -2 1
476 1 1 0.5897 4.986428509872312 6.726893006847294 21.482643475440206 5 -4 -1
249 1 1 0.5897 8.553702665360914 7.4493107085573165 16.914615742102647 -3 5 -3
593 1 1 0.5897 6.117619271795849 8.908478419909802 18.628512665685257 -3 1 -2
352 1 2 -1.1794 7.999539436632734 7.235016630028522 21.73633896122419 5 3 -2
387 1 1 0.5897 5.194353385545107 6.9319248643542934 18.271548884357543 -4 2 0
845 1 1 0.5897 8.37717499252323 9.63344940329374 19.799873835417444 -2 0 3
419 1 1 0.5897 0.9863881828307044 9.341674988116445 17.949799047421713 -10 -3 5
772 1 2 -1.1794 1.9501208531460472 7.723798118669944 17.291511929368014 -1 -3 1
773 1 1 0.5897 2.1581794458874684 6.800335885542265 17.1493360699156 -1 -3 1
248 1 1 0.5897 8.571848033986734 8.171580794188799 18.245027671613137 -3 5 -3
774 1 1 0.5897 2.5778789408054785 8.197942512360086 16.74617468225943 -1 -3 1
418 1 2 -1.1794 0.409405728867709 10.086555108257523 17.780830278162313 -10 -3 5
75 1 1 0.5897 3.0186403645366493 10.66993688559284 21.784290958652242 3 0 2
513 1 1 0.5897 8.541129515286576 14.161385320001722 2.0299095688247375 -3 2 -4
566 1 1 0.5897 3.687745575609546 16.886767644595288 1.7200295761674722 -1 6 -5
252 1 1 0.5897 3.989978992965284 14.442896074839911 2.312242346942824 4 -4 2
250 1 2 -1.1794 3.4241543562523935 14.19309950379475 3.0428021431409085 4 -4 2
509 1 1 0.5897 2.5413903750439486 16.622786024668653 4.786665422813698 5 0 2
667 1 2 -1.1794 5.548026107784616 16.10577092263123 2.5076657051182734 -6 -4 2
184 1 2 -1.1794 7.367497110767552 16.623701576995778 0.517691728492921 -2 7 3
149 1 1 0.5897 1.474268174969481 13.796252544745071 3.6974990207756884 -3 -1 6
39 1 1 0.5897 3.8824119730742317 12.467985177018443 2.9380629503176925 0 0 -3
251 1 1 0.5897 3.676773527582639 14.78167505432579 3.7541657430921647 4 -4 2
668 1 1 0.5897 6.070876745365778 16.260488481229437 1.7209247044763267 -6 -4 1
150 1 1 0.5897 0.5641550248075564 12.58661626701279 3.6755260060360864 -3 -1 6
185 1 1 0.5897 8.148384300804121 16.936889831007605 0.9742102294193612 -2 7 3
77 1 1 0.5897 7.0727907981777385 14.127133949078434 4.459404348414107 -6 -5 -1
78 1 1 0.5897 6.496499941131471 14.79721024873023 3.2302249346842604 -6 -5 -1
76 1 2 -1.1794 7.144169799129446 14.148172041668179 3.5050808332560806 -6 -5 -1
699 1 1 0.5897 4.153622973834111 11.823840882529275 5.192371304835198 0 4 -2
484 1 2 -1.1794 4.000997696594224 15.658052857433816 5.570935095580419 -1 2 0
368 1 1 0.5897 0.32429281985622865 13.946710306484363 0.5540898604105718 3 4 -2
669 1 1 0.5897 5.635959634240395 16.911713797977967 3.016607306401791 -6 -4 2
148 1 2 -1.1794 0.563552672726829 13.536599448169294 3.558028853459748 -3 -1 6
294 1 1 0.5897 7.4901480622159795 12.231643902368937 3.535826052803091 -3 -1 3
623 1 1 0.5897 0.4471644385332737 16.07275982845224 0.7707710733105231 7 -2 2
750 1 1 0.5897 7.767279409973253 16.751363780028203 5.640696161805651 4 5 0
485 1 1 0.5897 4.957159667344978 15.64962006767266 5.526452307226502 -1 2 0
559 1 2 -1.1794 7.027714988544517 15.938537921604146 8.637271244118317 2 1 2
326 1 1 0.5897 7.441699638924344 12.79268370470385 9.351537216180319 1 -1 -1
435 1 1 0.5897 1.9427988882816953 15.51248061882803 8.120183856063957 3 3 -3
757 1 2 -1.1794 7.03511152338458 14.325860401367205 10.848649258594323 -1 2 -1
841 1 2 -1.1794 1.198045442618788 14.465570625619248 6.626848175109159 -2 0 0
441 1 1 0.5897 0.995860470770997 15.123310180398473 10.078424147127434 0 0 -2
749 1 1 0.5897 6.8775468208961685 16.325047365724473 6.789024522924802 4 5 0
560 1 1 0.5897 7.966546843597795 16.0485601108997 8.78819345720596 2 1 2
843 1 1 0.5897 0.8880068875707834 13.659291266417355 7.039260027782461 -2 0 0
60 1 1 0.5897 5.403838674123964 14.67411086477845 8.425804551699843 7 -2 -1
325 1 2 -1.1794 7.639610338576958 12.502693254590898 8.460986795626154 1 -1 -1
58 1 2 -1.1794 4.695301412145019 14.242823450964384 8.903549699512913 7 -2 -1
433 1 2 -1.1794 2.3508299587719645 15.738326521197584 8.956111122992262 3 3 -3
59 1 1 0.5897 3.950083765232782 14.83713543358829 8.81570143868273 7 -2 -1
759 1 1 0.5897 7.022214941985197 14.848351646799767 10.04666811836658 -1 2 -1
842 1 1 0.5897 0.48867124055901123 14.72178533063703 6.037430050236246 -2 0 0
85 1 2 -1.1794 5.093821053778923 11.815711112357123 10.059498695441613 -1 5 1
69 1 1 0.5897 7.003279045046336 13.440242037780736 7.120959425082422 5 -3 -4
87 1 1 0.5897 4.97813245465722 12.71032891960165 9.73927527001099 -1 5 1
439 1 2 -1.1794 0.3107176664024344 14.801825460914259 10.664512185648782 0 0 -2
134 1 1 0.5897 1.4772542309587329 13.333466238960984 10.824665973454787 3 -4 -4
698 1 1 0.5897 3.725131122870884 12.28631106660447 6.568780069179262 0 4 -2
748 1 2 -1.1794 6.848467660090104 16.64725173994834 5.888118003023364 4 5 0
67 1 2 -1.1794 6.763323179099149 13.552028344738074 6.201071928702401 5 -3 -4
697 1 2 -1.1794 4.288696113113276 12.52294985422435 5.832117198061889 0 4 -2
68 1 1 0.5897 5.914152213020727 13.1177245657376 6.120072959948332 5 -3 -4
561 1 1 0.5897 6.65733014280701 16.808785619655026 8.784799789104268 2 1 2
135 1 1 0.5897 1.9752719626328343 11.92382195882271 11.063135758129071 3 -4 -4
486 1 1 0.5897 3.7670765415097622 14.780469155808515 5.873260701306329 -1 2 0
434 1 1 0.5897 2.588485832245929 16.66114882327326 8.865600007316777 3 3 -3
71 1 1 0.5897 3.2280733978802916 11.952044859596542 8.81762243830942 2 1 -3
133 1 2 -1.1794 2.268893691602032 12.834105791766168 11.025202849345472 3 -4 -4
199 1 2 -1.1794 5.449215673966807 15.71529245880886 15.010793520157794 3 -6 0
710 1 1 0.5897 1.9269428402657474 16.088520135015294 14.294874934175212 -5 -7 -2
103 1 2 -1.1794 8.206094997528147 12.695594195632005 13.771632694950272 4 -1 5
417 1 1 0.5897 1.7625180043638666 12.096187982796327 15.217597395120583 0 -1 -1
26 1 1 0.5897 2.166078394989176 12.979162465241286 12.880428671617553 -5 5 4
721 1 2 -1.1794 1.3761641796924426 16.627515687732497 12.490421388073 2 -1 1
481 1 2 -1.1794 8.578759114311334 16.688986540300654 13.279867756276893 0 2 -1
661 1 2 -1.1794 4.4704220758897195 14.3514178230192 12.087519237277824 -5 -6 2
483 1 1 0.5897 8.825793056678167 15.987648950040136 12.6770677122679 0 2 -1
200 1 1 0.5897 5.6523167771272504 14.807951589703555 14.78327216594566 3 -6 0
25 1 2 -1.1794 1.9785926041936865 13.024980173907336 13.81798897971037 -5 5 4
201 1 1 0.5897 4.492766449711827 15.750440855267017 15.026542825080694 3 -6 0
342 1 1 0.5897 5.114732278197801 13.476694427826894 13.401096661048202 2 5 2
340 1 2 -1.1794 5.533875879079866 13.220068643975353 14.222518128776345 2 5 2
662 1 1 0.5897 5.204854924374193 14.414013667472945 11.476801959878262 -5 -6 2
341 1 1 0.5897 6.450442806219195 13.073452219375843 13.988687260654581 2 5 2
27 1 1 0.5897 2.1622940640725625 13.933931532689435 14.055328745909385 -5 5 4
582 1 1 0.5897 4.4773269742165684 16.25199756709761 12.387826366942965 -3 -4 2
663 1 1 0.5897 3.8138742022652385 13.834006342646658 11.62110722599699 -5 -6 2
711 1 1 0.5897 1.8323917878706617 15.618744527936306 15.73097558964987 -5 -7 -2
709 1 2 -1.1794 2.328619055520697 15.48809921285421 14.922915458023214 -5 -7 -2
696 1 1 0.5897 8.599837950181513 16.221511203006028 15.246467732647947 2 0 0
104 1 1 0.5897 9.00678785097052 13.195841747232976 13.929487647663965 4 -1 5
440 1 1 0.5897 0.3712398196660243 15.365034370964665 11.436148227735496 0 0 -2
105 1 1 0.5897 8.093959161282413 12.166605975684039 14.561490380257778 4 -1 5
694 1 2 -1.1794 8.982169959292984 15.952984228445056 16.08193610084576 2 0 0
723 1 1 0.5897 2.233460136720846 16.856521264620213 12.131420100230217 2 -1 1
758 1 1 0.5897 7.932396769508985 14.405363915947886 11.172439301590538 -1 2 -1
279 1 1 0.5897 6.494195663336738 12.824019543123226 21.011078352578323 -1 2 1
823 1 2 -1.1794 5.48850597396196 13.123069727818622 18.234467803230856 1 4 1
278 1 1 0.5897 5.015861685514727 12.663454392771218 21.295251484426934 -1 2 1
664 1 2 -1.1794 2.3122711554068047 13.083567415117685 18.208576659593312 3 2 2
852 1 1 0.5897 6.192224792307134 15.668513689093823 16.692374630449038 -6 0 -4
850 1 2 -1.1794 6.637325787321723 15.614908270067945 17.53813477284602 -6 0 -4
609 1 1 0.5897 0.7879713058513047 16.066214928895533 17.940661472834734 3 1 2
307 1 2 -1.1794 4.834834438562787 16.4700075636466 19.411227582992538 -1 5 -4
466 1 2 -1.1794 1.4372623514674165 13.078482010532475 20.838402993759964 5 -3 4
467 1 1 0.5897 1.74660386153734 12.823143907703665 19.969277975593826 5 -3 4
665 1 1 0.5897 1.955007908583217 13.929711070297081 17.938991861538796 3 2 2
288 1 1 0.5897 4.199335336798146 14.930174467123766 20.571256898697122 2 1 3
607 1 2 -1.1794 0.8499403912437781 15.255221759379081 17.43591412782758 3 1 2
666 1 1 0.5897 3.259052141870477 13.22134781621236 18.238453106632058 3 2 2
286 1 2 -1.1794 3.9568630722757 14.285298096961867 21.23580900069775 2 1 3
851 1 1 0.5897 6.317036860780025 14.800853192589289 17.92671817406447 -6 0 -4
651 1 1 0.5897 7.274162816746971 14.831859547301994 20.479216973237804 3 -1 -1
650 1 1 0.5897 8.340292658275201 14.0884583549478 21.255559787665746 3 -1 -1
649 1 2 -1.1794 7.723107563671728 13.988025677362113 20.53080803579114 3 -1 -1
309 1 1 0.5897 5.26614992864076 16.260591859038833 18.582745339139727 -1 5 -4
468 1 1 0.5897 1.702982625514449 12.357420748291231 21.409134266235895 5 -3 4
825 1 1 0.5897 5.386243005504216 12.433049520803173 17.57896338227873 1 4 1
287 1 1 0.5897 3.0507153038351658 14.056491331247143 21.028817124226904 2 1 3
277 1 2 -1.1794 5.820268215311809 12.161570323470995 21.163648430397345 -1 2 1
824 1 1 0.5897 5.951753637922156 12.700344779667939 18.957636812362054 1 4 1
622 1 2 -1.1794 0.7148113645700908 16.87991455927083 21.849952102125968 7 -2 1
726 1 1 0.5897 8.495307147567773 13.69170278582053 18.993501257676762 -3 -3 2
724 1 2 -1.1794 8.983283250048814 13.262002566034433 18.29100091252959 -3 -3 2
416 1 1 0.5897 1.976876566039178 12.116684127009979 16.71617083819161 0 -1 -1
645 1 1 0.5897 8.485449604973391 12.023478943681308 16.99632925125811 3 -2 0
308 1 1 0.5897 4.007055557014576 16.876577676911552 19.154796344814244 -1 5 -4
695 1 1 0.5897 8.272074597010276 16.057191533216823 16.715331514547586 2 0 0
523 1 2 -1.1794 5.71495208213771 18.23361475996749 4.074830506563583 4 -1 1
690 1 1 0.5897 4.201218835002543 19.105655065426514 4.677310446326902 3 -2 4
81 1 1 0.5897 7.86389803658681 20.436439908809874 3.956646996313725 1 -1 -3
219 1 1 0.5897 2.6358729090419435 20.585033121613023 2.2691654086841213 6 -2 -1
801 1 1 0.5897 0.5751172965017053 19.707575326528538 2.544363910030095 1 -3 3
565 1 2 -1.1794 3.00470483109692 17.55505121013816 1.7764444932914074 -1 6 -5
218 1 1 0.5897 3.611937259837104 19.465616144676442 1.9755074670173394 6 -2 -1
567 1 1 0.5897 2.5908549424583076 17.404058008557726 2.626268443627596 -1 6 -5
708 1 1 0.5897 5.05374080562313 21.395729024107855 1.652366346895592 -2 -2 -7
217 1 2 -1.1794 3.453801161628645 20.395007778568832 1.8096145671375983 6 -2 -1
79 1 2 -1.1794 7.902885299157083 19.83503445420897 3.212966985479929 1 -1 -3
799 1 2 -1.1794 1.0513126256551264 20.332022955068176 3.091695717808349 1 -3 3
304 1 2 -1.1794 3.270190132535083 22.13185450512068 4.301183955075053 6 0 -7
706 1 2 -1.1794 6.0038969850452215 21.460443413105175 1.7487434933594916 -2 -2 -7
510 1 1 0.5897 2.4122276233278366 18.10683019398436 4.516593644797023 5 0 2
524 1 1 0.5897 6.066585059503854 17.697546946315484 4.785647006966239 4 -1 1
525 1 1 0.5897 6.470357173444981 18.72025223484725 3.744946584975222 4 -1 1
80 1 1 0.5897 7.491129764758807 20.314974946894335 2.494356412141992 1 -1 -3
688 1 2 -1.1794 3.465782840339781 19.473990625518848 5.166947013921432 3 -2 4
689 1 1 0.5897 3.30799264734586 20.32530175489392 4.758716657717695 3 -2 4
800 1 1 0.5897 0.5062897273235405 21.11891796001142 3.087836223922363 1 -3 3
457 1 2 -1.1794 7.901942593720239 21.53923065133061 5.228720296604148 2 -2 -1
437 1 1 0.5897 0.39816764634637425 19.65502015894384 4.975151431897384 -2 5 0
264 1 1 0.5897 8.995794691946129 18.513977951992963 2.489373466326043 4 -3 7
541 1 2 -1.1794 8.947488516118506 22.05311240978064 0.42238530542978026 -1 -1 2
624 1 1 0.5897 1.5995566510655321 17.047859436850484 0.6558392740084451 7 -2 2
508 1 2 -1.1794 1.9915474722569717 17.26561660206611 4.338650519304173 5 0 2
458 1 1 0.5897 7.091565821168094 21.1596076227136 5.568491685740217 2 -2 -1
31 1 2 -1.1794 8.992919588133379 20.67508700493487 7.626567287522606 6 6 3
181 1 2 -1.1794 7.786285699904291 20.08401498059917 9.91925417951832 -1 1 0
21 1 1 0.5897 4.118602974191597 21.986718262715534 9.412488569744857 -4 -5 0
183 1 1 0.5897 8.235418710158278 20.384733774498116 9.129235654719444 -1 1 0
152 1 1 0.5897 6.501607981742409 19.129692650562585 9.023118351166486 1 0 -1
33 1 1 0.5897 8.59297504423033 21.16386766970717 6.907256423012909 6 6 3
714 1 1 0.5897 2.9187353704358543 18.465844739361582 7.41985060527779 -8 -3 3
182 1 1 0.5897 8.150556909109298 19.214708495483613 10.086237970819631 0 1 0
153 1 1 0.5897 5.9673628365111755 19.111100025185188 7.606694810704054 1 0 0
19 1 2 -1.1794 4.579751475224302 22.15316216196412 8.590352656705996 -4 -5 0
544 1 2 -1.1794 5.603441382632901 20.611263390174965 6.532466741387867 -4 3 5
712 1 2 -1.1794 3.094656276288836 18.428995303317446 8.360044114036464 -8 -3 3
127 1 2 -1.1794 1.2262557100108469 19.89650893071026 9.646621920825725 1 0 -4
713 1 1 0.5897 4.046907149505474 18.49789559724002 8.428905223161129 -8 -3 3
545 1 1 0.5897 5.421251200181165 21.106861516334742 7.330880319302725 -4 3 5
128 1 1 0.5897 1.918664391771349 19.459433401019453 9.150835514997462 1 0 -4
413 1 1 0.5897 2.322525764986374 21.027665184224258 10.795103661602758 1 -5 5
151 1 2 -1.1794 5.997039087584016 18.593532915874228 8.411388382189395 1 0 0
129 1 1 0.5897 1.0028520130227352 20.664586361486805 9.120857657310266 1 0 -4
546 1 1 0.5897 4.739708835065327 20.414087145175724 6.170036588243318 -4 3 5
57 1 1 0.5897 8.446577162692265 21.26018121119968 10.911235233618076 -1 -1 1
847 1 2 -1.1794 3.3775754820113297 18.43555186285389 14.273544143893329 7 -3 6
414 1 1 0.5897 3.427273789343121 21.142625804838488 11.823855864326545 1 -5 5
324 1 1 0.5897 7.537009836508442 21.354267975790492 14.054222280592104 6 1 -4
110 1 1 0.5897 6.098931854898356 17.310750133642802 11.581869188436263 -2 -4 -8
595 1 2 -1.1794 4.371318075911655 20.88851977069876 13.617066511222585 2 -6 1