#include		in.partitions
include		in.temp
variable        temperature equal 266.55
variable	tempDamp equal 100.0
include		in.pressure
variable        pressure equal 8750.0
variable        pressureDamp equal 1000.0 # This is 1 ps
include		in.seed
variable        seed equal 745823

units		real
atom_style	full
read_restart	restart.lmp.${pid}
read_restart	restart.lmp.1
Reading restart file ...
  restart file = 30 Jul 2021, LAMMPS = 30 Jul 2021
  restoring atom style full from restart
  orthogonal box = (0.58891518 1.7851956 0.71847515) to (17.618657 21.843982 21.494721)
  2 by 4 by 4 MPI processor grid
  restoring pair style lj/cut/tip4p/long/omp from restart
  restoring bond style harmonic/omp from restart
  restoring angle style harmonic/omp from restart
  864 atoms
  576 bonds
  288 angles
Finding 1-2 1-3 1-4 neighbors ...
  special bond factors lj:    0        0        0       
  special bond factors coul:  0        0        0       
     2 = max # of 1-2 neighbors
     1 = max # of 1-3 neighbors
     1 = max # of 1-4 neighbors
     2 = max # of special neighbors
  special bonds CPU = 0.002 seconds
  read_restart CPU = 0.007 seconds
include 	in.setup
variable	out_freq equal 1000
variable	out_freq2 equal 10000
variable	out_freq3 equal 1000

timestep	2.0

neigh_modify    delay 7 every 1

include		in.tip4p
# This is TIP4P/Ice

# create groups ###
group ox type 2
288 atoms in group ox
group hy type 1
576 atoms in group hy

# set charges - beside manually ###
set group ox charge -1.1794
Setting atom values ...
  288 settings made for charge
set group hy charge 0.5897
Setting atom values ...
  576 settings made for charge

# ### TIP3P Potential Parameters ###
pair_style lj/cut/tip4p/long/omp 2 1 1 1 0.1577 8.5
pair_coeff 1 1*2 0.000 0.000
pair_coeff 2 2 0.21084 3.1668
bond_style  harmonic
bond_coeff  1 450 0.9572
angle_style harmonic
angle_coeff 1 55 104.52
kspace_style pppm/tip4p/omp 1.0e-5
pair_modify tail yes

thermo          ${out_freq}
thermo          1000
thermo_style    custom step temp pe etotal epair emol press lx ly lz vol pxx pyy pzz pxy pxz pyz enthalpy

restart 	${out_freq3} restart.lmp.${pid} restart2.lmp.${pid}
restart 	1000 restart.lmp.${pid} restart2.lmp.${pid}
restart 	1000 restart.lmp.1 restart2.lmp.${pid}
restart 	1000 restart.lmp.1 restart2.lmp.1


include         in.dump
dump            myDump all atom ${out_freq2} dump.water.${pid}
dump            myDump all atom 10000 dump.water.${pid}
dump            myDump all atom 10000 dump.water.1
dump            myDump2 all dcd ${out_freq2} dump.dcd
dump            myDump2 all dcd 10000 dump.dcd
dump_modify     myDump append yes
dump_modify     myDump2 append yes


variable natoms 	equal  "count(all)"                        # NUMBER ATOMS
variable H      	equal  "enthalpy/v_natoms"                 # ENTHALPY-per-atom
variable Vol      	equal  "vol/v_natoms"                 # volume-per-atom
fix AVG all 		ave/time ${out_freq} 1 ${out_freq} v_Vol v_H file vol_enthalpy.dat
fix AVG all 		ave/time 1000 1 ${out_freq} v_Vol v_H file vol_enthalpy.dat
fix AVG all 		ave/time 1000 1 1000 v_Vol v_H file vol_enthalpy.dat


timer           timeout 23:50:00 every 1000
New timer settings: style=normal  mode=nosync  timeout=23:50:00

fix 		1 all shake 1e-6 200 0 b 1 a 1
       0 = # of size 2 clusters
       0 = # of size 3 clusters
       0 = # of size 4 clusters
     288 = # of frozen angles
  find clusters CPU = 0.001 seconds
fix             2 all nph iso ${pressure} ${pressure} ${pressureDamp}
fix             2 all nph iso 8750 ${pressure} ${pressureDamp}
fix             2 all nph iso 8750 8750 ${pressureDamp}
fix             2 all nph iso 8750 8750 1000
fix             3 all temp/csvr ${temperature} ${temperature} ${tempDamp} ${seed}
fix             3 all temp/csvr 266.55 ${temperature} ${tempDamp} ${seed}
fix             3 all temp/csvr 266.55 266.55 ${tempDamp} ${seed}
fix             3 all temp/csvr 266.55 266.55 100 ${seed}
fix             3 all temp/csvr 266.55 266.55 100 745823

run             250000
PPPM initialization ...
  extracting TIP4P info from pair style
  using 12-bit tables for long-range coulomb (../kspace.cpp:340)
  G vector (1/distance) = 0.37399581
  grid = 24 24 24
  stencil order = 5
  estimated absolute RMS force accuracy = 0.0031914618
  estimated relative force accuracy = 9.6109925e-06
  using double precision FFTW3
  3d grid and FFT values/proc = 3549 432
Last active /omp style is kspace_style pppm/tip4p/omp
Neighbor list info ...
  update every 1 steps, delay 7 steps, check yes
  max neighbors/atom: 2000, page size: 100000
  master list distance cutoff = 10.8154
  ghost atom cutoff = 10.8154
  binsize = 5.4077, bins = 4 4 4
  1 neighbor lists, perpetual/occasional/extra = 1 0 0
  (1) pair lj/cut/tip4p/long/omp, perpetual
      attributes: half, newton on, omp
      pair build: half/bin/newton/omp
      stencil: half/bin/3d
      bin: standard
Per MPI rank memory allocation (min/avg/max) = 10.20 | 10.20 | 10.20 Mbytes
Step Temp PotEng TotEng E_pair E_mol Press Lx Ly Lz Volume Pxx Pyy Pzz Pxy Pxz Pyz Enthalpy 
 5250000    273.45489   -3807.1967   -3338.5044   -3807.1967            0    9750.1952    17.029742    20.058787    20.776246    7097.0816    9902.7123    9291.5297    10056.344     286.3092    1827.8503   -1140.2716   -2329.3236 
 5251000    264.72608   -3866.4097   -3412.6782   -3866.4097            0    5039.2241    17.082085    20.120439    20.840103    7162.7236    5211.2341    4847.3179    5059.1203     58.22008   -1396.1075     101.4667    -2886.276 
 5252000    271.26481   -3843.4662   -3378.5276   -3843.4662            0    8349.0747    17.006773    20.031732    20.748223     7068.403    6179.9391    9149.1652    9718.1198   -755.84636    570.05834   -613.44217   -2517.8599 
 5253000    262.95673   -3841.3283   -3390.6295   -3841.3283            0    7808.0368    16.923191    19.933284    20.646254    6964.6994    7429.3164    7736.0178     8258.776   -1384.2109    3.7027083   -615.50613   -2597.5438 
 5254000    247.96635   -3865.8039    -3440.798   -3865.8039            0    7608.3007    16.946193    19.960376    20.674315    6993.1364    6848.5265    8452.5613    7523.8145    155.74234    32.867943   -59.974015   -2664.8448 
 5255000    264.10012    -3799.664   -3347.0054    -3799.664            0    7660.5368    16.994601    20.017395    20.733373    7053.2371    9554.1989    6288.9185    7138.4931    246.53526     479.3088    419.07026   -2559.0102 
 5256000    262.89162   -3824.8614   -3374.2742   -3824.8614            0    9124.4478    16.980627    20.000936    20.716325     7035.853    10251.041    10220.829    6901.4735   -892.37388    135.78582    1106.4461   -2438.0082 
 5257000    275.50682   -3818.1067   -3345.8974   -3818.1067            0    8913.7646    16.920931    19.930622    20.643497    6961.9094    8735.9821    10210.873    7794.4383    1128.9999   -257.76846   -367.27364   -2440.8623 
 5258000    269.25778   -3837.5656   -3376.0669   -3837.5656            0     8774.186    16.989239    20.011079    20.726832    7046.5631    9026.2844    8540.6045    8755.6691    537.83112    313.44353    1308.2029   -2474.3711 
 5259000     284.9458   -3851.6544   -3363.2671   -3851.6544            0    9730.1179    16.943587    19.957307    20.671136     6989.911    11169.583    9697.4282    8323.3428    704.02434   -2293.9084    635.63002   -2371.3722 
 5260000    264.75102   -3828.6197   -3374.8455   -3828.6197            0    9079.9923    17.047077    20.079204    20.797394    7118.7759     8403.272    10263.498    8573.2072    324.74424   -329.56464    67.360636   -2432.1603 
 5261000    271.48873   -3848.6059   -3383.2835   -3848.6059            0    8910.1985    17.002622    20.026843    20.743159    7063.2288    8862.2959    8695.2406    9173.0588   -836.64324   -633.23317   -460.34592   -2465.4444 
 5262000    271.17929   -3804.5389   -3339.7469   -3804.5389            0    9153.2015    16.991922    20.014239    20.730105     7049.902    9097.4683    9442.3416    8919.7947   -679.02998    850.72212    96.387087   -2398.6551 
 5263000     272.7226   -3828.2084   -3360.7712   -3828.2084            0    11479.245    16.863245    19.862675     20.57312    6890.9491    12630.138     11000.38    10807.216    40.715847   -1005.2368   -609.49828   -2207.1367 
 5264000       250.45    -3852.098   -3422.8353    -3852.098            0    8665.5811    16.968109    19.986191    20.701053    7020.3035    8106.0242    10356.273    7534.4464    475.16415   -671.78637    986.17459   -2535.6191 
 5265000    269.43462   -3841.0511   -3379.2494   -3841.0511            0    9319.9076    16.934865    19.947034    20.660496    6979.1222    11198.303     9179.217     7582.203   -411.52847    1150.3583   -13.051137   -2430.6381 
 5266000    277.53293   -3850.8005   -3375.1185   -3850.8005            0    11337.289    16.920675    19.930321    20.643185    6961.5938    13459.211    10375.942    10176.714   -932.90937   -1439.0915    488.76621   -2224.0696 
 5267000    275.04007   -3826.5247   -3355.1154   -3826.5247            0    10171.255    16.906675     19.91383    20.626104    6944.3272    9254.7565     10125.54    11133.467   -881.89203   -1538.7368   -933.97584   -2325.0125 
 5268000    258.14122   -3839.2243   -3396.7791   -3839.2243            0    9436.1838    16.893889     19.89877    20.610505    6928.5845    8352.6874    9382.2758    10573.588   -1134.0494   -2549.6328   -578.58539   -2443.2877 
 5269000    272.97515   -3868.2204   -3400.3503   -3868.2204            0    7974.6778    16.854821    19.852753    20.562842    6880.6269    7507.7081    8399.2198    8017.1054   -408.95109    534.33926    285.16752   -2600.1162 
 5270000    258.91364   -3892.0641    -3448.295   -3892.0641            0    7103.0687    16.982479    20.003118    20.718585    7038.1558     6152.401    6013.0318    9143.7731    -533.2392   -610.17304   -211.65466   -2719.2056 
 5271000    258.39096   -3876.4954   -3433.6221   -3876.4954            0    7591.1116    16.943052    19.956677    20.670484    6989.2491     7798.259    6809.9009    8165.1749   -772.44612    533.69884   -591.98029   -2659.8523 
 5272000    270.12867   -3839.9973    -3377.006   -3839.9973            0    7137.5218    16.940211    19.953331    20.667018    6985.7335    6001.2858    7638.6565    7772.6231    167.71443    837.18151    289.40529    -2649.837 
 5273000    261.70061   -3880.1029    -3431.557   -3880.1029            0    10338.415      16.9065    19.913623     20.62589    6944.1116    10826.941     10852.86    9335.4427   -415.78569    929.67874    54.898794   -2384.5574 
 5274000    282.06413   -3833.7052   -3350.2569   -3833.7052            0    8564.7703     16.96085    19.977641    20.692197    7011.2979    9205.6581     7621.502    8867.1509    1160.3995    1532.2519    473.73238   -2474.4869 
 5275000    258.93162   -3831.9663   -3388.1664   -3831.9663            0     7594.109    16.963934    19.981273    20.695959    7015.1229    7796.3419    7272.9262    7713.0591    960.50356    18.010347    -65.30794   -2611.2254 
 5276000    281.52402   -3844.3668   -3361.8443   -3844.3668            0    8886.3965    16.947616    19.962053    20.676052    6994.8991    7887.3746    9821.2856    8950.5291    876.54481     2257.926    951.31502   -2455.3125 
 5277000    273.93761   -3828.9788   -3359.4592   -3828.9788            0    8534.1466    16.947041    19.961375     20.67535    6994.1862    8676.1411    10093.002    6833.2968     134.8437    656.32239   -2348.0151   -2488.9503 
 5278000    266.53327   -3863.3299    -3406.501   -3863.3299            0    8958.2511    16.960651    19.977407    20.691955    7011.0516    10448.691    8288.8877    8137.1744    641.25917   -415.96123   -1193.9172   -2490.5288 
 5279000    259.90092   -3862.4029   -3416.9416   -3862.4029            0    9576.7722    16.918591    19.927865    20.640641    6959.0211    8455.0157    10739.589    9535.7121   -669.85245   -569.03169    598.64702   -2444.9932 
 5280000    271.35171   -3833.8998   -3368.8122   -3833.8998            0    7103.0943    16.969102    19.987361    20.702265     7021.537    6789.3145    7342.6827    7177.2858    99.047647   -388.66885   -504.59317   -2641.4418 
 5281000    263.90236   -3832.9467   -3380.6271   -3832.9467            0    7798.5415    17.000963    20.024889    20.741135     7061.162    7511.2592    8444.1249    7440.2404   -107.48895   -1556.4004    843.25184   -2577.5348 
 5282000    265.74481   -3834.3117   -3378.8342   -3834.3117            0    8141.4703    16.994612    20.017408    20.733387    7053.2511    8265.3649    7172.3241    8986.7219    1067.1795    74.696533   -190.80572   -2541.3665 
 5283000    256.07164   -3813.2381   -3374.3401   -3813.2381            0    10470.932    16.991364    20.013583    20.729425    7049.2081    10081.663    9958.2834    11372.851   -815.06211    452.47968    1737.4895    -2297.871 
 5284000      261.702   -3890.6071   -3442.0588   -3890.6071            0    8443.5447    16.996346    20.019451    20.735503    7055.4107    9260.8808    7481.0428    8588.7105   -338.01712   -1457.1731    730.22821   -2573.2525 
 5285000    263.48627   -3901.7081   -3450.1016   -3901.7081            0    10409.613    16.929124    19.940272    20.653492     6972.027    9971.3231    9599.2187    11658.297    2000.7477   -2845.2543    33.086648   -2391.6536 
 5286000    273.20914   -3882.7635   -3414.4924   -3882.7635            0    8712.3401    16.942082    19.955535    20.669301     6988.049     8905.658    9559.2442    7672.1182   -379.11069    75.106856   -775.93529   -2526.5871 
 5287000    271.71083   -3832.9924   -3367.2894   -3832.9924            0     8085.959    17.028299    20.057087    20.774485    7095.2771    7648.5531    10291.554    6317.7703    -1159.034    199.89714    1.5851219   -2530.5758 
 5288000    273.00155    -3858.068   -3390.1527    -3858.068            0     9526.319    16.983118     20.00387    20.719365    7038.9504     9744.946    8858.8342     9975.177    524.48712    538.16905   -280.12037   -2412.2201 
 5289000    260.23241   -3833.3712   -3387.3418   -3833.3712            0    9793.1271    16.997051    20.020281    20.736363    7056.2887    10516.513    9361.2892    9501.5787     455.7664    241.99676    935.87137   -2379.5435 
 5290000    251.13755    -3829.835   -3399.3939    -3829.835            0    7622.5934    17.014594    20.040944    20.757765    7078.1596    9192.9555    6886.5312    6788.2934   -95.151101   -42.046544    311.25918   -2612.5311 
 5291000    265.97641   -3815.7398   -3359.8653   -3815.7398            0    8696.3797    17.000842    20.024746    20.740988    7061.0111    8993.6762    9280.9993    7814.4635   -1667.3072       271.95    335.27809    -2464.333 
 5292000    263.08914   -3848.9201   -3397.9944   -3848.9201            0    8082.1231    17.025435    20.053713    20.770991    7091.6978    9071.6173    6372.9587    8801.7932   -492.06206    826.74553   -1347.6888   -2562.0997 
 5293000     278.9756   -3849.1926    -3371.038   -3849.1926            0    8011.9549    16.943826    19.957589    20.671428    6990.2073    5977.8438    6988.5747    11069.446   -137.39337    403.04901   -995.34854   -2554.2592 
 5294000    254.71593   -3837.5479   -3400.9735   -3837.5479            0    9396.7015    16.994799    20.017628    20.733615     7053.484    6117.6495     9539.314    12533.141     957.1051   -82.369014    2145.6041   -2434.3552 
 5295000    253.57001   -3864.3631   -3429.7527   -3864.3631            0    10468.778    16.848972    19.845864    20.555707    6873.4666    8825.9044    12159.622    10420.809    381.32999   -1032.0038   -38.781016   -2380.3366 
 5296000    273.56969    -3853.091   -3384.2019    -3853.091            0    8726.9885    16.915258     19.92394    20.636575    6954.9095    7920.8492    7013.3494    11246.767    1009.6575    605.63215    33.190541   -2499.0215 
 5297000    251.94129   -3831.9472   -3400.1284   -3831.9472            0     9095.475    16.963468    19.980724    20.695391    7014.5447    8793.8297    8141.3647    10351.231   -483.31191    497.50313    47.738176   -2469.6619 
 5298000    274.15832   -3858.5548   -3388.6568   -3858.5548            0    8194.0859    16.983915    20.004809    20.720337     7039.941    8427.8125    7957.2049    8197.2402   -768.80255   -697.86376   -1423.5602   -2547.3674 
 5299000    268.92551   -3825.2148   -3364.2857   -3825.2148            0    6129.7069    17.061829    20.096581    20.815391    7137.2732    4874.5355    6784.4024    6730.1828      1339.94    338.67558   -223.70213   -2726.2457 
 5300000    257.87933   -3824.7874   -3382.7911   -3824.7874            0    8476.3448    16.987519    20.009053    20.724733     7044.423    9611.1137    7916.2065    7901.7142    95.789201   -1955.4621    1944.3137    -2511.968 
 5301000    271.67497   -3811.3313   -3345.6897   -3811.3313            0    7613.2412     17.01792    20.044862    20.761823    7082.3117    6392.4991    8905.8276    7541.3969   -1474.9522   -1869.0354    733.41513   -2559.3313 
 5302000    260.13453   -3840.2976   -3394.4359   -3840.2976            0    9910.8139    16.988168    20.009818    20.725525    7045.2306    11306.766    9080.2573    9345.4188    527.53123    1286.4807    232.48653    -2376.125 
 5303000    263.51476   -3881.1653     -3429.51   -3881.1653            0    9143.6613    16.944803    19.958739     20.67262    6991.4157     10525.26    8684.4485    8221.2751    952.89506    108.60556    809.08253   -2497.1983 
 5304000    277.23054   -3839.2618   -3364.0981   -3839.2618            0    9284.0572    16.963319    19.980549    20.695209      7014.36    12789.347    6518.6683    8544.1568   -337.34298   -1053.7198    305.70259   -2414.3647 
 5305000    268.00444   -3862.3981   -3403.0477   -3862.3981            0    7099.1631    17.008506    20.033774    20.750338    7070.5649     6757.616    7854.6797    6685.1937    729.29642    953.54933     1016.235   -2671.0037 
 5306000    281.06883   -3830.7133   -3348.9709   -3830.7133            0    6848.3349    17.018391    20.045416    20.762397    7082.8993    5385.7164     7621.545    7537.7434   -958.31328    607.11745    222.97198   -2641.5597 
 5307000    261.71976    -3835.652   -3387.0733    -3835.652            0    10513.362    16.958849    19.975284    20.689756    7008.8164    8908.7339    11417.862    11213.489    -1008.817    -523.4203   -928.03676   -2312.4354 
 5308000    262.39781   -3852.7181   -3402.9772   -3852.7181            0    7167.5016    17.007422    20.032496    20.749015    7069.2125    7027.6851    7562.7213    6912.0985   -983.92361    1387.2598   -826.75417   -2664.0278 
 5309000    270.24866   -3838.6657   -3375.4687   -3838.6657            0    8530.7567    16.954079    19.969665    20.683936    7002.9039    10764.856    9703.7488    5123.6648    52.532473   -546.25423    101.01703   -2504.2211 
 5310000    254.22673   -3849.9759     -3414.24   -3849.9759            0    7953.0677    16.969266    19.987554    20.702465    7021.7409    8513.3403    8369.2963    6976.5666    -1978.392   -1129.6371   -821.76836    -2599.807 
 5311000    265.25656   -3844.1017    -3389.461   -3844.1017            0    8812.0606    16.940756    19.953973    20.667683    6986.4085    8336.6732    9200.3742    8899.1344    970.36489    553.19655   -110.96894   -2491.6037 
 5312000    266.31325   -3830.5865   -3374.1347   -3830.5865            0    7723.6364    16.939929    19.952998    20.666673    6985.3846     7754.911    8744.4352     6671.563    1038.9369    110.11402   -409.80582   -2587.2918 
 5313000    286.31832   -3801.0597   -3310.3199   -3801.0597            0    8539.3571     16.95243    19.967723    20.681925    7000.8613    9732.5122    8073.4145    7812.1446    214.16197   -100.66887   -1121.0706   -2438.4482 
 5314000    274.21119    -3832.005   -3362.0164    -3832.005            0    7607.4364     16.92751    19.938371    20.651522    6970.0326    8222.6286    8501.0386    6098.6419    892.18353    240.50382    230.82368   -2588.7146 
 5315000    261.34178   -3854.3524   -3406.4216   -3854.3524            0    9426.3993    16.957833    19.974088    20.688517    7007.5576    9351.4676    9833.8497    9093.8805   -692.57112    1406.5161     1384.347    -2443.062 
 5316000     274.9657   -3819.8864   -3348.6046   -3819.8864            0    7510.1571    17.102306    20.144257    20.864773    7188.1904    6521.2003    7094.0019    8915.2691    -2326.913   -1577.7685    -787.0028   -2561.2969 
 5317000    259.73919   -3856.6743   -3411.4902   -3856.6743            0     6509.824    17.019702     20.04696    20.763996    7084.5361    8526.1162    5298.4355    5704.9203    878.60422    478.67614   -1137.1205   -2738.8907 
 5318000    274.31106   -3854.8924   -3384.7326   -3854.8924            0    9448.9937    16.944375    19.958235    20.672097     6990.886    8270.7822     10514.13    9562.0686   -1085.1647    245.63588     520.5674   -2421.3614 
 5319000    248.66887   -3855.3342   -3429.1243   -3855.3342            0    8099.8578    17.003294    20.027635    20.743979    7064.0671    7745.9383     7349.496    9204.1391    1490.2573   -406.73172    584.62263   -2594.6593 
 5320000    273.50123   -3858.9334   -3390.1617   -3858.9334            0    9264.5006    16.948717     19.96335    20.677395    6996.2624    8472.9042    8785.5689    10535.028    869.74572    -1021.726   -396.73884    -2444.874 
 5321000    267.86851   -3856.2613   -3397.1439   -3856.2613            0    7592.5454    16.915036    19.923679    20.636305     6954.636    7674.0934    7687.8083    7415.7344    -678.1061    524.75636   -1575.5212   -2627.0606 
 5322000     285.9524    -3823.023   -3332.9104    -3823.023            0    10681.319    16.952729    19.968076     20.68229    7001.2319    12217.191     8189.784    11636.983    2174.9969   -353.03196    134.08959   -2242.2859 
 5323000    250.14296   -3852.7763   -3424.0398   -3852.7763            0    9320.7122    16.939269    19.952222    20.665869     6984.569    9979.5195    10376.432    7606.1852    1883.1976    154.91546     505.7054   -2474.6062 
 5324000    269.00668   -3863.7471   -3402.6789   -3863.7471            0    10839.133    16.875322    19.876901    20.587854    6905.7653    10212.059    11158.544    11146.797    1267.8905   -66.748721   -939.51097   -2311.0318 
 5325000    266.56657   -3859.9492   -3403.0633   -3859.9492            0    9083.0244    16.953925    19.969484    20.683749    7002.7135     8404.779    10049.134    8795.1599   -530.35342    1423.3443    80.943249   -2475.4377 
 5326000     253.2977   -3829.6122   -3395.4686   -3829.6122            0    9698.4735    16.937355    19.949967    20.663534    6982.2014    10991.393    7691.3937    10412.634    830.54545    907.14561   -424.27008   -2407.8901 
 5327000    263.11098   -3885.3225   -3434.3593   -3885.3225            0    10866.138    16.993279    20.015838     20.73176    7051.5911    12005.065    9889.6388     10703.71   -296.93377    234.57704   -1911.2211   -2316.8832 
 5328000    277.44933   -3845.3614   -3369.8227   -3845.3614            0    8117.3147     17.01639    20.043059    20.759955    7080.4008    8910.1083    6927.1084    8514.7275   -1029.6672    1093.3698    116.88824   -2531.6257 
 5329000    265.41249   -3876.7866   -3421.8786   -3876.7866            0    7388.4949    16.973668    19.992738    20.707835    7027.2057    7942.8632    7327.1996    6895.4218    1173.7796   -181.90509   -387.12667   -2664.6718 
 5330000    293.90366   -3876.2465   -3372.5057   -3876.2465            0    6989.1542    16.992564    20.014996    20.730888    7050.7013    7366.6759    6125.3319    7475.4549   -343.75993    991.55506    473.18599   -2653.8302 
 5331000    275.75568   -3897.3192   -3424.6834   -3897.3192            0    7785.4006    17.026537    20.055011    20.772335    7093.0747    5551.2241    8348.8682    9456.1095   -1703.6634    647.18041     1536.474    -2619.321 
 5332000    268.37192   -3888.9488   -3428.9685   -3888.9488            0    8267.3247    16.972367    19.991207    20.706249     7025.591    6858.2425    7722.0337    10221.698   -213.92429   -274.58325   -100.65402   -2581.8899 
 5333000    248.93591   -3817.9817   -3391.3141   -3817.9817            0    11022.907    16.837165    19.831957    20.541302    6859.0271    10054.713    12699.535    10314.472    -9.798708   -1462.1547   -1010.9463    -2288.672 
 5334000    280.47211   -3831.1068   -3350.3872   -3831.1068            0    8387.6714    16.964119    19.981492    20.696186    7015.3533    10402.927    7753.9188    7006.1683   -776.60336    755.15822       574.94     -2492.23 
 5335000    261.32356   -3825.7448   -3377.8452   -3825.7448            0    10907.262     16.84664    19.843117    20.552862    6870.6129    12308.368    10778.173    9635.2447   -641.09934    670.41186   -579.76693   -2284.9284 
 5336000      266.158   -3819.2734   -3363.0877   -3819.2734            0    7995.1345     16.95757    19.973778    20.688196    7007.2316     9208.133    5482.3541    9294.9162     222.2236     249.4436     103.8736   -2546.0387 
 5337000    264.78006   -3853.4991   -3399.6751   -3853.4991            0    10565.382    16.946733    19.961013    20.674975    6993.8053     10709.75    9434.7107    11551.687   -1343.8191    55.294265   -578.75684   -2322.0328 
 5338000    287.07937   -3857.2742     -3365.23   -3857.2742            0    9269.0162     16.95372    19.969243    20.683499    7002.4594    9917.3263    9910.2438    7979.4786    1893.0968     42.52852   -7.0091182   -2418.6439 
 5339000     263.7717   -3895.4467   -3443.3511   -3895.4467            0    8720.1163    16.954742    19.970446    20.684745    7003.7257    9405.4789    9510.1917    7244.6784     672.2744    1383.7937   -273.44529   -2552.6596 
 5340000    284.23434   -3851.6078   -3364.4399   -3851.6078            0    11048.649    16.942832    19.956418    20.670216    6988.9769    11188.033    11484.076    10473.837    312.42827   -1224.8987   -691.13735   -2238.2836 
 5341000    259.03828   -3865.2611   -3421.2784   -3865.2611            0     6275.719    17.003997    20.028462    20.744837    7064.9428    6421.3305     5641.772    6764.0546    565.38606    528.55191   -920.05312     -2774.66 
 5342000    257.59278   -3800.8153   -3359.3101   -3800.8153            0    8576.6211    17.019544    20.046775    20.763804    7084.3395    9652.8611    7590.2698    8486.7325   -378.80721   -1394.6459    263.64445   -2473.1923 
 5343000      261.307   -3845.1726   -3397.3013   -3845.1726            0    9761.2609    16.987704    20.009271    20.724959    7044.6534    8252.6982    11442.855    9588.2297    125.09946    1132.4046   -25.488879   -2394.4387 
 5344000    260.96515   -3829.1719   -3381.8865   -3829.1719            0    9214.3491    17.006275    20.031145    20.747615    7067.7821     7979.483    10409.737    9253.8277       411.67   -585.80214    564.27543    -2432.105 
 5345000     260.8384   -3846.3499   -3399.2818   -3846.3499            0    11855.768    16.910835     19.91873     20.63118    6949.4555    10291.057    13147.734    12128.512    -1044.433    196.50919   -184.16714   -2197.6917 
 5346000    285.90449    -3860.686   -3370.6555    -3860.686            0    7646.6782    16.968511    19.986664    20.701544     7020.803    7066.2119    7623.6104    8250.2122    354.31368   -754.39777    663.64189   -2587.7028 
 5347000    257.41039   -3831.0362   -3389.8436   -3831.0362            0    8769.0568    17.005264    20.029954    20.746382    7066.5216    7850.4401    8173.6894    10283.041   -662.91387   -332.99438    668.94899   -2486.1224 
 5348000    259.78159   -3868.5225   -3423.2657   -3868.5225            0    8216.1864    16.934606    19.946729     20.66018    6978.8019    9592.9786    6162.8237     8892.757   -271.94725    -2582.966   -767.06851   -2587.0332 
 5349000    257.03137   -3843.4263   -3402.8833   -3843.4263            0    9702.8955    16.968569    19.986733    20.701614    7020.8749    12555.803    8414.8209    8138.0627    441.34592    567.40564   -1153.3164    -2409.382 
 5350000    267.19536   -3879.6636   -3421.6999   -3879.6636            0    7400.9984    16.961181    19.978031    20.692602    7011.7091    6999.0134    7188.8751    8015.1068   -1057.1315    722.05835    1296.5954   -2664.8842 
 5351000    255.23978   -3847.6278   -3410.1556   -3847.6278            0    9919.9093    16.936034    19.948411    20.661922    6980.5678    9917.7804    9828.6816    10013.266    1698.6494    2819.6904    -642.6596    -2400.265 
 5352000    273.58945   -3854.5005   -3385.5776   -3854.5005            0    6552.9998    16.983188    20.003952    20.719449    7039.0366    7276.4946    7256.5023    5126.0027   -1504.7309   -781.63806   -561.60739   -2712.8654 
 5353000    262.01091   -3834.0147   -3384.9369   -3834.0147            0    9460.3583    17.012472    20.038445    20.755176    7075.5119      9639.38    9562.4298    9179.2652    -888.0492    911.37856      891.206   -2408.7312 
 5354000     261.9594   -3857.5829   -3408.5934   -3857.5829            0    8644.0589    16.985851    20.007089    20.722699     7042.349    5812.7976    10808.914    9310.4649    717.92223   -747.05171     1917.424   -2520.8016 
 5355000    269.26403   -3835.3421   -3373.8327   -3835.3421            0    10824.321    16.949509    19.964282    20.678361    6997.2426    11555.418    12109.208    8808.3365    560.25374    714.55274    963.47905   -2269.2367 
 5356000     257.2043   -3859.2207   -3418.3813   -3859.2207            0    7625.9382     16.95185     19.96704    20.681217    7000.1427     8989.629    8293.5648    5594.6207    56.947808   -570.85613    226.31178     -2639.85 
 5357000       250.23   -3836.7816   -3407.8959   -3836.7816            0    8116.9148    16.928149    19.939123    20.652302    6970.8219    10889.336    6395.5154    7065.8928    341.63156   -1226.3143     -90.3792   -2582.7118 
 5358000    261.94619    -3829.775   -3380.8082    -3829.775            0    8741.1009    16.884231    19.887394    20.598722    6916.7082    10446.894    7057.7636    8718.6451   -1475.7112    478.03451    291.38484   -2499.0663 
 5359000    266.66353   -3832.8019   -3375.7497   -3832.8019            0    9599.9329    16.894663    19.899682     20.61145     6929.537    11726.851    10362.424    6710.5247    -1048.679   -1423.0342    1066.3959   -2405.5787 
 5360000    260.35864   -3825.4763   -3379.2305   -3825.4763            0    8211.8042    16.980435    20.000709    20.716091    7035.6142    9355.6214    7680.5617    7599.2294   -1368.1997    1047.8828    1049.3056   -2536.6401 
 5361000    271.42809   -3836.8518   -3371.6333   -3836.8518            0    7854.2095    16.959516     19.97607     20.69057    7009.6439    7609.4492    7426.0867    8527.0926     -22.7797   -147.09219   -205.15973   -2568.7095 
 5362000    281.25036   -3856.3012   -3374.2477   -3856.3012            0    8387.6386    16.961925    19.978907    20.693509    7012.6311    7556.5734    8901.2779    8705.0645   -1209.3377    216.97202    305.26855   -2516.4269 
 5363000    256.63818   -3842.5371    -3402.668   -3842.5371            0    9585.3614    16.871973    19.872955    20.583767    6901.6541    8786.1781    9269.5039    10700.402   -591.05672    540.73416    112.79872   -2437.8674 
 5364000    281.30538   -3865.6674   -3383.5196   -3865.6674            0    6950.5184    17.007888    20.033045    20.749583    7069.7935    6406.1606    6904.3626    7541.0319    552.49654     178.2916    847.42462   -2666.8817 
 5365000    278.09109   -3857.4541   -3380.8155   -3857.4541            0    8473.8213    16.961166    19.978013    20.692583    7011.6899    7728.1708    9391.0679    8302.2251   -471.62502    347.22937    2380.4334   -2514.2969 
 5366000    266.94511   -3864.0518    -3406.517   -3864.0518            0    8988.5385    16.903678      19.9103    20.622448    6940.6352    9932.7569    8882.4705    8150.3881    749.54492    1896.5491    871.17145   -2496.6788 
 5367000    256.90908   -3873.3576   -3433.0242   -3873.3576            0    12428.888    16.936437    19.948886    20.662414    6981.0661    12842.112    12823.474    11621.078    1801.3828    37.181849    2170.9665   -2167.6181 
 5368000    263.64737   -3855.2392   -3403.3566   -3855.2392            0      8673.01    16.972767    19.991677    20.706736    7026.0868    10049.283    7443.4075    8526.3399   -884.13135   -1304.8193    1784.8678   -2514.6483 
 5369000    261.91324   -3815.7724   -3366.8621   -3815.7724            0    8431.7991    17.000059    20.023824    20.740033    7060.0357    7908.8858    7867.5532    9518.9583   -816.26106   -1703.8598    1034.3419   -2498.6956 
 5370000    253.88587   -3842.1383   -3406.9866   -3842.1383            0    9128.0983     17.02471     20.05286    20.770107    7090.7925    10134.915    9077.3844    8171.9953    546.29363   -206.57129    569.81867   -2463.0323 
 5371000    267.44603    -3842.021   -3383.6277    -3842.021            0    10834.244    16.907967    19.915352     20.62768      6945.92    11545.758    9412.1142    11544.858    1030.4525   -1331.6862    716.79147   -2286.1284 
 5372000    287.50484   -3844.1825    -3351.409   -3844.1825            0    10180.245    16.989136    20.010958    20.726706    7046.4348    10262.807    9030.2331    11247.694   -275.93395    199.87345   -333.90305   -2305.2359 
 5373000    263.02673   -3883.8444   -3433.0256   -3883.8444            0    7710.8941    17.005576    20.030323    20.746763    7066.9114    7120.1774    6556.4413    9456.0636    12.961773    217.90239   -209.01313   -2638.3126 
 5374000    257.57807   -3815.3612   -3373.8812   -3815.3612            0    10262.333    16.981643    20.002133    20.717565    7037.1166    8902.4545    10605.435    11279.109    110.02858    2090.8993   -903.51318   -2320.6669 
 5375000    273.23453   -3810.4886    -3342.174   -3810.4886            0    9163.6419    17.001367    20.025364    20.741628    7061.6647    9014.1298    9553.6491    8923.1468     413.9024   -781.83372   -646.56322   -2398.4368 
 5376000     267.5634   -3840.7017   -3382.1071   -3840.7017            0    8847.1454    16.965278    19.982857      20.6976    7016.7909    8308.1074    9097.9372    9135.3915    248.21884    1101.0952    2352.6984   -2476.7549 
 5377000    273.17481   -3829.8332   -3361.6209   -3829.8332            0    8721.5372    16.976022    19.995511    20.710707    7030.1299    7658.3418    10319.021    8187.2493    185.08321   -1196.3437    261.30719   -2467.4259 
 5378000     270.6452   -3842.0999   -3378.2232   -3842.0999            0    9128.4099    16.945891    19.960022    20.673948    6992.7635     9321.352    10596.155    7467.7228    1528.3037    141.60876    290.22117   -2447.2872 
 5379000     271.6154   -3838.5207   -3372.9812   -3838.5207            0    8982.5117    17.001602    20.025641    20.741914    7061.9575    7825.6322    8561.6602    10560.243   -550.31527    670.15223    994.87674   -2447.8597 
 5380000    248.39882   -3847.0465   -3421.2994   -3847.0465            0    10768.225    16.931443    19.943003    20.656321    6974.8924     12972.04    10041.067    9291.5676   -1421.6934   -398.43171    305.44128   -2325.9378 
 5381000    254.55043   -3853.9294   -3417.6387   -3853.9294            0    9871.8743     16.90806    19.915461    20.627794    6946.0345    9179.5389    9726.6048    10709.479    115.18098    -1718.918    -1459.038     -2417.61 
 5382000    273.68792   -3847.7722   -3378.6805   -3847.7722            0     9787.146    16.938895    19.951781    20.665413    6984.1064    10711.448    8951.7877    9698.2019   -1008.1227   -572.84566    411.26897   -2381.8006 
 5383000    267.79836   -3866.3218   -3407.3246   -3866.3218            0    8938.2878    16.940252     19.95338    20.667068    6985.7849    8150.2375    8005.3701    10659.256   -919.37198    339.62628   -315.41733   -2496.6872 
 5384000    256.40657   -3879.7341    -3440.262   -3879.7341            0    7606.3707     16.93179    19.943412    20.656744    6975.3207    8172.8894    7600.8633    7045.3594   -1122.9976    1905.3874   -2519.5323   -2666.4819 
 5385000    259.90473   -3885.9122   -3440.4444   -3885.9122            0    7305.8509    16.920501    19.930115    20.642972    6961.3785    8586.8195     7002.167    6328.5662    186.33064    222.51576    406.03458    -2698.721 
 5386000     263.9198   -3862.7545    -3410.405   -3862.7545            0    7183.2694    16.959339    19.975861    20.690354    7009.4239    7755.3365    5946.2819    7848.1896     -898.451   -1325.8076    1044.6686   -2676.0934 
 5387000    258.85495   -3866.0358   -3422.3672   -3866.0358            0    7089.3407    16.941911    19.955333    20.669091    6987.8367    6756.3819    7477.5388    7034.1016    1286.8338   -1037.7206    330.29611   -2699.8895 
 5388000    271.58595   -3849.2912   -3383.8022   -3849.2912            0    8308.6433    16.906605    19.913748    20.626019    6944.2414    7427.7548    10150.877    7347.2986   -387.68425     479.3611    -210.1202   -2542.3474 
 5389000    253.60666   -3884.5398   -3449.8667   -3884.5398            0    10077.639    16.827391    19.820444    20.529378    6847.0887    10731.317    8845.8832    10655.717    196.76479    1269.7016   -226.76802   -2443.5361 
 5390000    257.50643   -3839.5283   -3398.1711   -3839.5283            0    6182.7245    17.038437    20.069028    20.786854    7107.9582    5748.4549    8196.8292    4602.8894   -233.41832    311.43136    106.69897   -2757.2558 
 5391000    266.58059   -3884.4187   -3427.5087   -3884.4187            0    8252.2452    16.963158     19.98036    20.695013    7014.1608    7417.8464    9409.8902     7928.999    -1258.392   -399.29795    1406.0497   -2583.3507 
 5392000    252.89045    -3846.349   -3412.9034    -3846.349            0    8891.4651    16.954117    19.969711    20.683984    7002.9519    7843.7888    10294.471    8536.1352    593.52901    1037.0032    887.81692   -2504.8103 
 5393000    259.10974   -3862.1434   -3418.0382   -3862.1434            0    7412.4983    16.982167    20.002749    20.718204    7037.7669    7234.9334    6809.5514    8193.0102   -578.89515    961.34593   -840.63574   -2657.2296 
 5394000    261.81338   -3821.0938   -3372.3547   -3821.0938            0    9958.6748    16.941105    19.954384    20.668108    6986.8398    10584.242    8025.3223     11266.46   -295.76138    574.46636    125.89934   -2357.6066 
 5395000    267.81522   -3809.7726   -3350.7464   -3809.7726            0    7769.0151    16.992332    20.014722    20.730605    7050.4126    8341.5637    7622.2897    7343.1917    585.27567    550.89649   -1251.1997   -2551.9127 
 5396000    258.71223   -3858.7982   -3415.3743   -3858.7982            0    7509.6609    17.040715    20.071712    20.789633    7110.8097    7412.1143    7532.2191    7584.6492    407.17334    1032.7447   -712.03454   -2636.5934 
 5397000    252.85916   -3855.5789    -3422.187   -3855.5789            0    9636.8521    17.001418    20.025425    20.741691     7061.729    9284.4351    11050.355    8575.7663    535.45566    1516.6573   -222.70075   -2429.7062 
 5398000    260.31723   -3867.4992   -3421.3244   -3867.4992            0    7153.2757    16.975008    19.994317     20.70947    7028.8702    7149.4089      5922.09    8388.3281    1382.4842    271.37972   -201.79996   -2688.0502 
 5399000    277.67205   -3837.1907   -3361.2703   -3837.1907            0    8120.9658    16.976405    19.995963    20.711174     7030.606    8039.9685    8721.4943    7601.4347    598.03258     1870.742    1137.1207   -2528.5937 
 5400000    264.09045   -3850.6052   -3397.9632   -3850.6052            0     9063.208    16.896503    19.901849    20.613694    6931.8011    8022.3267    8418.6964    10748.601     1307.787     394.9094      -1169.8   -2481.7345 
 5401000    269.28421   -3833.3786   -3371.8347   -3833.3786            0    11216.144     16.94284    19.956428    20.670226    6988.9872    11970.116    10920.187    10758.129    611.45505    252.04328    884.88899   -2228.6045 
 5402000    250.01642   -3872.1273   -3443.6078   -3872.1273            0    6658.1331    17.015715    20.042264    20.759132    7079.5583    6962.9737    8679.3409    4332.0847   -375.63264    -993.0807    93.820542   -2756.1682 
 5403000    268.81962   -3857.8638   -3397.1161   -3857.8638            0    8575.0272    16.996279    20.019372    20.735421    7055.3276    9894.1747    8149.1752    7681.7318    1394.6967   -121.33642    550.49103   -2514.7912 
 5404000    254.90153   -3873.3674   -3436.4749   -3873.3674            0    6241.0826    17.070457    20.106744    20.825918    7148.1072    7698.2542    7143.0101    3881.9835    612.71473   -532.45258    -681.0614   -2785.8557 
 5405000    255.33711   -3863.6365   -3425.9974   -3863.6365            0    8619.1424    16.977168    19.996861    20.712105    7031.5537    7181.5331    10477.657    8198.2368    940.35915    164.36207     1683.065   -2542.1216 
 5406000     264.1166   -3898.6934   -3446.0066   -3898.6934            0    9378.3121    16.940756    19.953972    20.667682    6986.4075    9374.5107    9716.3239    9044.1016    155.06222    -653.1629    1498.7709   -2490.4543 
 5407000    260.90167   -3871.2329   -3424.0564   -3871.2329            0    8293.7893    17.004888    20.029512    20.745924    7066.0536    7956.5389    7933.2279    8991.6011    224.70461    126.58496    75.661927   -2569.3719 
 5408000    257.25137   -3838.8293   -3397.9093   -3838.8293            0    9847.4739    16.906513    19.913639    20.625906    6944.1275    8602.9379    10997.366    9942.1177    1282.5565    323.34129    475.80529   -2400.6263 
 5409000    264.21406   -3828.3419    -3375.488   -3828.3419            0    9725.1703    16.895146     19.90025    20.612038    6930.1304     10574.93      9092.14     9508.441    451.06908   -1516.7811   -253.69161   -2392.5763 
 5410000    271.48408     -3798.15   -3332.8356     -3798.15            0    7816.3245    16.984263    20.005218    20.720761    7040.3737    9141.3785    6486.4314    7821.1637   -116.26267    446.33366    112.99867   -2530.2818 
 5411000    257.30046   -3868.6938   -3427.6896   -3868.6938            0    7947.2045    17.002392    20.026571    20.742878    7062.9418    6169.7105     7142.448    10529.455   -1462.8054   -584.99236   -1746.4713   -2609.0818 
 5412000    256.81807   -3863.8612   -3423.6839   -3863.8612            0    7941.1442    17.004956    20.029592    20.746007    7066.1383    9128.1157    6883.1212    7812.1957    368.35401   -54.252225   -1105.7585     -2605.33 
 5413000    269.12206   -3841.7484   -3380.4824   -3841.7484            0    8288.7861    16.960628    19.977379    20.691926    7011.0223    8191.7522    8827.8454    7846.7609    440.44739    1833.8855    896.81812   -2532.9659 
 5414000    261.90034    -3855.703   -3406.8148    -3855.703            0    8454.2563    16.997967     20.02136    20.737481    7057.4298     8504.534    7064.3895    9793.8455   -1051.7376    809.24943   -923.40444   -2536.6573 
 5415000    267.79101   -3880.4955   -3421.5109   -3880.4955            0    6825.3794    17.004007    20.028475    20.744849    7064.9558    8273.3403     5886.597    6316.2009   -463.65835    417.02911    264.21154    -2718.257 
 5416000    278.37129   -3859.5929    -3382.474   -3859.5929            0     7889.963    16.995363    20.018293    20.734303    7054.1865    9971.2523    7455.8528    6242.7839    371.77982     5.700179    232.04061   -2570.7698 
 5417000     266.4732   -3891.1875   -3434.4615   -3891.1875            0    8609.9532    16.933778    19.945754    20.659169    6977.7783    6569.2776      9316.97    9943.6119   -156.00749    831.29254    581.62695   -2558.2805 
 5418000    278.91946   -3841.1838   -3363.1254   -3841.1838            0    8743.8511    16.965218    19.982786    20.697527    7016.7166     8490.593    8589.4975    9151.4627      69.3617    2722.8061    307.11467    -2468.353 
 5419000    260.24904   -3794.0025   -3347.9445   -3794.0025            0    11311.478    16.925599     19.93612    20.649191    6967.6724    10243.027    12244.472    11446.936    1052.5339   -1351.5529    764.00626   -2198.5133 
 5420000    277.93682   -3870.0137   -3393.6395   -3870.0137            0    9773.1252    16.968093    19.986172    20.701033    7020.2837    11177.378    8923.8042    9218.1929   -1167.5156   -519.87679   -917.82445   -2393.0313 
 5421000    263.12186   -3865.0373   -3414.0555   -3865.0373            0    9041.0588    16.955253    19.971049    20.685369    7004.3597    8840.8488    8646.0763    9636.2514   -715.60344    42.595865   -54.734746   -2490.4986 
 5422000    261.42446   -3838.1489   -3390.0763   -3838.1489            0    9462.8144    16.949702     19.96451    20.678597    6997.4821    8517.8426    9314.6636    10555.937    560.57881    658.77277    15.061487   -2424.3857 
 5423000    248.05907   -3821.8153   -3396.6505   -3821.8153            0    9741.0092    16.965554    19.983182    20.697937    7017.1338    8914.8916    9600.5273    10707.609     119.0327   -354.74357      924.083   -2399.7781 
 5424000    252.96449   -3818.9945    -3385.422   -3818.9945            0    7183.5103    17.002327    20.026496      20.7428    7062.8619    9132.0322    7828.8821    4589.6165   -159.38097   -27.940358    29.358951   -2645.4874 
 5425000    284.39588   -3846.7683   -3359.3235   -3846.7683            0    10152.202    16.937012    19.949563    20.663115    6981.7766    11485.973    10496.357    8474.2755     908.7669   -1127.8373     1524.106   -2325.6054 
 5426000    277.80458   -3890.8472   -3414.6997   -3890.8472            0    9653.4966    16.915338    19.924034    20.636673    6955.0083    9476.4617    10336.111    9147.9172    1299.2735    70.351927   -1021.4877   -2435.5295 
 5427000    272.65028   -3842.6082    -3375.295   -3842.6082            0     10454.02    16.970289    19.988759    20.703713      7023.01    12343.516     9866.695    9151.8501   -763.46131   -1775.4131    389.80459   -2304.5587 
 5428000    268.47514   -3838.9466   -3378.7894   -3838.9466            0    8146.4907    16.974424     19.99363    20.708758    7028.1455    9142.0784    9261.5708    6035.8231   -1174.1035    574.84754   -1384.9345    -2543.788 
 5429000    268.52766   -3851.5973   -3391.3501   -3851.5973            0    7632.8141    16.971762    19.990494     20.70551    7024.8393    7985.7068    9270.9861    5641.7495   -837.44729    1596.1188   -347.86091   -2609.3677 
 5430000    267.35076   -3854.7426   -3396.5125   -3854.7426            0    9805.3006     16.93484    19.947005    20.660465    6979.0914    11011.457    7612.2936    10792.151   -1496.9545    555.54892    566.14443   -2398.5007 
 5431000    272.93603   -3851.0955   -3383.2925   -3851.0955            0    8374.6124    16.946319    19.960525     20.67447     6993.293    7561.8591    8425.8913     9136.087    943.95523    7.8539049   -1127.7183   -2529.1658 
 5432000    279.64989   -3837.5915   -3358.2812   -3837.5915            0    7831.7864    16.994122    20.016831    20.732789    7052.6407    8598.1126    7940.7179    6956.5287    1383.3451   -478.11937    209.42402   -2552.7387 
 5433000    279.60043     -3903.34   -3424.1144     -3903.34            0    8540.5894    17.005894    20.030696    20.747151    7067.3072    8825.7095    9984.2998     6811.759    80.838242    862.12162    1157.4987   -2543.8408 
 5434000    269.78551   -3881.9062   -3419.5031   -3881.9062            0    10798.771    16.894764      19.8998    20.611572    6929.6604    12549.739    7689.0939    12157.481   -322.70018    2282.1363    1002.4733   -2328.1578 
 5435000    279.44342    -3846.024   -3367.0675    -3846.024            0    8510.1179    17.005481     20.03021    20.746647    7066.7922    9957.5052    9681.1246     5891.724    698.53941    141.07979    359.64188   -2489.9984 
 5436000    278.36945   -3860.5228    -3383.407   -3860.5228            0     7236.897    17.011941     20.03782    20.754529    7074.8498     5952.173    7618.5327    8139.9853   -1674.5373   -756.19881   -1831.0996   -2636.7081 
 5437000    256.16513   -3844.2003    -3405.142   -3844.2003            0    7155.5236    17.008831    20.034156    20.750734    7070.9698    8565.2597    6828.3999    6072.9112   -719.15423   -1090.3754    1124.9944   -2667.2441 
 5438000    268.80867   -3824.1815   -3363.4527   -3824.1815            0    10043.594    16.966862    19.984722    20.699532    7018.7565    9993.4147    10568.658    9568.7101   -944.54514    791.90396    694.92166   -2335.3767 
 5439000    260.62213   -3870.1774     -3423.48   -3870.1774            0    7778.9213     17.00545    20.030173    20.746609    7066.7536    8015.2798    8165.7816    7155.7026     176.9108   -1571.9353    892.00312   -2621.7739 
 5440000    286.97313   -3860.0276   -3368.1654   -3860.0276            0    8983.4323    17.039762    20.070589     20.78847    7109.6166    10660.797    8539.7445    7749.7556    508.57982     820.7126    23.379669   -2436.7051 
 5441000    261.14739   -3830.2223   -3382.6247   -3830.2223            0    8338.1748    16.978308    19.998204    20.713496    7032.9706    9564.5273    6594.9972    8854.9999   -441.24118    236.25019    -1519.607   -2527.3892 
 5442000    266.65405    -3860.567   -3403.5311    -3860.567            0    6826.5943     16.97315    19.992129    20.707203    7026.5627    5670.5422    8873.1492    5936.0914    1946.0169   -909.07016   -2217.7823   -2703.9744 
 5443000    261.41225   -3862.9361   -3414.8844   -3862.9361            0    9804.9386    16.973893    19.993004     20.70811    7027.4863    10479.712    8057.3659    10877.738   -31.101566   -230.18298    716.56697   -2409.9892 
 5444000    273.81156   -3844.6275   -3375.3239   -3844.6275            0    8846.4269    16.949079    19.963776    20.677837    6996.7103    7760.3273    10440.437    8338.5166   -2436.5599    1093.2305   -932.32541   -2472.6359 
 5445000    268.73454   -3884.0712   -3423.4693   -3884.0712            0    6243.0393    17.043536    20.075034    20.793074    7114.3417    6078.0083    6434.1782    6216.9313   -153.15729     397.9898    265.81941   -2775.7205 
 5446000    260.35757   -3849.7984   -3403.5545   -3849.7984            0     9847.861    16.925049    19.935472    20.648521    6966.9936    9233.5342    9441.3254    10868.723   -1647.7314    158.57758    -1659.705   -2402.9482 
 5447000    264.41527   -3842.7835   -3389.5847   -3842.7835            0     9471.859    16.940227     19.95335    20.667038    6985.7541    8288.7506    9754.3087    10372.518   -1176.6856    505.14481    1925.8673   -2424.5912 
 5448000    264.23172   -3837.8651    -3384.981   -3837.8651            0    5724.0713    17.028404    20.057211    20.774613    7095.4087    5633.0638    4825.2864    6713.8636    1493.7052    767.60974   -159.02668   -2792.6583 
 5449000    274.68085   -3822.5703   -3351.7767   -3822.5703            0    8363.8872    16.961819    19.978782    20.693379    7012.4994    7467.0611    10150.407    7474.1934     127.6781   -215.76252    653.42622   -2496.4011 
 5450000    264.51699   -3837.9622   -3384.5891   -3837.9622            0    10042.966    16.949689    19.964495    20.678581    6997.4659    9812.0037    9051.1798    11265.714   -817.48763    587.20282   -46.220614   -2359.6958 
 5451000     269.7062   -3850.3276   -3388.0604   -3850.3276            0    9751.3559    16.908156    19.915575    20.627911    6946.1529    9595.0233     8129.239    11529.805   -2010.9208   -703.87386   -180.57758   -2400.2235 
 5452000    263.19637   -3843.0598   -3391.9502   -3843.0598            0     8883.002     16.93958    19.952588    20.666248    6984.9535    7110.2843     10298.86    9239.8616   -557.71927    450.76644    111.02718   -2487.0532 
 5453000    270.54807    -3879.157   -3415.4468    -3879.157            0    8614.0785    16.907034    19.914253    20.626542    6944.7698    8705.3859    10089.149    7047.7004   -974.78977    327.62799    163.12621   -2542.9928 
 5454000    258.71508    -3867.551   -3424.1222    -3867.551            0    7703.3003     16.95995    19.976581    20.691099    7010.1817    7506.3016    6669.3498    8934.2494   -1249.1539    461.34774   -480.64549   -2636.5652 
 5455000    253.13937   -3856.4701   -3422.5979   -3856.4701            0    8313.0112    16.982421    20.003049    20.718514    7038.0838    7228.4173    8792.5212    8918.0952   -1040.1122    1019.0296    439.62762   -2569.3235 
 5456000    255.99647   -3870.1478   -3431.3786   -3870.1478            0    8378.0137    16.936049    19.948429    20.661941    6980.5868    7891.3549    9844.8159    7397.8704    374.00146   -16.447486    1624.9421   -2578.4574 
 5457000    267.52816   -3854.1213   -3395.5871   -3854.1213            0    9494.6421    16.965119    19.982669    20.697405    7016.5933    9895.2099    10601.198    7987.5182   -279.74486    1300.9774   -1272.6197   -2424.0022 
 5458000    264.59536    -3822.281   -3368.7736    -3822.281            0    10524.653    16.964276    19.981676    20.696377    7015.5474    11935.096     8138.348    11500.515   -305.16495    17.096807    1954.9549   -2291.9483 
 5459000    254.59661     -3831.15   -3394.7801     -3831.15            0    10381.766    16.906212    19.913285     20.62554    6943.7577    8994.2672    12767.825    9383.2045   -492.81296   -159.02341   -49.149607   -2343.4438 
 5460000    275.49639   -3863.7206   -3391.5292   -3863.7206            0    7693.7025    17.084378    20.123141    20.842901    7165.6089    9064.4141    8354.9104     5661.783   -927.02772    470.34485   -1048.8778   -2587.5138 
 5461000    264.51395   -3863.7943   -3410.4265   -3863.7943            0    9193.2086    17.013828    20.040042     20.75683    7077.2035     12094.07     6845.422    8640.1342    1565.0677    343.93828   -113.22651   -2461.5609 
 5462000    273.36385   -3848.6694   -3380.1331   -3848.6694            0     10426.24    16.977869    19.997687     20.71296    7032.4247    8655.9139    10741.535    11881.271   -232.97975    -542.7242    1204.0172   -2310.8107 
 5463000    274.31065    -3838.068   -3367.9089    -3838.068            0    8708.8437    16.943593    19.957315    20.671144    6989.9191    8513.7959    9796.8286    7815.9066   -1294.3438   -142.87938   -786.80714   -2480.1224 
 5464000    271.67921   -3861.0896   -3395.4408   -3861.0896            0     8417.596    16.969895    19.988294    20.703232    7022.5205    8269.7862    8274.9439    8708.0578    -619.1106    311.90372    548.77885   -2533.3421 
 5465000    262.25686   -3908.2492   -3458.7499   -3908.2492            0    8288.0301    16.987323    20.008823    20.724494    7044.1796    8924.2388    6853.1517    9086.6996   -366.65658    922.71753    582.06715   -2607.3029 
 5466000     251.5473   -3808.8497   -3377.7062   -3808.8497            0    7751.8296     17.01908    20.046228    20.763238    7083.7597    8787.1097    8183.9324    6284.4466    304.64076    662.53632    760.32877   -2576.8696 
 5467000    249.71612   -3835.4313   -3407.4265   -3835.4313            0    8576.1234    17.023421    20.051341    20.768533    7089.1811    7954.0722    9506.3901    8267.9078   -747.25022     506.2284   -1669.6403   -2520.7545 
 5468000    260.50426    -3814.773   -3368.2776    -3814.773            0    9853.1236    16.913901    19.922342     20.63492    6953.2362    10766.852    9857.0543    8935.4648    145.75058    1629.2562    195.69481   -2369.1136 
 5469000    270.24963   -3830.8899   -3367.6913   -3830.8899            0    9571.2868    16.952936     19.96832    20.682543    7001.4886    10363.595    9646.7808    8703.4847    87.949175    1770.3866    -1100.482   -2390.3717 
 5470000    254.87675   -3864.7185   -3427.8685   -3864.7185            0    10477.279    16.872753    19.873874    20.584719    6902.6112    10395.093    10718.244    10318.501   -401.45857    1124.4697    1255.5013   -2373.1469 
 5471000    254.82766   -3847.7109   -3410.9451   -3847.7109            0    6114.3308    17.007047    20.032055    20.748558    7068.7457     5852.919    3915.1695     8574.904     483.7184   -566.86818    843.11965   -2780.6162 
 5472000    265.68519   -3857.9354   -3402.5601   -3857.9354            0    11165.735    16.842693    19.838468    20.548046     6865.785    10840.652    10820.073     11836.48    -167.4988     700.3921   -289.19617   -2284.5302 
 5473000    261.22011   -3851.5143    -3403.792   -3851.5143            0    7707.3495    16.934165    19.946209    20.659641    6978.2565    7958.6086    7220.6161    7942.8237   -617.43496    1410.7488    1139.4297   -2619.4095 
 5474000    261.26397   -3838.0137   -3390.2162   -3838.0137            0    7862.8149     16.95314     19.96856    20.682792    7001.7412    6509.5607    8169.4608    8909.4234    939.17946    160.51606    1325.2267   -2587.3189 
 5475000    262.09334   -3843.6422   -3394.4232   -3843.6422            0    9628.4996    16.924958    19.935365     20.64841    6966.8814    10028.058    10795.454     8061.987    1566.6397    453.91261   -69.615797   -2416.1213 
 5476000    264.39226     -3835.29   -3382.1307     -3835.29            0     8244.994    17.020612    20.048033    20.765107    7085.6731    8229.2095    7508.9353    8996.8372    284.29041    1111.7737    372.56256   -2530.1155 
 5477000    266.87585   -3780.7574   -3323.3414   -3780.7574            0    9707.6176    16.993154     20.01569    20.731608    7051.4357     10225.05    11760.931     7136.872    461.76615   -1237.5697   -1440.3996   -2325.0298 
 5478000     281.0794   -3839.2807   -3357.5202   -3839.2807            0      6218.47    17.033041    20.062673    20.780271    7101.2072    6992.0151    4966.1296    6697.2652   -1622.7596    -2237.757    174.25487   -2713.5117 
 5479000    270.35891   -3861.8459   -3398.4599   -3861.8459            0    6515.9687     17.05537    20.088972    20.807511    7129.1703    6604.9836    8025.2463    4917.6761   -315.34261   -583.88652   -363.78609    -2720.984 
 5480000    258.13559   -3806.0218   -3363.5862   -3806.0218            0    8734.6811    16.974908    19.994199    20.709348    7028.7462     9189.467    8803.8774    8210.6988   -97.322755     990.8735   -456.65386   -2468.2198 
 5481000    273.48107    -3856.478   -3387.7408    -3856.478            0     8289.167    17.018869     20.04598    20.762981    7083.4967     6917.419    6775.3575    11174.724     1938.614    1650.6984   -282.73912    -2531.424 
 5482000     265.7065   -3848.2416   -3392.8297   -3848.2416            0    10641.673    16.955666    19.971535    20.685873    7004.8717    11556.041    9623.8722    10745.105   -1038.6698   -83.406548    -1702.205   -2305.6885 
 5483000    258.86493   -3838.7001   -3395.0145   -3838.7001            0    9355.8063    16.968188    19.986284     20.70115    7020.4021    10340.043    9180.2238    8547.1521   -633.86487    993.83072    177.12842   -2437.1168 
 5484000    276.56686   -3854.8645   -3380.8384   -3854.8645            0     8629.526    16.969403    19.987715    20.702632      7021.91    7817.4448    8647.2937    9423.8394   -1036.5377   -350.05301     101.5053   -2497.1115 
 5485000    261.84981   -3874.6515   -3425.8499   -3874.6515            0    10419.893    16.890365    19.894619    20.606206    6924.2496    11386.259    9535.3421    10338.078   -657.19121    1794.5825   -321.26777   -2373.6171 
 5486000    278.06548   -3891.4211   -3414.8264   -3891.4211            0    8137.5473    16.904288    19.911018    20.623192    6941.3865    9236.7731    6304.2054    8871.6635   -762.10455   -2647.0365    75.986467    -2591.038 
 5487000    271.61747   -3900.8098   -3435.2667   -3900.8098            0    8019.1827    16.949944    19.964795    20.678892    6997.7812    9760.0728    7511.0553    6786.4199    -551.1233   -646.71028    191.43322   -2616.8653 
 5488000    266.36569   -3864.2754   -3407.7338   -3864.2754            0    9064.0293    16.934565     19.94668    20.660129    6978.7509    7960.9006     9070.103    10161.084   -123.66992    692.04312    1459.2432   -2485.2157 
 5489000    255.73746   -3868.5472    -3430.222   -3868.5472            0    8089.9978     16.92097    19.930668    20.643544    6961.9574    9542.6426    7793.2779     6934.073    1371.4742   -326.24665    77.645924   -2608.8201 
 5490000     272.5812   -3881.7089   -3414.5141   -3881.7089            0    7706.6443     16.91326    19.921587    20.634138    6952.4454    8248.6282    6384.1526    8487.1521    249.77909   -1920.2626    933.20154   -2633.1044 
 5491000     248.2462   -3875.9435   -3450.4581   -3875.9435            0    9596.6541    16.949419    19.964177    20.678252    6997.1318    8441.5637    9789.5659    10558.833   -174.32116    171.09773    715.67222    -2471.158 
 5492000    263.71097   -3838.8545   -3386.8629   -3838.8545            0    7170.5907    16.972534    19.991404    20.706452    7025.7982    7841.3599     7837.007    5833.4052   -860.08366   -1349.5952    103.52037   -2652.1351 
 5493000    269.48564   -3844.3085   -3382.4194   -3844.3085            0    8665.4944    16.969414    19.987728    20.702645    7021.9238    8239.9044    8010.4439    9746.1349    -1679.833   -273.87039    216.48781   -2495.0073 
 5494000    273.12735   -3875.0583   -3406.9274   -3875.0583            0    8423.7558    17.017874    20.044808    20.761767    7082.2541    8090.2506    7857.6698    9323.3469    1439.7293   -1768.8123   -473.51094   -2536.8595 
 5495000    273.25525   -3854.8746   -3386.5244   -3854.8746            0    6934.5871    17.000326    20.024138    20.740358     7060.368    6745.1451      7826.94    6231.6761   -582.15585     1021.257    1095.7293   -2672.4823 
 5496000    264.15471   -3845.0122   -3392.2601   -3845.0122            0    9121.1288    16.936512    19.948973    20.662505    6981.1582    8362.8297    8266.5314    10734.025   -896.53257    249.63467     40.58375   -2463.6103 
 5497000    263.39852   -3855.5945   -3404.1385   -3855.5945            0    8999.8916    16.935101    19.947312    20.660783    6979.4138    6844.7783    10165.075    9989.8213    -1220.016   -1267.0599   -519.12173   -2488.0612 
 5498000    274.68555    -3842.757   -3371.9553    -3842.757            0    8813.1459      16.9445    19.958383     20.67225    6991.0411    9408.2107    9342.3597    7688.8673   -15.531195   -269.85141    804.00187    -2473.392 
 5499000    247.37559   -3821.1299   -3397.1366   -3821.1299            0    9522.6367    16.903838    19.910488    20.622642    6940.8319    11214.269    5915.4556    11438.185   -883.65919    1348.2547   -100.56774   -2433.2085 
 5500000    274.48124   -3817.1904   -3346.7389   -3817.1904            0    8671.5984    16.896196    19.901488     20.61332    6931.4235    7516.8669     9656.523    8841.4054   -1852.9938    702.50163   -1020.5437    -2470.147 
Loop time of 401.045 on 64 procs for 250000 steps with 864 atoms

Performance: 107.719 ns/day, 0.223 hours/ns, 623.371 timesteps/s
190.7% CPU use with 32 MPI tasks x 2 OpenMP threads

MPI task timing breakdown:
Section |  min time  |  avg time  |  max time  |%varavg| %total
---------------------------------------------------------------
Pair    | 26.792     | 33.328     | 38.709     |  46.8 |  8.31
Bond    | 0.86361    | 1.1387     | 1.5536     |  14.8 |  0.28
Kspace  | 176.66     | 184.66     | 191.73     |  26.6 | 46.04
Neigh   | 4.0901     | 4.6845     | 4.9927     |  12.9 |  1.17
Comm    | 78.672     | 83.777     | 90.585     |  30.7 | 20.89
Output  | 0.53414    | 0.53461    | 0.54028    |   0.1 |  0.13
Modify  | 74.231     | 76.988     | 80.282     |  16.8 | 19.20
Other   |            | 15.94      |            |       |  3.97

Nlocal:        27.0000 ave          34 max          21 min
Histogram: 3 0 3 8 3 5 8 0 1 1
Nghost:        2642.22 ave        2689 max        2607 min
Histogram: 2 7 2 2 7 1 7 2 1 1
Neighs:        8894.75 ave       12312 max        6486 min
Histogram: 2 3 3 4 9 6 4 0 0 1

Total # of neighbors = 284632
Ave neighs/atom = 329.43519
Ave special neighs/atom = 2.0000000
Neighbor list builds = 14602
Dangerous builds = 2

unfix		3
unfix		2
unfix		1

write_data	data.final.${pid}
write_data	data.final.1
System init for write_data ...
PPPM initialization ...
  extracting TIP4P info from pair style
  using 12-bit tables for long-range coulomb (../kspace.cpp:340)
  G vector (1/distance) = 0.37464493
  grid = 24 24 24
  stencil order = 5
  estimated absolute RMS force accuracy = 0.003117541
  estimated relative force accuracy = 9.3883821e-06
  using double precision FFTW3
  3d grid and FFT values/proc = 3549 432
Last active /omp style is kspace_style pppm/tip4p/omp
WARNING: Not all mixed pair coeffs generated from mixing. Use write_data with 'pair ij' option to store all pair coeffs. (../write_data.cpp:312)

write_restart   restart.lmp.${pid}
write_restart   restart.lmp.1
System init for write_restart ...
PPPM initialization ...
  extracting TIP4P info from pair style
  using 12-bit tables for long-range coulomb (../kspace.cpp:340)
  G vector (1/distance) = 0.37464493
  grid = 24 24 24
  stencil order = 5
  estimated absolute RMS force accuracy = 0.003117541
  estimated relative force accuracy = 9.3883821e-06
  using double precision FFTW3
  3d grid and FFT values/proc = 3549 432
Last active /omp style is kspace_style pppm/tip4p/omp
Total wall time: 0:06:41
