LAMMPS data file via write_data, version 30 Jul 2021, timestep = 7250000

864 atoms
2 atom types
576 bonds
1 bond types
288 angles
1 angle types

0.2701828831914401 17.937389516805826 xlo xhi
1.4097710182535579 22.219406781753143 ylo yhi
0.32962248642028236 21.883573313578516 zlo zhi

Masses

1 1.00794
2 15.9994

Pair Coeffs # lj/cut/tip4p/long/omp

1 0 0
2 0.21084 3.1668

Bond Coeffs # harmonic/omp

1 450 0.9572

Angle Coeffs # harmonic/omp

1 55 104.52

Atoms # full

797 1 1 0.5897 2.3593026907532773 3.66625543909255 2.274402864867109 0 -4 -3
796 1 2 -1.1794 1.5213839950358283 3.455970976562846 1.8621389732823928 0 -4 -3
798 1 1 0.5897 1.297970148563863 2.589110448995416 2.2011418305034773 0 -4 -3
557 1 1 0.5897 3.2545814916978704 3.249025001432633 4.901903107411129 2 2 1
522 1 1 0.5897 3.8711456917874587 4.740788359327986 3.101893416695286 -2 -1 -3
287 1 1 0.5897 1.0523669844031045 5.568529395328573 4.740927816780176 3 1 2
400 1 2 -1.1794 0.34559675869735956 2.2050162750283837 5.43516904061483 -1 -1 2
401 1 1 0.5897 1.2558551430206712 2.4960056966029924 5.49031119038119 -1 -1 2
520 1 2 -1.1794 3.8244141965099208 3.7898074468713747 3.200613812583615 -2 -1 -3
402 1 1 0.5897 0.3197918681557258 1.6430528292208462 4.660687348541107 -1 -1 2
721 1 2 -1.1794 3.6320902289612946 6.443849284056368 2.3293679386323713 2 0 0
521 1 1 0.5897 4.6431357587572615 3.4687668179959803 2.822578597233102 -2 -1 -3
858 1 1 0.5897 0.5677429643843461 4.786901503959783 2.625877450350824 0 0 -3
857 1 1 0.5897 0.6232312893710534 6.289057588493829 2.8060926958036414 0 0 -3
286 1 2 -1.1794 1.363148590656397 5.879182225806788 5.5913526886426395 3 1 2
558 1 1 0.5897 2.9989790226417257 3.713838895009916 6.319886035196382 2 2 1
314 1 1 0.5897 2.6362151113569223 5.2712228570185236 10.482004218904866 -2 -1 0
734 1 1 0.5897 2.467766396779836 5.493111563001504 7.187083446101525 0 1 -3
731 1 1 0.5897 1.7600922801143815 2.0176786181512054 9.937073549329227 2 1 -5
733 1 2 -1.1794 2.9505247504463585 4.804553713873422 7.644406587633895 0 1 -3
288 1 1 0.5897 0.5747633185958005 5.9269018274355405 6.132167850374324 3 1 2
735 1 1 0.5897 3.7206877731649506 5.247502790888079 8.000683308216612 0 1 -3
497 1 1 0.5897 1.6802110928941505 3.8159968262367645 8.309779708931726 -1 0 1
496 1 2 -1.1794 1.1522577838251509 3.394383605961214 8.987859593488809 -1 0 1
498 1 1 0.5897 0.6066698046123253 4.097997583216204 9.339346341882996 -1 0 0
730 1 2 -1.1794 2.0048591672301663 1.4471536062823809 10.665687365292403 2 1 -5
556 1 2 -1.1794 2.9094099201656594 2.954026892383899 5.744588721713373 2 2 1
257 1 1 0.5897 3.4755312877375375 2.140335070406602 11.495376436190291 -1 -1 0
256 1 2 -1.1794 4.191619483402344 2.678799441454109 11.832381515244956 -1 -1 0
112 1 2 -1.1794 2.4331539812336698 5.587035084010745 14.45975591821622 -1 -1 1
114 1 1 0.5897 3.213292087885385 5.193086919571176 14.069276510583023 -1 -1 1
113 1 1 0.5897 2.228177844059183 5.024195804171474 15.20641202628076 -1 -1 1
855 1 1 0.5897 1.2171515334989187 2.6079489402485416 15.307353627941772 -4 1 1
704 1 1 0.5897 0.759971630577025 5.318163581364493 13.131405179300527 4 -2 -1
854 1 1 0.5897 2.166327215927408 1.8492968134600543 14.404264356439354 -4 1 1
258 1 1 0.5897 3.871482881647436 3.577838226151072 11.757844574475564 -1 -1 0
590 1 1 0.5897 4.282572089459149 1.9887397168991092 13.319594588521532 3 6 1
315 1 1 0.5897 2.598050891328349 6.13032370241981 11.72800265461888 -2 -1 0
853 1 2 -1.1794 1.2425141719588582 1.9165785945413019 14.645795889787632 -4 1 1
313 1 2 -1.1794 2.6756079643147515 5.221663248367239 11.437135060610764 -2 -1 0
589 1 2 -1.1794 4.103976569534558 1.603137200681111 14.177327481986469 3 6 1
143 1 1 0.5897 3.6440247706174747 3.0217015757219094 20.43511242722751 -1 3 2
205 1 2 -1.1794 2.58624834446174 4.388389821532353 21.075034338825212 -5 5 -4
203 1 1 0.5897 1.2796727960874517 3.594849528375352 17.32171599869568 -6 3 3
207 1 1 0.5897 2.0421638117098873 5.168230565296291 20.964895887980212 -5 5 -4
144 1 1 0.5897 3.2942578254502575 1.818805882151712 19.584959488747153 -1 3 2
142 1 2 -1.1794 4.015692933916829 2.218125012342719 20.07113146284241 -1 3 2
107 1 1 0.5897 3.7964669457080644 5.243222775847437 18.2774587153635 -1 0 2
204 1 1 0.5897 2.6694435839590667 3.483661708070261 16.73163645892211 -6 3 3
546 1 1 0.5897 4.419504637433066 3.086224311350259 18.424231620203344 -3 4 3
202 1 2 -1.1794 1.7803824674196418 3.7723454829498166 16.52543138123888 -6 3 3
544 1 2 -1.1794 4.441610576722045 3.639773321241566 17.64359953478305 -3 4 3
69 1 1 0.5897 4.594949119557274 4.956582208021997 21.400995057130615 5 -1 -5
106 1 2 -1.1794 3.5718485103909643 6.172720090977943 18.32065403224891 -1 0 2
206 1 1 0.5897 2.2283858989464314 3.9534661498300414 21.849033597101748 -5 5 -4
640 1 2 -1.1794 2.4564840911656263 10.38842091605129 1.744145590008748 4 2 -4
676 1 2 -1.1794 1.1770136933395032 7.764168062892323 2.153256342210317 4 0 -3
422 1 1 0.5897 4.178964244413342 10.079356363720334 1.5599212908241888 -5 2 5
641 1 1 0.5897 1.6688698385007592 10.736066394201565 2.162588618753097 4 2 -4
452 1 1 0.5897 2.1350301916593386 9.75320761988007 4.8565694603565035 -1 0 5
642 1 1 0.5897 2.1276954170873745 9.841824165775876 1.0304097235385326 4 2 -4
191 1 1 0.5897 1.1606895172313578 7.617289435185206 5.224066189985407 3 4 -5
677 1 1 0.5897 1.2999620365115043 8.310392961499407 2.929677283443705 4 0 -3
451 1 2 -1.1794 2.7995913647328083 10.441469218192516 4.887590153765095 -1 0 5
190 1 2 -1.1794 0.9946433004304027 8.507855969722634 4.9148598867629145 3 4 -5
453 1 1 0.5897 2.3050275579320685 11.245613159495367 5.045923399952936 -1 0 5
678 1 1 0.5897 0.3374833869431705 8.04745444250503 1.7910131544878165 4 0 -3
722 1 1 0.5897 4.324965121455395 6.979765709875294 1.9433472925789461 2 0 0
723 1 1 0.5897 2.8643499078130543 7.015469761649375 2.3400668987905138 2 0 0
192 1 1 0.5897 0.5522711173599586 8.937522140608657 5.646967529029004 3 4 -5
424 1 2 -1.1794 3.634245938345171 7.5996226579447 8.68209520443558 8 -2 1
259 1 2 -1.1794 2.340101897388495 10.982387471391432 8.841363935268005 2 -2 6
426 1 1 0.5897 4.166328198896714 8.1156638873147 8.07639115582335 8 -3 1
76 1 2 -1.1794 3.803250297116135 9.841491769353517 10.792146240525888 -4 -5 -4
813 1 1 0.5897 1.8509985890469616 7.932448668284731 9.098437402899753 -5 5 -2
812 1 1 0.5897 0.5178316521549391 8.43646967556486 8.587900642843532 -5 5 -2
261 1 1 0.5897 2.994565827531734 11.524607925658714 8.400901865224101 2 -2 6
260 1 1 0.5897 2.833480083342307 10.505282753741866 9.508646557492234 2 -2 6
585 1 1 0.5897 0.9908896738584752 10.281671651733834 7.7448257848802475 2 -3 2
811 1 2 -1.1794 0.9101240441557021 7.890990694104383 9.269702597699538 -5 5 -2
425 1 1 0.5897 4.252551389942753 7.298387111371839 9.347877831675346 8 -2 1
53 1 1 0.5897 4.084404067696406 9.904032591967258 5.964727981498577 -5 0 4
180 1 1 0.5897 0.6429338368443684 8.744143237122913 11.07825871692294 -6 1 0
583 1 2 -1.1794 0.31717073165954446 9.80678300282485 7.258133281840853 2 -3 2
78 1 1 0.5897 4.634659254120859 9.960311319504232 10.332777757604653 -4 -5 -4
509 1 1 0.5897 0.9232689574134038 10.785493612392962 13.006389452639079 4 -2 2
77 1 1 0.5897 3.7812452249116233 10.549916296045424 11.435544539795194 -4 -5 -4
176 1 1 0.5897 1.8616818435196814 8.266179105813933 12.577314058299077 -3 -2 6
175 1 2 -1.1794 2.7089884714906334 7.919685745007331 12.297470974712652 -3 -2 6
510 1 1 0.5897 1.1125350672376508 10.892081083452366 14.504678367524518 4 -2 2
404 1 1 0.5897 4.066680549257434 7.799599248474551 13.468135847279294 8 -3 0
647 1 1 0.5897 1.704379579523539 6.644265819236302 15.86314860562877 -5 0 0
508 1 2 -1.1794 1.1441952423136788 11.408126053793191 13.699070823658612 4 -2 2
41 1 1 0.5897 1.5603515724094232 9.202133749963712 16.20449123059381 1 0 3
178 1 2 -1.1794 0.3706357393610702 9.226851190718467 11.858728414898676 -6 1 0
40 1 2 -1.1794 1.456566799145605 10.141257900723936 16.051006641983417 1 0 3
42 1 1 0.5897 2.2619590381818706 10.53056163058954 16.391746938241432 1 0 3
177 1 1 0.5897 3.006073728057244 8.528998520261377 11.621618936687913 -3 -2 6
362 1 1 0.5897 4.57349088019187 10.55883729511422 16.167585733651656 3 -3 -1
671 1 1 0.5897 3.104795667224948 11.723816501743633 13.116718831195728 7 1 1
846 1 1 0.5897 0.8741834577574495 9.808439763784842 20.74813126092471 0 0 3
844 1 2 -1.1794 1.7686671141272374 9.520630877987026 20.930783636212496 0 0 3
845 1 1 0.5897 2.3188522074160245 10.092996829636256 20.396004843553413 0 0 3
657 1 1 0.5897 3.490270641561659 11.481152360226062 17.845578936424282 0 3 -1
655 1 2 -1.1794 3.463664756315796 11.666545354851612 16.906854965182994 -1 3 -1
182 1 1 0.5897 1.7450014218272911 7.75775740999009 20.44160531585173 -2 2 -3
181 1 2 -1.1794 1.6158046151481125 6.8317093300831955 20.236585493692473 -3 2 -3
648 1 1 0.5897 2.242876762489887 7.197657838228498 17.165386436743383 -5 0 0
108 1 1 0.5897 4.33921610562934 6.621797551955292 17.96601265282507 -1 0 2
233 1 1 0.5897 4.239550295580999 11.71509661621716 20.027269356827524 -1 1 -1
183 1 1 0.5897 2.3135305640470807 6.623902466754992 19.61506740525919 -3 2 -3
232 1 2 -1.1794 3.343503118587501 11.503034562248681 19.765669340099038 -1 1 -1
646 1 2 -1.1794 1.562807441138135 7.3386378043359715 16.506656507173183 -5 0 0
469 1 2 -1.1794 0.8435050189978618 16.34729809500279 5.0710242045110485 2 -4 3
264 1 1 0.5897 4.448443228975693 15.755857495296777 4.811136884640658 5 -4 5
815 1 1 0.5897 2.5793779809300847 13.444702748413459 2.8650202488903345 -4 7 -3
814 1 2 -1.1794 3.317069088215493 12.836941758439924 2.9172298484552517 -4 7 -3
840 1 1 0.5897 0.6737084351662954 12.577693733549804 4.336142067671792 -3 -4 -4
588 1 1 0.5897 4.049121280630763 13.375352475730814 4.580743322432898 2 2 4
816 1 1 0.5897 2.968595618436533 12.007826834205071 2.5894793693222615 -4 7 -3
273 1 1 0.5897 1.4458707540840507 15.542622473006016 3.4483549948120267 0 2 4
262 1 2 -1.1794 4.287266000856808 16.698241032651566 4.764047564993445 5 -4 5
271 1 2 -1.1794 1.5180277716290254 15.09334351597214 2.606200879100346 0 2 4
728 1 1 0.5897 4.673305044336425 14.642699162790258 0.6016075606843221 -1 3 0
729 1 1 0.5897 4.544184522784201 13.663915542521195 1.7493583943813051 -1 3 0
838 1 2 -1.1794 0.7653321734008338 12.641536821919376 5.286835782014361 -3 -4 -4
272 1 1 0.5897 0.9484691254529202 15.590730219080553 2.019260717154829 0 2 4
263 1 1 0.5897 3.9510656848092327 16.927803473039535 5.630391962196712 5 -4 5
470 1 1 0.5897 1.2722112446920208 15.734657827986332 5.668661330024325 2 -4 3
305 1 1 0.5897 1.2789042056773474 12.411326613038497 9.422328066055162 7 -2 -5
843 1 1 0.5897 3.1635932256574355 13.83399472001058 7.664010318256139 -4 2 0
842 1 1 0.5897 4.501271892103777 13.827137030657308 8.373000077065248 -4 2 0
553 1 2 -1.1794 1.824223771703984 14.576896595549448 6.858490087178949 -6 -6 2
555 1 1 0.5897 1.0963310312031824 14.722673478549689 7.462818648307788 -6 -6 2
595 1 2 -1.1794 2.9528321709736796 16.48118625082867 9.69437701999758 1 -4 2
304 1 2 -1.1794 0.8275624490391628 13.19632239161244 9.732766986297252 7 -2 -5
841 1 2 -1.1794 3.854149404352288 13.2469237943906 7.9718450660822455 -4 2 0
306 1 1 0.5897 1.378144774491954 13.524358163794089 10.443777009964451 7 -2 -5
707 1 1 0.5897 3.080266279584874 14.95625982485461 10.740158800065242 0 -3 -7
554 1 1 0.5897 1.5870705667770402 13.779431612272889 6.385085858092258 -6 -6 2
597 1 1 0.5897 2.1459986606679635 16.718044494295594 10.151766289546918 1 -4 2
587 1 1 0.5897 4.415858734551236 13.640727171265514 6.025425697839269 2 2 4
60 1 1 0.5897 2.675202447176467 14.43488877703598 16.033106546294924 5 -1 -4
670 1 2 -1.1794 3.7448941275930507 11.965079148529734 12.447126320466504 7 1 1
672 1 1 0.5897 3.3406093812603417 12.697107182770912 11.981315841151572 7 1 1
715 1 2 -1.1794 2.733140965501159 16.647537907293376 13.454366237365932 3 -8 -4
783 1 1 0.5897 1.2736808336506569 13.164113898880029 14.249087784682258 -2 -1 0
781 1 2 -1.1794 1.589020966250885 14.027936747672229 14.514936213218068 -2 -1 0
717 1 1 0.5897 3.6697699413700904 16.450495259562928 13.468002758695862 3 -8 -4
708 1 1 0.5897 2.8284334926224948 14.899536365064385 12.231933319270029 0 -3 -7
706 1 2 -1.1794 2.757140119367336 14.378851736394687 11.431874488107933 0 -3 -7
782 1 1 0.5897 1.1714853537479857 14.634519209505779 13.90337237448453 -2 -1 0
297 1 1 0.5897 1.5906878390353099 13.968239280956272 20.050228384346255 -1 3 0
295 1 2 -1.1794 1.8429783480464381 13.57661763102495 20.886470743166406 -1 3 0
244 1 2 -1.1794 3.7424185587708565 15.611211155696942 20.909944769740093 -4 4 -3
744 1 1 0.5897 4.4738192947657005 15.702986629194779 16.686599090660543 -1 0 0
296 1 1 0.5897 2.5206301908938413 14.159189915536599 21.22957161969167 -1 3 0
656 1 1 0.5897 3.242378566007676 12.596229619005243 16.852009130930163 -1 3 -1
246 1 1 0.5897 4.263632321819188 16.138374811584583 20.30436815699695 -4 4 -3
234 1 1 0.5897 2.7966625653633086 12.099477306912545 20.27706415011194 -1 1 -1
245 1 1 0.5897 2.9998601721849267 16.170853316534878 21.137347472866544 -4 4 -3
59 1 1 0.5897 2.4783734514519846 14.559906077307224 17.52898435816151 5 -1 -4
566 1 1 0.5897 1.1248935733798686 15.927648217592568 18.65048069551674 0 5 -8
565 1 2 -1.1794 1.010809770206754 14.980678658415666 18.569486462440835 0 5 -8
58 1 2 -1.1794 3.149085314057264 14.403384336289312 16.86420432876939 5 -1 -4
173 1 1 0.5897 1.4458785682900988 21.253236993392164 3.046882619664646 2 1 -2
172 1 2 -1.1794 0.8156737886018564 21.972706301828985 3.007796803849221 2 1 -2
665 1 1 0.5897 0.3808952843534325 17.07966260969626 0.6987662557736083 2 0 3
406 1 2 -1.1794 3.3857587868742836 20.565408909963974 2.6161720978041973 -4 -2 3
830 1 1 0.5897 4.1361352763201875 17.494666542570116 3.07544269771591 4 3 4
15 1 1 0.5897 2.6805388636512926 17.83622883887556 0.8555614406809524 1 -4 -3
674 1 1 0.5897 1.5239909060101904 18.272509990353967 5.287688394931925 -4 0 -3
408 1 1 0.5897 3.487259800603901 19.639339878094912 2.396229481193304 -4 -2 3
829 1 2 -1.1794 4.019841479188189 17.8052547445987 2.177504836617741 4 3 4
407 1 1 0.5897 4.081884583868686 20.739289683531098 3.2497832575024357 -4 -2 3
609 1 1 0.5897 4.149800689750869 20.939432902285322 1.119054179903896 5 2 3
673 1 2 -1.1794 1.3819201944207693 19.207073557847725 5.438393109316743 -4 0 -3
675 1 1 0.5897 2.2612584989871554 19.56862785895529 5.549540001645201 -4 0 -3
251 1 1 0.5897 3.1711506304061077 18.612173885828682 7.651956070252054 5 -4 2
602 1 1 0.5897 2.359579630928355 19.544507557485826 10.128976793549784 3 3 -2
601 1 2 -1.1794 2.481661328819171 19.911759091113762 9.253461942346926 3 3 -1
603 1 1 0.5897 1.6138781651251068 19.868167490983616 8.851792536091995 3 3 -1
317 1 1 0.5897 2.943247120644055 21.907454507256038 6.266854026858106 -5 -5 0
316 1 2 -1.1794 3.301526654383619 21.029524114170513 6.397851333691881 -5 -5 1
732 1 1 0.5897 2.3501024388570477 21.46804363201602 10.247391553261306 2 0 -5
250 1 2 -1.1794 3.4034376370554122 17.825770487919574 7.158085260004968 5 -4 2
596 1 1 0.5897 3.5538543954812454 17.203107275976787 9.878495307123277 2 -4 2
347 1 1 0.5897 0.6255811961452737 19.69044847714898 7.142139638094385 -5 2 -4
477 1 1 0.5897 4.153928229699735 21.81784022517648 8.099195278000199 6 -2 -1
318 1 1 0.5897 4.016244281530028 20.965008142649793 5.764369329117134 -5 -5 1
252 1 1 0.5897 3.2861664640873243 17.10807248654816 7.780572173820324 5 -4 2
483 1 1 0.5897 2.481609664029306 17.313417545009003 15.149771654731856 1 3 -1
848 1 1 0.5897 0.9222009466614977 21.58477088029088 16.01123292071957 3 -3 5
330 1 1 0.5897 1.8478890571692472 19.536884050612233 12.35163429520582 3 5 1
819 1 1 0.5897 0.645692463245086 21.40958236538278 13.306027530521138 3 -3 0
328 1 2 -1.1794 2.641108014934317 19.04504268125601 12.139026539099167 3 5 1
761 1 1 0.5897 4.249353517804291 19.623895398835998 15.566585744603527 0 -3 -1
817 1 2 -1.1794 0.5276169847450849 20.746223862243987 12.626099299979355 3 -2 0
482 1 1 0.5897 2.8767979610718046 18.317134524244498 16.21203496303054 1 3 -1
329 1 1 0.5897 3.2765089696288716 19.316293856925636 12.801587723173188 3 5 1
818 1 1 0.5897 0.8249537574338832 21.171467355443184 11.82171136630661 3 -2 0
481 1 2 -1.1794 2.193310134301644 17.687551678963736 15.982354583251947 1 3 -1
716 1 1 0.5897 2.659486495811065 17.425005216466523 12.90082722244182 3 -8 -4
777 1 1 0.5897 0.29946756371517164 17.6855712579371 15.028987791766323 3 -3 0
809 1 1 0.5897 4.471229179874622 20.614652766940463 13.889082377721635 3 -3 -2
760 1 2 -1.1794 3.9987245975636743 19.828432912844757 16.467498021849437 0 -3 -1
762 1 1 0.5897 3.0712765211589486 20.05883372261184 16.412152499665858 0 -3 -1
490 1 2 -1.1794 1.9102384268503554 21.580743390626033 18.91474702653501 1 3 2
849 1 1 0.5897 1.3562177854717308 21.17246898874109 17.401802229991567 3 -3 5
492 1 1 0.5897 2.460028073670674 20.832591718750805 19.147753269226996 1 3 2
360 1 1 0.5897 2.5477191841682045 18.79513923675712 19.264882018775694 4 -1 -3
491 1 1 0.5897 1.1252730753608873 21.478602133023514 19.452975426737915 1 3 2
358 1 2 -1.1794 3.2380362217083487 19.208659236308318 19.783296439062113 4 -1 -3
359 1 1 0.5897 4.038252823700155 18.750518597044 19.526307770449513 4 -1 -3
373 1 2 -1.1794 1.2842103585006686 17.615578805942974 18.548099092819214 3 4 0
847 1 2 -1.1794 0.9007898454671748 20.849801565625395 16.624139864297753 3 -3 5
374 1 1 0.5897 1.3872947973324412 17.624023103326092 17.596476874108888 3 4 0
375 1 1 0.5897 0.4086805779895686 17.972425102381678 18.697835947139836 3 4 0
14 1 1 0.5897 2.519645183841836 18.24332242762084 20.960218334252453 1 -4 -4
608 1 1 0.5897 4.24308657689347 21.589878187516184 21.30909955024081 5 2 2
13 1 2 -1.1794 2.0953548099980814 17.7435013837812 21.65767353436904 1 -4 -4
651 1 1 0.5897 7.4876217514086765 6.103221889213536 3.4301541059745273 2 -1 1
613 1 2 -1.1794 6.436846941467456 2.598904792940669 5.0888052442861325 -7 2 4
74 1 1 0.5897 7.498476615600796 1.6384392928521245 2.273205370007399 1 1 2
753 1 1 0.5897 6.159592948350984 3.4010524764499666 1.1089891888475232 4 1 1
751 1 2 -1.1794 6.012929274055425 2.7133941610212657 1.7585400741251755 4 1 1
444 1 1 0.5897 8.197696551154035 4.129345044879368 2.8133149377672138 5 4 -1
614 1 1 0.5897 7.083112267389591 2.97198619491791 4.489271553025101 -7 2 3
752 1 1 0.5897 5.5154600075360625 2.0429871230100494 1.290168256792592 4 1 1
442 1 2 -1.1794 7.921250583316574 4.436391025304393 3.6767884043796064 5 4 -1
443 1 1 0.5897 8.716913590133876 4.406716253538889 4.208130515094048 5 4 -1
615 1 1 0.5897 6.008148300772495 3.358737483425651 5.482707039754836 -7 2 4
68 1 1 0.5897 5.57193947052061 6.003051340783423 0.33940298458331597 5 -1 -4
141 1 1 0.5897 5.955193444493256 3.9985684818816027 8.981052274994468 -2 -1 0
139 1 2 -1.1794 5.707279804306179 3.8890314172088676 9.899109748427295 -2 -1 0
513 1 1 0.5897 6.130385117227349 5.450304349770437 6.839630508932166 0 1 -3
511 1 2 -1.1794 6.280341563932733 4.569203956127614 7.182351798893429 0 1 -3
512 1 1 0.5897 7.220185592819192 4.538069633527824 7.361366916627777 0 1 -3
102 1 1 0.5897 5.6038901046007625 5.6898096965635885 10.230234880496678 5 -4 -3
140 1 1 0.5897 5.134936714453375 3.121767050056582 9.903241547072415 -2 -1 0
754 1 2 -1.1794 8.969965984798726 4.317161808393623 7.7463369781015565 -4 -2 -4
756 1 1 0.5897 9.003655177013984 3.4464028331691066 8.142483896769932 -4 -2 -4
225 1 1 0.5897 9.012730215487114 5.170013484814075 9.489710865073238 1 1 -7
501 1 1 0.5897 6.710865857699931 1.5178544316888583 6.442683037803313 0 0 -2
654 1 1 0.5897 8.656149441122958 1.589099943276337 9.674492740485043 -3 1 0
652 1 2 -1.1794 8.872682931069127 1.8510835340318534 8.779641231215743 -3 1 0
653 1 1 0.5897 8.180354124647351 1.465706766519716 8.242567234367897 -3 1 0
709 1 2 -1.1794 5.448392421758118 4.9987643706285905 14.37122736495109 -5 -3 -3
19 1 2 -1.1794 7.349319943791423 4.206974654535031 12.131226953832327 -5 -4 2
710 1 1 0.5897 5.26537971472616 5.9164049086677615 14.169427864553082 -5 -3 -3
349 1 2 -1.1794 7.21487459018818 5.614341417779019 16.226742800225026 -10 1 -1
21 1 1 0.5897 7.961527865603736 4.727460723397378 11.611053788035735 -5 -4 2
351 1 1 0.5897 6.581006488002279 5.327646962694496 15.569227800239188 -10 1 -1
711 1 1 0.5897 6.1010570791237795 4.735862630457617 13.722233033750024 -5 -3 -3
242 1 1 0.5897 7.744025865838221 2.6948535606870845 13.144890958823552 0 -2 2
241 1 2 -1.1794 7.81664486324076 1.9142127285186614 13.694118675996805 0 -2 2
243 1 1 0.5897 8.57739185194328 2.0820211272837836 14.250434995964893 0 -2 2
294 1 1 0.5897 6.861466738817732 2.2468300501778566 15.248079443062283 -2 2 1
20 1 1 0.5897 6.722753707033074 3.8651270602976937 11.493384056644025 -5 -4 1
292 1 2 -1.1794 6.244395221770346 2.40549340115252 15.962461497301755 -2 2 1
591 1 1 0.5897 4.764770864689234 1.9856065342067595 14.754692131489 3 6 1
293 1 1 0.5897 6.262962612814948 1.5998190964506318 16.47903040779476 -2 2 1
545 1 1 0.5897 5.01060977112327 3.1710236421915137 17.033025304493343 -3 4 3
457 1 2 -1.1794 6.975826048169005 4.296304394656525 18.98307958080185 -2 -1 -3
741 1 1 0.5897 8.151862876222616 3.064298765062601 19.672995611652645 0 3 3
458 1 1 0.5897 6.247092380374937 4.31496046155815 18.362682782944617 -2 -1 -3
702 1 1 0.5897 8.51975350038097 5.634930395960821 18.927816414276286 4 -1 2
67 1 2 -1.1794 5.528091642045323 5.168393078923051 21.426763718158334 5 -1 -5
739 1 2 -1.1794 8.634793153061159 2.375734561155058 20.13010366408043 0 3 3
459 1 1 0.5897 6.5954379351560215 4.594950932260632 19.809161761200315 -2 -1 -3
740 1 1 0.5897 8.099322756854221 1.590584689225856 20.015673240226498 0 3 3
700 1 2 -1.1794 8.989735718146068 6.430506645970725 19.177751904580262 4 -1 2
350 1 1 0.5897 6.771433300615709 6.321537487579918 16.695284030024396 -10 1 -1
736 1 2 -1.1794 6.0402458371523515 7.616686143489983 1.1017271793823413 0 -1 0
423 1 1 0.5897 5.520670498973721 10.56454456450101 2.066423633242306 -5 2 5
62 1 1 0.5897 9.074719101613535 9.363996090393163 4.37844747591718 -3 1 5
738 1 1 0.5897 6.512252215716954 7.382579077960867 1.9009076773185605 0 -1 0
737 1 1 0.5897 5.890121963524653 8.558911427606606 1.1789403848132785 0 -1 0
773 1 1 0.5897 6.955244563867079 10.76676847077994 4.159279390539046 0 -4 3
221 1 1 0.5897 8.54929144398869 11.241703546318657 2.580765214209664 1 -4 2
650 1 1 0.5897 8.043040440224745 7.510292129005487 3.490825118236249 2 -1 1
421 1 2 -1.1794 5.107842449600457 10.111983509729324 1.330860666018279 -5 2 5
649 1 2 -1.1794 7.220670022178972 7.020378426265178 3.4923357574862353 2 -1 1
772 1 2 -1.1794 6.86279680060619 11.180728877937609 3.3011370855576128 0 -4 3
65 1 1 0.5897 6.2442452253238185 7.276892698033927 5.015399531648509 5 -1 -3
188 1 1 0.5897 7.4035756185524395 10.956062526483928 6.302503756085575 -3 4 1
533 1 1 0.5897 7.872815574699446 8.434004290537114 8.570365472629987 -8 -1 -3
580 1 2 -1.1794 6.099798790940911 10.619367209052289 9.01160058470827 -2 -2 0
534 1 1 0.5897 7.011836072202091 7.341029813445508 9.167150723623967 -8 -1 -3
66 1 1 0.5897 6.598729143203546 7.250765178039182 6.487034908493413 5 -1 -3
532 1 2 -1.1794 7.434527926689391 7.611502872416746 8.352006955340379 -8 -1 -3
146 1 1 0.5897 6.967139399751165 10.17462527806586 10.550895103110392 -1 1 -4
582 1 1 0.5897 5.568786474009389 10.249815770447544 8.306094298535708 -2 -2 0
52 1 2 -1.1794 4.754602994722988 9.52736193577729 6.535023552239451 -5 0 4
54 1 1 0.5897 4.849139847068776 8.624768402357342 6.230603013071979 -5 0 4
581 1 1 0.5897 6.554747313197362 11.358393295793354 8.607686468268648 -2 -2 0
714 1 1 0.5897 8.841592245024911 7.150430542540838 7.4614355307704345 -5 -1 3
189 1 1 0.5897 6.497951494143727 9.767576154014506 6.058854769918304 -3 4 1
187 1 2 -1.1794 7.3721665851286815 10.105545906704345 5.864417583013021 -3 4 1
64 1 2 -1.1794 5.881853144537109 7.073954032940239 5.877830256016661 5 -1 -3
100 1 2 -1.1794 5.688322013235189 6.642128796724493 10.277673354528643 5 -4 -3
101 1 1 0.5897 6.255753881755526 6.795399674500036 11.033212783969697 5 -4 -3
147 1 1 0.5897 7.342770695006876 9.171117189024462 11.620449225816998 -1 1 -4
119 1 1 0.5897 8.927799487217051 8.129391165709919 14.809518793974892 3 -3 -2
145 1 2 -1.1794 7.504408601611407 10.070799053295428 11.336301373085846 -1 1 -4
523 1 2 -1.1794 7.084762242602957 7.600524297666837 12.503546276256953 2 -1 1
834 1 1 0.5897 8.787751552559822 11.0722191760145 12.233044454244265 2 -1 -1
524 1 1 0.5897 6.300891291796602 7.707944054814122 13.042337222793085 2 -1 1
363 1 1 0.5897 5.972609690266894 10.455019736107568 15.598620252283071 3 -3 -1
403 1 2 -1.1794 4.898758569046013 7.68810453590134 13.92803658533024 8 -3 0
361 1 2 -1.1794 5.180465170769446 9.941964257287314 15.758520107104939 3 -3 -1
118 1 2 -1.1794 8.787559063798792 7.199661287126597 14.630021744941914 3 -3 -2
405 1 1 0.5897 4.942832488277803 8.432469551673965 14.528259601487768 8 -3 0
525 1 1 0.5897 7.749385161138016 7.272746342337511 13.109464274739413 2 -1 1
120 1 1 0.5897 8.344203124113216 6.868639812346817 15.411139065315808 3 -3 -2
548 1 1 0.5897 6.12511496072274 7.818886267650646 18.309772259748527 5 0 6
659 1 1 0.5897 7.421164216021067 10.916633123075686 20.310480095469245 -1 -2 3
770 1 1 0.5897 7.038581685088605 8.786836324631192 20.193815446026044 5 -1 1
769 1 2 -1.1794 6.596547072608641 7.964546295505365 19.98232487191064 5 -1 1
771 1 1 0.5897 6.23913515120243 7.662525342262099 20.81739778935303 5 -1 1
780 1 1 0.5897 7.781769325325885 11.465935444779841 17.35675586929011 -2 1 0
547 1 2 -1.1794 5.809339168918633 7.526021205320101 17.45490185991001 5 0 6
658 1 2 -1.1794 8.052870931407393 10.207303098803944 20.191794665011734 -1 -2 3
701 1 1 0.5897 8.308476263466614 7.02018002048731 19.500964352543498 4 -1 2
778 1 2 -1.1794 8.304734291101633 10.684215202683282 17.53482676849456 -2 1 0
660 1 1 0.5897 8.296032063716757 10.25467873338726 19.267167735743527 -1 -2 3
549 1 1 0.5897 5.600212127089272 8.334229447217762 16.986546019633494 5 0 6
779 1 1 0.5897 8.667715185590833 10.4392751530011 16.683632499242677 -2 1 0
47 1 1 0.5897 5.645427975319206 11.087896831275843 21.3791244282625 2 -1 0
322 1 2 -1.1794 7.287781103816722 15.447257012036118 2.1239403428725505 6 -2 -1
266 1 1 0.5897 7.355476089753583 14.419480162762673 3.7048548817670484 -2 -1 0
265 1 2 -1.1794 7.503988387204092 13.772716593173612 4.394733344989785 -2 -1 0
267 1 1 0.5897 6.628957176726125 13.568765000491315 4.724893089327661 -2 -1 0
323 1 1 0.5897 6.552603253458718 14.98431832164923 1.7220786912471322 6 -2 -1
727 1 2 -1.1794 5.177374951346468 14.020873657200582 1.1265158921868088 -1 3 0
324 1 1 0.5897 8.063985195203971 14.98304775059671 1.8103858014668763 6 -2 -1
515 1 1 0.5897 8.944552733472575 13.71945326684015 5.50735452145053 -5 -5 -2
774 1 1 0.5897 6.923982922076391 12.119188618700019 3.4795476740024953 0 -4 3
586 1 2 -1.1794 4.691874738443317 13.826756000367347 5.127914082581579 2 2 4
468 1 1 0.5897 8.425278524827533 16.6281320040892 3.586132107615031 4 -3 5
393 1 1 0.5897 7.2930075651962785 13.587601491218951 7.27130787629868 4 -4 -1
164 1 1 0.5897 8.105750091396349 15.839996673836591 7.339701671290676 -5 1 -1
165 1 1 0.5897 7.051541876663299 15.987203953077547 6.263123695940676 -5 1 -1
163 1 2 -1.1794 7.295053887096533 15.447663182032546 7.015379896329039 -5 1 -1
208 1 2 -1.1794 5.581287256957008 14.958860034600692 9.17583098709839 2 -2 3
392 1 1 0.5897 8.220777038088176 12.620735620135372 7.9758935138861835 4 -4 -1
210 1 1 0.5897 6.114872576591604 15.27234380878574 8.445559836011128 2 -2 3
644 1 1 0.5897 6.762996435249085 13.90169600499714 10.2667512435896 3 -2 0
391 1 2 -1.1794 7.432826382747929 12.654618824574937 7.433414024433339 4 -4 -1
209 1 1 0.5897 5.361912987978073 15.749158914414727 9.669372790028723 2 -2 3
36 1 1 0.5897 8.705431230683818 12.612310942560502 10.092527714844527 -4 2 -1
643 1 2 -1.1794 7.3786003104683955 13.680044584370528 10.96549404155162 3 -2 0
564 1 1 0.5897 8.951848018433816 16.985285116700645 9.020040246290144 2 0 3
381 1 1 0.5897 8.300261746766278 15.306314777193647 10.712055727632881 7 3 0
379 1 2 -1.1794 8.780784246887904 16.12185741336094 10.854517248248538 7 3 0
604 1 2 -1.1794 5.926697005476417 13.312448730504226 13.424945871843569 -6 0 1
645 1 1 0.5897 6.830077055788908 13.568277805141287 11.742007241245897 3 -2 0
428 1 1 0.5897 8.105783047461838 12.81859362024853 15.132585458223678 0 -1 -3
8 1 1 0.5897 5.709826474838772 15.206515881970077 13.400619278620908 3 -1 0
7 1 2 -1.1794 5.446713358197113 16.104884489560778 13.600682900886135 3 -1 0
743 1 1 0.5897 5.347677561575402 16.334290017258226 15.623655728281776 -1 0 0
606 1 1 0.5897 6.273548790112099 12.880297370822912 14.205489853751864 -6 0 1
9 1 1 0.5897 6.079712270904591 16.650031134496942 13.133284729246043 3 -1 0
605 1 1 0.5897 5.19025317077337 12.764081111139818 13.154276945382108 -6 0 1
427 1 2 -1.1794 7.282906470407828 12.515491373693099 15.516378001878415 0 -1 -3
83 1 1 0.5897 8.429349553440678 16.04642652654431 14.86088521452842 -2 -2 -6
82 1 2 -1.1794 8.438590247427154 15.891375928143876 13.916343952680403 -2 -2 -6
429 1 1 0.5897 6.96888845322503 13.259971632950743 16.029641939547908 0 -1 -3
84 1 1 0.5897 8.878350385758017 15.047070109643816 13.816015981498627 -2 -2 -6
97 1 2 -1.1794 7.056863835123029 13.680164508406378 18.09698483372128 4 -7 6
301 1 2 -1.1794 8.966006273909924 13.857610488680384 20.12563405302459 -2 0 6
46 1 2 -1.1794 5.922642581099309 11.896611020306763 20.948517090510876 2 -1 0
99 1 1 0.5897 6.218481780491136 13.64386571859927 18.55750990190254 4 -7 6
576 1 1 0.5897 7.746348877307693 15.650782090102219 17.087947636540285 3 0 -1
98 1 1 0.5897 7.696804852784254 13.883549143478442 18.779186682177993 4 -7 6
742 1 2 -1.1794 5.227504746680393 16.281857068276633 16.57187246736705 -1 0 0
574 1 2 -1.1794 8.484709375777658 16.164930473857176 16.76117718388494 3 0 -1
48 1 1 0.5897 5.711694590353173 12.587439658027725 21.57664354606866 2 -1 0
357 1 1 0.5897 5.270927860761404 17.00817326674491 18.15063041263071 0 -1 4