LAMMPS data file via write_data, version 30 Jul 2021, timestep = 8750000

864 atoms
2 atom types
576 bonds
1 bond types
288 angles
1 angle types

0.039697956913675725 18.167874443080258 xlo xhi
0.13266678105732055 23.496511018955378 ylo yhi
0.18584088932044374 22.02735491067888 zlo zhi

Masses

1 1.00794
2 15.9994

Atoms # full

707 1 1 0.5897 2.384496730403621 1.7070197652594377 3.802205194686107 0 0 0
706 1 2 -1.1794 2.377859546603873 1.7615007620688568 2.846624083219639 0 0 0
1 1 2 -1.1794 0.2919434585931691 3.5820766480347666 2.4336356535333947 0 0 0
668 1 1 0.5897 5.1645598083154844 2.8416264809212337 0.3164749248631079 0 0 0
3 1 1 0.5897 0.12488634311220174 4.491021882308513 2.6828154924172 0 0 0
708 1 1 0.5897 1.6753725790020813 2.3800722866738533 2.646389891131896 0 0 0
29 1 1 0.5897 4.08405754996653 2.476206154515236 2.4360604794706218 0 0 0
28 1 2 -1.1794 4.931082369546867 2.8533346455070157 2.198151425892181 0 0 0
495 1 1 0.5897 8.03294159215599 2.384556122847 3.5149247183200414 0 0 0
494 1 1 0.5897 6.533378508443542 2.4731026366970514 3.3269755114471398 0 0 0
30 1 1 0.5897 4.9401875363362775 3.7105646267524826 2.623894560464629 0 0 0
493 1 2 -1.1794 7.2069788203820115 2.024955789400209 3.83846566060098 0 0 0
846 1 1 0.5897 6.992206243726209 1.940449534135448 5.544052002560996 0 0 0
137 1 1 0.5897 5.094334555515266 5.585890528321667 4.012100198572976 0 0 0
136 1 2 -1.1794 5.012368568103316 5.612142655372796 3.0588160433341587 0 0 0
188 1 1 0.5897 3.0022001475713016 0.21376903052803037 2.2152716346003274 0 1 0
20 1 1 0.5897 0.4073997798776047 3.8468774118941815 0.5508228864358208 0 0 0
487 1 2 -1.1794 2.637223196678269 1.9445850031454675 5.538245548961158 0 0 0
819 1 1 0.5897 7.289928147702176 0.537733026418798 2.7201704956522508 0 0 0
488 1 1 0.5897 1.9614569256187078 2.456160072574634 5.98301276027581 0 0 0
355 1 2 -1.1794 7.315012945891436 1.9296593897720613 10.295457539629783 0 0 0
36 1 1 0.5897 1.438215050421762 2.6403349542869825 9.93621251028658 0 0 0
83 1 1 0.5897 4.105496765708851 2.839701388372409 6.373973704127311 0 0 0
489 1 1 0.5897 2.6531226309604667 1.1097371350541352 6.006169592715483 0 0 0
678 1 1 0.5897 5.125774425165772 5.076327015891836 10.310145231449175 0 0 0
674 1 1 0.5897 3.5741386320463056 2.2694234724552818 10.030794942916794 0 0 0
675 1 1 0.5897 2.8809863942753826 0.9461610494381847 10.276476877741564 0 0 0
784 1 2 -1.1794 0.7688745331977517 3.2999464039965107 6.71231534225512 0 0 0
183 1 1 0.5897 0.3038726124306863 5.075883056465144 6.221718871265258 0 0 0
274 1 2 -1.1794 4.952344672950886 3.4501575452034823 9.547150136615189 0 0 0
112 1 2 -1.1794 0.7147212344658028 5.591991403501032 10.311213336659886 0 0 0
673 1 2 -1.1794 2.9166706545657255 1.851019961709733 10.586555960435097 0 0 0
82 1 2 -1.1794 4.777512827801677 3.373386801027232 6.797962810429078 0 0 0
356 1 1 0.5897 7.392335714587996 0.9975889469110474 10.09175993891448 0 0 0
176 1 1 0.5897 8.825593412688793 2.6384959913216335 9.764159856572357 0 0 0
276 1 1 0.5897 5.736006808770628 2.93958375159535 9.7505710012638 0 0 0
785 1 1 0.5897 0.7136208951334279 3.06800193718282 7.639319732900806 0 0 0
275 1 1 0.5897 4.923380579006696 3.4745308031005044 8.590744112470052 0 0 0
84 1 1 0.5897 5.6024907466733405 2.942343849638017 6.574748066794322 0 0 0
419 1 1 0.5897 8.828097736098472 2.466156271518805 6.617901684627682 0 0 0
35 1 1 0.5897 0.6341219048073132 3.9160496489279573 9.802824404159724 0 0 0
34 1 2 -1.1794 0.6570781839244462 3.0025024425054077 9.518055759639019 0 0 0
686 1 1 0.5897 4.753339878711806 5.186379462928882 6.087569443250988 0 0 0
844 1 2 -1.1794 6.981367925007957 1.9133197741031687 6.5007635511354245 0 0 0
845 1 1 0.5897 7.075781579827952 0.9853491273634597 6.715609636178117 0 0 0
166 1 2 -1.1794 3.4170276032640152 2.2342942098093275 13.29641222009299 0 0 0
167 1 1 0.5897 3.377101192865492 2.1405829448092737 12.344683414540967 0 0 0
762 1 1 0.5897 5.532739273060879 5.204943087193968 13.322645244581768 0 0 0
459 1 1 0.5897 4.889069967173611 2.9555742986089073 13.949601275322237 0 0 0
168 1 1 0.5897 2.6299605730359072 2.7301293019034074 13.521956685169387 0 0 0
468 1 1 0.5897 0.953315852185576 2.7735501729094545 14.789294570174912 0 0 0
593 1 1 0.5897 7.495773172703073 1.054002618616571 13.373598702910089 0 0 0
592 1 2 -1.1794 7.503552507439714 1.954013384806469 13.04784975139848 0 0 0
458 1 1 0.5897 6.4024935077889085 2.9478277677695655 13.985889832399469 0 0 0
594 1 1 0.5897 8.38807109376801 2.268962315174416 13.233967557919623 0 0 0
457 1 2 -1.1794 5.6389659086838835 3.398081100408534 14.347141685868383 0 0 0
467 1 1 0.5897 0.25374525021596384 2.4978888514391624 13.475387811605078 0 0 0
71 1 1 0.5897 5.662210758732492 3.0858189785723136 16.181652681727755 0 0 0
466 1 2 -1.1794 0.9593305474126276 3.015498510788388 13.863235064747165 0 0 0
365 1 1 0.5897 1.136843976607449 4.8385656304580085 13.27118074998394 0 0 0
357 1 1 0.5897 7.379720968964696 1.972986757513419 11.249439675818058 0 0 0
737 1 1 0.5897 3.158443724734224 0.6069786440026281 13.802149243299525 0 1 0
364 1 2 -1.1794 1.0608156542046958 5.776840961732029 13.097825924530518 0 0 0
113 1 1 0.5897 0.8157163116359909 5.559327178179006 11.262465052592917 0 0 0
278 1 1 0.5897 5.237354633356677 4.882080065232369 17.5885517220754 0 0 0
571 1 2 -1.1794 0.8817915210091558 5.5929351312615845 17.771343022613273 0 0 0
667 1 2 -1.1794 5.24907871242334 2.9231417784156033 21.208060364431077 0 0 0
134 1 1 0.5897 0.7235771589739686 3.7912997753990605 16.8546753423675 0 0 0
41 1 1 0.5897 6.687249603212517 1.9872173514508913 20.693125564067273 0 0 0
569 1 1 0.5897 1.8750830440678998 2.8010711727069966 20.652289915293935 0 0 0
570 1 1 0.5897 2.7522812537369687 2.2442627112952755 19.55126600048412 0 0 0
568 1 2 -1.1794 2.6879776400743616 2.3181260064898432 20.503401237011502 0 0 0
360 1 1 0.5897 9.01497277459403 2.3964336058623243 21.082271443024553 0 0 0
143 1 1 0.5897 5.416438285723914 4.611341549166302 20.78576129738066 0 0 0
291 1 1 0.5897 2.27385730022774 2.1967261690135262 17.40776183980165 0 0 0
669 1 1 0.5897 4.355946232299202 2.8242335484327996 20.87830963975427 0 0 0
289 1 2 -1.1794 3.0617203788063785 1.8989779350961666 17.862520094150376 0 0 0
133 1 2 -1.1794 0.8450940645815128 2.885752049498515 16.569360537108345 0 0 0
21 1 1 0.5897 0.26725017284588015 4.7740010469954965 21.203834971268428 0 0 0
756 1 1 0.5897 7.021147906159032 1.9941376773376023 17.45423003222286 0 0 0
81 1 1 0.5897 2.958975788866517 0.4471748021866454 20.855515133062866 0 1 0
42 1 1 0.5897 7.500236146500308 0.7102398075740398 20.679871901364095 0 0 0
754 1 2 -1.1794 7.764716223725467 1.4872112402387583 17.78030029241637 0 0 0
40 1 2 -1.1794 7.531875282828658 1.6304450057119502 20.418322870417654 0 0 0
755 1 1 0.5897 7.59671414197538 1.3906104936140005 18.717633712572137 0 0 0
290 1 1 0.5897 3.220728204511926 1.0205810160681459 17.517057841793147 0 0 0
599 1 1 0.5897 9.054626923335103 2.5326469095129918 16.93211689169032 0 0 0
277 1 2 -1.1794 5.1205210012787425 5.802755352359629 17.8228698465852 0 0 0
72 1 1 0.5897 4.672632140951653 2.7366987068319846 17.27279839526325 0 0 0
19 1 2 -1.1794 0.29724815342321864 3.8472945373449177 21.44153991767015 0 0 0
135 1 1 0.5897 0.044643144079699666 2.4382600174325284 16.843628818022204 0 0 0
142 1 2 -1.1794 5.417817096510456 5.546014628694774 20.579406886347265 0 0 0
144 1 1 0.5897 5.394092170075281 5.580696993421351 19.62316630191151 0 0 0
70 1 2 -1.1794 5.551016422770306 3.0901150895639624 17.13231850749517 0 0 0
711 1 1 0.5897 9.003235438544936 5.876621390921609 17.66788995605321 0 0 0
648 1 1 0.5897 0.6177714889055295 5.930057858094624 19.46689324237372 0 0 0
573 1 1 0.5897 0.05878743810075093 5.876610890088015 17.37336222450196 0 0 0
253 1 2 -1.1794 2.5170041293690493 6.804514142828732 2.25532375492885 0 0 0
123 1 1 0.5897 3.0490932740123733 8.677837632718154 2.3445032672944275 0 0 0
121 1 2 -1.1794 3.001159497599802 9.609249314716113 2.5598334592773755 0 0 0
122 1 1 0.5897 2.996051499021168 9.634394859795213 3.51664827784415 0 0 0
217 1 2 -1.1794 4.958355938106426 11.667574201761116 1.8147654290927928 0 0 0
138 1 1 0.5897 4.155399387500802 6.008837062558368 2.9024684335812454 0 0 0
415 1 2 -1.1794 6.975379035105225 7.349847316844174 2.2190356881187125 0 0 0
44 1 1 0.5897 1.3120820509881665 10.280268349654582 2.2489018355135166 0 0 0
219 1 1 0.5897 4.175983182422817 11.202446225462179 2.111001211467368 0 0 0
255 1 1 0.5897 1.6317674887836415 6.581591825944666 2.5432080468727234 0 0 0
218 1 1 0.5897 5.687754903017467 11.122519832392559 2.109891312865463 0 0 0
416 1 1 0.5897 6.186027273623932 6.961555831117925 2.5963322173420593 0 0 0
66 1 1 0.5897 7.089347228532481 10.13448283317176 3.6480441198633593 0 0 0
65 1 1 0.5897 7.180298907091382 9.183590153417803 2.473613680212191 0 0 0
64 1 2 -1.1794 7.17123670475189 10.114877192708661 2.694549273160634 0 0 0
417 1 1 0.5897 7.690982291811118 6.804989264488767 2.5465319346675157 0 0 0
254 1 1 0.5897 2.5124461425822973 6.636207971582418 1.3130925176964432 0 0 0
43 1 2 -1.1794 0.5350597791539514 10.839137762307335 2.2587737480083234 0 0 0
162 1 1 0.5897 7.563147704566118 7.169177827338657 0.43912386046554 0 0 1
396 1 1 0.5897 0.1999494627167142 11.078601698867226 0.34258975067225395 0 0 0
712 1 2 -1.1794 7.336579154083996 9.862858373997689 5.482623337077864 0 0 0
793 1 2 -1.1794 2.776339440891415 9.74834053410519 5.542776004331139 0 0 0
45 1 1 0.5897 0.8397919232344512 11.667274060435116 2.6296827736638924 0 0 0
773 1 1 0.5897 8.788154347856786 10.694413622626447 2.625898881651478 0 0 0
714 1 1 0.5897 7.330915926023483 8.915131337589704 5.616727564022673 0 0 0
794 1 1 0.5897 2.065235456288594 10.180822221908207 6.015512839872523 0 0 0
550 1 2 -1.1794 0.38145907665323353 10.622031276314098 6.589902954141149 0 0 0
578 1 1 0.5897 5.852002036748899 10.59910853593698 5.971855329253295 0 0 0
15 1 1 0.5897 1.2326055777691949 10.381375769294843 9.743637513300431 0 0 0
256 1 2 -1.1794 2.8520517689067355 9.422949860766861 10.381731202972142 0 0 0
822 1 1 0.5897 8.583273118975955 9.597582691381803 10.273819220838448 0 0 0
795 1 1 0.5897 3.570368426463864 10.18356670634359 5.853091504350812 0 0 0
677 1 1 0.5897 6.105457780753144 6.172049821066523 9.947636824374486 0 0 0
257 1 1 0.5897 2.823377658046847 8.555205668239191 9.97877167915654 0 0 0
145 1 2 -1.1794 7.198103981555124 7.1773897586769895 6.274452957895862 0 0 0
526 1 2 -1.1794 7.569451511504017 6.760857928975735 9.046218278922765 0 0 0
650 1 1 0.5897 2.685623231472489 6.9413474122246654 8.416730824535325 0 0 0
551 1 1 0.5897 0.4584864333996398 10.653276886463171 7.543442347668043 0 0 0
580 1 2 -1.1794 5.33060787552344 10.510233745099931 9.15159539166181 0 0 0
581 1 1 0.5897 6.174730038691583 10.128524371631174 9.392328071618996 0 0 0
146 1 1 0.5897 6.3648043352678085 6.832231978790212 5.954010536432932 0 0 0
147 1 1 0.5897 7.149130843468139 7.078351910804718 7.225239584763275 0 0 0
649 1 2 -1.1794 2.692353717518413 6.979000479442496 9.373129672053619 0 0 0
820 1 2 -1.1794 7.802940850022755 9.102977141484576 10.524143229204466 0 0 0
12 1 1 0.5897 2.6474768498412122 8.18444361718199 6.234924499949836 0 0 0
577 1 2 -1.1794 5.010774989852401 10.888027473512773 6.325489779726641 0 0 0
258 1 1 0.5897 3.641237509186746 9.828378443094806 10.022555281732199 0 0 0
181 1 2 -1.1794 0.2238385505570815 5.9770614066982635 5.909225811084542 0 0 0
582 1 1 0.5897 5.332130691444194 10.51169952963965 8.194443526927452 0 0 0
10 1 2 -1.1794 2.517136051599496 7.342755100021069 6.671721698895915 0 0 0
713 1 1 0.5897 8.124570798170911 10.16448864034628 5.934592580059014 0 0 0
527 1 1 0.5897 7.62207807788772 7.622943187529312 9.458788507523801 0 0 0
687 1 1 0.5897 4.067135837769627 6.511235490892449 5.830792583101647 0 0 0
651 1 1 0.5897 3.4547926580194086 6.45965078357785 9.628380268858432 0 0 0
13 1 2 -1.1794 0.6642847240204871 10.984476306330425 9.264618496302607 0 0 0
11 1 1 0.5897 1.6146750522482674 7.101355237156717 6.463169682808312 0 0 0
528 1 1 0.5897 8.351993393514869 6.301115648306307 9.350280248979558 0 0 0
114 1 1 0.5897 1.4755978008338366 6.086026412371073 10.005927551548933 0 0 0
552 1 1 0.5897 0.24151654803575948 11.53268897761433 6.330480600032617 0 0 0
676 1 2 -1.1794 5.289654875027932 6.012686910664336 10.422255023835257 0 0 0
685 1 2 -1.1794 4.9094664467499465 6.065284042116623 5.741975428546208 0 0 0
165 1 1 0.5897 8.454693261024591 6.030373217031586 5.8699272478915105 0 0 0
476 1 1 0.5897 7.21005178711626 9.672852607631555 13.309281813701567 0 0 0
332 1 1 0.5897 3.1375422093199252 8.06144361477174 13.933698835884549 0 0 0
797 1 1 0.5897 3.171514076464135 9.381706375016766 12.235843322050314 0 0 0
796 1 2 -1.1794 3.245432003851725 9.552293851303647 13.174780537477957 0 0 0
798 1 1 0.5897 2.439203273874024 10.01724963480958 13.398417520842065 0 0 0
333 1 1 0.5897 4.019210199702913 6.830926793369513 13.916466865969186 0 0 0
723 1 1 0.5897 5.454822038462745 10.330206207889823 14.909784514669887 0 0 0
331 1 2 -1.1794 3.1519977092529827 7.137089873116485 14.181801100167327 0 0 0
477 1 1 0.5897 8.345047045026908 8.756602725570572 13.714372915764278 0 0 0
261 1 1 0.5897 0.7832171137163978 11.077728762615493 14.618454584735975 0 0 0
826 1 2 -1.1794 7.991871376833759 7.0949121836199005 14.325764309533128 0 0 0
259 1 2 -1.1794 0.9384823073171594 11.033431439643842 13.675008128866635 0 0 0
722 1 1 0.5897 4.685714037992404 10.186724714185907 13.613734431061964 0 0 0
828 1 1 0.5897 7.884548387695259 7.049692878980527 15.27580755760812 0 0 0
225 1 1 0.5897 2.8987873567948554 7.119226488096333 15.937193493987495 0 0 0
721 1 2 -1.1794 5.55556119728566 10.386654370914929 13.959599355786105 0 0 0
475 1 2 -1.1794 8.132717702019782 9.487745626003381 13.134266476639716 0 0 0
827 1 1 0.5897 7.159004141376054 6.779585301080272 13.974907560680995 0 0 0
445 1 2 -1.1794 0.39635512588321453 10.703227484164582 16.40024154122961 0 0 0
821 1 1 0.5897 7.829834373082388 9.080218398086473 11.480655076066283 0 0 0
260 1 1 0.5897 0.11253913416596362 10.715313138421566 13.310560572378046 0 0 0
760 1 2 -1.1794 5.479021015628315 6.157337617382138 13.243497946298337 0 0 0
761 1 1 0.5897 5.490226818832277 6.320776410052193 12.300454445905036 0 0 0
366 1 1 0.5897 1.840528906814648 6.159219454352411 13.50037421532959 0 0 0
689 1 1 0.5897 3.271101792318003 10.211044187032243 20.642072942992648 0 0 0
161 1 1 0.5897 6.878738003558899 6.5837608373899466 21.0638438361936 0 0 0
626 1 1 0.5897 2.581100917975074 9.230374774902574 18.52856798797827 0 0 0
6 1 1 0.5897 3.0183837962286804 7.766142261997395 20.99375395699424 0 0 0
627 1 1 0.5897 2.114958010299329 9.871037399449424 17.238613037120516 0 0 0
287 1 1 0.5897 8.790169941646317 10.349569657845661 20.99446471988295 0 0 0
462 1 1 0.5897 9.033385717352788 6.049445444831329 20.88947111007844 0 0 0
690 1 1 0.5897 1.775196106338629 10.013060613605614 20.764081884241193 0 0 0
679 1 2 -1.1794 5.45105402188489 10.522445106107117 16.64521049553661 0 0 0
688 1 2 -1.1794 2.586307437828283 9.54722275317585 20.56088475723979 0 0 0
7 1 2 -1.1794 7.736185468458356 9.487864600184626 17.896732662907695 0 0 0
361 1 2 -1.1794 4.878223876199352 11.309170562103326 20.97230957762133 0 0 0
5 1 1 0.5897 3.823491157644571 6.501440473364979 21.203911536025643 0 0 0
140 1 1 0.5897 6.287710734527078 10.158265930779256 20.65897214299318 0 0 0
647 1 1 0.5897 1.3028167854982111 6.546684000205007 20.66782155580757 0 0 0
572 1 1 0.5897 1.5598958872437676 6.040193626493338 17.265046079653438 0 0 0
363 1 1 0.5897 5.034858068057837 11.53092228530751 21.89015532895128 0 0 0
160 1 2 -1.1794 7.6213002139112085 7.127832000224825 21.326140174606152 0 0 0
4 1 2 -1.1794 2.9550845094666838 6.878253853365366 21.34566169233711 0 0 0
625 1 2 -1.1794 2.8921613982122807 9.515117746509995 17.6692804787536 0 0 0
139 1 2 -1.1794 7.117844154174514 9.725876071534081 20.458662926902775 0 0 0
680 1 1 0.5897 4.6226762966408526 10.147257949130864 16.943914967086904 0 0 0
141 1 1 0.5897 7.046274247089439 8.865642566408734 20.87224983269241 0 0 0
8 1 1 0.5897 7.586739544236069 9.406210553538962 18.838624575670593 0 0 0
394 1 2 -1.1794 0.23849416171228632 10.9989417279213 21.23104493704333 0 0 0
224 1 1 0.5897 3.0913125136457036 7.90824283303342 17.214725987721543 0 0 0
9 1 1 0.5897 6.950153050539034 9.922428956566668 17.565817295714027 0 0 0
279 1 1 0.5897 4.366206438227245 6.087827040691107 17.30713170895774 0 0 0
522 1 1 0.5897 7.536221358573894 7.746264881920018 17.565792692242006 0 0 0
646 1 2 -1.1794 0.4396374960003886 6.402274826406619 20.28019148813692 0 0 0
521 1 1 0.5897 6.686036503997956 6.557930791981313 17.16973724905808 0 0 0
681 1 1 0.5897 5.35569910323838 11.463250579551204 16.79345487197881 0 0 0
446 1 1 0.5897 0.4038140091569834 11.533740074550304 16.876034376527365 0 0 0
246 1 1 0.5897 8.993315990722142 10.669200099282005 17.228887010981445 0 0 0
520 1 2 -1.1794 7.5940247838917525 6.857400384321687 17.21541896013438 0 0 0
223 1 2 -1.1794 2.9187505629313373 7.024717749996929 16.889466137629988 0 0 0
557 1 1 0.5897 2.4346734177161187 14.58316128188946 2.317308719572145 0 0 0
200 1 1 0.5897 5.267468740443896 13.666602461364356 4.93121492117767 0 0 0
293 1 1 0.5897 3.55080756957177 16.78834136648595 2.6311686910817302 0 0 0
558 1 1 0.5897 3.1045588608802284 15.002485652388703 1.0261167864135121 0 0 0
556 1 2 -1.1794 3.1005792334118234 15.175159094495202 1.9675780054201784 0 0 0
238 1 2 -1.1794 2.9643798025363126 17.18078744590203 5.528088213070835 0 0 0
173 1 1 0.5897 4.568503789343609 14.348873503622684 2.8997046333503587 0 0 0
479 1 1 0.5897 8.27421941961027 14.992059162624589 2.7384156531703874 0 0 0
373 1 2 -1.1794 0.9676804684796801 13.479899237116019 3.026451711759822 0 0 0
480 1 1 0.5897 6.773644391464488 15.078675774110279 2.918947470373437 0 0 0
172 1 2 -1.1794 5.3254143741206805 13.880784365523825 3.252101467697376 0 0 0
478 1 2 -1.1794 7.51175200221957 15.51753671063243 2.4961100883158287 0 0 0
449 1 1 0.5897 7.659899369930772 17.082818208108705 3.268570646403901 0 0 0
174 1 1 0.5897 5.485590753581719 13.176325840203747 2.62419158898581 0 0 0
374 1 1 0.5897 0.7923319861615246 13.319024597843107 3.953558295015551 0 0 0
375 1 1 0.5897 0.17688419396983893 13.912297455436017 2.7041651145004786 0 0 0
317 1 1 0.5897 7.478781370119216 14.739368942089468 0.5848024547453834 0 0 0
59 1 1 0.5897 8.848581318139189 13.748022773950657 10.044596522911991 0 0 0
811 1 2 -1.1794 3.2494849398787635 14.957346304274004 9.202903151432302 0 0 0
812 1 1 0.5897 4.05432499891341 14.57080885692835 9.54788434771151 0 0 0
813 1 1 0.5897 2.54673449961328 14.443680872655591 9.601008705804912 0 0 0
17 1 1 0.5897 3.027912374610879 14.813303571891598 7.463381654936685 0 0 0
18 1 1 0.5897 3.833085763722715 14.217112043890614 6.328487167147307 0 0 0
186 1 1 0.5897 7.445351579999319 16.567499938873212 10.051408565398637 0 0 0
518 1 1 0.5897 7.671535960202081 16.082758553579083 6.468474512997159 0 0 0
16 1 2 -1.1794 2.9955491026369536 14.637683151824435 6.523031407413987 0 0 0
517 1 2 -1.1794 7.650948524468936 15.143723211762136 6.652851501080628 0 0 0
766 1 2 -1.1794 1.021022493591711 13.670063308752054 10.008564680567728 0 0 0
201 1 1 0.5897 6.28618908700429 13.991855404697901 6.002737163464663 0 0 0
384 1 1 0.5897 3.0823563655879793 16.427198682023096 10.061194059536355 0 0 0
454 1 2 -1.1794 5.253526015323492 13.03849519513043 10.144302267129532 0 0 0
456 1 1 0.5897 5.24590979172468 12.150722192602984 9.786541782898208 0 0 0
376 1 2 -1.1794 7.435453920724631 14.415686766370321 9.461119989542441 0 0 0
378 1 1 0.5897 7.576607600536253 14.561518129960813 8.525724653898054 0 0 0
377 1 1 0.5897 6.6256739763530055 13.907252678093785 9.505221374819193 0 0 0
519 1 1 0.5897 8.489268784444626 14.816643736791692 6.32656176957699 0 0 0
768 1 1 0.5897 0.14543506009110985 13.99056329538227 9.792186707806755 0 0 0
579 1 1 0.5897 4.97462560685171 11.823266618435012 6.124974244762918 0 0 0
239 1 1 0.5897 2.8214884477792923 16.305297544066086 5.8876461946000305 0 0 0
656 1 1 0.5897 1.3058749924707003 13.536141708178814 6.315531235035477 0 0 0
382 1 2 -1.1794 2.904269988741178 17.291992672425135 10.430843824996314 0 0 0
184 1 2 -1.1794 7.399105120581337 17.370774518990782 10.569850812264827 0 0 0
199 1 2 -1.1794 5.496279661506843 13.476066939030247 5.840880021218632 0 0 0
240 1 1 0.5897 3.6679673902823753 17.548064286622814 6.0631221635841825 0 0 0
14 1 1 0.5897 0.7625207990280084 11.820218745356952 9.720752641138597 0 0 0
455 1 1 0.5897 5.300416033479226 12.914792475599453 11.092273452182457 0 0 0
767 1 1 0.5897 1.0385566938320814 13.6471966821015 10.965284744126013 0 0 0
655 1 2 -1.1794 0.6738070879292511 13.160419031026779 5.702751820234676 0 0 0
232 1 2 -1.1794 3.1349362956713156 14.636085755935392 14.130439882473006 0 0 0
234 1 1 0.5897 3.063422827873166 14.398908610320378 15.054983014604094 0 0 0
606 1 1 0.5897 3.0419411772428777 16.37090209775739 13.421922848865384 0 0 0
296 1 1 0.5897 7.442797159785006 14.44317163259627 14.836107827239056 0 0 0
639 1 1 0.5897 1.6253838887352763 14.072005282256143 13.164186554239793 0 0 0
233 1 1 0.5897 3.9105925122003504 14.167766162965647 13.821856790692514 0 0 0
427 1 2 -1.1794 5.325229449627894 13.096641070887598 13.050129698858848 0 0 0
297 1 1 0.5897 8.365880070332723 14.239075863936502 13.653731451990193 0 0 0
429 1 1 0.5897 6.185356538906113 13.513285998388739 12.997308281252685 0 0 0
638 1 1 0.5897 0.8467324791761268 12.792378198033996 12.945011812917036 0 0 0
295 1 2 -1.1794 7.493717146540854 14.556994620218886 13.88710442925394 0 0 0
270 1 1 0.5897 7.535496751577241 16.39204583107101 13.469263920387727 0 0 0
428 1 1 0.5897 5.501937637672717 12.225583088749053 13.405396098527932 0 0 0
637 1 2 -1.1794 0.8528700179609127 13.722684512555134 12.719906771795442 0 0 0
268 1 2 -1.1794 7.492631506849767 17.342769763339692 13.3668863126775 0 0 0
604 1 2 -1.1794 2.725619477416302 17.240416052616958 13.176764199801724 0 0 0
605 1 1 0.5897 2.6656480696126743 17.213559340193754 12.221851991728665 0 0 0
269 1 1 0.5897 7.53613213380027 17.48450302243041 12.421278411623023 0 0 0
316 1 2 -1.1794 7.707250711635463 14.691258487844392 21.498070303042823 0 0 0
683 1 1 0.5897 6.243624528253545 14.219129624462727 20.478267233389403 0 0 0
824 1 1 0.5897 3.4217274592133413 13.95081304784621 17.071254082830713 0 0 0
52 1 2 -1.1794 0.17660082130115176 12.98941929354614 17.878674391322527 0 0 0
362 1 1 0.5897 5.022736167335406 12.128712259339366 20.49940365124172 0 0 0
452 1 1 0.5897 0.660525241838047 12.75882394569967 20.629920630014603 0 0 0
666 1 1 0.5897 3.047285292207325 15.979462254789352 20.718506220393486 0 0 0
157 1 2 -1.1794 7.290052838144005 17.223645442027564 20.651545182033672 0 0 0
665 1 1 0.5897 2.438074919307419 14.597323653102997 20.820683735437747 0 0 0
664 1 2 -1.1794 3.2024035036419174 15.109117142482953 21.085432946721255 0 0 0
126 1 1 0.5897 5.980405126792564 13.594233600948831 17.053164081641874 0 0 0
583 1 2 -1.1794 2.864057494657991 17.054199198827796 17.50931916887577 0 0 0
584 1 1 0.5897 2.752974535406788 16.25268058826693 16.9980470327926 0 0 0
50 1 1 0.5897 7.2926869892745305 15.473908287473996 17.088471613782175 0 0 0
318 1 1 0.5897 7.632046896993358 15.59278668997458 21.18538619997758 0 0 0
684 1 1 0.5897 4.74760225871965 14.450680418868462 20.46629807918388 0 0 0
610 1 2 -1.1794 7.484190159579269 17.011337384798505 17.900149406776805 0 0 0
124 1 2 -1.1794 5.168572766792502 13.160112782025388 17.315206248132817 0 0 0
125 1 1 0.5897 5.078585044923453 13.361516059363302 18.24659931471175 0 0 0
682 1 2 -1.1794 5.443996397035109 13.977579319597739 20.01088802881189 0 0 0
451 1 2 -1.1794 0.7531436336759567 13.683307530231763 20.399839727336072 0 0 0
53 1 1 0.5897 0.22578443319531874 13.252838821596953 18.797571539779007 0 0 0
825 1 1 0.5897 1.9082265133256933 13.918587582592432 17.05864334078 0 0 0
117 1 1 0.5897 9.062350345927003 13.76967843970089 20.764933159459808 0 0 0
51 1 1 0.5897 8.21402305130731 14.287209643900491 16.902266800123613 0 0 0
612 1 1 0.5897 8.276322396753406 17.398993157490573 17.528039709301183 0 0 0
611 1 1 0.5897 6.7768395507946035 17.32146976272428 17.33472257564484 0 0 0
159 1 1 0.5897 7.31661790283069 16.99621592732119 19.722174484940474 0 0 0
585 1 1 0.5897 3.688855567386891 17.425923776961053 17.196656267001863 0 0 0
49 1 2 -1.1794 7.336109253927946 14.604450129283387 16.6905593608846 0 0 0
823 1 2 -1.1794 2.6570594848107008 14.429812730544118 16.751827578857238 0 0 0
696 1 1 0.5897 1.5047587640868394 22.00859601630283 2.526392461658658 0 0 0
187 1 2 -1.1794 3.2084933274030045 22.699580152469345 1.8948358842605766 0 0 0
602 1 1 0.5897 5.322918186198108 19.088896134190477 0.2936635941148417 0 0 0
694 1 2 -1.1794 0.8409060396061143 21.57431667966819 3.0620700719066725 0 0 0
818 1 1 0.5897 8.29792274995396 22.78513947463911 2.5489952933188413 0 0 0
266 1 1 0.5897 4.5481450593396495 21.851820007139903 2.9125627063230697 0 0 0
226 1 2 -1.1794 5.954712581719055 19.20574752135516 2.0876546119330843 0 0 0
817 1 2 -1.1794 7.4098209179946295 23.046914913281825 2.306206805763407 0 0 0
228 1 1 0.5897 5.776888518142532 20.065021035660365 2.4700296929088554 0 0 0
343 1 2 -1.1794 0.8702363523709541 19.008835640734144 2.1593071305654616 0 0 0
344 1 1 0.5897 1.691259486634932 18.57886384759948 2.3985962120401956 0 0 0
227 1 1 0.5897 5.2751416954561865 18.63687223396235 2.4492559023829825 0 0 0
189 1 1 0.5897 3.0827955320809366 22.75417668352029 0.947518917493875 0 0 0
265 1 2 -1.1794 5.329115600935124 21.550863131562025 3.3769979313972116 0 0 0
267 1 1 0.5897 6.04706967337266 22.05023167967548 2.9879484924028774 0 0 0
498 1 1 0.5897 7.252785992556139 22.33488897222284 0.28805727256680463 0 0 0
249 1 1 0.5897 4.983208636648215 21.540177375131577 5.169036401301958 0 0 0
345 1 1 0.5897 0.8553443821329499 18.98214432919825 1.2026311016251685 0 0 0
413 1 1 0.5897 0.7822688533656502 21.25028250994698 4.842919758495624 0 0 0
695 1 1 0.5897 0.732890917156128 20.713014723935327 2.6586844692329867 0 0 0
450 1 1 0.5897 7.20883453324603 18.517694677168386 3.0969370436008066 0 0 0
308 1 1 0.5897 7.5568724339810665 17.77059969220224 5.355483118832603 0 0 0
292 1 2 -1.1794 3.66592516502289 17.70161134727662 2.893600844542955 0 0 0
294 1 1 0.5897 3.408731862540518 17.720656684403107 3.8153712630753676 0 0 0
448 1 2 -1.1794 7.90009979861365 17.983114504345547 3.487552951820861 0 0 0
39 1 1 0.5897 3.492745804526149 22.187387526923285 9.714279781124663 0 0 0
403 1 2 -1.1794 0.7406900589281895 18.35043102121212 9.125420978046032 0 0 0
554 1 1 0.5897 5.668389367716772 21.805041967525167 10.253188203079329 0 0 0
33 1 1 0.5897 6.5369763903973075 22.28951864563881 6.65864680259167 0 0 0
387 1 1 0.5897 5.03138507454235 19.688469051992648 6.656799915521645 0 0 0
94 1 2 -1.1794 0.5716737651664575 20.90826279912238 10.053768110227113 0 0 0
700 1 2 -1.1794 2.7765609174469628 22.965881705219108 6.828309330015259 0 0 0
701 1 1 0.5897 2.7823219912392454 22.84302174042589 7.777529606898123 0 0 0
87 1 1 0.5897 8.10435142231416 22.11252992395415 10.016693749591779 0 0 0
38 1 1 0.5897 1.9980030370806332 22.089803325325768 9.49504552629238 0 0 0
31 1 2 -1.1794 7.3901655159583814 22.61821718140063 6.941880390874427 0 0 0
37 1 2 -1.1794 2.7321441958096084 22.701879240939316 9.444111824167178 0 0 0
86 1 1 0.5897 7.407824871817025 22.356631228186874 8.69495003992618 0 0 0
414 1 1 0.5897 0.7377963890787539 20.29199436752323 6.013995691049506 0 0 0
101 1 1 0.5897 5.950325531574695 18.058214147095928 9.804011391129357 0 0 0
341 1 1 0.5897 1.6091919932197418 18.071394726107812 6.189948030727685 0 0 0
405 1 1 0.5897 0.6438064503662965 19.269207120042072 9.375722533623373 0 0 0
555 1 1 0.5897 5.090552088529769 20.41879720360158 10.062824631896943 0 0 0
702 1 1 0.5897 2.091174424733791 22.37617656161102 6.51415789236663 0 0 0
385 1 2 -1.1794 5.145144650307612 18.75665404398828 6.843778609838425 0 0 0
386 1 1 0.5897 6.005851898924997 18.54295031736006 6.483635999930028 0 0 0
248 1 1 0.5897 4.2439143859044 22.16308176854599 6.334010068822417 0 0 0
553 1 2 -1.1794 4.842828062749718 21.320798570059736 10.265839641105588 0 0 0
102 1 1 0.5897 5.274570984103647 18.68003852653631 8.6004809094174 0 0 0
342 1 1 0.5897 0.8145319748324832 18.51781469258928 7.3986591913795765 0 0 0
100 1 2 -1.1794 5.1324077390122715 18.468467675309626 9.523085544819331 0 0 0
404 1 1 0.5897 1.4137749095627323 18.010744478303693 9.715130151591055 0 0 0
85 1 2 -1.1794 7.2939681484065355 22.45559783433336 9.640162893886588 0 0 0
307 1 2 -1.1794 7.629006120629861 17.896068041090373 6.301636092570138 0 0 0
32 1 1 0.5897 8.019353588994498 22.172939790390043 6.37439028734847 0 0 0
340 1 2 -1.1794 0.8885175326152736 18.643926637492793 6.452726770724389 0 0 0
412 1 2 -1.1794 0.7100994203526896 21.223837937220125 5.796989266230093 0 0 0
247 1 2 -1.1794 4.950034964470496 21.55142089060379 6.12555079992174 0 0 0
185 1 1 0.5897 8.042721492602903 17.95368991503493 10.16717196679443 0 0 0
309 1 1 0.5897 8.435247165676525 18.399095947927357 6.4162336478431214 0 0 0
383 1 1 0.5897 3.6458515335475488 17.82934833986318 10.152446490253014 0 0 0
96 1 1 0.5897 0.7356355596486346 21.2185737980602 10.944259721604409 0 0 0
474 1 1 0.5897 5.316891245676801 18.25975810320624 15.507996152470014 0 0 0
381 1 1 0.5897 1.723730591854143 22.301901205480366 12.847977550115594 0 0 0
765 1 1 0.5897 5.681500356118624 18.107455328215675 13.455806617769788 0 0 0
380 1 1 0.5897 0.9088951458188536 21.0549012835121 13.117855571729677 0 0 0
738 1 1 0.5897 3.986066707773037 22.74211378726184 13.490499648577797 0 0 0
736 1 2 -1.1794 3.167176848463722 23.018866591078446 13.901631735344704 0 0 0
503 1 1 0.5897 1.2564869002418866 18.530602624793296 13.3258841726799 0 0 0
764 1 1 0.5897 4.1749208714365675 18.03890281352249 13.58743616400181 0 0 0
88 1 2 -1.1794 5.283816283079176 21.506786916866112 12.924577212289693 0 0 0
787 1 2 -1.1794 7.575053994926904 22.563426733788525 13.868230914319225 0 0 0