LAMMPS data file via write_data, version 30 Jul 2021, timestep = 2000000

1920 atoms
2 atom types
1280 bonds
1 bond types
640 angles
1 angle types

0.035841029860959495 24.694159970140642 xlo xhi
0.019368156407779225 24.710632843588563 ylo yhi
0.018006174938483 22.79199382506608 zlo zhi

Masses

1 1.008
2 15.999

Pair Coeffs # lj/cut/tip4p/long/omp

1 0 0
2 0.21084 3.1668

Bond Coeffs # harmonic/omp

1 450 0.9572

Angle Coeffs # harmonic/omp

1 55 104.52

Atoms # full

1 1 2 -1.1794 4.626645739170254 1.4919475970401854 4.254794859764236 0 0 0
2 1 1 0.5897 4.70127671067908 2.192782632921994 4.902420596978009 0 0 0
3 1 1 0.5897 5.3566232963777916 1.6416187313669035 3.65401974559192 0 0 0
4 2 2 -1.1794 2.942485326662875 1.532360760886344 2.0302561207433474 0 0 0
5 2 1 0.5897 3.2846116567441204 1.5010599409540994 2.9236496356857797 0 0 0
6 2 1 0.5897 1.9976945869458973 1.416335424897511 2.130873436277142 0 0 0
9 3 1 0.5897 5.041796113841766 4.472895388123066 3.704933038547389 0 0 0
10 4 2 -1.1794 3.2412468219754924 4.615983445044186 3.7634061412260267 0 0 0
11 4 1 0.5897 2.808044139127735 5.391557139099311 4.119749798709445 0 0 0
12 4 1 0.5897 2.866928850976981 4.512715515869237 2.8885314118513654 0 0 0
13 5 2 -1.1794 1.355040162004575 2.925376243229107 5.000259915675684 0 0 0
14 5 1 0.5897 2.127820561587808 3.2975678810062257 4.575430096604449 0 0 0
15 5 1 0.5897 1.5557010405065028 1.993778771099513 5.089741385017056 0 0 0
19 7 2 -1.1794 4.6907780222222 3.268976121761284 0.5959706838960327 0 0 0
20 7 1 0.5897 3.8872788832585057 2.9459813696227446 1.0037246260377763 0 0 0
21 7 1 0.5897 5.395033175255223 2.82737102491332 1.0705251781830918 0 0 0
22 8 2 -1.1794 1.628562483135366 4.50486813543444 1.5135123173053435 0 0 0
23 8 1 0.5897 0.9891189283358359 4.708334774219875 2.1960852106561526 0 0 0
24 8 1 0.5897 1.6196977665127652 5.2712919265344915 0.9402125446595453 0 0 0
27 9 1 0.5897 4.734289563398309 5.122304944636148 0.5274869171234632 0 0 0
7 3 2 -1.1794 5.9874641578693115 4.444056847242623 3.559680677473221 0 0 0
16 6 2 -1.1794 0.20917011520739165 1.5454716050946997 2.0019382594000588 0 0 0
387 129 1 0.5897 4.187450705182227 0.32385385379787274 1.2649089555702857 0 1 0
28 10 2 -1.1794 1.7408081130120905 0.1295343556805878 5.0124352060068995 0 0 0
98 33 1 0.5897 0.3556987088165343 5.436759034144131 3.9910415507415093 1 0 0
99 33 1 0.5897 0.15527903578814328 3.936703096713456 4.027649012508951 1 0 0
25 9 2 -1.1794 4.55273129625743 6.061157431462937 0.5691373445321755 0 0 0
47 16 1 0.5897 6.0314738010845215 0.8324977597650697 1.7828518743722925 0 0 0
1455 485 1 0.5897 1.6116195483396798 3.243804018640218 0.13169596742412515 0 0 1
150 50 1 0.5897 1.3867247461240904 6.118343427311475 5.853167461493837 0 0 0
867 289 1 0.5897 4.933612815588159 0.3205874124957152 5.761936556624977 0 1 0
1347 449 1 0.5897 4.507226904911858 0.2995055996917097 11.339152434526383 0 1 0
579 193 1 0.5897 0.28149960452271794 5.3370458620706 9.7008701881409 1 0 0
487 163 2 -1.1794 5.979063890493535 4.804417211309143 9.329465943981585 0 0 0
527 176 1 0.5897 5.94832014995843 0.8289698844372173 7.524869112366847 0 0 0
501 167 1 0.5897 4.672955764347739 4.156569098237909 6.297839230684092 0 0 0
485 162 1 0.5897 3.3700052375310965 1.607905396197329 8.71876539280225 0 0 0
489 163 1 0.5897 5.040963944730797 4.664392803109892 9.200718223991505 0 0 0
499 167 2 -1.1794 4.780647548398212 3.205543650200713 6.287884342780673 0 0 0
482 161 1 0.5897 5.265973771720733 1.682541357778386 9.369183199563174 0 0 0
505 169 2 -1.1794 4.599276651828007 5.891787897687718 6.541047627909672 0 0 0
578 193 1 0.5897 0.23253417570054496 3.8248844966879814 9.752197306576061 1 0 0
503 168 1 0.5897 0.9276844947425469 4.725645977952428 7.925985833512295 0 0 0
491 164 1 0.5897 2.7770020642168602 4.657635913683121 8.619589887461544 0 0 0
502 168 2 -1.1794 1.5954178371651486 4.774944395621227 7.241955210759793 0 0 0
492 164 1 0.5897 2.795323373510759 3.958820169199352 9.962370687612708 0 0 0
481 161 2 -1.1794 4.5825482704013485 1.540709358434675 10.024171125033467 0 0 0
496 166 2 -1.1794 0.19032905647189102 1.5214284895583734 7.747911881499832 0 0 0
629 210 1 0.5897 2.1770556426850867 5.990269726738886 10.287168022616797 0 0 0
508 170 2 -1.1794 1.41153865617967 0.13161188906585736 10.628238047468205 0 0 0
486 162 1 0.5897 3.430166302208587 0.8473025582508943 7.411247308642862 0 0 0
493 165 2 -1.1794 1.625103882988731 2.915134549136056 10.70507731874086 0 0 0
494 165 1 0.5897 1.6042808961636692 1.9652402727405958 10.820871189654232 0 0 0
498 166 1 0.5897 1.141536733602878 1.4279217751167805 7.799630613713479 0 0 0
504 168 1 0.5897 1.4560416066900816 3.9891788881927064 6.713466760413204 0 0 0
490 164 2 -1.1794 3.249185665390256 4.629193927378588 9.451707847568999 0 0 0
500 167 1 0.5897 4.080185200246192 2.8787974258850717 6.852494343561262 0 0 0
484 162 2 -1.1794 2.9791123036898646 1.5710857193401118 7.845819977574132 0 0 0
528 176 1 0.5897 6.08169090899321 2.3332393852197706 7.419744617339804 0 0 0
483 161 1 0.5897 4.64906205781891 2.2963490516719256 10.607899901107432 0 0 0
961 321 2 -1.1794 4.570696947580241 1.6925737694092111 15.612664175969101 0 0 0
962 321 1 0.5897 5.323092537402738 1.6679283983674915 15.021482857188932 0 0 0
963 321 1 0.5897 4.672451034077027 0.9161445554155608 16.163079635841626 0 0 0
964 322 2 -1.1794 2.880558383981303 1.5382928050506521 13.451024855751598 0 0 0
965 322 1 0.5897 3.25927220742356 1.711404171354659 14.312879251444953 0 0 0
966 322 1 0.5897 1.9384866149804076 1.4800225262323499 13.610154510549126 0 0 0
970 324 2 -1.1794 3.0753637369874243 4.736977300715998 15.085025120792935 0 0 0
971 324 1 0.5897 4.014541431825174 4.611274386873651 14.949503944828962 0 0 0
972 324 1 0.5897 2.7935332274717384 3.9521599312792706 15.554908310729415 0 0 0
973 325 2 -1.1794 1.6877724901139308 2.8393960013332085 16.35540383110275 0 0 0
975 325 1 0.5897 0.9274218749966887 3.2194322610654558 15.915364017610981 0 0 0
979 327 2 -1.1794 4.599177606500175 3.2970976109702246 12.118749271987314 0 0 0
980 327 1 0.5897 3.816099047003833 2.8729104666417222 12.469531947469871 0 0 0
981 327 1 0.5897 5.321999778461219 2.917423602537623 12.618320155668178 0 0 0
982 328 2 -1.1794 1.2311179170584867 4.606433639607059 12.943828835661005 0 0 0
983 328 1 0.5897 1.3443055533630828 5.350485425458939 12.352447660058232 0 0 0
984 328 1 0.5897 1.952039512170517 4.684633446031484 13.56861449191252 0 0 0
987 329 1 0.5897 4.625590984071252 5.02597503447395 12.041310559608586 0 0 0
990 330 1 0.5897 1.5014079320027593 0.976846621569395 16.48030623880515 0 0 0
1109 370 1 0.5897 0.7263440883354045 5.978134647990365 16.2109297872286 0 0 0
1110 370 1 0.5897 2.233034678106289 5.830706799025527 16.212528221803332 0 0 0
967 323 2 -1.1794 5.878708386583342 4.679676116697494 14.940209515427206 0 0 0
985 329 2 -1.1794 4.6864542225400365 5.978126279214244 12.117757851023748 0 0 0
1346 449 1 0.5897 3.933612210525314 0.31162862843679356 12.740078498651958 0 1 0
988 330 2 -1.1794 1.4441219150897215 0.027950728814351723 16.368702154898052 0 0 0
1008 336 1 0.5897 6.050738341211578 0.8543307325732636 13.171291717917926 0 0 0
976 326 2 -1.1794 0.17509721933535258 1.3830917544092016 13.749413678601323 0 0 0
1058 353 1 0.5897 0.0911201038750298 4.730571962071709 14.362681485333143 1 0 0
495 165 1 0.5897 1.3244558000296098 3.2657303821399855 11.543454247332166 0 0 0
1460 487 1 0.5897 4.57219069356931 2.8198583229328715 17.062414733464472 0 0 0
386 129 1 0.5897 4.961700797255974 0.14648390130835337 22.750151529528836 0 1 -1
1454 485 1 0.5897 2.2839594831757184 3.413492442087831 21.55996062268079 0 0 0
1451 484 1 0.5897 4.249637152846218 4.733574810642225 20.74878848358238 0 0 0
974 325 1 0.5897 1.7601538457516341 3.3286449418369375 17.174894810705794 0 0 0
1465 489 2 -1.1794 4.51301082847723 5.947438330871667 17.8801878663661 0 0 0
1459 487 2 -1.1794 4.64265630028098 3.1626165917985216 17.95332750906352 0 0 0
1538 513 1 0.5897 0.30594555140069307 3.9505744018876845 21.207718044791157 1 0 0
1487 496 1 0.5897 5.975630993812987 1.488255773788924 20.000311308931877 0 0 0
1590 530 1 0.5897 2.2610699318956673 6.032584648103032 21.824658461372934 0 0 0
1456 486 2 -1.1794 0.25525782827310717 1.6166818580531241 19.13945349288184 0 0 0
1450 484 2 -1.1794 3.297524091450637 4.7908901245608515 20.828855666249147 0 0 0
1466 489 1 0.5897 4.609363777034228 4.996384822372179 17.9287058340646 0 0 0
1488 496 1 0.5897 6.054894998705993 0.8060300223425535 18.651227417134763 0 0 0
1468 490 2 -1.1794 1.7318537849670959 0.21533806673464426 21.98940443978104 0 0 0
1453 485 2 -1.1794 1.604769150849325 2.909931166749614 22.00865171548918 0 0 0
1442 481 1 0.5897 4.084964248539203 1.4453092372032428 20.858786980258735 0 0 0
1464 488 1 0.5897 1.0930285770208448 4.5858846279709145 19.109615262568354 0 0 0
1826 609 1 0.5897 4.122084280927935 0.04615367306983952 18.26948815962883 0 1 0
1462 488 2 -1.1794 1.8033608085788637 4.52737122123426 18.4707070600682 0 0 0
1444 482 2 -1.1794 3.0683514118918254 1.250474573831473 19.247261723925867 0 0 0
1539 513 1 0.5897 0.21084806295278694 5.457498846186134 21.099084560034235 1 0 0
1463 488 1 0.5897 1.688025820381409 5.296328486384682 17.912535126954907 0 0 0
1447 483 2 -1.1794 6.078628430521912 4.78218610647627 20.613872836931954 0 0 0
1469 490 1 0.5897 1.7722734915624037 1.1631211569574542 22.1167403968649 0 0 0
1443 481 1 0.5897 4.723419046792819 2.1337031985150627 22.04632446569184 0 0 0
1446 482 1 0.5897 3.3640250384625587 2.00820139514194 18.742698316633792 0 0 0
1452 484 1 0.5897 2.9768183298674145 4.728062500673989 19.929198470280966 0 0 0
1445 482 1 0.5897 2.136320387818969 1.4099698518551205 19.395895282527455 0 0 0
1461 487 1 0.5897 5.45618599065521 2.787951698785406 18.29096071140136 0 0 0
1441 481 2 -1.1794 4.856243142173013 1.4178486593553585 21.424981900101606 0 0 0
121 41 2 -1.1794 4.528336162416219 7.5919839992368825 4.309904274139958 0 0 0
122 41 1 0.5897 3.754874510576738 7.5648809691564045 3.7466760483828736 0 0 0
123 41 1 0.5897 5.266357084014882 7.488200700492509 3.7092730173314883 0 0 0
124 42 2 -1.1794 2.9630407317553895 7.788316042523964 1.998723372977228 0 0 0
125 42 1 0.5897 3.2914254841947224 7.08759788018517 1.4354087525868733 0 0 0
126 42 1 0.5897 3.4516455159188784 8.564705823346888 1.7255065083745094 0 0 0
129 43 1 0.5897 4.9767648587186075 10.865216804980708 3.6897176669169878 0 0 0
130 44 2 -1.1794 3.083086952843274 10.963340368893217 3.531448186942907 0 0 0
131 44 1 0.5897 2.595190158884186 11.672693408231948 3.9497094251812506 0 0 0
132 44 1 0.5897 2.8351931204679377 10.17976562375259 4.022074449143106 0 0 0
133 45 2 -1.1794 1.6600607977961688 9.064027378617295 4.845215575983987 0 0 0
135 45 1 0.5897 0.9842304288115868 9.498625710533041 4.325053400071062 0 0 0
137 46 1 0.5897 1.1127431413040918 7.890266202406661 2.175732383621071 0 0 0
139 47 2 -1.1794 4.789111455238753 9.534061873681194 0.9144417524931897 0 0 0
140 47 1 0.5897 4.690311884481937 10.485682503348798 0.8861742148334452 0 0 0
142 48 2 -1.1794 1.295984272480857 10.790178926287938 1.4386679272537302 0 0 0
143 48 1 0.5897 2.0150945389159736 10.825192124590375 2.0694262069579996 0 0 0
144 48 1 0.5897 1.4750141142867788 11.507355912672251 0.8305845775017503 0 0 0
149 50 1 0.5897 1.4829351407131792 7.374834591273365 5.0143172645002965 0 0 0
127 43 2 -1.1794 5.930140551842504 10.781306344317024 3.7055258438392005 0 0 0
270 90 1 0.5897 0.7368952114023005 12.345758683484913 4.485830616325234 0 0 0
621 207 1 0.5897 4.510355260034423 9.086724673757253 5.6472771511402735 0 0 0
168 56 1 0.5897 5.948148069034572 8.355549019534848 1.7064013911328086 0 0 0
148 50 2 -1.1794 1.5150772144849294 6.420129613981572 4.953931649083948 0 0 0
145 49 2 -1.1794 4.67115327956447 12.224069635898683 0.883564298458277 0 0 0
136 46 2 -1.1794 0.16313916929824973 7.902342215695891 2.2954045469036144 0 0 0
26 9 1 0.5897 5.277072970741626 6.423234749834062 1.0794538398045173 0 0 0
1574 525 1 0.5897 1.5157771010416825 9.49152720296153 0.09787293147111215 0 0 1
134 45 1 0.5897 1.700022582101144 9.569369854586034 5.657127076211568 0 0 0
507 169 1 0.5897 4.576002004041144 6.386781518547367 5.722140218925086 0 0 0
607 203 2 -1.1794 5.914047433966387 10.794168152968144 9.497118044186195 0 0 0
606 202 1 0.5897 2.093907078122111 7.864129496245013 7.856602089003555 0 0 0
619 207 2 -1.1794 4.578510533470595 9.45901396039871 6.526441184678247 0 0 0
1101 367 1 0.5897 4.730894237397886 9.037013747462469 11.344932080994353 0 0 0
612 204 1 0.5897 2.8702764670972014 11.44805736418775 9.646395443768695 0 0 0
626 209 1 0.5897 4.528905593498658 11.2255549888554 6.4471070309590885 0 0 0
605 202 1 0.5897 3.3997457721713644 8.520868976335803 7.4625276635986575 0 0 0
698 233 1 0.5897 0.266033720887322 11.40654275057471 9.811586883581993 1 0 0
616 206 2 -1.1794 0.27194044740151657 7.777194976873309 7.84812574581338 0 0 0
624 208 1 0.5897 1.4969534732478278 11.519567264619313 6.533343617206305 0 0 0
630 210 1 0.5897 1.526105577413772 7.26532692307483 10.7793081135415 0 0 0
602 201 1 0.5897 4.667273152548808 7.126471942686932 10.680181348306117 0 0 0
614 205 1 0.5897 2.5080929459240298 9.415420272946337 10.299900062098466 0 0 0
615 205 1 0.5897 0.9988400685697718 9.533646710707725 10.293839410690593 0 0 0
699 233 1 0.5897 0.36199439534359973 10.65242700789848 8.502450030598364 1 0 0
506 169 1 0.5897 3.973455797321562 6.339765088505107 7.110126328838469 0 0 0
613 205 2 -1.1794 1.7222767611968686 9.099437732340293 10.745827268935153 0 0 0
622 208 2 -1.1794 1.49132368759326 10.691143443256905 7.012751014018824 0 0 0
610 204 2 -1.1794 3.2136712304347737 10.687911020047489 9.176909809034093 0 0 0
620 207 1 0.5897 5.190432828925233 8.882745043115346 6.98431710011602 0 0 0
647 216 1 0.5897 5.79379545148896 7.729485707228385 8.648965814946951 0 0 0
648 216 1 0.5897 5.862199540622784 6.863236742418351 7.409343499378094 0 0 0
603 201 1 0.5897 4.0029842747230795 7.725796506623092 9.45899577638119 0 0 0
601 201 2 -1.1794 4.730975432691107 7.858026757548808 10.06623865844789 0 0 0
611 204 1 0.5897 4.16407569630744 10.761402838892465 9.26377608809393 0 0 0
623 208 1 0.5897 2.204528413984048 10.775230857625296 7.64557549222386 0 0 0
625 209 2 -1.1794 4.557360663848018 12.17995007208123 6.380295569174279 0 0 0
604 202 2 -1.1794 3.0431080049511072 7.750327084865535 7.904380317716456 0 0 0
628 210 2 -1.1794 1.4280113817534976 6.313253900228592 10.787977303461156 0 0 0
1081 361 2 -1.1794 4.684772938934744 7.744399698551509 15.780332346030375 0 0 0
1082 361 1 0.5897 4.846046362217109 8.492953896887215 16.354626012346415 0 0 0
1083 361 1 0.5897 4.6518434560233 6.991721765613777 16.37071261561328 0 0 0
1084 362 2 -1.1794 2.952045330559985 7.638348450030343 13.572250981981265 0 0 0
1085 362 1 0.5897 3.427779661035093 7.658611960852439 14.402584150351178 0 0 0
1086 362 1 0.5897 3.4006250989030598 8.281143449438114 13.022924876485742 0 0 0
1089 363 1 0.5897 5.099810388687177 10.724862855079998 15.038044645023326 0 0 0
1090 364 2 -1.1794 3.368743739594101 10.616172872692864 15.133968615120018 0 0 0
1091 364 1 0.5897 2.9129083431090117 11.419471235702249 15.385136133550418 0 0 0
1092 364 1 0.5897 2.9339129223269187 9.926661887594854 15.635629561091651 0 0 0
1093 365 2 -1.1794 1.74433726179935 9.154256926792447 16.660509889446807 0 0 0
1094 365 1 0.5897 1.653955793481146 8.203288883529723 16.600242895705662 0 0 0
1095 365 1 0.5897 1.0346638671848933 9.497634225792657 16.117694281361302 0 0 0
1097 366 1 0.5897 1.1333695810496323 7.625873652557988 13.570078309053773 0 0 0
1099 367 2 -1.1794 4.703352226108061 9.496780260040083 12.183995283648109 0 0 0
1100 367 1 0.5897 5.403836757487036 9.097282334761074 12.699663986271043 0 0 0
1102 368 2 -1.1794 1.6722213608452379 10.84979702826368 12.87003633486914 0 0 0
1103 368 1 0.5897 1.7418857717621223 10.085709116564026 12.297781818952679 0 0 0
1104 368 1 0.5897 2.4542966524793473 10.809509906195888 13.420434284692154 0 0 0
1107 369 1 0.5897 4.762711809653811 11.313830075194728 12.073559276986032 0 0 0
1179 393 1 0.5897 0.38082513887421704 10.540156378346973 14.221533724447527 1 0 0
1127 376 1 0.5897 6.075952739620002 7.778264936048968 14.344108015629006 0 0 0
1178 393 1 0.5897 0.37917408544984943 11.447781007165101 15.433120003664804 1 0 0
1105 369 2 -1.1794 4.749054502600937 12.2549762543693 12.247339015137905 0 0 0
1087 363 2 -1.1794 6.049435787411366 10.776574705029901 14.929637037345383 0 0 0
1128 376 1 0.5897 6.139767951746567 7.095201315470053 12.994629468569178 0 0 0
1108 370 2 -1.1794 1.525239018986312 6.373665963766898 16.559525840026588 0 0 0
1096 366 2 -1.1794 0.18342842017182656 7.688026327874226 13.470259061100256 0 0 0
986 329 1 0.5897 3.9851816119762424 6.215475476714495 12.724451743357909 0 0 0
1230 410 1 0.5897 1.9192855550912178 12.244467926638867 17.016951853006375 0 0 0
750 250 1 0.5897 1.6811373569649717 12.105442265025822 11.490272085062408 0 0 0
1584 528 1 0.5897 1.841945686669145 10.328514757056217 18.097829781573886 0 0 0
1588 530 2 -1.1794 1.4812295602562469 6.38057481481596 22.257034962550954 0 0 0
1567 523 2 -1.1794 6.131299770109954 10.704524880014732 20.72327492152762 0 0 0
1566 522 1 0.5897 3.180160663250635 7.144344322806803 18.842855677649084 0 0 0
1573 525 2 -1.1794 1.692736152659743 9.041552452162566 22.045797536576544 0 0 0
1572 524 1 0.5897 4.379939176925532 10.778188229267688 20.68299637280456 0 0 0
1562 521 1 0.5897 4.80556827342129 7.227901988270498 21.968209894079408 0 0 0
1580 527 1 0.5897 3.8538160532148242 9.008246269814192 18.33463135392809 0 0 0
1608 536 1 0.5897 5.972533518947686 7.821396532545918 19.98812603856849 0 0 0
1571 524 1 0.5897 3.047091582410657 10.799429004581889 19.96543131399074 0 0 0
1561 521 2 -1.1794 4.8964611920503565 8.019117347056458 21.437296810691308 0 0 0
1581 527 1 0.5897 5.3660550099398945 9.059843627057033 18.382881095532582 0 0 0
1563 521 1 0.5897 4.173166136902989 7.97298327540343 20.812063408716767 0 0 0
1587 529 1 0.5897 4.632608664441016 11.319723906724066 17.721145909216787 0 0 0
1658 553 1 0.5897 0.3345540391287422 10.191517819955235 21.14339909077882 1 0 0
1467 489 1 0.5897 5.25453966528998 6.289541885809509 18.37948302838442 0 0 0
1575 525 1 0.5897 2.3712044455007817 9.569805378245526 21.62530096965711 0 0 0
1583 528 1 0.5897 1.021181687517156 11.092491898601107 19.114907834797783 0 0 0
1570 524 2 -1.1794 3.4357091206011483 10.766548015563528 20.83954795339315 0 0 0
1564 522 2 -1.1794 2.9569502807782584 7.896170884302463 19.39157218993912 0 0 0
1576 526 2 -1.1794 0.26435007086604023 7.612236121746787 19.328973380244044 0 0 0
1565 522 1 0.5897 2.004915148747526 7.853636871905213 19.481211657863795 0 0 0
1579 527 2 -1.1794 4.6035792209945905 9.522601243845415 18.035490916243496 0 0 0
1582 528 2 -1.1794 1.8634895986595998 11.102632913548428 18.66035141542831 0 0 0
141 47 1 0.5897 4.8372408306818695 9.270392574961697 22.76955058372438 0 0 -1
1709 570 1 0.5897 0.9798689247293193 12.19811573457402 21.663972633332527 0 0 0
1710 570 1 0.5897 2.4926939894169373 12.147921035591878 21.637528358241326 0 0 0
1589 530 1 0.5897 1.5719300959271045 7.330845779956978 22.187032603177848 0 0 0
1585 529 2 -1.1794 4.662377173930251 12.269014151433668 17.60237677038399 0 0 0
241 81 2 -1.1794 4.800083481191033 14.070474485328338 4.432251974135688 0 0 0
242 81 1 0.5897 4.73399105840608 13.362976910991309 5.073528604414076 0 0 0
243 81 1 0.5897 4.012034807425103 13.982765913284203 3.896070088527901 0 0 0
244 82 2 -1.1794 2.874781963956018 13.935092103970648 2.5081159613300383 0 0 0
245 82 1 0.5897 1.950163940296428 13.929018403607163 2.26060450155328 0 0 0
246 82 1 0.5897 3.256959337058082 14.644205981695528 1.9911430847596756 0 0 0
250 84 2 -1.1794 3.2036330202194945 17.228650845963895 3.7877189231750146 0 0 0
251 84 1 0.5897 2.802471780160635 17.13784790312988 2.9234217894426133 0 0 0
252 84 1 0.5897 4.144757698674853 17.171434335059082 3.622698906183521 0 0 0
253 85 2 -1.1794 1.3890754244758983 15.299651151701035 4.908205890937273 0 0 0
254 85 1 0.5897 0.7153330921828599 15.803147371008643 4.451308689197265 0 0 0
255 85 1 0.5897 2.2152180798663097 15.621747029910777 4.547727604456983 0 0 0
259 87 2 -1.1794 4.48594667620292 15.586267278568602 0.9949246831036123 0 0 0
260 87 1 0.5897 4.537321773611121 16.539473852932662 0.9248951015600032 0 0 0
262 88 2 -1.1794 1.6856848414583423 16.990864877647503 1.5946256069779376 0 0 0
263 88 1 0.5897 1.7934661287036437 16.25149632842736 0.9964008655451986 0 0 0
264 88 1 0.5897 1.6641678983105357 17.75952394187079 1.0246668527657852 0 0 0
269 90 1 0.5897 1.4779305970950811 13.533191248252562 5.062539661776581 0 0 0
146 49 1 0.5897 5.367438319169416 12.71887826170648 1.3154675890205376 0 0 0
338 113 1 0.5897 0.27694624621427766 17.097147731260907 2.813335141969357 1 0 0
287 96 1 0.5897 6.012963385647943 13.896346735423752 3.0246236186068503 0 0 0
247 83 2 -1.1794 5.895256366475757 16.973015593022183 3.526599390992053 0 0 0
265 89 2 -1.1794 4.661468836433831 18.292933040141037 0.7786981770522529 0 0 0
339 113 1 0.5897 0.03871759487038233 17.85001629303716 4.1049137935830835 1 0 0
268 90 2 -1.1794 1.4578348155989582 12.576294848107336 5.071745148419957 0 0 0
288 96 1 0.5897 5.901302764537453 14.662860766724735 1.72396030972343 0 0 0
389 130 1 0.5897 2.1029443858165267 18.488576968381125 4.583301730502535 0 0 0
147 49 1 0.5897 3.871236181827847 12.489211491545788 1.3374733189244348 0 0 0
261 87 1 0.5897 4.476398792313609 15.279212246399252 0.08839008821174074 0 0 0
256 86 2 -1.1794 0.1825163464239523 14.018671696204766 2.0223499783821315 0 0 0
740 247 1 0.5897 4.762198232277267 15.23027434049727 5.805157689204497 0 0 0
745 249 2 -1.1794 4.876221356721507 18.496678815070172 6.379370272718649 0 0 0
627 209 1 0.5897 5.26547089360068 12.440726655440802 6.969172755191741 0 0 0
733 245 2 -1.1794 1.778301336631345 15.209757299315582 10.59584595247244 0 0 0
1221 407 1 0.5897 4.6949892471463635 15.246499604828438 11.228166723809814 0 0 0
725 242 1 0.5897 3.307975285347696 14.635203016991639 7.4648495371898775 0 0 0
749 250 1 0.5897 1.6934192881963863 13.409509270193924 10.721536927090035 0 0 0
724 242 2 -1.1794 2.93155094355492 13.841022587339102 7.843980523826666 0 0 0
818 273 1 0.5897 0.406672346685634 17.049137417945655 8.399466757447554 1 0 0
727 243 2 -1.1794 6.044810731511892 16.862699309956408 9.1262117387931 0 0 0
736 246 2 -1.1794 0.20541516782503977 13.62944638118486 7.763076921269678 0 0 0
869 290 1 0.5897 0.8614125858156555 18.128064498151865 10.411633336753281 0 0 0
870 290 1 0.5897 2.364381822336999 18.307883404019474 10.436184927786723 0 0 0
722 241 1 0.5897 4.011809835895107 13.995145592075191 9.484374258627849 0 0 0
723 241 1 0.5897 5.5098928808904395 13.781899984957272 9.43829062711547 0 0 0
726 242 1 0.5897 3.3527283428343924 13.12512272658453 7.36831235072805 0 0 0
721 241 2 -1.1794 4.778291286721141 13.884486334164851 10.046923909800903 0 0 0
735 245 1 0.5897 1.0950817574073943 15.644516194651272 10.08556699130334 0 0 0
739 247 2 -1.1794 4.637409969563032 15.620205110544967 6.670348251477946 0 0 0
730 244 2 -1.1794 3.374428527054 17.095113448666122 9.297277086673306 0 0 0
731 244 1 0.5897 3.025645387752487 17.110554108616977 8.406042605766782 0 0 0
743 248 1 0.5897 1.3728788718997558 17.806265408348654 6.549237732654574 0 0 0
748 250 2 -1.1794 1.6233390486154278 12.462194644107301 10.603952639737571 0 0 0
742 248 2 -1.1794 1.6613029173518938 17.043920169154422 7.051032468965245 0 0 0
737 246 1 0.5897 1.1509448604024841 13.746132432947338 7.855663356760322 0 0 0
728 243 1 0.5897 5.095153843921835 16.975862455036165 9.086714796674803 0 0 0
741 247 1 0.5897 4.572414341167965 16.560328869110513 6.502749968955005 0 0 0
768 256 1 0.5897 5.969797139529947 14.567959548639964 7.479696344111288 0 0 0
732 244 1 0.5897 2.8484811556387606 16.435468360920126 9.749406524571912 0 0 0
744 248 1 0.5897 1.6153590595101286 16.31671970385719 6.430365510160227 0 0 0
1106 369 1 0.5897 4.696264756635333 12.658250165141204 11.380877552601529 0 0 0
1201 401 2 -1.1794 4.494394673047822 14.241609932068691 15.534196685618276 0 0 0
1202 401 1 0.5897 5.244510268528498 14.23201348057507 14.939691861632102 0 0 0
1203 401 1 0.5897 4.642827436053315 13.49921340512023 16.11983481470974 0 0 0
1204 402 2 -1.1794 2.9344852399432932 13.944681024199092 13.37438066508361 0 0 0
1205 402 1 0.5897 3.451316793543939 14.02693572765975 14.175822082066256 0 0 0
1206 402 1 0.5897 3.3844987710522836 13.26931991589951 12.866894522225007 0 0 0
1210 404 2 -1.1794 3.2961864965450847 16.997314959034707 15.013363976976263 0 0 0
1211 404 1 0.5897 3.047046190992678 17.787653256656025 15.492372255448771 0 0 0
1212 404 1 0.5897 4.252826407576117 16.98915754124129 15.044834088363366 0 0 0
1213 405 2 -1.1794 1.4995374883433512 15.216892941369881 16.29171702294731 0 0 0
1214 405 1 0.5897 0.7704333871970399 15.663551733704884 15.861491376674925 0 0 0
1215 405 1 0.5897 2.2817852599580593 15.64808497194325 15.947686874547259 0 0 0
1218 406 1 0.5897 1.1513048949277354 13.94695594765368 13.634911466052205 0 0 0
1219 407 2 -1.1794 4.637306450695402 15.684365633515782 12.077356416395943 0 0 0
1220 407 1 0.5897 3.994808300669402 15.172178511415517 12.568319082118224 0 0 0
1222 408 2 -1.1794 1.557833346391203 16.698140898780196 12.879921010698363 0 0 0
1223 408 1 0.5897 1.7298086081517265 17.43993680975537 12.299990540979397 0 0 0
1224 408 1 0.5897 2.2383950871321954 16.75503258248472 13.550589173938617 0 0 0
1227 409 1 0.5897 4.587772737189557 17.429989736964554 12.195928817558519 0 0 0
1229 410 1 0.5897 1.6876447337584914 13.492125843894108 16.19148965700345 0 0 0
1247 416 1 0.5897 6.032970563706559 14.717392803010164 12.980588241464169 0 0 0
1298 433 1 0.5897 0.1498158193736069 17.01195418757593 14.21568207833109 1 0 0
1228 410 2 -1.1794 1.694556338531536 12.536749094623257 16.133637309338297 0 0 0
1248 416 1 0.5897 5.964670836042043 13.22658588159829 13.234550536199867 0 0 0
1350 450 1 0.5897 1.0125754094623836 18.404326228975282 16.00619210504444 0 0 0
1216 406 2 -1.1794 0.1997729406702057 14.042508002782425 13.594014994388251 0 0 0
1225 409 2 -1.1794 4.584410117482388 18.386820434503203 12.220493745752167 0 0 0
1207 403 2 -1.1794 6.037546515948774 16.998638842599505 15.026327915496775 0 0 0
734 245 1 0.5897 1.7260467098308647 15.61513611690564 11.461357260907048 0 0 0
1700 567 1 0.5897 4.765990809172942 15.262613239380867 16.969119724412487 0 0 0
1217 406 1 0.5897 0.0578237162823001 14.777715143533898 12.99779517713469 0 0 0
1705 569 2 -1.1794 4.802122543334539 18.35620635814443 17.960970929978757 0 0 0
1586 529 1 0.5897 5.337814027871749 12.566075668617714 18.212077376639485 0 0 0
1702 568 2 -1.1794 1.4604281948894346 16.82964250474565 18.463162732404285 0 0 0
1695 565 1 0.5897 1.834395451541022 14.260409147817366 22.203454415818 0 0 0
1682 561 1 0.5897 5.24655550119414 13.807214131993392 20.79998241446105 0 0 0
1689 563 1 0.5897 4.984146642550698 17.134231543013325 20.74891837667871 0 0 0
1691 564 1 0.5897 2.8754779760998526 16.310064925505472 21.155077291598758 0 0 0
1681 561 2 -1.1794 4.498847821199135 13.979246792270436 21.37229123328875 0 0 0
1728 576 1 0.5897 6.021226830377691 14.607737641639595 18.897680672379998 0 0 0
1699 567 2 -1.1794 4.804465784910543 15.697573331237864 17.82088265526186 0 0 0
1779 593 1 0.5897 0.3452022663474428 17.5387393228867 21.131878310329 1 0 0
1778 593 1 0.5897 0.35258897122277266 16.653162778617073 19.904105722585655 1 0 0
1685 562 1 0.5897 3.3482694042676604 13.188756840543103 18.73999775823409 0 0 0
1703 568 1 0.5897 1.5137107502317424 16.15271626521465 17.788559035441693 0 0 0
1684 562 2 -1.1794 2.9891218905766763 13.991402471293366 19.118057247576033 0 0 0
1693 565 2 -1.1794 1.7751006908398654 15.214945402112422 22.24198861156971 0 0 0
1692 564 1 0.5897 2.850548574965474 17.041637856392 19.82996701788946 0 0 0
1686 562 1 0.5897 3.3859187533633976 14.045637099787717 19.987422221566334 0 0 0
1687 563 2 -1.1794 5.938575309823581 17.189814652315697 20.795745448033998 0 0 0
1696 566 2 -1.1794 0.25715271486242625 13.735460149588988 19.332286494945045 0 0 0
1690 564 2 -1.1794 3.3252932464790677 16.994549058563315 20.659779456999836 0 0 0
1683 561 1 0.5897 4.553213356577106 13.303360229057326 22.047851134016994 0 0 0
1697 566 1 0.5897 1.2067846909392221 13.842453134284014 19.277762729060477 0 0 0
1708 570 2 -1.1794 1.756615768658004 12.549638436463278 22.09905471837188 0 0 0
1830 610 1 0.5897 2.2981659967197756 18.479831987993176 21.607623487950768 0 0 0
1704 568 1 0.5897 1.6123703558753648 17.649420834726726 17.993027007120396 0 0 0
1694 565 1 0.5897 0.9673619310375671 15.424336594603531 21.773034279604985 0 0 0
1701 567 1 0.5897 4.079297601136351 15.3180300804467 18.31714081470927 0 0 0
1707 569 1 0.5897 4.834458451958687 17.40770228510134 17.836726941542857 0 0 0
361 121 2 -1.1794 4.685270841631696 20.270953340300895 4.244199418616768 0 0 0
362 121 1 0.5897 4.030322319573617 20.067688939982293 3.5764250128549593 0 0 0
363 121 1 0.5897 4.7775160017915175 19.460194092752396 4.744509707074448 0 0 0
364 122 2 -1.1794 2.9354309986632408 20.063871112889235 2.171994186232353 0 0 0
365 122 1 0.5897 3.2131546300599254 20.764779278615613 1.5822832107074094 0 0 0
366 122 1 0.5897 1.9821521931253026 20.043218436607123 2.0880340485125175 0 0 0
370 124 2 -1.1794 3.382948172783886 23.166113764824914 3.4561359864971504 0 0 0
371 124 1 0.5897 4.3343228784858825 23.232161207478146 3.538227719082616 0 0 0
372 124 1 0.5897 3.1543342332810242 22.374949630826062 3.9439432313906475 0 0 0
373 125 2 -1.1794 1.5466434558007092 21.50928236788631 4.938126540146737 0 0 0
375 125 1 0.5897 0.9057483507923001 21.97003823280855 4.396698992612131 0 0 0
379 127 2 -1.1794 4.518531727280282 21.802579472383407 0.6183012522957734 0 0 0
380 127 1 0.5897 4.716497134668423 22.730964909488808 0.7409921208922892 0 0 0
381 127 1 0.5897 5.206186173270673 21.3446719531485 1.101665058849888 0 0 0