LAMMPS data file via write_data, version 30 Jul 2021, timestep = 5000000

864 atoms
2 atom types
576 bonds
1 bond types
288 angles
1 angle types

0.4117414313493182 17.79583096864907 xlo xhi
1.576508289595452 22.052669510408368 ylo yhi
0.5023235845295755 21.710872215466367 zlo zhi

Masses

1 1.00794
2 15.9994

Pair Coeffs # lj/cut/tip4p/long/omp

1 0 0
2 0.21084 3.1668

Bond Coeffs # harmonic/omp

1 450 0.9572

Angle Coeffs # harmonic/omp

1 55 104.52

Atoms # full

777 1 1 0.5897 1.1252276070055052 4.624941394605644 1.365313635694977 6 -1 2
800 1 1 0.5897 4.136580060265192 6.039288200108739 2.3168944404676717 -1 -3 3
511 1 2 -1.1794 4.409956852617894 4.514283682454759 1.3823838056047348 -1 1 -3
760 1 2 -1.1794 2.4162098348772143 2.7610953994897205 3.703093348766992 1 -3 0
230 1 1 0.5897 3.3457700620413977 6.177344128955349 4.425180547956567 2 5 2
229 1 2 -1.1794 2.916255703387985 5.877578962539591 5.226326989427534 2 5 2
761 1 1 0.5897 2.5390078134506817 1.8249495883561853 3.8602990766920886 1 -3 0
775 1 2 -1.1794 0.9429615840649171 4.627529126905367 2.3049616456980537 6 -1 2
762 1 1 0.5897 3.255639427701254 3.156120515981546 3.9386322541339385 1 -3 0
776 1 1 0.5897 1.538219016135678 3.9710266270271446 2.6666939358886785 6 -1 2
362 1 1 0.5897 0.9546641216234595 3.4036987735644404 5.007701903346999 0 -3 0
231 1 1 0.5897 2.11939646495619 6.404805598463092 5.2831008912929756 2 5 2
330 1 1 0.5897 1.2536873084029319 6.283682712416148 2.469178511357961 3 4 0
372 1 1 0.5897 1.9410396831850611 3.5463725496872183 8.494069605598643 1 8 1
370 1 2 -1.1794 2.479799005660688 4.040400176034504 7.876135957392731 1 8 1
596 1 1 0.5897 3.742414725252539 1.8082497227267593 10.826713958963266 1 -5 2
812 1 1 0.5897 3.3618538087305496 2.486525708762241 7.17522983776094 -6 6 -4
363 1 1 0.5897 1.36905478493374 3.8153070030424123 6.404333076589779 0 -3 0
371 1 1 0.5897 2.315904289010655 4.9577189952378244 8.094882174529822 1 8 1
376 1 2 -1.1794 2.2173147782686033 5.033880652180649 10.785151305542122 0 3 4
127 1 2 -1.1794 0.7665308723271206 2.4660164768424457 9.308032560908352 1 2 -5
821 1 1 0.5897 3.9905585421197904 5.049304723186144 9.949822967830272 3 1 5
162 1 1 0.5897 4.332675317508539 6.141678946245276 6.336895647047029 1 10 3
377 1 1 0.5897 1.3205645139408069 4.765953229153961 10.584528878141352 0 3 4
811 1 2 -1.1794 4.0193372748480485 1.7912515862464806 7.153462247877315 -6 6 -4
361 1 2 -1.1794 0.6199055047206133 3.499249105303279 5.899314902165943 0 -3 0
820 1 2 -1.1794 4.739373998318587 5.556649253844023 9.636633744034766 3 1 5
378 1 1 0.5897 2.3386820640366315 4.796659168649622 11.704488514380554 0 3 4
308 1 1 0.5897 2.4067787041782602 3.322955193605549 13.689955151049139 1 6 -2
227 1 1 0.5897 0.8707164551089119 2.2612579395684764 15.00365550639835 2 -2 -1
309 1 1 0.5897 3.683165013471739 4.134850281172083 13.631805414560283 1 6 -2
307 1 2 -1.1794 2.9194976811255593 3.886765552261822 13.110819649025009 1 6 -2
597 1 1 0.5897 3.9253604018712145 2.966305320107347 11.784424793336296 0 -5 2
595 1 2 -1.1794 4.391069178805872 2.4419956292030838 11.132959414618476 0 -5 2
226 1 2 -1.1794 1.274705514904509 1.7948395055611925 14.271924904762301 2 -2 -1
325 1 2 -1.1794 4.413907243407197 1.6772251484305933 15.557723103242848 1 -1 -4
592 1 2 -1.1794 0.6988548069138739 6.5903634064766266 15.004984692810956 1 -2 -5
26 1 1 0.5897 3.040763461100521 2.9612542817399268 16.244631678464934 -2 6 6
616 1 2 -1.1794 2.264944245453835 4.181170915771062 21.092887465024404 0 3 0
417 1 1 0.5897 3.3400172744647936 6.085541368888141 17.860969986534563 0 -2 -1
617 1 1 0.5897 2.4250034492462 4.921095031044326 20.50714070166324 0 3 0
549 1 1 0.5897 3.4415290233578437 2.0774322279786195 19.062806543944696 6 2 3
416 1 1 0.5897 2.8745324955474567 5.17984315802715 16.740811650555777 0 -2 -1
484 1 2 -1.1794 2.5148572561704623 6.3518555042317475 19.62385228973531 3 1 -1
548 1 1 0.5897 2.4153022684439347 2.800125915021139 19.909154660419787 6 2 3
27 1 1 0.5897 2.1995700391774333 2.851001089092896 17.498411433636335 -2 6 6
25 1 2 -1.1794 2.2261979786704815 3.2723832006701183 16.63940493386815 -2 6 6
486 1 1 0.5897 1.7398343743179714 6.571710907029338 19.106974949780465 3 1 -1
415 1 2 -1.1794 3.586782522029744 5.767645163562588 16.992515860469034 0 -2 -1
618 1 1 0.5897 3.06954524476857 4.102328307686031 21.605331582917266 0 3 0
547 1 2 -1.1794 2.4977160497546387 2.1788762806010884 19.18567936164414 6 2 3
446 1 1 0.5897 0.6738351487701401 4.133298512006178 20.26687279443813 -1 -1 -3
801 1 1 0.5897 3.1884565593925185 7.179884307966466 2.6199482982661406 -1 -3 3
351 1 1 0.5897 1.82156582705202 10.771460467536428 2.5645073171400266 -8 1 1
349 1 2 -1.1794 2.676563406453875 10.457606070185218 2.270157467975893 -8 1 1
328 1 2 -1.1794 1.4848783832587982 7.208382287807732 2.5566134982546664 3 4 0
476 1 1 0.5897 0.9015889662951968 7.413646184218374 4.17565295153447 1 -3 -1
475 1 2 -1.1794 0.5987300270622816 7.510879948195001 5.07842536230621 1 -3 -1
350 1 1 0.5897 2.4823360580701377 9.909980857640186 1.5095390533849262 -8 1 1
252 1 1 0.5897 4.316449628531544 9.111993227109144 5.752810598711657 3 -4 2
799 1 2 -1.1794 4.061556072329514 6.84622734567538 2.8261980888197638 -1 -3 3
398 1 1 0.5897 3.915143019437664 10.84391863334609 3.344751903178248 7 1 -5
251 1 1 0.5897 2.8567554277845764 9.461497125830912 5.555677882294851 3 -4 2
397 1 2 -1.1794 4.608153483597585 11.244507394651313 3.8695632589197975 7 1 -5
329 1 1 0.5897 0.9951856520097161 7.645111346533179 1.859742577410182 3 4 0
265 1 2 -1.1794 2.0059536642015097 7.283258911878423 8.00157263157753 -4 1 -1
266 1 1 0.5897 2.4750605538231643 7.730156004623741 7.296977656155753 -4 1 -1
190 1 2 -1.1794 3.333266158972316 11.483640907942412 7.932561441910533 4 6 -4
606 1 1 0.5897 1.4186664960842454 8.580834065916331 10.389130314166449 -3 1 -1
267 1 1 0.5897 2.306234303570162 7.714961887750885 8.801346696511994 -4 1 -1
250 1 2 -1.1794 3.473459732517026 9.12539987895272 6.205967521247391 3 -4 2
192 1 1 0.5897 3.3319369060565607 10.69960932440357 7.383500932588227 4 6 -4
293 1 1 0.5897 3.9933764108435676 11.265722851723242 9.655371794405085 -2 1 3
604 1 2 -1.1794 2.2582867175046095 8.125366717597561 10.450345791398806 -3 1 -1
292 1 2 -1.1794 4.595795298165048 11.041250652195325 10.364500158371857 -2 1 3
605 1 1 0.5897 2.0239223401349102 7.206513207028658 10.58050396062054 -3 1 -1
645 1 1 0.5897 4.19923448938488 7.8957882243599995 12.845852590153953 3 -3 1
132 1 1 0.5897 1.8668646321204283 8.768651216970461 14.825682500471785 -6 0 0
815 1 1 0.5897 2.100522734978089 7.923874257333964 12.294135696694354 -4 8 -3
130 1 2 -1.1794 1.9156853420111202 9.518808150884919 15.418185129546808 -6 0 0
336 1 1 0.5897 1.9085068534240677 11.245744298481632 15.509298063561388 7 0 1
833 1 1 0.5897 4.467382302907272 6.9989935053144 15.873211741111708 0 -5 -1
157 1 2 -1.1794 3.220308914629007 10.86517240937788 12.727202185485291 1 3 -2
158 1 1 0.5897 2.326873429724796 10.634905729380263 12.98203880509743 1 3 -2
816 1 1 0.5897 1.6423165763065892 7.407308200189205 13.64136063158025 -4 8 -3
814 1 2 -1.1794 2.3856714246130557 7.820297912296349 13.20195709112445 -4 8 -3
159 1 1 0.5897 3.751852601094309 10.647842761030857 13.492973648977925 1 3 -2
131 1 1 0.5897 2.5089810603026024 9.236574703837722 16.114269256066752 -6 0 0
594 1 1 0.5897 0.7777251708262511 6.760170812892079 15.943689007784284 1 -2 -5
294 1 1 0.5897 4.0346914652671 10.941506007120656 11.133508673072756 -2 1 3
485 1 1 0.5897 2.625873344405441 7.094345456385083 20.21760732418911 3 1 -1
534 1 1 0.5897 3.5342196506691184 11.462768509953772 19.7766968845662 -6 1 -3
573 1 1 0.5897 4.553115433490269 9.298877630181565 17.165109489826676 3 -3 -4
510 1 1 0.5897 2.658275328571279 9.759028644815285 20.567859959266357 7 -3 5
572 1 1 0.5897 3.4834591235775045 9.735857818829754 18.14318426539583 3 -3 -4
508 1 2 -1.1794 2.8023798588493434 8.95027141334198 21.05909557300695 7 -3 5
509 1 1 0.5897 3.744193568620256 8.937567182385077 21.229466493652062 7 -3 5
571 1 2 -1.1794 3.7195210576971323 9.024827921646148 17.547466459718457 3 -3 -4
146 1 1 0.5897 0.4986450777102718 7.706295313044048 17.881224039709018 -2 2 -4
532 1 2 -1.1794 2.7485792214241886 11.109105859862664 19.359744231459203 -6 1 -3
660 1 1 0.5897 0.9788454785830084 10.20949116402512 18.408503095796 2 0 4
145 1 2 -1.1794 0.5188152863821713 6.757901802439536 17.753533940785815 -2 2 -4
544 1 2 -1.1794 3.1654866360466083 15.24996177596738 3.3033384537583323 -4 4 4
546 1 1 0.5897 2.996724506648005 14.472679686483142 2.77084632518594 -4 4 4
245 1 1 0.5897 2.0512785925147448 13.313542297650779 1.1314944839091652 -4 5 1
244 1 2 -1.1794 2.9408120253602896 13.141000298486828 1.4399131759117143 -4 5 1
545 1 1 0.5897 2.7959326292169187 15.972950826082448 2.7964661130853656 -4 4 4
246 1 1 0.5897 2.954438803757387 12.200925706351729 1.6194500053033525 -4 5 1
86 1 1 0.5897 3.1667642976069956 15.845874237794321 5.04911069135876 -3 5 3
728 1 1 0.5897 2.4931967134190014 16.85973388297098 0.7656195335602575 0 1 0
85 1 2 -1.1794 3.3838515759220615 16.493440968549002 5.7197073815856845 -3 5 3
412 1 2 -1.1794 0.8035322553229297 15.129700332776965 10.044349343449067 -1 -3 3
456 1 1 0.5897 3.763791783461454 14.592757410510762 8.302204015578535 2 0 -1
774 1 1 0.5897 1.8436216405254697 12.259563527264286 9.175578428241609 2 -5 2
414 1 1 0.5897 1.5709061386089571 15.605126821368506 10.362584317045181 -1 -3 3
455 1 1 0.5897 2.39226227045847 14.96457591606767 8.824137803793807 2 0 -1
454 1 2 -1.1794 2.9353241695191037 14.991718253488092 8.036409934817392 2 0 -1
243 1 1 0.5897 2.00816455901479 14.0749624350944 6.883710462068248 -1 -2 0
87 1 1 0.5897 3.37588736936566 16.000900773908068 6.540412683672791 -3 5 3
773 1 1 0.5897 0.7620715161414675 13.249945852367976 9.551271262211959 2 -5 2
772 1 2 -1.1794 0.9846291701672528 12.319964149445244 9.593511376690268 2 -5 2
242 1 1 0.5897 1.7216256914108632 12.766722106921149 6.177920113905571 -1 -2 0
82 1 2 -1.1794 3.054464668455538 16.498820666249507 10.823130646243623 4 -5 -6
191 1 1 0.5897 3.93728035900594 12.082754962890618 7.4938911139273925 4 6 -4
241 1 2 -1.1794 1.4668527181757183 13.689198519778389 6.194991643648085 -1 -2 0
453 1 1 0.5897 4.157614201279371 13.998106874204682 11.718901008145012 -1 3 5
194 1 1 0.5897 3.163315391780152 14.270184961953236 13.600626322362745 2 -4 1
334 1 2 -1.1794 1.830151822481229 12.118052456050838 15.123167600211202 7 0 1
861 1 1 0.5897 1.6312064276399016 15.519817126096756 14.84794908931378 -5 -2 -1
193 1 2 -1.1794 3.1866350969751935 14.468388690698948 14.536752610798274 2 -4 1
859 1 2 -1.1794 0.8178347155215258 15.936000772754873 15.133221464438874 -5 -2 -1
452 1 1 0.5897 3.4290413315024186 12.741583037866251 12.145605385897353 -1 3 5
195 1 1 0.5897 2.889599709650015 13.662922078570352 14.960050603175839 2 -4 1
451 1 2 -1.1794 3.285304621158883 13.661529253239262 11.923801828340297 -1 3 5
860 1 1 0.5897 1.1021193964590479 16.706582392732837 15.624727014504078 -5 -2 -1
335 1 1 0.5897 1.4142051809387604 11.968220546231718 14.274222823540894 7 0 1
83 1 1 0.5897 3.2724721449212395 16.75854423433575 11.718218460054732 4 -5 -6
437 1 1 0.5897 0.46292994890072947 15.760813449385825 11.866611298867307 -2 2 0
321 1 1 0.5897 4.414928521560638 16.89348522398351 16.298048983967163 3 0 0
518 1 1 0.5897 1.4783191623580803 13.815095467324749 17.812443483305636 -1 1 -2
677 1 1 0.5897 4.175252842371044 14.145080252223499 21.441614380013846 4 0 -4
70 1 2 -1.1794 1.4179316853959074 15.438372086454203 18.49406188061152 4 2 -5
818 1 1 0.5897 3.417767372630768 15.444955675506101 18.57545775688999 3 -4 -1
72 1 1 0.5897 1.2665171639304318 15.613680468381155 19.422770100320953 4 2 -5
71 1 1 0.5897 1.5019478997924565 16.305147763065182 18.09681497657982 4 2 -5
517 1 2 -1.1794 1.2989910130639966 12.880391568028053 17.71081827368009 -1 1 -2
519 1 1 0.5897 1.4064945565327545 12.71587395846045 16.774047872662763 -1 1 -2
727 1 2 -1.1794 2.7885364887552715 16.56598517403328 21.112394515391664 0 1 -1
817 1 2 -1.1794 4.332769276111297 15.386374372318917 18.300682856379225 3 -4 -1
533 1 1 0.5897 2.405640732229015 11.835336841192513 18.839033684693824 -6 1 -3
467 1 1 0.5897 3.1524454324775117 20.471254204952363 0.9190214216431043 4 -5 5
367 1 2 -1.1794 1.091854743323744 20.159209194599537 1.2818052058565024 4 6 2
468 1 1 0.5897 4.096482238645532 19.632586539345787 1.7539800102305814 4 -5 5
47 1 1 0.5897 4.154175706634293 19.426587651821535 3.877027817985003 4 0 0
322 1 2 -1.1794 1.641318274267354 17.667866131331238 2.331492326484214 6 0 0
609 1 1 0.5897 2.467055540900107 20.119384074076482 5.099917759273969 3 3 5
324 1 1 0.5897 1.419104152434485 18.56103958822548 2.068771526482261 6 0 0
48 1 1 0.5897 3.3119947478063936 18.355356776830764 3.2174869194882376 4 0 0
46 1 2 -1.1794 4.200688233900469 18.709887490713417 3.244281531303961 4 0 0
466 1 2 -1.1794 4.073787605040652 20.386016312821006 1.164058887940349 4 -5 5
608 1 1 0.5897 3.323647435985472 21.257675310674216 5.612043464922525 3 3 5
607 1 2 -1.1794 3.219658353999269 20.66372224785761 4.868671966057696 3 3 5
369 1 1 0.5897 0.82587221116909 20.707145763402156 2.0202017676524107 4 6 1
449 1 1 0.5897 2.074800990980309 17.752552143374853 5.693232925694198 5 -1 -5
450 1 1 0.5897 0.6853927584270958 18.23649032923102 5.336748941229698 5 -1 -5
368 1 1 0.5897 0.7309790850266237 20.600783410328376 0.5130777794842152 4 6 2
448 1 2 -1.1794 1.5837554212280789 18.541445839042733 5.463686227704379 5 -1 -5
323 1 1 0.5897 0.8233369728280854 17.308061544210894 2.674428530459503 6 0 0
734 1 1 0.5897 0.746547692112248 18.192712421172143 10.631076563667495 -3 0 -2
489 1 1 0.5897 3.536622650758125 18.83451558169212 8.434194369945732 3 -7 4
51 1 1 0.5897 2.0243439710160667 22.016173157533338 9.966449765975621 9 0 1
680 1 1 0.5897 1.5821927755096419 19.03860256002246 7.133158376529563 -5 -7 -1
813 1 1 0.5897 3.8486205990828317 21.75093873993877 7.9410408137657225 -6 5 -4
487 1 2 -1.1794 4.429331293436617 18.644679118430087 8.722623019258897 3 -7 4
679 1 2 -1.1794 1.8423168523568243 19.332720412704095 8.006084958949193 -5 -7 -1
84 1 1 0.5897 3.293674281164052 17.25592041584816 10.288562813769374 4 -5 -6
681 1 1 0.5897 1.4794515305374025 20.215384017933186 8.079978471376144 -5 -7 -1
49 1 2 -1.1794 2.593803398100335 21.28265665313871 10.198470830420737 9 0 1
50 1 1 0.5897 2.100726330218953 20.795510592893322 10.858568340131201 9 0 1
720 1 1 0.5897 3.264359940631713 17.93104987067886 14.26285947839984 10 3 -2
525 1 1 0.5897 3.013778910670305 20.379498382475884 15.872981834099685 0 0 3
781 1 2 -1.1794 1.5565731880528764 19.589262572747238 12.179286315170419 -1 0 2
719 1 1 0.5897 2.5415035285477834 17.98700122078689 12.93391945702006 10 3 -2
524 1 1 0.5897 1.741771921992084 19.659037756575852 15.479725816668305 0 0 3
523 1 2 -1.1794 2.590054018656772 19.939332407181904 15.136171547710344 0 0 3
783 1 1 0.5897 2.3578223051653646 19.907644742283722 12.594978330683798 -1 0 2
782 1 1 0.5897 0.9527932340017253 19.43792785804213 12.90640874690869 -1 0 2
718 1 2 -1.1794 3.324599101567201 17.632923176093623 13.355305934898901 10 3 -2
228 1 1 0.5897 1.8050809359966513 21.589674795442782 14.685111557267053 2 -3 -1
327 1 1 0.5897 4.599100530266953 21.96729188636108 14.637266413511826 1 -2 -4
714 1 1 0.5897 4.664279893034329 18.514340172902067 12.934124590926348 -4 -3 3
319 1 2 -1.1794 4.707707111607671 17.72657434850622 15.928709460002866 3 0 0
563 1 1 0.5897 1.5758919231630846 20.952751458500117 19.113287752424768 3 0 5
215 1 1 0.5897 3.5874938255705153 19.455215767292028 18.607599027646692 -2 0 3
459 1 1 0.5897 1.1133232455594473 17.436350418589548 20.64841563399822 5 -1 -4
729 1 1 0.5897 3.5323788518855017 17.132517775601237 20.907672821572326 0 1 -1
562 1 2 -1.1794 0.8087838777043601 20.47876166041413 19.43434679919492 3 0 5
216 1 1 0.5897 4.148401460531675 19.53752440536491 17.2039153433143 -2 0 3
214 1 2 -1.1794 3.4579486199512877 19.890514644868773 17.76504475368195 -2 0 3
101 1 1 0.5897 4.123615914965027 19.39791310228725 20.727817523641264 4 -5 -2
100 1 2 -1.1794 4.461632578603811 18.772069760588113 20.08733034329868 4 -5 -2
581 1 1 0.5897 1.8477481978853505 18.66252109625536 17.397442444698733 -3 -5 -2
458 1 1 0.5897 0.5337328299899843 18.518185786361396 19.762164722818973 5 -1 -4
580 1 2 -1.1794 1.2498276303434206 17.971773774152688 17.111819213003315 -3 -5 -2
836 1 1 0.5897 7.975081739537982 5.511288507177721 3.8638945759737737 2 3 -1
183 1 1 0.5897 5.672032392284523 4.316343370467816 4.068945461303464 -3 3 -4
837 1 1 0.5897 8.151747771728926 4.348743090323211 2.9104697803891795 2 3 -1
182 1 1 0.5897 5.39381613918059 2.830859802932242 3.981375099388919 -2 3 -4
181 1 2 -1.1794 4.957306620864869 3.67995035271928 4.049694011120451 -3 3 -4
443 1 1 0.5897 7.092180067959527 2.093567248624148 0.6263997687716436 4 5 -1
835 1 2 -1.1794 7.66312261430226 4.624018267602564 3.6861241903775728 2 3 -1
513 1 1 0.5897 4.841464566161508 3.8810539185652484 1.9559679014948472 -1 1 -3
512 1 1 0.5897 5.102144890153754 4.815782194583557 0.7940521567782508 -1 1 -3
674 1 1 0.5897 8.442962040429908 3.536018326901921 5.220052269846528 -6 -6 -1
610 1 2 -1.1794 6.1680151322640775 3.5711202287279296 7.21399961296816 5 3 -1
150 1 1 0.5897 7.935590838581042 4.120212753804117 9.737646607651389 -7 0 2
238 1 2 -1.1794 6.727655279875716 2.507572244659171 9.616105902216045 -7 -6 0
842 1 1 0.5897 7.975010720503928 5.638688440398993 7.762411546749139 -5 1 2
240 1 1 0.5897 6.441650822296262 2.825664393860246 8.759839768053096 -7 -6 0
160 1 2 -1.1794 5.147982549527693 6.252189470970656 6.82600315847374 1 10 3
673 1 2 -1.1794 8.27157148673528 2.8948278791179973 5.909740689960764 -6 -6 -1
161 1 1 0.5897 4.916562059664939 6.038106350241179 7.729758031938837 1 10 3
612 1 1 0.5897 5.862298394293107 4.455544756738076 7.012760526202753 5 3 -1
843 1 1 0.5897 7.116118399910523 6.352672574449412 6.74047316387753 -5 1 2
239 1 1 0.5897 5.940827922903698 2.54222898059046 10.16003877994317 -7 -6 0
675 1 1 0.5897 7.499803478562372 3.232051500615615 6.364513097297703 -6 -6 -1
148 1 2 -1.1794 8.22863372558329 4.954630421329287 9.371533587713364 -7 0 2
841 1 2 -1.1794 8.022764283088875 6.254615685662753 7.031289199658045 -5 1 2
224 1 1 0.5897 8.325845676822242 2.0145156597020835 10.248529945094932 2 0 -7
822 1 1 0.5897 5.3203100213415615 5.619971273612157 10.394721350858017 3 1 5
611 1 1 0.5897 5.4563636649240275 2.999754813974284 6.92546149373138 5 3 -1
340 1 2 -1.1794 5.363922645051233 4.463381310458992 14.372316229619015 2 5 1
13 1 2 -1.1794 7.985604436642035 2.1911824847669292 13.368433327756726 2 -6 -2
29 1 1 0.5897 7.13625479226585 5.77366475945069 12.346098875719536 -5 3 5
14 1 1 0.5897 7.977626838420498 2.9648776695726182 13.93189708933864 2 -6 -2
342 1 1 0.5897 5.431069240281884 3.718272554550717 14.969366672154937 2 5 1
30 1 1 0.5897 5.756695407148743 5.195168734895876 12.57820493752177 -5 3 5
28 1 2 -1.1794 6.221537466138805 5.867661481724345 12.080360004389242 -5 3 5
211 1 2 -1.1794 8.302769143732633 4.319984645252316 15.140060123679476 3 2 1
341 1 1 0.5897 5.520944843479193 5.228799160298575 14.925175294495777 2 5 1
213 1 1 0.5897 7.85243510681521 4.892074527848212 15.76141215559461 3 2 1
461 1 1 0.5897 8.690652174971934 2.5838059844427637 19.96518942921083 3 4 0
724 1 2 -1.1794 6.379562575271783 5.578821849970222 21.044090489290788 2 -3 3
498 1 1 0.5897 6.000598160246803 2.5133942382050782 19.724299008573013 -1 2 3
442 1 2 -1.1794 7.346325296636559 2.7091415099369236 21.14745451795463 4 5 -2
16 1 2 -1.1794 6.308796790127796 4.405556438866279 17.176107910526667 -4 3 -1
17 1 1 0.5897 6.998207666924247 5.036867668459097 17.381820555306135 -4 3 -1
18 1 1 0.5897 5.4938526028327965 4.867983460273917 17.371519776342964 -4 3 -1
496 1 2 -1.1794 5.327049112324939 2.3232143624689816 19.071348324507056 -1 2 4
497 1 1 0.5897 5.627384107179801 2.7696439501397903 18.279717844195126 -1 2 4
444 1 1 0.5897 7.790858018920352 3.4179592723415704 21.612361633686362 4 5 -2
726 1 1 0.5897 7.3176726057898875 5.409717964561815 20.957345530418785 2 -3 3
289 1 2 -1.1794 8.413732625246126 1.8374142376773372 16.953743980053034 -6 -4 -6
490 1 2 -1.1794 9.007790618829954 5.060871247024975 21.138263226738964 4 2 2
725 1 1 0.5897 6.187192979864359 6.2207240594178375 20.36059894036684 2 -3 3
462 1 1 0.5897 8.937074485322883 2.1893999329229423 18.52454522468492 3 4 0
172 1 2 -1.1794 8.094709693355668 6.592998714822335 17.370557542631083 0 2 0
290 1 1 0.5897 8.215981784125162 2.757162701164199 16.777304099751632 -6 -4 -6
705 1 1 0.5897 5.787214188777638 9.73253728464123 4.0509022056229025 3 -2 -3
35 1 1 0.5897 5.942305620306646 7.553598500174115 2.50510152869422 -7 4 -1
542 1 1 0.5897 8.091883371929141 8.526417545966988 2.1321015290725853 -7 4 2
552 1 1 0.5897 7.49623479499947 7.654679470050581 4.4733095830973015 -2 9 -5
34 1 2 -1.1794 6.719364901302226 7.562198933550703 1.9462887933957493 -7 4 -1
550 1 2 -1.1794 8.318161073444557 7.170183045188466 4.550127755538193 -2 9 -5
703 1 2 -1.1794 6.179689787779487 8.960559136670472 4.458542368559908 3 -2 -3
704 1 1 0.5897 6.702453191911183 9.309885386849533 5.18024632058572 3 -2 -3
163 1 2 -1.1794 8.573833390241143 11.24281747022842 3.8512838566565093 -2 1 3
36 1 1 0.5897 6.597885570790877 6.8194586111367625 1.3548910873555577 -7 4 -1
165 1 1 0.5897 8.503548595967215 10.366649650549963 3.4723985239942516 -2 1 3
543 1 1 0.5897 8.783624052015401 9.697426546742467 1.4673062857070445 -7 4 2
541 1 2 -1.1794 8.829949245702597 9.127201843661235 2.2346881988453546 -7 4 2
551 1 1 0.5897 8.277222297947574 6.763861662446906 5.41580911581667 -2 9 -5
399 1 1 0.5897 5.194331584371981 11.644948848494435 3.2275349339580752 7 1 -5
164 1 1 0.5897 7.937317847055901 11.766470148775856 3.3646538998579647 -2 1 3
394 1 2 -1.1794 6.945695535349382 9.841331257840212 7.232188652038406 1 1 5
284 1 1 0.5897 7.965828924509869 6.862591860401958 10.042992696572874 8 -2 -1
553 1 2 -1.1794 5.43211400519527 8.392785769879772 9.20406541219006 -3 -5 3
396 1 1 0.5897 6.594360780844224 9.090666772479642 7.7109762537455415 1 1 4
395 1 1 0.5897 7.884297592961245 9.665816895518068 7.166013952689261 1 1 5
283 1 2 -1.1794 8.02712642789478 7.817407159932943 10.070309515204547 8 -2 -1
24 1 1 0.5897 6.099451279413202 11.491337453665626 9.576223250320362 -4 2 1
23 1 1 0.5897 6.8979002165640475 11.163551769082517 8.332531999044175 -4 2 1
555 1 1 0.5897 4.773861397764963 7.713297320970096 9.058582699934751 -3 -5 3
285 1 1 0.5897 7.140758670174279 8.120482828634614 9.873574674530687 8 -2 -1
554 1 1 0.5897 4.92968073945472 9.157264767341573 9.485659492980414 -3 -5 3
481 1 2 -1.1794 9.057012504603673 10.447641838592437 14.581154330979398 -2 2 -2
331 1 2 -1.1794 5.24867887849074 11.31342445593148 14.911075641393232 0 -5 -3
832 1 2 -1.1794 5.37676657522561 7.183485715885489 15.63838709253665 0 -5 -1
207 1 1 0.5897 8.799806005482187 11.673051897291767 15.66926612450003 -4 1 -5
746 1 1 0.5897 6.269135099715489 10.27884816858732 16.05086018433515 3 2 -6
482 1 1 0.5897 8.663480632422468 10.238050377310014 13.734170804371818 -2 2 -2
55 1 2 -1.1794 8.858900442485373 7.568578927729736 15.022016386666628 -1 -1 3
528 1 1 0.5897 6.701275522792936 9.270138981057968 12.64668319182112 -3 -5 1
526 1 2 -1.1794 7.624470830223144 9.430227985356389 12.451125027116136 -3 -5 1
792 1 1 0.5897 7.121322473797389 11.288895797407156 12.192270883337768 3 4 -1
527 1 1 0.5897 7.824706130920998 8.83149627447451 11.731691553217905 -3 -5 1
643 1 2 -1.1794 5.123739323579373 8.040597025671085 13.047110332278152 3 -3 1
834 1 1 0.5897 5.319498675661083 7.648330145477105 14.80363681716876 0 -5 -1
644 1 1 0.5897 5.58372289653917 7.346923662971196 12.57445603615909 3 -3 1
56 1 1 0.5897 8.817990557302332 8.523702366665468 14.974742889518172 -1 -1 3
57 1 1 0.5897 8.681102557091068 7.276242295195031 14.128091884922915 -1 -1 3
332 1 1 0.5897 5.769263262466522 11.586656975025914 14.155756972936038 0 -5 -3
537 1 1 0.5897 8.580039357713899 11.51894259120886 21.39961678893438 2 7 1
626 1 1 0.5897 5.7754373759719115 8.310582135701182 19.453320900904778 -3 -3 1
204 1 1 0.5897 7.879605757331776 9.93462456923217 17.790517603185073 -7 1 4
92 1 1 0.5897 5.815479147644975 10.358308913700819 20.624649332280562 3 -6 0
202 1 2 -1.1794 8.563890266827284 10.275889788040544 18.366293518416676 -7 1 4
203 1 1 0.5897 8.900001011670117 11.046634350938273 17.908970280069973 -7 1 4
536 1 1 0.5897 8.289011719804794 10.600850564457707 20.231596607968626 2 7 1
625 1 2 -1.1794 5.7622742077074935 7.607815836143761 18.803621578752363 -3 -3 1
91 1 2 -1.1794 5.516833663988785 9.474792652735044 20.83998316761278 3 -6 0
627 1 1 0.5897 4.8952580091570175 7.667953680861506 18.40258600224616 -3 -3 1
535 1 2 -1.1794 8.559765478200013 10.595185303175203 21.149666176064976 2 7 1
174 1 1 0.5897 7.273612868064513 6.899814269393576 17.755056464940715 0 2 0
173 1 1 0.5897 8.116803115128782 6.992980174997907 16.501213405931008 0 2 0
745 1 2 -1.1794 6.4751297105615615 9.719547063784463 16.79982260955873 3 2 -6
93 1 1 0.5897 6.078797869492649 9.201583847142789 21.56506625252647 3 -6 0
747 1 1 0.5897 6.449833722451035 8.829407884595849 16.448796553090773 3 2 -6
759 1 1 0.5897 5.529439419514606 14.085449714852093 4.687793098132701 0 2 3
188 1 1 0.5897 6.442486557136217 13.693747228635786 2.8956671779547545 -4 4 2
758 1 1 0.5897 4.8381585571543075 15.12233480300541 3.828259691940063 0 2 3
757 1 2 -1.1794 5.704949458670006 14.804017520444871 4.080303595717058 0 2 3
189 1 1 0.5897 7.35670570414028 13.08016025034804 1.8567097686932752 -4 4 2
424 1 2 -1.1794 8.684719777706217 13.122375522497356 0.5174591522938661 5 -5 2
187 1 2 -1.1794 6.707068996151884 12.85317614678188 2.522016835044773 -4 4 2
530 1 1 0.5897 7.342664748456692 15.893659593297524 4.226602507942692 -1 -1 -6
529 1 2 -1.1794 8.205416013585676 16.21487324593084 3.96458501303237 -1 -1 -6
828 1 1 0.5897 8.194550337634327 12.31156020721687 5.120070855986613 0 -1 2
39 1 1 0.5897 4.898987654244942 12.09502453281983 5.443050105496337 1 1 -3
838 1 2 -1.1794 6.057348278538584 16.82906782324707 1.3175554088203447 -3 -5 -3
254 1 1 0.5897 5.925781461931023 13.270675638793755 8.62086778831372 4 8 -7
255 1 1 0.5897 5.479856156532224 14.111847294912897 9.797886011738312 4 8 -7
310 1 2 -1.1794 7.285931873785489 15.447408443656249 7.082367016855385 -1 3 2
140 1 1 0.5897 8.73891917456429 15.140235682268255 10.769466913238485 0 -1 1
858 1 1 0.5897 8.29925639067747 12.74567276988972 9.481914715870062 0 -2 -5
311 1 1 0.5897 7.637462127802011 14.699644447361697 6.599199953792965 -1 3 2
38 1 1 0.5897 6.078878847500948 12.61625156400781 6.235468224754958 1 1 -3
312 1 1 0.5897 6.559793980379646 15.085210787038259 7.590004639152677 -1 3 2
826 1 2 -1.1794 7.861872328442809 12.864145931424948 5.827271382356352 0 -1 2
765 1 1 0.5897 8.540871273570206 16.247514862004998 8.139830990311108 -8 -3 -3
856 1 2 -1.1794 8.93661481240597 13.417647879453025 9.723569424485976 0 -2 -5
827 1 1 0.5897 8.539166089538552 12.823553838201672 6.502392979929988 0 -1 2
37 1 2 -1.1794 5.124398870443641 12.662106144684522 6.180473472858491 1 1 -3
253 1 2 -1.1794 5.534345754065371 14.115627518860625 8.84227701364833 4 8 -7
141 1 1 0.5897 7.730427160865907 16.267932236105025 10.824366475669356 0 -1 1
22 1 2 -1.1794 6.798874294326375 11.826822153035478 9.015488062230565 -4 2 1
791 1 1 0.5897 8.038093180995132 12.404238051436183 12.64752457897418 3 4 -1
585 1 1 0.5897 7.921098079325669 15.306129407200261 16.08635720735547 4 -6 3
583 1 2 -1.1794 7.540895660163871 14.522013002613544 15.690416490941749 4 -6 3
348 1 1 0.5897 6.29295537389569 13.522419616379763 11.821307106159521 -5 3 -5
206 1 1 0.5897 8.389974211303272 12.98970111695165 16.293932354604582 -4 1 -5
346 1 2 -1.1794 5.918944418320345 14.373110482940426 11.591961601637939 -5 3 -5
790 1 2 -1.1794 7.1190320508452265 12.137129458221965 12.635731348339133 3 4 -1
333 1 1 0.5897 5.491739629697344 11.92674033341354 15.604581586721078 0 -5 -3
584 1 1 0.5897 6.931119157833979 14.856740089908257 15.032913434580653 4 -6 3
805 1 2 -1.1794 5.850226906760841 15.812036815623989 14.068011881248681 -2 -3 -5
347 1 1 0.5897 6.663414964953265 14.885395378545644 11.276527723347309 -5 3 -5
806 1 1 0.5897 6.051387281420244 15.498389484394137 13.186355176370265 -2 -3 -5
807 1 1 0.5897 4.912219409766571 15.65199630539836 14.171457027739322 -2 -3 -5
139 1 2 -1.1794 8.316077222968953 15.748701270336314 11.375417630729073 0 -1 1
504 1 1 0.5897 7.557416441009938 15.98804895400802 20.14855435293766 -5 1 4
221 1 1 0.5897 5.766281682570457 12.748414406306692 20.42048498818196 2 -2 2
222 1 1 0.5897 5.8662491252004365 12.26932533312145 18.98792472630379 2 -2 2
220 1 2 -1.1794 5.688989413846358 11.963887847880704 19.877588462087694 2 -2 2
678 1 1 0.5897 5.374798574725265 15.046954925600993 21.64029012181956 4 0 -4
205 1 2 -1.1794 8.971793947762727 12.240332551374431 16.42079230747159 -4 1 -5
403 1 2 -1.1794 5.860797956532624 13.11634190168416 17.242814398913026 5 0 -1
676 1 2 -1.1794 4.965050556382809 14.461732075292336 21.00327320050114 4 0 -4
502 1 2 -1.1794 8.318596287977886 15.487226136778185 20.441727462424787 -5 1 4
405 1 1 0.5897 5.284088481941299 13.806497257703514 17.570304558979842 5 0 -1
480 1 1 0.5897 7.386695607811892 16.807993323621254 18.072993090093334 -3 3 -5
404 1 1 0.5897 6.4629342048530045 13.567447749375836 16.651118512819124 5 0 -1
298 1 2 -1.1794 8.588291427059497 16.771881892479733 16.683388142583446 -5 0 3
425 1 1 0.5897 8.447173517598578 13.923724939780985 21.259558378668522 5 -5 1
503 1 1 0.5897 8.691060100601554 16.010206785225506 21.151629250743568 -5 1 4
819 1 1 0.5897 4.814326473616773 15.2032598384077 19.107361334660006 3 -5 -1
479 1 1 0.5897 5.906454120942253 16.70764923334309 18.37397621621217 -3 3 -5
839 1 1 0.5897 6.471638199175871 17.559027995368815 0.8574687556686971 -3 -5 -3
169 1 2 -1.1794 6.7275984557387085 21.46325558902634 4.545942214716411 -3 4 -4
20 1 1 0.5897 8.599314192651963 17.69577606707942 1.2287811985227384 -6 -4 -3