LAMMPS data file via write_data, version 30 Jul 2021, timestep = 34250000

972 atoms
2 atom types
648 bonds
1 bond types
324 angles
1 angle types

0.24955869254369745 19.75044230744347 xlo xhi
0.15822404834583814 19.841776951655532 ylo yhi
0.1360972154072897 20.563900784605394 zlo zhi

Masses

1 1.008
2 15.999

Pair Coeffs # lj/cut/tip4p/long/omp

1 0 0
2 0.21084 3.1668

Bond Coeffs # harmonic/omp

1 450 0.9572

Angle Coeffs # harmonic/omp

1 55 104.52

Atoms # full

4 2 2 -1.1794 4.309497615082081 1.2264795256062513 3.3331455724132018 0 0 0
5 2 1 0.5897 4.362748245362092 0.6078599885377569 2.604601444813514 0 0 0
17 6 1 0.5897 4.838593862223107 4.354946615548406 2.974914901095636 0 0 0
10 4 2 -1.1794 1.6887395764821127 4.405566910459331 3.8941482279848834 0 0 0
11 4 1 0.5897 1.3907827675941056 3.707523424366736 3.3108338428212054 0 0 0
12 4 1 0.5897 2.6357634972043216 4.280439052733746 3.9538563028236355 0 0 0
16 6 2 -1.1794 4.446892350173416 3.9127877678351837 3.7281146443701574 0 0 0
18 6 1 0.5897 4.415131779447967 2.9901336804707705 3.4750261389113795 0 0 0
23 8 1 0.5897 2.765255761520291 1.116068697133917 4.377152034038193 0 0 0
31 11 2 -1.1794 1.3090385637493622 2.312853251112093 2.1155572010718715 0 0 0
33 11 1 0.5897 2.0042224997360476 2.6148700491516417 1.531027709551114 0 0 0
6 2 1 0.5897 4.950040983858451 0.9054528222004395 3.9678346708476924 0 0 0
236 79 1 0.5897 1.2700223250346077 0.4747031309785525 2.114176861694312 0 1 0
3 1 1 0.5897 4.03346586998771 2.6954695858603577 0.37279735814435744 0 0 0
22 8 2 -1.1794 2.2671948881806916 1.090465584515154 5.194128410839265 0 0 0
32 11 1 0.5897 0.5143157036430241 2.352314625243602 1.5835961359901152 0 0 0
81 27 1 0.5897 0.3714663868682066 4.392125907788576 5.225865532124586 1 0 0
1 1 2 -1.1794 3.0922441591598777 2.8261032152324854 0.2582662120292295 0 0 0
2 1 1 0.5897 2.9936183132338363 3.770998659754911 0.1407570420844948 0 0 0
356 119 1 0.5897 1.9765838812389065 2.64038697022231 8.62183089356027 0 0 0
27 9 1 0.5897 2.849422048855608 4.726858493814599 6.646397500106995 0 0 0
325 109 2 -1.1794 2.9960624212314397 2.9556892437610744 7.032099621782529 0 0 0
326 109 1 0.5897 2.848784460333601 2.323731194289391 6.328366883725147 0 0 0
327 109 1 0.5897 3.853807210506885 2.7233321690161514 7.387615252371346 0 0 0
342 114 1 0.5897 4.568456859474159 4.46507164056793 9.902470221442824 0 0 0
355 119 2 -1.1794 1.271007500773541 2.4603089940527116 9.243025688237543 0 0 0
561 187 1 0.5897 1.379132788057685 0.6403981711965875 8.840348022631511 0 1 0
102 34 1 0.5897 0.4027151953578238 1.0661888640240647 5.365680153217737 1 0 0
330 110 1 0.5897 4.268359359928782 0.4184205151602958 9.459972231272317 0 0 0
24 8 1 0.5897 2.6626643537466657 0.3763953454857499 5.694091512289571 0 0 0
328 110 2 -1.1794 4.187524359981566 1.2149678086432185 9.984674394831519 0 0 0
357 119 1 0.5897 0.4743502555077032 2.729358624686384 8.78578938070583 0 0 0
683 228 1 0.5897 4.4936960373371 2.8895026024438755 14.355265912092463 0 0 0
329 110 1 0.5897 4.867556036590336 1.1320414697974386 10.653132837008584 0 0 0
346 116 2 -1.1794 1.974663629947492 1.0713081613778845 11.78005335218783 0 0 0
347 116 1 0.5897 1.0665870138850995 0.9225637257352554 11.516686572745204 0 0 0
348 116 1 0.5897 2.46840835898625 1.0523695511722662 10.960262829358586 0 0 0
336 112 1 0.5897 2.690484337762205 4.335151846884702 11.01538051010206 0 0 0
649 217 2 -1.1794 2.7844440534663315 2.965253661381751 13.568665843264617 0 0 0
650 217 1 0.5897 2.514859126473475 2.360623902014256 12.877267290768735 0 0 0
651 217 1 0.5897 2.119082548098838 2.863682116818599 14.249210282823228 0 0 0
350 117 1 0.5897 2.7518514919242416 4.932594932158772 13.294323014960195 0 0 0
334 112 2 -1.1794 1.75596302813787 4.479335058412786 10.867205560047601 0 0 0
340 114 2 -1.1794 4.478507957172961 3.95540314545607 10.70770905252272 0 0 0
405 135 1 0.5897 0.38945914284888594 4.582117769661846 12.220483271778514 1 0 0
335 112 1 0.5897 1.467076621731238 3.704376206069224 10.38522761669918 0 0 0
341 114 1 0.5897 4.442109052078306 3.0453521918162254 10.413012719564628 0 0 0
652 218 2 -1.1794 4.37497326302823 1.4716317039332614 17.37165542499036 0 0 0
653 218 1 0.5897 3.505937456480047 1.3341707022852352 17.74846898686068 0 0 0
659 220 1 0.5897 0.8908449151002743 4.659909662527166 18.170109536094113 0 0 0
658 220 2 -1.1794 1.5397066781638495 4.522199368971921 17.480049020636393 0 0 0
654 218 1 0.5897 4.4090837379418355 0.8756910404087923 16.62333696745816 0 0 0
664 222 2 -1.1794 4.354812014916977 4.2539196340867464 17.304783321230047 0 0 0
665 222 1 0.5897 3.419558125082105 4.45438550966193 17.270570142359198 0 0 0
666 222 1 0.5897 4.400789128331573 3.303907638578791 17.196420591650696 0 0 0
670 224 2 -1.1794 1.974596239732488 1.322982777023846 18.526059777990557 0 0 0
671 224 1 0.5897 2.3165258166426277 1.9022064916452306 19.207125452085602 0 0 0
672 224 1 0.5897 1.0355209563173429 1.2719116120687204 18.703764454272033 0 0 0
681 227 1 0.5897 1.0411225888064428 3.0128214002341447 16.322396602527128 0 0 0
679 227 2 -1.1794 0.9325282968296484 2.3998373815825924 15.595250756163072 0 0 0
884 295 1 0.5897 1.079865725594591 0.6376481851410378 15.631194219653027 0 1 0
110 37 1 0.5897 2.2110974034981203 9.429003721035011 1.1611265918363851 0 0 0
141 47 1 0.5897 1.3557529180191525 8.181307915120284 2.575980348092751 0 0 0
139 47 2 -1.1794 0.9960801989310435 9.036296595476047 2.33942340682462 0 0 0
114 38 1 0.5897 3.3312629153661173 7.779986476200621 4.07827849973793 0 0 0
20 7 1 0.5897 1.4620034896731204 5.749042930166583 2.76631178802163 0 0 0
14 5 1 0.5897 4.6259031686385095 5.804914455523383 1.0620866325095264 0 0 0
13 5 2 -1.1794 5.108429864295326 5.719450751576132 1.884315695646531 0 0 0
19 7 2 -1.1794 1.420901994235811 6.407163484703397 2.0724270875685944 0 0 0
15 5 1 0.5897 4.733579950836726 6.3915468701038245 2.4535612279216203 0 0 0
112 38 2 -1.1794 4.162611279879618 7.68446881219008 3.6136895376959415 0 0 0
140 47 1 0.5897 1.1456894624837677 9.581687883192036 3.1117246012423356 0 0 0
126 42 1 0.5897 4.524259452503932 9.616596748473055 3.592457953056854 0 0 0
113 38 1 0.5897 4.7977877480587585 7.476347036749113 4.298825663055683 0 0 0
674 225 1 0.5897 2.461941992054783 5.964339160027125 0.6882667335123482 0 0 1
111 37 1 0.5897 3.5752050715336616 9.164785466786785 0.5603040419644186 0 0 0
130 44 2 -1.1794 1.8435097376553167 7.719758438120027 5.050953776133063 0 0 0
21 7 1 0.5897 0.5158925426905431 6.373202105921453 1.7627925601435415 0 0 0
109 37 2 -1.1794 2.691326531026603 9.453622744000324 0.3334995896845059 0 0 0
132 44 1 0.5897 0.8957962725389511 7.599458789350459 4.992476803045933 0 0 0
438 146 1 0.5897 4.075949212322916 8.794111251461462 9.929388510172927 0 0 0
464 155 1 0.5897 1.5750409772265084 8.963421837205152 8.614244597413983 0 0 0
344 115 1 0.5897 1.3280843489176872 5.749681382726596 9.674208521755608 0 0 0
437 146 1 0.5897 4.193848372889777 7.36984248319653 9.429628662237196 0 0 0
468 156 1 0.5897 4.5007137289139765 9.30237060830272 7.172932093562685 0 0 0
435 145 1 0.5897 2.462366148541562 8.92666761731874 6.359457701230523 0 0 0
433 145 2 -1.1794 2.7346223207010474 9.470063403213572 7.098960408440572 0 0 0
463 155 2 -1.1794 0.8981184112398772 8.819011311824934 9.275358904008888 0 0 0
345 115 1 0.5897 0.8790239947690279 7.080022902618512 9.107933860888267 0 0 0
339 113 1 0.5897 4.181530530271402 5.834711804703041 7.800416934623721 0 0 0
343 115 2 -1.1794 0.9904038839388155 6.157755409750554 8.876903917510388 0 0 0
25 9 2 -1.1794 2.7167812792392443 5.671263825648904 6.729309272448366 0 0 0
26 9 1 0.5897 2.008890183479262 5.759048666896648 7.367534699048197 0 0 0
436 146 2 -1.1794 3.9028076788132107 7.88684788334033 10.180797091914826 0 0 0
337 113 2 -1.1794 4.7509687231785085 5.835698353029053 8.56977715840381 0 0 0
131 44 1 0.5897 2.1497466411695454 6.968975726146479 5.559711399250424 0 0 0
757 253 2 -1.1794 2.6313676204793874 9.356470296021843 14.08691477873774 0 0 0
668 223 1 0.5897 1.2493867295820116 5.916013417503941 14.639092215411711 0 0 0
351 117 1 0.5897 3.5280975462430493 5.878547287770446 14.185708597494862 0 0 0
759 253 1 0.5897 2.4686604277343682 8.9004568679558 13.261180701367342 0 0 0
349 117 2 -1.1794 2.745784942445525 5.826521659829215 13.636699593725968 0 0 0
454 152 2 -1.1794 1.9056979335547317 7.769096314126502 11.984709845654034 0 0 0
455 152 1 0.5897 2.4915296314313484 7.692488471296922 11.231643997294546 0 0 0
456 152 1 0.5897 2.0631658172213676 6.9735234254590175 12.493206875804175 0 0 0
792 264 1 0.5897 4.519978549870803 9.150788567093793 14.287807492712167 0 0 0
789 263 1 0.5897 1.4424151634974798 8.94774024648024 15.355868400999874 0 0 0
661 221 2 -1.1794 4.966471844287581 5.9167117700782255 15.106478439323855 0 0 0
667 223 2 -1.1794 0.6381755609738947 5.978372640782133 15.373059795906926 0 0 0
787 263 2 -1.1794 0.8404209793013145 8.690415557910866 16.054108542945055 0 0 0
660 220 1 0.5897 1.2560499536853271 5.093581518972706 16.766369474245437 0 0 0
669 223 1 0.5897 0.7500797861406594 6.869760510219944 15.703531303226125 0 0 0
779 260 1 0.5897 2.334841905508328 8.295312640021239 19.260127642742102 0 0 0
780 260 1 0.5897 2.7985331229071924 7.617287396281187 17.988430544817163 0 0 0
675 225 1 0.5897 2.766446389736236 6.156584614047001 19.645619331057123 0 0 0
760 254 2 -1.1794 4.261638915971352 7.781011119284781 17.057101580224913 0 0 0
761 254 1 0.5897 4.343841532945207 8.729543605065576 16.957667307148768 0 0 0
778 260 2 -1.1794 2.1083291876682617 7.592389273855164 18.651113170117377 0 0 0
788 263 1 0.5897 1.0162492383160733 9.30939986781219 16.76279303818714 0 0 0
673 225 2 -1.1794 2.9840301651376304 5.606385716833877 20.398091807122672 0 0 0
762 254 1 0.5897 4.925530382353979 7.549339817717815 17.706500008937475 0 0 0
858 286 1 0.5897 0.3483334139897086 7.506190346785381 18.70052464612355 1 0 0
663 221 1 0.5897 4.755591848224371 6.732449364196676 15.560822009283104 0 0 0
662 221 1 0.5897 4.889379374994909 5.240278584934467 15.779378229477812 0 0 0
124 42 2 -1.1794 4.5346008802281235 10.568190056431224 3.6961081761871646 0 0 0
118 40 2 -1.1794 1.75693764560125 11.147124177166862 3.973186262308651 0 0 0
119 40 1 0.5897 2.7017494951805467 10.997381274449758 3.9417803126124706 0 0 0
120 40 1 0.5897 1.601180470410372 11.834291345880812 3.3252270834810975 0 0 0
123 41 1 0.5897 4.316189096125686 12.11734736523324 1.051460375279525 0 0 0
220 74 2 -1.1794 3.9630952500880974 14.169748015010589 3.3632736551475193 0 0 0
222 74 1 0.5897 4.282619502186044 13.64167197489168 2.6316382361812787 0 0 0
240 80 1 0.5897 2.56349785286024 14.219194700736447 4.381715543547697 0 0 0
122 41 1 0.5897 4.945634866705272 11.74912239266259 2.3781421649262486 0 0 0
129 43 1 0.5897 1.1872290892188049 13.59947655958387 1.9598614764102806 0 0 0
127 43 2 -1.1794 1.1043319539423337 12.647818868551402 1.8978479914676563 0 0 0
783 261 1 0.5897 2.3245024464553774 12.41937324191991 0.7306786753590446 0 0 1
121 41 2 -1.1794 5.026309247974885 12.360004382188233 1.645603626893611 0 0 0
246 82 1 0.5897 5.092959944652156 13.926241831987497 4.662056484001306 0 0 0
125 42 1 0.5897 5.049462542908832 10.717649918644183 4.4890641200898465 0 0 0
238 80 2 -1.1794 1.8046336062967419 14.154245621729839 4.961406702710706 0 0 0
188 63 1 0.5897 0.3781920465205358 11.177789706578967 5.221887261236448 1 0 0
133 45 2 -1.1794 2.6216963424641238 12.161066534828509 6.658839692070051 0 0 0
134 45 1 0.5897 1.8958857931846171 12.164929077646175 7.282803220298848 0 0 0
135 45 1 0.5897 3.4076324717914 12.172516043363657 7.205000917627521 0 0 0
453 151 1 0.5897 1.3084901482807638 12.064694058109987 9.546696947498106 0 0 0
446 149 1 0.5897 4.422022826119533 13.114030365991441 8.887026845295024 0 0 0
434 145 1 0.5897 2.6306627082149143 10.369168187653726 6.78728753764354 0 0 0
544 182 2 -1.1794 4.049641006327478 14.197972536112763 10.206730286064525 0 0 0
451 151 2 -1.1794 1.0527677796506005 12.585785600434132 8.785550654983359 0 0 0
450 150 1 0.5897 4.510518840654034 11.189542806842283 9.46658671776643 0 0 0
239 80 1 0.5897 1.9492625970441604 13.347981247695024 5.456720045521431 0 0 0
573 191 1 0.5897 0.675139073283991 14.29566047551173 9.173926624386121 0 0 0
445 149 2 -1.1794 4.7766488876791975 12.501784166021974 8.242301301465963 0 0 0
448 150 2 -1.1794 4.3134337967478515 10.509000873445208 10.110231388920358 0 0 0
769 257 2 -1.1794 4.94627136145511 12.460236188555784 15.081477985972302 0 0 0
444 148 1 0.5897 2.5301393081719885 11.175588239149947 11.06045740499073 0 0 0
457 153 2 -1.1794 2.817280233076966 12.04002037730741 13.369735378452322 0 0 0
458 153 1 0.5897 2.178344993790483 12.076156534554146 14.081509025143458 0 0 0
459 153 1 0.5897 3.661111015321359 12.18604108298863 13.797209356942528 0 0 0
564 188 1 0.5897 2.1177890162131003 14.777281313798523 12.283471506161638 0 0 0
442 148 2 -1.1794 1.5899795447389675 11.086998598307606 10.904470380550409 0 0 0
562 188 2 -1.1794 1.8341219942422933 14.041740718643378 11.74049622713839 0 0 0
563 188 1 0.5897 2.124105483594537 13.26467313159713 12.218396697439282 0 0 0
758 253 1 0.5897 2.708764678382447 10.278315584259827 13.840847643608413 0 0 0
545 182 1 0.5897 3.2504309241318246 14.105019314575525 10.725140018117827 0 0 0
546 182 1 0.5897 4.7585724908517 14.021173876288579 10.825046797394357 0 0 0
449 150 1 0.5897 4.849545471892399 10.735016398048481 10.87028796742013 0 0 0
775 259 2 -1.1794 1.0972249203203532 12.470183874814392 15.404441107507951 0 0 0
443 148 1 0.5897 1.476182856621076 10.175382743817451 10.635456808786506 0 0 0
766 256 2 -1.1794 1.6585679894603131 10.890825412496525 17.54916202515956 0 0 0
781 261 2 -1.1794 2.8822723708050297 12.29945754038829 20.389920469308738 0 0 0
768 256 1 0.5897 1.345388646177647 11.516667704343416 16.896078684546755 0 0 0
772 258 2 -1.1794 4.380337512966483 10.569333427241999 16.92781427586062 0 0 0
773 258 1 0.5897 3.4289042414245317 10.619132272911793 17.01928213660879 0 0 0
774 258 1 0.5897 4.583145681859045 11.161745618974471 16.203793485037917 0 0 0
782 261 1 0.5897 2.9062766634426236 11.35186583116473 20.256292936501897 0 0 0
868 290 2 -1.1794 4.134801147818381 14.485630282875409 16.81671484391208 0 0 0
869 290 1 0.5897 3.344983975657571 14.273485926644724 17.314025948469666 0 0 0
886 296 2 -1.1794 2.1603201939695493 14.133302375227691 18.603424207593335 0 0 0
888 296 1 0.5897 2.386802152809205 13.355130868753605 19.11281502130039 0 0 0
767 256 1 0.5897 1.1625962929275104 11.10118546591502 18.34034194526165 0 0 0
965 322 1 0.5897 0.32489942639073394 14.020285864917211 18.88754257065533 1 0 0
777 259 1 0.5897 1.2446577907402638 13.391430842344578 15.618763390862258 0 0 0
870 290 1 0.5897 4.855987061153523 14.26113845714759 17.40463200677223 0 0 0
771 257 1 0.5897 4.705371364626903 13.206896180343971 15.629910353810544 0 0 0
887 296 1 0.5897 2.4549440134921254 14.867323022817992 19.14260234519449 0 0 0
230 77 1 0.5897 4.375118837804953 18.788591188678403 0.8015670871917925 0 0 0
248 83 1 0.5897 1.3725203315145236 15.923914691856886 2.865910383615422 0 0 0
234 78 1 0.5897 3.707645003295588 17.04066166573324 4.045124547498984 0 0 0
235 79 2 -1.1794 1.222447103940555 19.21169707527332 1.9794889524029298 0 0 0
226 76 2 -1.1794 1.7933103267490944 17.354832632440754 3.907672849351172 0 0 0
227 76 1 0.5897 1.6996452626387064 18.009586394993917 3.2157034903078383 0 0 0
249 83 1 0.5897 1.7673204813949326 15.646406471432103 1.4309798088378256 0 0 0
890 297 1 0.5897 2.2995997366575534 19.046003356994753 0.4488032275458569 0 0 1
247 83 2 -1.1794 1.1160043865236462 15.418714118431943 2.0943922941296207 0 0 0
232 78 2 -1.1794 4.606538775880418 16.95839926934387 3.72683926478013 0 0 0
228 76 1 0.5897 1.0344193541537245 17.494039471907456 4.474095911058785 0 0 0
233 78 1 0.5897 4.662225545882805 17.580641788982454 3.001590179447033 0 0 0
221 74 1 0.5897 4.243715082802376 15.061269080829264 3.1564484989612733 0 0 0
229 77 2 -1.1794 4.732684325963887 18.74146284869102 1.6881982595978466 0 0 0
219 73 1 0.5897 3.6561358432599147 16.04048882395019 0.30273865767035496 0 0 0
237 79 1 0.5897 0.28512723345338387 19.020417651191657 1.9491528428126237 0 0 0
576 192 1 0.5897 4.02196977990436 15.624945835956344 7.458945614527653 0 0 0
559 187 2 -1.1794 1.246153948203111 19.388144895205876 8.688855613290203 0 0 0
555 185 1 0.5897 4.332520254405646 18.5115670070561 7.944252194658843 0 0 0
241 81 2 -1.1794 2.995635662591324 18.62682720009625 6.757326052613083 0 0 0
242 81 1 0.5897 2.712901638559913 17.715728271955882 6.67787549618922 0 0 0
243 81 1 0.5897 2.4173592653991745 19.000520914051997 7.4222689371337145 0 0 0
541 181 2 -1.1794 2.180184096813286 15.842030244667054 7.100434002206019 0 0 0
543 181 1 0.5897 1.9790195266491653 15.24377324620092 6.380777216324801 0 0 0
558 186 1 0.5897 4.577131026786029 17.40873804136379 9.942680767025502 0 0 0
571 191 2 -1.1794 0.3856030533799534 15.207164096440623 9.214830785792355 0 0 0
572 191 1 0.5897 0.9112571032051741 15.594873973973078 9.91449400460098 0 0 0
542 181 1 0.5897 1.480156709759097 15.696064679718022 7.736682408129593 0 0 0
553 185 2 -1.1794 4.883743533760626 18.530653166013444 8.726540083510457 0 0 0
574 192 2 -1.1794 4.974835051542004 15.580730465572142 7.38040875440676 0 0 0
560 187 1 0.5897 0.2985951563124978 19.2927744682287 8.593413640653948 0 0 0
551 184 1 0.5897 1.5421398251273053 17.96979625119284 9.853248540968279 0 0 0
885 295 1 0.5897 1.5881141288464593 19.16543372853743 14.795758694664023 0 0 0
866 289 1 0.5897 3.75951534313407 15.829439862751649 13.745958831117555 0 0 0
879 293 1 0.5897 4.097381051467364 19.12211869819062 14.641233081325261 0 0 0
867 289 1 0.5897 2.364625045178357 15.70527757578959 14.320707099078072 0 0 0
552 184 1 0.5897 2.589498062797179 17.284569038216638 10.704893060841178 0 0 0
550 184 2 -1.1794 1.6429300903663109 17.38197900357794 10.601980444250119 0 0 0
565 189 2 -1.1794 2.7697379937278073 18.697158065137174 13.525246662844316 0 0 0
566 189 1 0.5897 2.649177664728311 17.772453326984014 13.309057872181015 0 0 0
567 189 1 0.5897 2.61283230808719 19.158706444711214 12.70146499800678 0 0 0
865 289 2 -1.1794 2.8348252724564595 15.909955788025773 13.512488363439449 0 0 0
556 186 2 -1.1794 4.333700585440909 16.915841336726857 10.726297383409658 0 0 0
557 186 1 0.5897 4.316246876424725 16.002643854720596 10.439712498838897 0 0 0
896 299 1 0.5897 0.3232031921662898 15.296475103321391 15.133923400231016 0 0 0
621 207 1 0.5897 0.46616421486673576 17.599836734047003 11.89747633991049 1 0 0
877 293 2 -1.1794 4.638316550269145 19.112548979951036 15.430839016840434 0 0 0
881 294 1 0.5897 3.130461886262142 17.346965818875532 17.347753245467622 0 0 0
897 299 1 0.5897 1.1365164175125857 15.902553589992419 16.257754917617074 0 0 0
878 293 1 0.5897 4.308926068601756 18.370868630301473 15.938491533480873 0 0 0
882 294 1 0.5897 4.08320232870599 16.209122909381698 17.048504850516682 0 0 0
880 294 2 -1.1794 4.053379610704202 17.156866512055068 17.17989732276865 0 0 0
874 292 2 -1.1794 1.3102463359917391 17.34225730057443 17.447950332923117 0 0 0
891 297 1 0.5897 2.555765086699939 19.601447449190182 19.49176827424536 0 0 0
876 292 1 0.5897 1.24306961367401 18.15007890548967 16.938795935729836 0 0 0
875 292 1 0.5897 0.8869613126587432 17.548010941401508 18.28142825188553 0 0 0
889 297 2 -1.1794 2.7916813869359736 18.878345987060868 20.072935983119965 0 0 0
218 73 1 0.5897 2.696700442121559 17.102570961049885 20.23727521908377 0 0 -1
895 299 2 -1.1794 1.1454153899002824 15.194867962883395 15.613248390618097 0 0 0
883 295 2 -1.1794 1.0196548852157006 19.370371964696837 15.538071076909317 0 0 0
873 291 1 0.5897 5.059487618548591 17.670544098233158 18.619746669733516 0 0 0
217 73 2 -1.1794 2.7606816850757996 16.164331012577236 20.416093522725138 0 0 -1
69 23 1 0.5897 6.826976407958058 2.1045838884434716 1.9189487128335134 0 0 0
37 13 2 -1.1794 9.238675060793504 2.4410074065289566 0.29513998340835335 0 0 0
68 23 1 0.5897 8.326199418585954 2.146384328540168 1.7138135285200575 0 0 0
67 23 2 -1.1794 7.657579544384985 2.0216289591275114 2.3872722625798297 0 0 0
46 16 2 -1.1794 8.338475278414908 4.052663457341223 4.063103313594802 0 0 0
47 16 1 0.5897 8.221866161572088 3.2725850956670035 3.5207023173762644 0 0 0
48 16 1 0.5897 7.559221941972184 4.077608760796068 4.618319919328633 0 0 0
41 14 1 0.5897 9.965883045219726 1.2094645414858463 3.945620222567287 0 0 0
273 91 1 0.5897 7.611867638177521 0.22342751219198742 1.946063752550758 0 1 0
9 3 1 0.5897 5.486182537895321 4.201290212259686 4.959110354736589 0 0 0
34 12 2 -1.1794 5.815232652074585 2.2621535945395204 0.5646409365650471 0 0 0
29 10 1 0.5897 7.034957579897404 0.6858497549474061 5.234710452623933 0 0 0
36 12 1 0.5897 6.0575641758039875 3.1233700993427145 0.22419171169785912 0 0 0
8 3 1 0.5897 5.898767357964414 3.541832686607809 6.2578998397645185 0 0 0
391 131 2 -1.1794 7.716938214934442 2.152184356743568 9.219114714771717 0 0 0
393 131 1 0.5897 7.794067138207554 1.215776319696516 9.035927118447356 0 0 0
28 10 2 -1.1794 6.104142910750278 0.504256853448146 5.36388111904735 0 0 0
361 121 2 -1.1794 9.075726041008965 2.9605594817306966 7.058832195289767 0 0 0
392 131 1 0.5897 8.12388046767474 2.5786324581168154 8.464944448970812 0 0 0
362 121 1 0.5897 9.048225090364223 3.8923157270730986 6.841005909209141 0 0 0
360 120 1 0.5897 5.809208499837517 1.5160297053150018 6.775161039176934 0 0 0
359 120 1 0.5897 6.266609741892206 2.1833596028404734 8.054771850208066 0 0 0
7 3 2 -1.1794 6.070160888166701 4.30781954794772 5.709979888523217 0 0 0
59 20 1 0.5897 8.950482034096947 1.6982739559667719 5.843427111484604 0 0 0
358 120 2 -1.1794 5.5858972465426575 2.221046570323261 7.382931453745901 0 0 0
60 20 1 0.5897 9.196335952528289 0.2052429918567792 5.792107130955548 0 0 0
363 121 1 0.5897 9.969502026777663 2.812559922172677 7.36760244633922 0 0 0
58 20 2 -1.1794 8.887123153374034 0.9401654610720127 5.262412154422736 0 0 0
352 118 2 -1.1794 5.625018564088289 1.0216502550502353 12.266224479585043 0 0 0
353 118 1 0.5897 6.5622062899160065 1.0749655482661675 12.079408713037735 0 0 0
684 228 1 0.5897 5.7951504518511365 3.559167490248366 13.968686808471753 0 0 0
370 124 2 -1.1794 8.177160179998396 4.309328537501225 10.738712672083897 0 0 0
372 124 1 0.5897 7.579902540757329 4.392742452180801 11.482011339971018 0 0 0
685 229 2 -1.1794 8.975563075287102 2.6928479441812936 13.917305888048745 0 0 0
382 128 2 -1.1794 8.34421678791132 0.9741654373674559 11.903442264927541 0 0 0
383 128 1 0.5897 8.603050500382562 1.6033819031901004 12.576780611655762 0 0 0
384 128 1 0.5897 8.98675702019218 1.0931654522248968 11.204049426397688 0 0 0
332 111 1 0.5897 5.628548758753794 4.355006386052412 12.011449156457024 0 0 0
686 229 1 0.5897 8.49268615518192 2.4118419330119027 14.694529119427534 0 0 0
386 129 1 0.5897 9.169287106872352 4.632198442116434 13.449168180087831 0 0 0
331 111 2 -1.1794 6.279855204557385 4.680722530888286 12.632625664636413 0 0 0
354 118 1 0.5897 5.4851759524982615 1.6509652626039728 12.973829443868057 0 0 0
687 229 1 0.5897 9.885556989402241 2.7509293707825417 14.20821251980801 0 0 0
682 228 2 -1.1794 5.442976168214138 2.8082536696782716 14.446607578984995 0 0 0
371 124 1 0.5897 7.992803481921257 3.4416597873516888 10.378844302126025 0 0 0
657 219 1 0.5897 6.9619764503602335 4.305732513774518 18.80383671604251 0 0 0
38 13 1 0.5897 9.039088672966317 1.9168194046838245 19.94727729241855 0 0 -1
696 232 1 0.5897 8.151504764367385 4.776217513866973 17.065163351767186 0 0 0
715 239 2 -1.1794 7.605116050912388 1.911490108959317 16.15467155619346 0 0 0
716 239 1 0.5897 7.5787798373844675 0.9586175730975276 16.066849588817334 0 0 0
676 226 2 -1.1794 6.4947115576316 0.636739764593004 18.92740595119253 0 0 0
694 232 2 -1.1794 8.354794941693644 4.098252470244862 17.70962375493155 0 0 0
695 232 1 0.5897 8.130904386806016 3.276599251148291 17.27248842796444 0 0 0
710 237 1 0.5897 9.4735965229885 4.222253774011495 20.2805394500564 0 0 0
706 236 2 -1.1794 9.156382501283254 0.5999706228207884 18.567865351978824 0 0 0
708 236 1 0.5897 8.200120388545201 0.6196495850504771 18.533026469714525 0 0 0
717 239 1 0.5897 6.76115351322059 2.2073726251144423 15.813643144278574 0 0 0
677 226 1 0.5897 5.783024401328232 0.94459258923931 18.366252942161065 0 0 0
655 219 2 -1.1794 6.238472634148143 4.433097687108828 19.41740321464173 0 0 0
656 219 1 0.5897 5.450629830951786 4.3046451517515845 18.88926859969365 0 0 0
35 12 1 0.5897 5.988483150074953 1.660367027098749 20.26847889195744 0 0 -1
143 48 1 0.5897 6.02672740067049 8.696545340988807 0.9712951789946759 0 0 0
176 59 1 0.5897 7.702548328757372 7.700892963614764 2.3926958995565974 0 0 0
57 19 1 0.5897 8.048623297702857 5.232642475073701 2.7373856520986943 0 0 0
711 237 1 0.5897 8.969873547592917 5.481618186875667 0.5253299581416131 0 0 1
175 59 2 -1.1794 7.502411292476388 8.592726525992061 2.1082282829140486 0 0 0
55 19 2 -1.1794 7.814346056491268 5.8778358337482945 2.0702046076017937 0 0 0
56 19 1 0.5897 6.903549961249403 5.678934777165302 1.853457874591086 0 0 0
177 59 1 0.5897 8.17182239477499 8.791807616451127 1.4537037550597534 0 0 0
166 56 2 -1.1794 8.56835645092819 7.346765951205924 4.759566476796906 0 0 0
142 48 2 -1.1794 5.379557951809335 8.693548444629029 0.2660959776836108 0 0 0
145 49 2 -1.1794 9.302816285398967 9.341586729520255 0.2163944767030994 0 0 0
155 52 1 0.5897 7.924451012514636 9.744273821463512 3.3178808108515856 0 0 0
138 46 1 0.5897 6.846768668213456 7.210724486203484 5.2279252321201035 0 0 0
467 156 1 0.5897 5.599310198704329 8.331827838969225 6.794821183965188 0 0 0
501 167 1 0.5897 6.544994782892364 8.920407876112755 8.616574716486479 0 0 0
380 127 1 0.5897 7.322723207630204 6.73881146765024 8.755718959762289 0 0 0
62 21 1 0.5897 8.570097760581332 5.5440215491338645 7.286566149843863 0 0 0
499 167 2 -1.1794 7.28943291431228 8.63126956488406 9.1441575632097 0 0 0
167 56 1 0.5897 8.803122363348212 6.572564692694888 5.271249440292487 0 0 0
466 156 2 -1.1794 5.422898997577438 9.102952730642276 7.333856852991659 0 0 0
136 46 2 -1.1794 5.9401618565076975 7.032501020691356 5.477708315971017 0 0 0
500 167 1 0.5897 7.381291789844784 9.304230719742481 9.818684776859431 0 0 0
470 157 1 0.5897 8.458181223199471 9.004044911536974 7.778527677956868 0 0 0
379 127 2 -1.1794 7.500371649302272 5.8177472218917226 8.564827584727613 0 0 0
469 157 2 -1.1794 8.825305782817978 9.124438653743011 6.902776857734892 0 0 0
61 21 2 -1.1794 9.316437625722427 5.578569648617554 6.688298964072152 0 0 0
338 113 1 0.5897 5.629277848832419 5.690207323479511 8.218354767022019 0 0 0
137 46 1 0.5897 5.895636459004895 6.079459327550028 5.555807275506073 0 0 0
381 127 1 0.5897 7.742367566176291 5.43976235801316 9.41027691635459 0 0 0
168 56 1 0.5897 8.607573618099917 8.069505142402107 5.386006505179912 0 0 0
471 157 1 0.5897 9.771847022496544 9.058145948626393 7.028220800140459 0 0 0
385 129 2 -1.1794 9.267020936768764 5.54193498142858 13.730580102163081 0 0 0
794 265 1 0.5897 8.950257636116211 8.708209526448078 13.03870553539286 0 0 0
387 129 1 0.5897 9.106778048203937 6.056461530704158 12.93946488541828 0 0 0
461 154 1 0.5897 5.605393612361067 7.951593473700067 12.671951733573215 0 0 0
705 235 1 0.5897 8.10815467227869 5.835523851242804 15.05307653238505 0 0 0
793 265 2 -1.1794 9.074530937355997 9.211295425470647 13.84352739094823 0 0 0
491 164 1 0.5897 9.17495049848391 7.35632435701139 10.914509159631944 0 0 0
790 264 2 -1.1794 5.42800878167066 9.099512012928322 13.989587845054318 0 0 0
460 154 2 -1.1794 5.874787419384298 7.303528208314502 12.021005042478397 0 0 0
490 164 2 -1.1794 8.792057719761203 7.381982669200451 11.791409205303113 0 0 0
492 164 1 0.5897 7.848117642554101 7.427481877682827 11.639804114275089 0 0 0
791 264 1 0.5897 5.937437109602602 8.980456607676336 14.791145694065476 0 0 0
333 111 1 0.5897 6.1536420675317745 5.629625554397875 12.637307388792028 0 0 0
824 275 1 0.5897 7.844641970258016 8.850527761072543 15.166793903438363 0 0 0
462 154 1 0.5897 5.276719900934894 7.438693723549748 11.286004474489387 0 0 0
814 272 2 -1.1794 9.033413238004952 7.439067894997769 18.826213088622485 0 0 0
786 262 1 0.5897 7.25233812993089 7.31512807144374 18.670432202553307 0 0 0
815 272 1 0.5897 9.342728824922492 6.613229942396492 19.198543341244665 0 0 0
825 275 1 0.5897 7.333186282993655 7.787499431874566 16.115692277094432 0 0 0
785 262 1 0.5897 6.27693078392801 6.176615065886659 18.880753104991147 0 0 0
703 235 2 -1.1794 7.597141574648479 5.972418430070627 15.85074727983735 0 0 0
816 272 1 0.5897 9.224722584251591 8.092397520576068 19.499154028534907 0 0 0
784 262 2 -1.1794 6.316675336216942 7.115762018501191 18.69978051025355 0 0 0
823 275 2 -1.1794 7.269440543372667 8.722612177152147 15.92107631111716 0 0 0
709 237 2 -1.1794 9.615355989006 5.168158197745669 20.319682010433176 0 0 0
144 48 1 0.5897 5.738661773183291 8.09257924988543 20.041093818308678 0 0 -1
804 268 1 0.5897 7.820736315433208 9.888010498650642 16.993271591672386 0 0 0
704 235 1 0.5897 6.686914133900286 5.976059419733454 15.554853008730433 0 0 0
154 52 2 -1.1794 8.207929276644272 10.447454039732044 3.9022440853961053 0 0 0
819 273 1 0.5897 8.822149532292125 12.2840491223961 0.4211770096842394 0 0 1
156 52 1 0.5897 9.159592191823739 10.472603307786711 3.8033564488736604 0 0 0
163 55 2 -1.1794 7.8217325823209345 12.49152965060539 1.8449908718757506 0 0 0
164 55 1 0.5897 6.874632700173163 12.404027693070923 1.7381296404828832 0 0 0
165 55 1 0.5897 8.049619334150762 11.839851240285173 2.508073753263513 0 0 0
276 92 1 0.5897 8.71557392748221 14.223786793557371 4.578395104842291 0 0 0
285 95 1 0.5897 7.883424772925876 14.368586020883104 2.367857122761736 0 0 0
275 92 1 0.5897 7.374849351532591 13.907429149422 5.206061514655957 0 0 0
447 149 1 0.5897 5.726158532214043 12.58570927585942 8.328676249174825 0 0 0
170 57 1 0.5897 8.78655171832424 12.68256307443915 6.275912066678715 0 0 0
171 57 1 0.5897 9.043804395576545 11.199430795514713 6.438191632529918 0 0 0