LAMMPS data file via write_data, version 30 Jul 2021, timestep = 1500000

972 atoms
2 atom types
648 bonds
1 bond types
324 angles
1 angle types

-0.06863257121132094 20.068633571211592 xlo xhi
-0.03588260281808786 20.03588360281821 ylo yhi
-0.1882349816699449 20.8882329816729 zlo zhi

Masses

1 1.008
2 15.999

Pair Coeffs # lj/cut/tip4p/long/omp

1 0 0
2 0.21084 3.1668

Bond Coeffs # harmonic/omp

1 450 0.9572

Angle Coeffs # harmonic/omp

1 55 104.52

Atoms # full

10 4 2 -1.1794 1.1639089876337512 4.066605059971394 4.129102629062275 0 0 0
11 4 1 0.5897 0.7919560640168569 3.343428037852397 3.6241527419051085 0 0 0
12 4 1 0.5897 2.0616706505343414 4.147463539340238 3.806975611927195 0 0 0
16 6 2 -1.1794 3.775415447755307 4.288323665193165 3.194152353437134 0 0 0
4 2 2 -1.1794 4.180129121616243 1.478987326600243 3.5069448555170237 0 0 0
33 11 1 0.5897 1.035385112693672 2.5727857416738704 1.519765575741195 0 0 0
31 11 2 -1.1794 0.5528327273762935 2.1319683781486343 2.2191315870856805 0 0 0
273 91 1 0.5897 7.708651563717182 0.5831817587625012 1.7210073150938332 0 1 0
34 12 2 -1.1794 4.939124112922749 2.547315725734321 0.727804788070929 0 0 0
18 6 1 0.5897 3.9424996591736514 3.362379250749881 3.017978664466422 0 0 0
17 6 1 0.5897 4.089845628268962 4.741981632166927 2.412080484549486 0 0 0
23 8 1 0.5897 2.9541613932233375 0.8207509442877805 4.581504432538416 0 0 0
36 12 1 0.5897 5.154763014006723 3.1563287161557976 0.02146419375791575 0 0 0
5 2 1 0.5897 4.548715257284415 0.9046881329990492 2.8356551365080795 0 0 0
236 79 1 0.5897 1.2468159011228648 0.21196994912405687 2.001682581847082 0 1 0
6 2 1 0.5897 4.750120396103109 1.3572503546121781 4.266278617132853 0 0 0
67 23 2 -1.1794 7.492343508627026 2.5518051847441217 2.0495932152285907 0 0 0
47 16 1 0.5897 7.63616459580926 3.960967626510618 3.0523546600245015 0 0 0
48 16 1 0.5897 6.9620272578518865 4.604856221679455 4.245242986264588 0 0 0
46 16 2 -1.1794 7.720660209985286 4.689336322384792 3.6676664134315335 0 0 0
68 23 1 0.5897 8.119986122713295 2.634520242267903 1.331592575057081 0 0 0
69 23 1 0.5897 6.635425297675475 2.5856744770921467 1.6243728414294942 0 0 0
9 3 1 0.5897 4.722450315400707 4.492113099093217 4.5548405403148395 0 0 0
53 18 1 0.5897 9.643288448430056 4.140500108407033 3.5156880470773655 0 0 0
58 20 2 -1.1794 8.764441163538644 0.9244301017082236 4.720280235379234 0 0 0
3 1 1 0.5897 3.070847595882381 2.9222020498174253 0.5628774120715403 0 0 0
1 1 2 -1.1794 2.194861454541936 3.0028686732685728 0.18545850879828013 0 0 0
35 12 1 0.5897 5.136807365994602 1.6826195950493859 0.3678800227433566 0 0 0
60 20 1 0.5897 8.965861138261987 0.05948306889404478 5.07752297083544 0 0 0
325 109 2 -1.1794 2.533405209613417 2.9008555073840445 6.8810207756496675 0 0 0
326 109 1 0.5897 2.3604493824769954 2.1632733999984595 6.295887988583931 0 0 0
327 109 1 0.5897 3.417712256864994 2.742745583197991 7.211553594748539 0 0 0
355 119 2 -1.1794 1.2699033090634306 2.028386871996125 9.126659988842496 0 0 0
356 119 1 0.5897 1.954715465336538 2.3193109301197277 8.5244543551985 0 0 0
561 187 1 0.5897 1.0425292468089913 0.2141541391438262 9.381142989551176 0 1 0
59 20 1 0.5897 8.967558535521157 1.5313564903959416 5.43210707892731 0 0 0
359 120 1 0.5897 5.842943318750185 2.6226096807514105 7.934328436097555 0 0 0
7 3 2 -1.1794 5.338056381295022 4.736905564247684 5.245783084009167 0 0 0
329 110 1 0.5897 4.502387818791396 0.6399175108560674 9.631547524932788 0 0 0
361 121 2 -1.1794 9.237309994404917 2.8489423659311672 6.647540670728341 0 0 0
391 131 2 -1.1794 7.330798945286025 2.492426001463219 8.83212969563251 0 0 0
392 131 1 0.5897 8.040394526861144 2.7457263781158825 8.241699539230689 0 0 0
358 120 2 -1.1794 5.160367310232942 2.524126266612941 7.270484469956808 0 0 0
360 120 1 0.5897 5.480869756828042 1.826845094359207 6.698305420839853 0 0 0
393 131 1 0.5897 7.408124607498306 1.5411809528344256 8.90607349781086 0 0 0
362 121 1 0.5897 9.113533528479817 3.7379910634404405 6.31499014422204 0 0 0
328 110 2 -1.1794 4.361960514353705 1.4400522458532352 10.137800435159695 0 0 0
8 3 1 0.5897 5.27445715128692 4.028144196645292 5.8860354853254835 0 0 0
27 9 1 0.5897 2.365121918566129 4.656219307687052 6.0712134492467955 0 0 0
357 119 1 0.5897 0.4524425535956921 2.1831220493018386 8.653295883569957 0 0 0
335 112 1 0.5897 1.2138624802872948 3.4480749020066073 10.116260861016107 0 0 0
102 34 1 0.5897 0.31781302581850174 0.6884480381760723 5.255914273229089 1 0 0
28 10 2 -1.1794 6.184583739610543 0.6567334060518134 5.35125349073258 0 0 0
341 114 1 0.5897 4.200907616490913 3.495520341847431 9.954264938390343 0 0 0
22 8 2 -1.1794 2.3450569992057124 0.7836930170904798 5.319011809044052 0 0 0
371 124 1 0.5897 7.569995673546193 3.543365064724818 10.195586863717653 0 0 0
29 10 1 0.5897 7.109043082346407 0.6831630923580907 5.10440747154144 0 0 0
348 116 1 0.5897 2.68198051717689 0.7576022954026986 10.984870128193249 0 0 0
346 116 2 -1.1794 2.221855256983829 0.6194437831543536 11.812814291121637 0 0 0
649 217 2 -1.1794 2.6912072894316386 2.9300120232039255 13.29419914536693 0 0 0
650 217 1 0.5897 2.5379449802374 2.1490001582304967 12.762367241816186 0 0 0
651 217 1 0.5897 2.2291904666727094 2.756318750891629 14.114332247482558 0 0 0
384 128 1 0.5897 9.232767355147741 0.992314879099941 11.46163549511495 0 0 0
405 135 1 0.5897 -0.06221759030488757 4.608773169871662 11.81133011994909 1 0 0
350 117 1 0.5897 2.5790950035072386 4.935230091365926 13.784026631468274 0 0 0
682 228 2 -1.1794 5.173847421700441 2.8355123239506588 14.378927595021938 0 0 0
683 228 1 0.5897 4.289393665546155 2.7563564175692328 14.021484543058838 0 0 0
332 111 1 0.5897 5.130694497147365 4.423896729492689 11.926653343929516 0 0 0
386 129 1 0.5897 9.485629626892843 4.535296040803051 14.098491747632956 0 0 0
354 118 1 0.5897 5.519465940033515 1.3381987805103313 13.317748534925693 0 0 0
684 228 1 0.5897 5.477503713014223 3.692838585205172 14.080414066984694 0 0 0
347 116 1 0.5897 1.2943285586344688 0.6875199159766326 11.586189524155959 0 0 0
370 124 2 -1.1794 7.803541068548316 4.240122373450386 10.809004949479926 0 0 0
352 118 2 -1.1794 5.662524844574684 0.7107450400943347 12.609173115959878 0 0 0
353 118 1 0.5897 6.589222201302844 0.8049466159903851 12.388625847639556 0 0 0
331 111 2 -1.1794 5.771282305576057 4.848576615277494 12.497242574436713 0 0 0
685 229 2 -1.1794 9.214948201064125 2.718139976666783 14.237310182969228 0 0 0
686 229 1 0.5897 8.507133470280463 2.5848366393655997 14.867805159572825 0 0 0
382 128 2 -1.1794 8.49909886015474 1.046040918281198 12.074120017222276 0 0 0
383 128 1 0.5897 8.77444537429364 1.6945475982007852 12.722147709277495 0 0 0
377 126 1 0.5897 9.577327479733878 3.7218616090771173 10.482549893971084 0 0 0
372 124 1 0.5897 7.009814823720098 4.381584882782075 11.324976821233264 0 0 0
680 227 1 0.5897 0.18128247849426835 2.4892537910081076 14.885888241687926 0 0 0
330 110 1 0.5897 4.771515588138767 1.2631793403709557 10.984675577349403 0 0 0
336 112 1 0.5897 2.2221049554689047 4.40041204773376 10.723347872922146 0 0 0
679 227 2 -1.1794 1.0088286357237004 2.321663822498274 15.336862949999562 0 0 0
884 295 1 0.5897 0.4765755524732149 0.36412711913312346 15.58883336413062 0 1 0
717 239 1 0.5897 6.364343740763858 2.1330234816812954 15.480474832450755 0 0 0
687 229 1 0.5897 9.881207814705554 2.077144351635833 14.485377822366306 0 0 0
334 112 2 -1.1794 1.2844726805711462 4.2907113275110325 10.564905277428045 0 0 0
340 114 2 -1.1794 4.03947522497649 4.32544400902215 10.403102196705929 0 0 0
653 218 1 0.5897 3.363648633343934 1.1025271966466637 18.00472479056586 0 0 0
656 219 1 0.5897 4.909391328424189 3.868873602966736 18.734603950558494 0 0 0
664 222 2 -1.1794 3.725745200733298 3.9157036522239577 17.284073731705917 0 0 0
665 222 1 0.5897 2.813827820506228 3.9146785153973833 17.575059969179378 0 0 0
671 224 1 0.5897 2.042408428896053 1.734868047519217 19.881085034953983 0 0 0
658 220 2 -1.1794 0.9503645616376095 4.093580516296862 17.688037405053613 0 0 0
666 222 1 0.5897 3.930779752364249 2.992825093554899 17.13390044717123 0 0 0
670 224 2 -1.1794 1.9555148375451887 1.0918654473152272 19.177330143441807 0 0 0
710 237 1 0.5897 9.374073727330547 4.357051292050897 20.63969619663134 0 0 0
652 218 2 -1.1794 4.159895750076862 1.2464411874312862 17.493284888755632 0 0 0
707 236 1 0.5897 8.696321538292157 0.11056757316982488 18.942857967394723 0 0 0
708 236 1 0.5897 7.49571500403331 1.000936430201451 18.70243144094382 0 0 0
681 227 1 0.5897 0.8939310358324944 2.7134002704457423 16.202684490773606 0 0 0
706 236 2 -1.1794 8.437719174018682 0.9410812199060858 18.543267526936383 0 0 0
655 219 2 -1.1794 5.508097213437794 4.030762649299648 19.46373951509296 0 0 0
715 239 2 -1.1794 7.1371900361023455 1.9135225938199327 16.000885287059965 0 0 0
676 226 2 -1.1794 5.87432007299173 0.7895764015911986 19.642657512585814 0 0 0
659 220 1 0.5897 0.5134366195278636 4.336224021831701 18.504432287384326 0 0 0
689 230 1 0.5897 9.949086729346542 0.9596072951700574 17.160523241027995 0 0 0
695 232 1 0.5897 7.679784630466707 3.1329925631072917 17.293476143910553 0 0 0
694 232 2 -1.1794 7.831329932501738 3.8012867808917647 17.9618554215959 0 0 0
716 239 1 0.5897 7.181661735479834 0.9577088946466572 15.97315217480419 0 0 0
38 13 1 0.5897 8.968894397743085 2.1026074435015647 20.04870351956265 0 0 -1
657 219 1 0.5897 6.3795592057952195 3.884341201764626 19.09575287233347 0 0 0
654 218 1 0.5897 4.234716871465832 0.46781491898367256 16.941502216994884 0 0 0
677 226 1 0.5897 5.373461580755695 1.060868842509792 18.8733538476785 0 0 0
672 224 1 0.5897 1.0160174253391072 1.0590507685620205 18.996858848228236 0 0 0
696 232 1 0.5897 7.7667173616865695 4.631634765483061 17.49002577296904 0 0 0
702 234 1 0.5897 9.661184792283846 3.7758462451307633 18.013531862221136 0 0 0
37 13 2 -1.1794 9.222822988861209 2.562821491427462 20.848720997207856 0 0 -1
660 220 1 0.5897 1.038533201633877 4.91758852241001 17.208971309611194 0 0 0
2 1 1 0.5897 2.198260245094341 3.855859065697954 20.827624733749946 0 0 -1
711 237 1 0.5897 8.657878897091955 5.522255617041362 0.21241629806689155 0 0 1
57 19 1 0.5897 7.330799834961325 5.790229883824633 2.3264283227127116 0 0 0
141 47 1 0.5897 1.1999611954850005 8.05425735891896 2.3458693560013217 0 0 0
110 37 1 0.5897 1.7518880139683681 9.143282314303116 0.5745512390696915 0 0 0
113 38 1 0.5897 4.334846318456374 7.601406973130232 3.5027680248208446 0 0 0
20 7 1 0.5897 0.7416938354051483 5.4437023647879395 2.726437615464448 0 0 0
149 50 1 0.5897 9.716574363352926 7.716085610515711 3.9132818417846895 0 0 0
166 56 2 -1.1794 8.275140385389411 7.623496100397741 4.99211141799859 0 0 0
112 38 2 -1.1794 3.5786158686280056 7.949121375877393 3.029995433169899 0 0 0
114 38 1 0.5897 2.9571508289331083 8.191622657557923 3.7164913646449746 0 0 0
139 47 2 -1.1794 0.8961023108626213 8.876348228584074 1.961071277004255 0 0 0
13 5 2 -1.1794 4.514837224372063 6.044380324859148 1.2051949659475414 0 0 0
15 5 1 0.5897 4.239380655404995 6.801369597688256 1.722299028745701 0 0 0
19 7 2 -1.1794 0.6788318891113936 5.848654171997934 1.8613612569086082 0 0 0
176 59 1 0.5897 7.429801427913127 8.167605111226772 1.7983160341809203 0 0 0
140 47 1 0.5897 1.0907360525589713 9.538343142192463 2.6245259269254344 0 0 0
143 48 1 0.5897 6.092109618192879 8.81441303302139 0.5420430166850966 0 0 0
674 225 1 0.5897 1.6431038866006467 5.812138838300347 0.35544693343666167 0 0 1
177 59 1 0.5897 8.160765366262325 9.289479135690094 1.09177571828802 0 0 0
142 48 2 -1.1794 5.278992158702711 8.893016727305845 0.0430796679013028 0 0 0
55 19 2 -1.1794 7.201652975344601 6.295119319641663 1.5234857683963237 0 0 0
175 59 2 -1.1794 7.561499624380613 9.115534012412807 1.8176431195695963 0 0 0
56 19 1 0.5897 6.317587823176415 6.066861179252698 1.2360388855546842 0 0 0
14 5 1 0.5897 3.7349082584675304 5.796187134035105 0.7088312137863236 0 0 0
126 42 1 0.5897 4.515135149805581 9.722206430073014 3.0177012303558914 0 0 0
138 46 1 0.5897 6.605606253258543 7.564530623103641 4.757579856627818 0 0 0
111 37 1 0.5897 3.1963480440497283 9.200987639284428 0.12482077861400898 0 0 0
136 46 2 -1.1794 5.67438894724575 7.364051322851637 4.852155937504115 0 0 0
109 37 2 -1.1794 2.3021245400995345 9.35708256701914 -0.17898914536124266 0 0 0
131 44 1 0.5897 2.2327879886373876 7.361375072464939 5.573851303757326 0 0 0
381 127 1 0.5897 7.219447108185095 5.520910772885153 9.082905879541874 0 0 0
463 155 2 -1.1794 0.409018791847523 8.958152372946593 9.014819573894751 0 0 0
468 156 1 0.5897 4.399784870560732 9.247857495073202 7.347821699847341 0 0 0
345 115 1 0.5897 0.6887653113299878 6.984777215649752 8.73541457362208 0 0 0
435 145 1 0.5897 2.1146258833122054 8.97504543121685 6.580106106333762 0 0 0
343 115 2 -1.1794 0.5892083540497794 6.09770055603388 8.389728111590513 0 0 0
433 145 2 -1.1794 2.533304278214474 9.448992040826061 7.29871174537886 0 0 0
339 113 1 0.5897 3.8710190182504434 5.7495515372910555 7.389112186152302 0 0 0
464 155 1 0.5897 1.1037525938491857 9.077277671854597 8.367178875417313 0 0 0
436 146 2 -1.1794 4.018098842938319 7.816714080288223 10.206861087944688 0 0 0
438 146 1 0.5897 4.019076547911976 8.719837728898641 9.889578519720152 0 0 0
167 56 1 0.5897 8.501163882108367 6.743582008234315 5.293759853056022 0 0 0
130 44 2 -1.1794 1.823927067868803 8.100020800468291 5.122761161349358 0 0 0
437 146 1 0.5897 4.138607478409006 7.28561884946895 9.419633664722083 0 0 0
500 167 1 0.5897 7.6212845696564235 9.199325611219463 9.588281180744149 0 0 0
338 113 1 0.5897 5.253629914329771 5.94178195566569 7.975208493763679 0 0 0
501 167 1 0.5897 6.846784461283509 8.998864303395274 8.302970297466482 0 0 0
337 113 2 -1.1794 4.328175137383038 5.900948255585276 8.216391494306002 0 0 0
469 157 2 -1.1794 9.150348463212243 9.338573246078615 6.897338341387864 0 0 0
470 157 1 0.5897 8.736203810975836 9.085480116094766 7.722371220126176 0 0 0
62 21 1 0.5897 8.407136176981924 5.599216672270139 7.096045186953032 0 0 0
344 115 1 0.5897 0.787876966082557 5.527090303387952 9.132176939740498 0 0 0
466 156 2 -1.1794 5.3351145418280534 9.076776429052918 7.237414247055649 0 0 0
467 156 1 0.5897 5.3775241668442195 8.404907849601118 6.556900339961423 0 0 0
499 167 2 -1.1794 7.509367264408474 8.589170396772383 8.859241968536267 0 0 0
380 127 1 0.5897 7.342088339667634 6.907007635373818 8.486401820869116 0 0 0
379 127 2 -1.1794 7.153755186833167 5.997378929326354 8.255274359879404 0 0 0
26 9 1 0.5897 1.809722374304628 5.6707992753773375 7.048079152543276 0 0 0
25 9 2 -1.1794 2.3374250596894734 5.595641413331804 6.252982383206662 0 0 0
168 56 1 0.5897 8.73945596814532 8.208971193024578 5.590383974670535 0 0 0
63 21 1 0.5897 9.902713389689996 5.730171487761957 6.9008196891027795 0 0 0
61 21 2 -1.1794 9.099809598365018 5.473078778043433 6.447522051115533 0 0 0
342 114 1 0.5897 4.06467921726948 4.983081266518696 9.7080085889032 0 0 0
137 46 1 0.5897 5.652819749109436 6.446354076700124 5.12362530543766 0 0 0
132 44 1 0.5897 0.8863983495018242 7.908711258416725 5.149976570968076 0 0 0
461 154 1 0.5897 6.016503527627312 7.9874222299731645 12.469377916229949 0 0 0
491 164 1 0.5897 9.494599537751176 7.1905124739767485 11.18852561309875 0 0 0
824 275 1 0.5897 8.281526328964809 8.550979217576126 15.258032096735608 0 0 0
456 152 1 0.5897 2.5093325378217126 7.0264327094106775 12.775652513894524 0 0 0
333 111 1 0.5897 5.630746801953432 5.785500942658024 12.360322057509222 0 0 0
668 223 1 0.5897 1.5076236055513117 6.45912557892602 15.245976049985153 0 0 0
455 152 1 0.5897 2.8972618517614186 7.761667105912072 11.510361454310134 0 0 0
759 253 1 0.5897 2.1426179369651326 8.871357419840775 13.629808593867736 0 0 0
454 152 2 -1.1794 2.247138448007786 7.755028691616646 12.212900918830902 0 0 0
349 117 2 -1.1794 2.6886705269131177 5.79287289309903 14.194766409327844 0 0 0
460 154 2 -1.1794 6.1941206097486745 7.474552991211079 11.680881449736182 0 0 0
792 264 1 0.5897 4.582180892479838 9.051425919283188 14.470027097335121 0 0 0
791 264 1 0.5897 6.0609693759480825 8.78530613504051 14.655489366572276 0 0 0
462 154 1 0.5897 5.447241350850677 7.648674419930374 11.108032665759094 0 0 0
793 265 2 -1.1794 9.090265008118596 9.295113828760208 13.801276158415998 0 0 0
757 253 2 -1.1794 1.9971966137685118 9.493023432160124 14.343035116051674 0 0 0
790 264 2 -1.1794 5.409450289849218 9.007872043238565 13.990443648760456 0 0 0
351 117 1 0.5897 3.5179968735467932 5.72793855990497 14.668367664198811 0 0 0
794 265 1 0.5897 9.076809323344607 8.84946808604379 12.95420666051138 0 0 0
387 129 1 0.5897 9.403350049186121 5.905468158583891 13.459784571632543 0 0 0
492 164 1 0.5897 8.142173783965653 7.135271405392348 11.866692576788346 0 0 0
490 164 2 -1.1794 9.081286429038252 7.087334243863242 12.04573366745228 0 0 0
705 235 1 0.5897 8.245977655651698 5.649920059102334 15.353232133398992 0 0 0
385 129 2 -1.1794 9.698245613253794 5.455946473567681 14.251791414478966 0 0 0
533 178 1 0.5897 0.3937964161536523 7.74014551791548 12.281389078626676 1 0 0
789 263 1 0.5897 0.7762364178730267 9.495486165838724 15.540289962514223 0 0 0
144 48 1 0.5897 5.291982949104425 8.146600252013785 20.52037031680389 0 0 -1
761 254 1 0.5897 4.194056292997188 8.937741221720483 17.039051740154846 0 0 0
787 263 2 -1.1794 0.21954760304871607 9.309964963426106 16.296581032331225 0 0 0
815 272 1 0.5897 9.012250741167739 6.670535457745339 19.532364884226148 0 0 0
823 275 2 -1.1794 7.5758657291228575 8.31749444899221 15.861218367043582 0 0 0
780 260 1 0.5897 2.847834063924468 7.7164542974573385 18.22475385332455 0 0 0
788 263 1 0.5897 0.43668532783057445 9.995556555673929 16.92834612685195 0 0 0
760 254 2 -1.1794 4.33795521432239 7.996426338439379 17.136395533286255 0 0 0
778 260 2 -1.1794 2.1028803473206006 7.490256896482103 18.781689602491483 0 0 0
779 260 1 0.5897 2.1786194558302805 8.077370362263029 19.533936380822105 0 0 0
814 272 2 -1.1794 8.564659538012808 7.186057718172593 18.861405922481232 0 0 0
663 221 1 0.5897 4.923692408223809 6.531053605087105 16.260804978618218 0 0 0
825 275 1 0.5897 7.751841037593149 7.40611968586224 16.095184246093524 0 0 0
762 254 1 0.5897 4.943895951144317 7.9212663808279045 17.87360617286584 0 0 0
703 235 2 -1.1794 7.764995853933363 5.736718878484229 16.17628786164279 0 0 0
145 49 2 -1.1794 9.382907253467945 9.209373988890391 20.634356065231337 0 0 -1
816 272 1 0.5897 8.62302317841836 8.08899927676037 19.17383536841829 0 0 0
785 262 1 0.5897 5.73379925586098 5.80553487586195 19.38447257284607 0 0 0
786 262 1 0.5897 6.795811234555402 6.8844271623328925 19.369180394703434 0 0 0
784 262 2 -1.1794 5.851965239204568 6.750049972912805 19.283188435244107 0 0 0
675 225 1 0.5897 2.0328613899211327 6.351261264820401 20.071953270579968 0 0 0
858 286 1 0.5897 0.10628352218302486 7.545306587528069 18.794145858095277 1 0 0
709 237 2 -1.1794 9.38166552801923 5.312445241305957 20.698629158757377 0 0 0
661 221 2 -1.1794 5.124732334833057 5.698665993111614 15.832985423275654 0 0 0
669 223 1 0.5897 0.6638493904327705 7.326431893200729 16.155840105555946 0 0 0
704 235 1 0.5897 6.843816504766162 5.674587073025377 15.923632273955624 0 0 0
673 225 2 -1.1794 2.2426066497087307 5.661005586236501 20.7011311548955 0 0 0
667 223 2 -1.1794 0.7815874733291697 6.420918172858812 15.868598146956868 0 0 0
804 268 1 0.5897 7.620476805643357 9.881344915118714 17.107259846069518 0 0 0
662 221 1 0.5897 4.869117905981912 5.03286030582782 16.471356676116756 0 0 0
120 40 1 0.5897 1.4962755218794412 11.886290598965052 3.0224244148301116 0 0 0
285 95 1 0.5897 8.255904422406857 14.95523410237833 2.043473515496582 0 0 0
238 80 2 -1.1794 1.772162569010707 14.310637015323671 4.710419526362582 0 0 0
240 80 1 0.5897 2.446767453556868 14.364801358437353 4.033457273683518 0 0 0
129 43 1 0.5897 1.052066149341101 14.152169589301074 1.8474760408751063 0 0 0
246 82 1 0.5897 5.611650579370983 14.281433630100674 4.31857276144155 0 0 0
123 41 1 0.5897 4.518078227290883 12.558005579792235 0.6703014402528759 0 0 0
118 40 2 -1.1794 1.5436112586725694 11.242522418152639 3.7292675144661116 0 0 0
127 43 2 -1.1794 1.034520273403456 13.204361665809811 1.7145725108016299 0 0 0
119 40 1 0.5897 2.479212460621501 11.069436534462506 3.833983530370885 0 0 0
165 55 1 0.5897 8.02254946312816 12.145350096791109 2.6757805414933475 0 0 0
122 41 1 0.5897 4.568962468608353 11.839123684324015 2.0016967644347563 0 0 0
222 74 1 0.5897 4.3412734925901235 14.212314625045895 2.345767949417226 0 0 0
819 273 1 0.5897 9.02070471887004 12.048662090415192 0.18354832384390435 0 0 1
276 92 1 0.5897 9.301322320920312 14.717458284337306 4.325384810047888 0 0 0
156 52 1 0.5897 9.325074330451855 10.732331939990276 3.7911895198549104 0 0 0
121 41 2 -1.1794 4.988555642821126 12.540749483148973 1.5037429905025155 0 0 0
125 42 1 0.5897 4.87331229331324 10.714068717504944 4.103985038756842 0 0 0
154 52 2 -1.1794 8.375553956644108 10.812948464496928 3.8817788628417045 0 0 0
164 55 1 0.5897 6.834114028690592 12.622109983704188 1.8680861996974474 0 0 0
783 261 1 0.5897 2.0036061294009504 12.384347776286203 0.2875011121024181 0 0 1
163 55 2 -1.1794 7.790420651525309 12.581684924745419 1.85601898818321 0 0 0
124 42 2 -1.1794 4.234173159735189 10.548509948177909 3.4108932135709216 0 0 0
155 52 1 0.5897 8.02058761465786 10.162369196419965 3.275945599663421 0 0 0
220 74 2 -1.1794 4.047856551884881 14.687359929464298 3.1232630711573535 0 0 0
128 43 1 0.5897 0.1111819121208168 12.9997927623311 1.5666523674048278 0 0 0
244 82 2 -1.1794 6.09272878451099 13.942363219191748 5.073489119549406 0 0 0
116 39 1 0.5897 6.909199434584725 10.94282338381886 5.031193460310104 0 0 0
317 106 1 0.5897 -0.059466898072212615 14.10798385071358 4.898367870126489 1 0 0
275 92 1 0.5897 7.986386254522257 14.346527150825978 4.977610702251451 0 0 0
188 63 1 0.5897 0.05736499577289364 11.153223056173498 5.033827772980613 1 0 0
133 45 2 -1.1794 1.960737834167964 12.300297941856577 6.563989856805864 0 0 0
134 45 1 0.5897 1.3122302814462854 12.527160398317962 7.23052789511677 0 0 0
135 45 1 0.5897 2.7970986640744333 12.575970590116238 6.93923408987121 0 0 0
115 39 2 -1.1794 6.04574406252677 11.103943358915119 5.411690360599449 0 0 0
170 57 1 0.5897 9.117544757039179 12.759563998431023 5.896647518516015 0 0 0
453 151 1 0.5897 0.47816886346627163 12.29170248015738 9.373792221008827 0 0 0
445 149 2 -1.1794 4.659117620584149 12.604621423624494 8.224605492999215 0 0 0
446 149 1 0.5897 4.364722791708965 13.247776790801513 8.869580403460194 0 0 0
117 39 1 0.5897 5.916069839534918 10.382086934409177 6.026854727950123 0 0 0
448 150 2 -1.1794 3.907897229019781 10.776432667413307 10.085425570477273 0 0 0
447 149 1 0.5897 5.60774860240981 12.56108547957393 8.344801141274713 0 0 0
450 150 1 0.5897 4.08833207276878 11.479169616261485 9.460995948666678 0 0 0
274 92 2 -1.1794 8.916796048751227 14.469343907891199 5.166141868789105 0 0 0
451 151 2 -1.1794 0.43423056900665047 12.971193833144914 8.700980578749464 0 0 0
487 163 2 -1.1794 7.762957224236523 12.480873453396592 8.811015074348967 0 0 0
489 163 1 0.5897 7.905596786027181 13.402426249077543 9.027105505751875 0 0 0
488 163 1 0.5897 8.357797156196296 12.310793081675662 8.080586798773878 0 0 0
169 57 2 -1.1794 9.289585491632359 12.125772558571356 6.593085706671851 0 0 0
573 191 1 0.5897 0.42472879518109663 14.87253972178391 9.531924912004095 0 0 0
171 57 1 0.5897 9.113402979462995 11.27466617907875 6.191956266145418 0 0 0
434 145 1 0.5897 2.293499796488531 10.364411734686833 7.154388068253619 0 0 0
245 82 1 0.5897 5.8681199948238465 13.012322149678912 5.1032310086108215 0 0 0
480 160 1 0.5897 7.775970656977593 11.358768741129321 10.134297501340791 0 0 0
443 148 1 0.5897 0.7840864937987625 10.344590938940367 10.092914407754668 0 0 0
575 192 1 0.5897 5.551727654670915 14.857027266664721 6.414456406777446 0 0 0
239 80 1 0.5897 1.9360465618360916 13.47422845856859 5.146176377287494 0 0 0
544 182 2 -1.1794 3.6600274805340596 14.29680833670996 10.29921285009108 0 0 0
457 153 2 -1.1794 1.9165636350154927 12.296503936504886 13.576379556471016 0 0 0
458 153 1 0.5897 1.2016594480088072 12.485345118700982 14.18428447197418 0 0 0
459 153 1 0.5897 2.6923868894410865 12.669578655886909 13.994929333295326 0 0 0
562 188 2 -1.1794 1.360534688675283 14.448234080490867 11.946908831784073 0 0 0
563 188 1 0.5897 1.4762506734952694 13.587868563383186 12.350273708183035 0 0 0
479 160 1 0.5897 8.637623390334474 10.49159787247558 11.027408166006955 0 0 0
441 147 1 0.5897 5.429211400779594 10.3704985970192 12.931021937500041 0 0 0
478 160 2 -1.1794 7.725696923120463 10.7149922824559 10.840934721880084 0 0 0
493 165 2 -1.1794 8.812704962349494 12.032530555350272 13.504602560345019 0 0 0
770 257 1 0.5897 5.232642419518103 12.66618171110332 15.120501798814589 0 0 0
600 200 1 0.5897 9.085630298206924 14.84246925130653 12.3975413728372 0 0 0
494 165 1 0.5897 8.25951878336633 12.37588532487376 14.206314893754922 0 0 0
599 200 1 0.5897 8.909823995227887 13.344585662719734 12.265055984928209 0 0 0
442 148 2 -1.1794 1.0934188457105045 11.14260489110462 10.521633606916023 0 0 0
439 147 2 -1.1794 5.505870084903964 11.10780640904204 12.32536767163129 0 0 0
495 165 1 0.5897 9.64185354786157 11.82177584099898 13.933978068635577 0 0 0
569 190 1 0.5897 6.0041935606639925 12.872850804615993 12.24903472219368 0 0 0
598 200 2 -1.1794 8.826945694615258 14.162767372027574 11.775133175504937 0 0 0
570 190 1 0.5897 6.9833840352967105 13.963824558765543 11.870867016847445 0 0 0
449 150 1 0.5897 4.431262534037839 10.99924915031349 10.855311753124822 0 0 0
546 182 1 0.5897 4.377784439249839 14.193203062115325 10.924020978642643 0 0 0
568 190 2 -1.1794 6.075057271962473 13.820859441677992 12.136940458613998 0 0 0
440 147 1 0.5897 6.321238429263779 10.945029826670037 11.851104323935463 0 0 0
769 257 2 -1.1794 4.286420586850616 12.805604127701653 15.15949617145444 0 0 0
545 182 1 0.5897 2.8670822823433673 14.227393844933161 10.830923982156028 0 0 0
444 148 1 0.5897 2.0469603674098265 11.099617263987344 10.449482420607943 0 0 0
758 253 1 0.5897 2.026210378525358 10.35227907359869 13.92213232651771 0 0 0
811 271 2 -1.1794 6.969425776379122 12.626482313499356 15.48541218334604 0 0 0
795 265 1 0.5897 8.722707656351506 10.160798066844318 13.622898581282417 0 0 0
886 296 2 -1.1794 2.089024412098968 14.26739164781518 19.247373162027635 0 0 0
766 256 2 -1.1794 1.2346629351970568 11.341318156453042 18.035951481042325 0 0 0
768 256 1 0.5897 0.7578728669823847 11.829267503798023 17.36448605450685 0 0 0
773 258 1 0.5897 2.9604533112323947 10.769633736060193 17.298091859302026 0 0 0
771 257 1 0.5897 4.161091537703179 13.394688852878813 15.90350759336481 0 0 0
888 296 1 0.5897 2.2817580570292257 13.373895076304512 19.53168846933606 0 0 0
765 255 1 0.5897 5.317268764836629 10.44681108271294 19.904703687521092 0 0 0
810 270 1 0.5897 9.727505528831037 10.240898552063399 17.55111510442952 0 0 0
774 258 1 0.5897 3.997000911735001 11.392751320278053 16.3873900622528 0 0 0
870 290 1 0.5897 4.995023260991431 14.149878030047761 18.020157747269792 0 0 0
767 256 1 0.5897 0.6695362563175998 11.380149155665928 18.80759079040648 0 0 0
772 258 2 -1.1794 3.8850862297886244 10.71697072590717 17.05605611284836 0 0 0
812 271 1 0.5897 7.169201378572535 13.49905875663507 15.82448994478593 0 0 0
924 308 1 0.5897 9.270388116556504 14.127751286508582 18.48482580671265 0 0 0
965 322 1 0.5897 0.2883462486732226 14.080553944180648 19.24958851551346 1 0 0
764 255 1 0.5897 4.7346518528879615 11.018785255846899 18.62977337170478 0 0 0
894 298 1 0.5897 5.822993591936961 12.758578310253407 19.586974151009507 0 0 0
813 271 1 0.5897 7.255262573169059 12.029118869515635 16.17661600928337 0 0 0
869 290 1 0.5897 3.484198518954524 14.123229608992327 17.927361629083784 0 0 0
922 308 2 -1.1794 8.570918039641604 14.315186096403828 19.110847629874918 0 0 0
803 268 1 0.5897 7.039548359689767 10.755870970509731 18.19802451679422 0 0 0
763 255 2 -1.1794 5.452304648044981 11.134426256253859 19.252589566819886 0 0 0
893 298 1 0.5897 6.814538420586445 13.891665256346569 19.745140229843663 0 0 0
802 268 2 -1.1794 7.8084340298404085 10.656411708394904 17.636633179489245 0 0 0
892 298 2 -1.1794 5.8760220004685895 13.70574824986773 19.71493778975919 0 0 0
818 273 1 0.5897 9.437537567484991 12.336738680811898 19.833374629176745 0 0 0
868 290 2 -1.1794 4.269349864855379 14.348952434522978 17.428521211284256 0 0 0
817 273 2 -1.1794 9.731859188112107 11.905233920410073 20.635547979091932 0 0 0
923 308 1 0.5897 8.928028368350844 15.004968196925487 19.670298006200404 0 0 0
146 49 1 0.5897 9.523954803522608 10.154886833387998 20.585168755827212 0 0 -1
775 259 2 -1.1794 0.24223576338861463 12.611122707913674 15.713635619475205 0 0 0
782 261 1 0.5897 2.6222749706636157 11.167360884739047 20.709540309092688 0 0 0
887 296 1 0.5897 2.322981040810924 14.813760189551475 19.997740956469976 0 0 0
781 261 2 -1.1794 2.664765300571816 12.123569213158044 20.722753860401095 0 0 0
777 259 1 0.5897 0.41973319877847093 13.4565494995175 16.12603581496529 0 0 0
248 83 1 0.5897 1.1578294138092196 16.470897104379908 2.8615319561299626 0 0 0
249 83 1 0.5897 1.4309782577216985 16.10546610822797 1.4179546230694449 0 0 0
231 77 1 0.5897 5.523647751304174 19.303687746435905 1.2777705206959304 0 0 0
233 78 1 0.5897 4.383013864459031 17.946067165935368 2.789981773631684 0 0 0
230 77 1 0.5897 4.103215131324616 19.06115675089387 0.8134667572251069 0 0 0
227 76 1 0.5897 1.5973689795572723 18.398476548275585 3.390248714128468 0 0 0
232 78 2 -1.1794 4.398552013824727 17.425595520019275 3.5931898939338516 0 0 0
263 88 1 0.5897 7.424418756872434 17.92041829241727 4.205075041886341 0 0 0
927 309 1 0.5897 8.526197916702934 19.300351346361676 -0.08986832043118578 0 0 1
234 78 1 0.5897 3.532600740607938 17.555278201253923 3.9799915370885106 0 0 0
264 88 1 0.5897 8.825620529373666 17.858917265512847 3.635138642493215 0 0 0
226 76 2 -1.1794 1.7108363613749349 17.741817532894764 4.077435530590203 0 0 0