LAMMPS data file via write_data, version 30 Jul 2021, timestep = 7500000

1008 atoms
2 atom types
672 bonds
1 bond types
336 angles
1 angle types

-3.186887902631913 14.79688690218736 xlo xhi
-0.197413273351982 22.77741227335367 ylo yhi
-0.14679240442665176 19.37679040443261 zlo zhi
-0.1114737021198683 -6.6107783435023295 0.08934462284704005 xy xz yz

Masses

1 1.008
2 15.999

Pair Coeffs # lj/cut/tip4p/long/omp

1 0 0
2 0.21084 3.1668

Bond Coeffs # harmonic/omp

1 450 0.9572

Angle Coeffs # harmonic/omp

1 55 104.52

Atoms # full

122 41 1 0.5897 -2.1587232352193446 1.923310039322177 1.7358622108958348 1 0 0
158 53 1 0.5897 -3.8686699248242493 4.079276953718226 4.1278064951103195 1 0 0
56 19 1 0.5897 -1.2789718260002092 3.3419931194666606 3.2419564588194323 0 0 0
55 19 2 -1.1794 -0.6081362346400452 3.8887726270008134 3.650940434174729 0 0 0
123 41 1 0.5897 -3.216501340341328 2.605124314063704 2.57719144586905 1 0 0
86 29 1 0.5897 -2.106383423706835 1.2974274178972027 4.134789245680117 1 0 0
121 41 2 -1.1794 -2.3053438452420534 2.3128878262283243 2.5978677129420995 1 0 0
8 3 1 0.5897 -0.8904010620025709 5.513173628764274 4.372686080717741 0 0 0
482 161 1 0.5897 -0.7021759961545491 -0.0488502432546859 1.0122002688877199 1 1 0
57 19 1 0.5897 0.0021616497865304396 4.090518473962259 2.941601021041739 0 0 0
165 55 1 0.5897 -2.6153372253685454 0.4906524209464418 -0.03418190366951418 1 0 0
163 55 2 -1.1794 -1.9944956177750937 1.1670801816184087 0.2364757044741802 1 0 0
19 7 2 -1.1794 1.1177238582080369 2.5270769338260433 -0.024931853266501824 0 0 0
602 201 1 0.5897 -0.29321524232486285 5.208313680336826 0.37733079273487014 1 0 1
157 53 2 -1.1794 -3.5227459139278947 4.772994283679639 4.689433492854737 1 0 0
134 45 1 0.5897 -2.5207586352674056 2.2820715958143394 6.370758199338403 1 0 0
159 53 1 0.5897 -3.1032243414005944 4.308644657606287 5.413815610544855 1 0 0
87 29 1 0.5897 -3.2264667261886597 0.8518254805560566 5.050657212348509 1 0 0
67 23 2 -1.1794 -2.532757467417098 0.40935650805978374 8.280065021917578 0 0 0
69 23 1 0.5897 -2.732344304375543 1.2528230239099367 8.686156305086456 0 0 0
124 42 2 -1.1794 -5.309571743590146 2.9128921299697113 7.618951234162585 1 0 0
133 45 2 -1.1794 -2.718764282531527 3.170540725846071 6.666712648106558 1 0 0
126 42 1 0.5897 -4.401267588324695 2.9833614034969895 7.3254603792656825 1 0 0
135 45 1 0.5897 -1.8636477548302048 3.556671798774038 6.8560899927209205 1 0 0
669 223 1 0.5897 -5.7149737968345695 1.7869887438163279 8.877594767496339 1 0 0
98 33 1 0.5897 -3.732329058595829 5.185531885343418 8.408767261845458 1 0 0
68 23 1 0.5897 -3.347922985039045 0.15108440750996338 7.849929552313969 0 0 0
85 29 2 -1.1794 -2.272763861213984 0.9095140139971285 4.994031783368187 1 0 0
667 223 2 -1.1794 -5.742839101241726 1.1428879825029579 9.585240673191196 1 0 0
97 33 2 -1.1794 -3.617110250325375 4.737120233385567 9.246693278866728 1 0 0
524 175 1 0.5897 -2.6778198210203463 3.2055724652841633 9.634104433940214 0 0 0
559 187 2 -1.1794 -4.327264486115327 4.137363566491777 13.228710227631485 0 0 0
625 209 2 -1.1794 -5.812552175235366 2.2737790471613426 12.015645585470052 1 0 0
523 175 2 -1.1794 -2.3115374155957524 2.462364500286055 10.113418580161396 0 0 0
668 223 1 0.5897 -5.824085957884854 1.6658564553282142 10.38290778740359 1 0 0
560 187 1 0.5897 -3.920114583319826 3.52734037247491 13.843821430740823 0 0 0
626 209 1 0.5897 -5.696052591755729 1.5573425154628633 12.63972247604409 1 0 0
561 187 1 0.5897 -4.861068118757409 3.583395578700301 12.65906102822448 0 0 0
627 209 1 0.5897 -6.655316953871811 2.6618891001369187 12.250579491764217 1 0 0
662 221 1 0.5897 -7.641986983487599 4.453224543010604 14.393677489602432 1 0 0
99 33 1 0.5897 -3.8534305338733494 5.391757784393618 9.903861189399365 1 0 0
986 329 1 0.5897 -4.37649589945951 -0.1369954195195859 10.359165965618507 1 1 0
593 198 1 0.5897 -7.64307210784877 0.7828363716350522 14.364089245533718 1 0 0
589 197 2 -1.1794 -5.679761165894876 0.9036096479787656 14.4308356262731 1 0 0
606 202 1 0.5897 -5.723764487995557 4.764973583887773 9.746565841425408 1 0 0
629 210 1 0.5897 -8.717907526706671 3.065803198923124 17.02161058510509 1 0 0
628 210 2 -1.1794 -8.249822684664107 2.2418474119876066 17.15638689559944 1 0 0
637 213 2 -1.1794 -5.834217795385104 3.2029146052823583 16.206701540758328 1 0 0
590 197 1 0.5897 -5.492452570158665 1.5717695783643575 15.0902548259782 1 0 0
639 213 1 0.5897 -6.176533026739673 3.966847858667589 15.74247607309989 1 0 0
164 55 1 0.5897 -8.468143435432314 1.7847794561124735 18.973621355661855 1 0 -1
638 213 1 0.5897 -6.596609052567949 2.8287019878552586 16.648227181341802 1 0 0
661 221 2 -1.1794 -7.2338373711775255 5.205417553989303 14.82252455842864 1 0 0
571 191 2 -1.1794 -5.899818096095245 0.2569414000678245 18.381957059396587 0 0 0
20 7 1 0.5897 -5.634358381106526 1.8206473656933881 18.985750289229372 0 0 -1
630 210 1 0.5897 -8.535934042436935 1.682430420164051 16.43418600487368 1 0 0
591 197 1 0.5897 -5.2079756884116035 0.12808566930456033 14.734380997399764 1 0 0
603 201 1 0.5897 -6.556549974547281 3.985032463459441 19.231495921592607 1 0 0
101 34 1 0.5897 -9.073694237507166 4.776935889450181 19.364169704265823 1 0 -1
601 201 2 -1.1794 -7.120593147871627 4.753345068131821 19.14382771398589 1 0 0
255 85 1 0.5897 -1.9855222628241658 8.90502982117366 3.9732596258527515 1 0 0
146 49 1 0.5897 -1.4425471928518143 6.529640604792841 1.9702697293631601 1 0 0
331 111 2 -1.1794 -1.8684180127486854 8.77114310902475 -0.10281938933727935 1 0 0
289 97 2 -1.1794 -2.3913549293257947 9.902034996353226 2.4264307335801116 1 0 0
145 49 2 -1.1794 -0.6563936175828289 6.817931254292325 1.5065206177451353 1 0 0
291 97 1 0.5897 -3.2675769182858576 10.259510270195868 2.2832287902759183 1 0 0
147 49 1 0.5897 -0.95188305476958 7.549827538941065 0.9649143371213913 1 0 0
332 111 1 0.5897 -2.078702349017254 9.349702223637602 0.6302307225403889 1 0 0
112 38 2 -1.1794 -3.2527957048770637 6.2855289180642675 2.354950070361266 1 0 0
114 38 1 0.5897 -3.3584836167998118 5.685840249581197 1.6163300296567744 1 0 0
290 97 1 0.5897 -1.8813967056037026 10.641760615192968 2.7565930285012348 1 0 0
187 63 2 -1.1794 0.9188546205261465 10.567763889038057 0.603867077146334 0 0 0
113 38 1 0.5897 -3.262755233384791 5.719647536837743 3.1270308052051043 1 0 0
224 75 1 0.5897 -0.3539311492746533 10.972244775351069 3.574535561574045 0 0 0
237 79 1 0.5897 -2.3591878082261935 8.419324054986046 8.481263577728004 0 0 0
292 98 2 -1.1794 -4.971001564282295 9.94607243737012 7.430013661715683 1 0 0
257 86 1 0.5897 -4.007988080600411 8.745600486469435 4.827371225737365 1 0 0
294 98 1 0.5897 -5.051829049908261 9.66855339989862 8.342673164470241 1 0 0
111 37 1 0.5897 -5.074767774150171 6.475199255796008 7.183833962275411 1 0 0
236 79 1 0.5897 -2.5681528413865475 7.240691762712206 7.554319988902437 0 0 0
235 79 2 -1.1794 -1.8841891804551585 7.748201208032099 7.991232944701455 0 0 0
302 101 1 0.5897 -2.0731719061075866 9.899419737379805 6.180371125919217 1 0 0
293 98 1 0.5897 -4.034903389523011 10.105262695834227 7.309603631949854 1 0 0
301 101 2 -1.1794 -2.290173763801556 10.624555542425417 6.766337247163502 1 0 0
110 37 1 0.5897 -4.065036505256038 6.037200841007342 6.144411119683072 1 0 0
109 37 2 -1.1794 -4.169304275176438 6.181298345718499 7.085062632940248 1 0 0
303 101 1 0.5897 -1.4527448874712987 10.87893653192047 7.153923579030623 1 0 0
837 279 1 0.5897 -6.2420233109731456 8.269840558107516 9.316372188478043 1 0 0
7 3 2 -1.1794 -0.8404185266910389 6.233362556943103 5.001291267039714 0 0 0
253 85 2 -1.1794 -2.172506856256012 8.719846632866794 4.893710318610248 1 0 0
254 85 1 0.5897 -1.935062981399011 7.7994522914268964 5.006432783522787 1 0 0
616 206 2 -1.1794 -6.764610616588529 6.566387167732197 12.151639684583849 1 0 0
650 217 1 0.5897 -3.643659911000306 7.299875253868448 11.579297031114265 1 0 0
759 253 1 0.5897 -5.763349455095483 8.927577150075443 13.698670163015558 1 0 0
794 265 1 0.5897 -5.400306279818327 10.908781125184072 12.526987432387727 1 0 0
649 217 2 -1.1794 -4.130022545240353 6.739292469216316 10.974717323202377 1 0 0
618 206 1 0.5897 -6.96029780229093 5.758401211398909 11.677131960456798 1 0 0
651 217 1 0.5897 -5.02430823913243 6.7376038088271875 11.31585252094103 1 0 0
795 265 1 0.5897 -5.851369146439987 9.946131432063925 11.448984916066184 1 0 0
793 265 2 -1.1794 -5.958113518939051 10.14504143682698 12.37931156092847 1 0 0
663 221 1 0.5897 -6.8809254138501625 5.7293112327039015 14.103230431546141 1 0 0
836 279 1 0.5897 -5.114956613658781 8.107355664520947 10.31404513729742 1 0 0
693 231 1 0.5897 -2.598940419940494 9.576010842859924 10.689904549597946 0 0 0
691 231 2 -1.1794 -2.5734548196588674 10.043003757663026 9.854599082417252 0 0 0
750 250 1 0.5897 -3.6445506830523726 10.708186896576109 14.174286378380364 0 0 0
513 171 1 0.5897 -4.1601656776064075 5.676776433817928 14.143073895159176 0 0 0
757 253 2 -1.1794 -5.708840608844179 8.379010380083947 14.481312175201438 1 0 0
835 279 2 -1.1794 -5.719588347616751 8.7562311855104 9.954186670558894 1 0 0
805 269 2 -1.1794 -5.893160154534108 11.106035962901771 16.03817221119241 1 0 0
798 266 1 0.5897 -8.353683794151287 9.368162045660148 16.41352518590135 1 0 0
741 247 1 0.5897 -5.854963341827713 9.195232638116568 18.851335767128223 0 0 0
739 247 2 -1.1794 -5.612067720881814 8.453611799302262 18.29703539587992 0 0 0
796 266 2 -1.1794 -8.177754081008185 10.079957655668915 17.028939121881578 1 0 0
797 266 1 0.5897 -7.375972954687018 10.487542745429693 16.70154416487306 1 0 0
758 253 1 0.5897 -5.925614276984129 8.968736930136146 15.203482754008903 1 0 0
740 247 1 0.5897 -6.445777872444639 8.112709364922088 17.973200296187198 0 0 0
615 205 1 0.5897 -7.522010843834867 5.9455273751059226 16.38100495872588 1 0 0
333 111 1 0.5897 -8.406889909999764 9.445339557538164 18.666343142204042 1 0 -1
613 205 2 -1.1794 -7.637187188257142 6.503350101936802 17.15036954454518 1 0 0
614 205 1 0.5897 -7.432356296112838 5.934310400009942 17.892432878426483 1 0 0
512 171 1 0.5897 -4.376740824092259 7.1208084212859655 14.542612206078115 0 0 0
762 254 1 0.5897 -7.732272714214094 8.057026710912787 14.512137895969474 1 0 0
511 171 2 -1.1794 -3.8271466626571424 6.358971702247664 14.726171061470776 0 0 0
500 167 1 0.5897 -1.7791473546028782 15.91819957979778 0.459046159974844 1 0 0
225 75 1 0.5897 -0.8862098248729167 12.33935351494515 3.9479537102579823 0 0 0
314 105 1 0.5897 -1.4727215852967437 14.589608045388896 2.2088057320937797 1 0 0
499 167 2 -1.1794 -2.3452447769946896 16.66561513626516 0.26662349916077777 1 0 0
223 75 2 -1.1794 -0.6726090817847803 11.790419372303324 3.1933750720879153 0 0 0
282 94 1 0.5897 -3.1646852012207978 13.663285085414865 3.696166034921197 1 0 0
313 105 2 -1.1794 -0.8864746938716479 14.77865169342849 1.476075054222924 1 0 0
315 105 1 0.5897 -0.787809037584589 13.940138391410208 1.0250961704196075 1 0 0
280 94 2 -1.1794 -3.2550147833531167 14.227182211306866 2.927856571729735 1 0 0
270 90 1 0.5897 -2.3603549187311677 12.4390661181666 0.4320880559940009 1 0 0
423 141 1 0.5897 -2.2153921515486807 16.261365891853387 4.004267293980489 1 0 0
771 257 1 0.5897 -0.07567287782763454 11.848521096471604 -0.01902105900368678 1 0 1
268 90 2 -1.1794 -3.245385705371828 12.689303258672181 0.6970151101050557 1 0 0
281 94 1 0.5897 -3.374411151839032 13.62027546806436 2.1972564898409384 1 0 0
425 142 1 0.5897 -4.041959958519338 15.901454496270171 4.727696020521852 1 0 0
424 142 2 -1.1794 -4.967067459994293 15.947259369433676 4.96888749722124 1 0 0
403 135 2 -1.1794 -2.541483576466403 15.43216326044248 8.183892472698965 0 0 0
405 135 1 0.5897 -2.687900473513706 16.262064922948156 8.637780080463235 0 0 0
267 89 1 0.5897 -3.74630298464568 12.598192544139371 8.559129586841035 1 0 0
277 93 2 -1.1794 -4.628249123022822 13.958802560497457 7.261313196056909 1 0 0
278 93 1 0.5897 -3.9837641830884776 14.547231735195002 7.654547308470864 1 0 0
404 135 1 0.5897 -1.668093595954761 15.518372214859367 7.801935677862017 0 0 0
176 59 1 0.5897 -1.3112130057074813 14.38885368943792 5.169701554573655 0 0 0
327 109 1 0.5897 -3.9916932180437015 13.114046552777213 5.7646422192916384 1 0 0
326 109 1 0.5897 -3.16408888283567 11.866745724449213 5.538906398621684 1 0 0
279 93 1 0.5897 -5.4621167513863185 14.221511370554756 7.650875963763271 1 0 0
1004 335 1 0.5897 -5.063422975637376 16.990071497035196 8.99297507905276 1 0 0
421 141 2 -1.1794 -2.186071098481553 16.062936328499845 4.940357911095034 1 0 0
422 141 1 0.5897 -2.0398802911042084 16.91028654846677 5.360904929017731 1 0 0
265 89 2 -1.1794 -3.967849918388189 12.446198509565988 9.477978812943396 1 0 0
325 109 2 -1.1794 -3.689478742311681 12.520303877569221 5.077306261913087 1 0 0
175 59 2 -1.1794 -0.8834513071146572 13.535755366702894 5.243104541805362 0 0 0
729 243 1 0.5897 -4.359288446664168 12.964722988742526 13.683722649808079 0 0 0
819 273 1 0.5897 -3.8653372728971256 13.927382269653414 10.495323789428252 1 0 0
829 277 2 -1.1794 -7.117570560244753 12.956825135085296 14.263963153162727 1 0 0
831 277 1 0.5897 -7.735861621498988 12.371987639687092 13.825830435340738 1 0 0
818 273 1 0.5897 -4.754900156981064 14.563426009695993 11.542245994800899 1 0 0
1005 335 1 0.5897 -4.780476204698657 16.141293297006456 10.214412062840914 1 0 0
784 262 2 -1.1794 -6.582717699241458 14.592451051851574 12.104946969972366 1 0 0
786 262 1 0.5897 -6.724886807115114 14.070438497007526 12.894719287396212 1 0 0
817 273 2 -1.1794 -3.9842829585045756 14.731964861675149 11.000059951989117 1 0 0
773 258 1 0.5897 -6.852226609163952 13.218094127290714 10.762850111449948 1 0 0
1003 335 2 -1.1794 -5.457302801209243 16.68401716783083 9.810009928226604 1 0 0
727 243 2 -1.1794 -4.255450314997276 12.23027735593094 13.078654934492603 0 0 0
728 243 1 0.5897 -3.358881881778281 12.312003082900334 12.753703663948533 0 0 0
774 258 1 0.5897 -5.751073721808698 12.566696669802692 9.953631462526207 1 0 0
266 89 1 0.5897 -3.4039410505569077 11.719963101150014 9.743954963877213 1 0 0
907 303 2 -1.1794 -5.751789912828207 15.377116116516962 18.11311731520157 0 0 0
830 277 1 0.5897 -7.556782351623563 13.204626652769525 15.077617199955919 1 0 0
770 257 1 0.5897 -7.3343311090101455 12.634678322798594 18.326878204435513 1 0 0
782 261 1 0.5897 -8.355902862988696 14.165435713404188 17.27213321245743 1 0 0
783 261 1 0.5897 -6.879776695214334 14.493430925528433 17.200822214048383 1 0 0
781 261 2 -1.1794 -7.538079377929165 13.888273674285728 16.859258937088022 1 0 0
806 269 1 0.5897 -6.166323379398738 11.700367139350723 15.339214809074226 1 0 0
909 303 1 0.5897 -5.283710465127655 14.777838891372092 18.6945617147305 0 0 0
908 303 1 0.5897 -5.072868972443219 15.737524694414105 17.54265175688218 0 0 0
925 309 2 -1.1794 -5.898338086923539 16.206073348151342 14.95449068555076 1 0 0
807 269 1 0.5897 -5.127628002769267 11.528893249261005 16.42726677214306 1 0 0
926 309 1 0.5897 -5.015150789898302 15.838074670363982 14.92946292634765 1 0 0
822 274 1 0.5897 -9.522845319537328 15.420292359933452 18.797651404091624 1 0 0
930 310 1 0.5897 -7.891905210962918 15.9427057489037 15.142814550878569 1 0 0
356 119 1 0.5897 -5.5449572526565065 16.98491695662839 19.091003678063416 0 0 -1
769 257 2 -1.1794 -7.339323982028838 12.601998221802413 19.2836485731278 1 0 0
449 150 1 0.5897 -3.2125572685937795 20.98556717000062 2.0763295353073055 1 0 0
391 131 2 -1.1794 -0.699341505422244 19.324973768984727 3.4450264235341765 0 0 0
457 153 2 -1.1794 -2.673578794829144 17.631864788478914 2.696071501528447 1 0 0
495 165 1 0.5897 -3.5088072218349184 20.967411669410062 4.267117809811414 1 0 0
450 150 1 0.5897 -3.900848131128689 22.296148510030527 2.392992112456118 1 0 0
393 131 1 0.5897 -0.6884509446772888 20.195257208936923 3.8434589001905657 0 0 0
392 131 1 0.5897 -0.31969121216025 18.75152136261348 4.110895118098227 0 0 0
448 150 2 -1.1794 -3.1104578241066907 21.791045064973893 2.5833559466099785 1 0 0
481 161 2 -1.1794 -0.6131879440989225 22.207271432783514 1.6118938483139116 1 0 0
459 153 1 0.5897 -1.904350209454728 18.152786974565636 2.9266080267204417 1 0 0
938 313 1 0.5897 -0.5323143105385997 20.590872380428166 0.4737587744791568 1 0 1
483 161 1 0.5897 -1.414359048643273 22.089877990785475 2.1223359256822643 1 0 0
437 146 1 0.5897 -2.5960612304805393 19.799912342989728 0.03302879457603386 1 0 0
939 313 1 0.5897 0.10431352613346023 19.254427590064232 0.15700247016418073 1 0 1
436 146 2 -1.1794 -3.44910115696744 20.00649198169969 0.4148163966722973 1 0 0
458 153 1 0.5897 -2.5278631996014287 17.379008254090536 1.784341786754693 1 0 0
460 154 2 -1.1794 -4.87951186258408 17.71953436376728 7.210392353540179 1 0 0
494 165 1 0.5897 -4.173356585412849 21.081991580717926 5.622669165860138 1 0 0
471 157 1 0.5897 -3.060534335408431 18.25934476116437 7.070470579759376 1 0 0
470 157 1 0.5897 -2.7227206803225292 19.134720891711012 5.882193685507984 1 0 0
445 149 2 -1.1794 -4.683624562038496 21.74991299368051 7.1771872901443 1 0 0
446 149 1 0.5897 -4.342753146385201 20.982447696976408 7.636603922538963 1 0 0
435 145 1 0.5897 -5.019166302188685 19.710065935086213 9.488839777764172 1 0 0
469 157 2 -1.1794 -2.3218847111009833 18.587726127200042 6.5578243600234805 1 0 0
493 165 2 -1.1794 -3.907461898589684 20.442830507529948 4.96157583835868 1 0 0
447 149 1 0.5897 -5.575790449968032 21.85121374365265 7.508674287006133 1 0 0
461 154 1 0.5897 -5.497582952204004 18.41071235842628 6.972954977150265 1 0 0
433 145 2 -1.1794 -4.1439146058701715 20.053734547687633 9.30999675172645 1 0 0
345 115 1 0.5897 -1.112118036068091 22.522140708115785 4.965861773672214 0 0 0
462 154 1 0.5897 -4.964296394717643 17.071286225917206 6.511155679752143 1 0 0
343 115 2 -1.1794 -0.5318164780522778 21.761473226055763 4.938355534746476 0 0 0
859 287 2 -1.1794 -2.694070169180247 17.69743032297704 9.942290456359494 0 0 0
952 318 2 -1.1794 -6.638115480250009 21.77787202055682 12.26402604175737 1 0 0
961 321 2 -1.1794 -6.444220790152543 17.76624039713139 12.344887884859988 1 0 0
954 318 1 0.5897 -5.73683741053891 21.89939249754989 11.965600696259452 1 0 0
895 299 2 -1.1794 -4.3292902334510215 19.433835636957056 13.010372723071233 0 0 0
896 299 1 0.5897 -5.2098068476618185 19.070637924604753 12.915869228985757 0 0 0
998 333 1 0.5897 -7.142177779796274 21.12864797419452 13.827413892382221 1 0 0
897 299 1 0.5897 -3.8706044117313207 18.80820494622435 13.571169646046108 0 0 0
848 283 1 0.5897 -4.165724794656851 21.003207042971496 14.352185568609984 0 0 0
963 321 1 0.5897 -6.225356163479138 17.354798323840676 11.50872372284098 1 0 0
985 329 2 -1.1794 -4.258481738187861 22.24675358337651 11.07635818102143 1 0 0
434 145 1 0.5897 -4.005409476701901 20.71985522934203 9.983384775958065 1 0 0
860 287 1 0.5897 -3.140038284294983 18.535152635340047 9.817854944970781 0 0 0
953 318 1 0.5897 -7.1624942032268955 22.311250556844534 11.666724259796823 1 0 0
987 329 1 0.5897 -3.614800982047594 22.733054971214756 11.591592988887673 1 0 0
962 321 1 0.5897 -6.147507099435097 17.14024955997762 13.005543486526616 1 0 0
997 333 2 -1.1794 -7.427469432925033 20.76230388013048 14.664575674719266 1 0 0
847 283 2 -1.1794 -4.043656495779245 21.685950654059603 15.011961394206976 0 0 0
964 322 2 -1.1794 -8.400461377743131 17.90827556861479 17.41663792116149 1 0 0
974 325 1 0.5897 -6.544346758552882 18.581805997812125 16.523744317768283 1 0 0
973 325 2 -1.1794 -5.886683543609459 18.851321205599923 15.88253919803859 1 0 0
949 317 2 -1.1794 -7.878186186767135 21.56981291639739 17.245791372073164 1 0 0
950 317 1 0.5897 -7.65359964639746 21.292472973610067 16.357508289263524 1 0 0
951 317 1 0.5897 -7.586636483806908 20.848545956623205 17.8035436560595 1 0 0
975 325 1 0.5897 -5.225436676693601 19.314090978988318 16.397211171960542 1 0 0
999 333 1 0.5897 -6.777351304806995 20.089380703170463 14.86619927815564 1 0 0
501 167 1 0.5897 -8.591533180473313 17.132367931606673 18.98950143873829 1 0 -1
965 322 1 0.5897 -8.338692135964674 17.32999829595395 16.656303736501958 1 0 0
573 191 1 0.5897 -5.64545176161603 22.538849948719765 18.931806216209072 0 -1 0
572 191 1 0.5897 -6.756954899042324 22.821786514740744 17.94360259494988 0 -1 0
927 309 1 0.5897 -5.764651818357827 17.140091773636676 15.11564001464573 1 0 0
937 313 2 -1.1794 -7.109534643803505 19.997626160135198 19.327071754144 1 0 0
70 24 2 -1.1794 3.9157613323828713 0.517161807240437 1.488577643146166 0 0 0
528 176 1 0.5897 3.9962472803539324 1.9346799644729495 0.30386150046765514 0 0 1
54 18 1 0.5897 3.0648502844458507 3.7064559262659533 2.9254138089052097 0 0 0
32 11 1 0.5897 1.2018709520025634 1.4172399801921878 3.276385013013208 0 0 0
52 18 2 -1.1794 3.780338908256276 3.1953397581558267 3.303552500601853 0 0 0
48 16 1 0.5897 1.8714948161491831 5.528682442129276 3.0936309542204325 0 0 0
6 2 1 0.5897 3.5628086998148945 1.494719464452782 4.461551088860297 0 0 0
46 16 2 -1.1794 1.788926703457733 4.882377818018475 2.392323163757071 0 0 0
47 16 1 0.5897 1.7671907679134362 5.401766298191244 1.5884449448359896 0 0 0
31 11 2 -1.1794 1.4721735784235364 1.1310832584559765 2.4037738210087003 0 0 0
71 24 1 0.5897 3.140573128459258 0.7646603398519906 1.9925433090678348 0 0 0
78 26 1 0.5897 0.4930828775185425 2.8515031307674614 4.5400124294534345 0 0 0
53 18 1 0.5897 4.2934643284955785 3.8321663900587355 3.8009991449312865 0 0 0
33 11 1 0.5897 0.8926589334065778 0.3964980756372255 2.201846865232652 0 0 0
72 24 1 0.5897 4.483984333974331 0.07914618526269335 2.1222773171432467 0 0 0
21 7 1 0.5897 1.3111001928198878 2.2123734067246668 0.8582276885302516 0 0 0
5 2 1 0.5897 3.413190193550327 0.005320367511381374 4.68793166864185 0 0 0
44 15 1 0.5897 -0.4654739194337343 5.02076871355543 7.997160054587644 0 0 0
43 15 2 -1.1794 -0.45406962365497394 4.574992543597537 7.150066878027037 0 0 0
59 20 1 0.5897 1.9018745361592249 3.392529376341298 5.720583535139776 0 0 0
34 12 2 -1.1794 -0.04599312978531156 1.1161501106850653 7.028505771313733 0 0 0
35 12 1 0.5897 0.28744468791177136 1.7547747411313577 7.658843581009844 0 0 0
60 20 1 0.5897 2.8252419616588833 3.6104648895218476 6.900477577750698 0 0 0
58 20 2 -1.1794 2.1422969481658996 4.0388907749631695 6.384475210192746 0 0 0
45 15 1 0.5897 0.44401659950200445 4.257037349170352 7.0583551654385674 0 0 0
402 134 1 0.5897 2.457160203854725 0.2674947295517204 8.477111988239457 0 1 0
77 26 1 0.5897 0.6214529122882144 1.7143894972252893 5.531282569343594 0 0 0
36 12 1 0.5897 -0.9202186234913192 0.8957341870863043 7.349890447423386 0 0 0
522 174 1 0.5897 2.094820181392101 5.045743071061177 9.279742438332658 0 0 0
401 134 1 0.5897 1.3566193603267926 -0.020095022406719842 7.478021534111271 0 1 0
22 8 2 -1.1794 0.4256283384513839 2.5193188382519747 9.447649034816045 0 0 0
4 2 2 -1.1794 3.9771612580612272 0.7498876982083006 4.897206881643018 0 0 0
76 26 2 -1.1794 1.100364092086954 2.1767257006240452 4.84336866445611 0 0 0
557 186 1 0.5897 0.17513582886129697 2.2893633042509647 13.331350962335641 0 0 0
536 179 1 0.5897 -2.843807533688021 1.3460467357282664 13.453941965202599 0 0 0
551 184 1 0.5897 -1.5086067854196914 5.397333435590209 12.805100427711482 0 0 0
558 186 1 0.5897 -0.3202809702712326 3.603695913468182 12.766526157584932 0 0 0
550 184 2 -1.1794 -1.6598001314633697 4.687759194056589 12.180612680229887 0 0 0
556 186 2 -1.1794 0.42288702003443923 3.207394422294346 13.22133350463913 0 0 0
552 184 1 0.5897 -2.5816136900735707 4.457945728266845 12.29703120531726 0 0 0
574 192 2 -1.1794 0.3204617773033829 0.0637037089286897 11.286761787716397 0 0 0
576 192 1 0.5897 -0.24191190190173195 0.03779705163103053 12.060959629233006 0 0 0
535 179 2 -1.1794 -2.4910548854962977 0.9016882856571873 12.682944849445896 0 0 0
537 179 1 0.5897 -2.5195920224742823 1.5624748315984562 11.990880771088701 0 0 0
23 8 1 0.5897 0.4474438883750147 1.8319752448559954 10.113588269132146 0 0 0
587 196 1 0.5897 -1.3642678865158167 5.167426401475222 9.925195466761272 0 0 0
525 175 1 0.5897 -1.3695828123353984 2.5132041168898067 9.951429059973565 0 0 0
508 170 2 -1.1794 0.5508720513925605 0.6011828046450463 14.45903228489796 0 0 0
24 8 1 0.5897 1.1700095799328398 3.082507494048653 9.65960456766833 0 0 0
539 180 1 0.5897 -3.15304663128156 1.6127222160895227 17.891816073668995 0 0 0
581 194 1 0.5897 -3.1097372539743784 2.064045234167061 15.714038491077314 0 0 0
540 180 1 0.5897 -4.260758790785996 0.6742453340055674 17.462718980191497 0 0 0
564 188 1 0.5897 -1.9092379061261848 4.362594470565052 16.6294857815436 0 0 0
562 188 2 -1.1794 -1.1090974880761681 4.079507916123437 16.187105091331638 0 0 0
538 180 2 -1.1794 -3.4062082954325428 1.0101409585934384 17.192433155320813 0 0 0
547 183 2 -1.1794 -3.7213575926706435 4.969494568512379 17.038131839848578 0 0 0
582 194 1 0.5897 -2.13398849532177 3.0278850371734194 15.072991868224985 0 0 0
563 188 1 0.5897 -0.7790974524508112 4.869539227259991 15.759004629036234 0 0 0
548 183 1 0.5897 -3.790154028472454 5.5620059944068245 16.28938167936681 0 0 0
84 28 1 0.5897 -4.084068116742169 5.577733823311257 18.79938606877779 0 0 -1
580 194 2 -1.1794 -2.9375342932909483 2.5373985950555444 14.899953767212159 0 0 0
16 6 2 -1.1794 -1.0424981435586567 5.145309717512132 19.21873054406278 0 0 -1
549 183 1 0.5897 -4.220830443203564 4.195399780965927 16.7782316500186 0 0 0
510 170 1 0.5897 0.4775563351411858 0.9165838732025386 15.3599109905337 0 0 0
526 176 2 -1.1794 -2.7027666988484063 2.7290826538720783 19.185964337715614 0 0 0
527 176 1 0.5897 -3.6106973370618984 3.0194761743799368 19.271996901208922 0 0 0
18 6 1 0.5897 -1.5677386076980362 4.345163509158296 19.207780773249628 0 0 -1
245 82 1 0.5897 1.2688968696093186 9.347877666936094 4.105748558083293 0 0 0
240 80 1 0.5897 3.4873017413634706 7.4620786301369995 0.7895589670068806 0 0 0
189 63 1 0.5897 0.9806948294375735 9.840678777399784 1.2234660728593165 0 0 0
199 67 2 -1.1794 1.3680982574683096 8.565283563890699 2.342918468104539 0 0 0
238 80 2 -1.1794 3.870900099322241 8.089393785266719 1.40247457508082 0 0 0
694 232 2 -1.1794 3.6890522546268514 10.394124808305058 -0.034426674900811305 0 0 1
239 80 1 0.5897 4.027726652203382 8.8735952283245 0.8763636472760676 0 0 0
201 67 1 0.5897 2.2163855045757836 8.26765911013187 2.014427023182792 0 0 0
188 63 1 0.5897 1.820583165197628 10.719550181164493 0.3210740344973079 0 0 0
82 28 2 -1.1794 2.2221678015143356 6.143238007207067 -0.09594712609227465 0 0 0
220 74 2 -1.1794 3.7670916583313367 10.718431809172419 3.0487179491375604 0 0 0
200 67 1 0.5897 0.7986764001257534 7.799798970576808 2.2651924621335415 0 0 0
221 74 1 0.5897 4.322268053405001 10.784944285824457 2.2717675173359098 0 0 0
173 58 1 0.5897 3.369096759021809 7.529453261647833 4.394798602128974 0 0 0
174 58 1 0.5897 3.868724864135711 8.814138945075007 3.7686400219150453 0 0 0
696 232 1 0.5897 4.497828472173593 10.903178667369122 -0.08860163892394707 0 0 1
172 58 2 -1.1794 4.094997814539272 8.15276001984265 4.4226662876270515 0 0 0
66 22 1 0.5897 2.4996544520586594 6.355363558696937 7.718662298476652 0 0 0
64 22 2 -1.1794 1.864207979970204 6.613878107445753 8.386205574502203 0 0 0
203 68 1 0.5897 -0.4731992003227621 8.429437856645087 7.261172140741237 0 0 0
202 68 2 -1.1794 0.45493312158393984 8.645356869211863 7.171302332692142 0 0 0
246 82 1 0.5897 0.6394717896447899 9.289333280537615 5.481517245547417 0 0 0
191 64 1 0.5897 0.5239692811810657 9.59977426930791 8.79860671470856 0 0 0
204 68 1 0.5897 0.9110633012456688 7.937497379038945 7.626416947109116 0 0 0
11 4 1 0.5897 2.00262733793595 5.680742228986669 5.48418928017954 0 0 0
228 76 1 0.5897 1.654000607997463 10.985197409649363 6.03722137027913 0 0 0
588 196 1 0.5897 -1.2477556793307194 6.446103723405416 9.122951746567656 0 0 0
65 22 1 0.5897 2.3298442332765816 7.25226728859634 8.926533586457799 0 0 0
9 3 1 0.5897 -0.7032755113898315 5.805274518326048 5.846511525143814 0 0 0
586 196 2 -1.1794 -0.7277909476563802 5.724928658931763 9.47757464216581 0 0 0
10 4 2 -1.1794 1.902750666850734 6.337340466977676 4.794765295410948 0 0 0
244 82 2 -1.1794 0.9162577167897759 9.903209452751042 4.801117200350818 0 0 0
12 4 1 0.5897 0.9667910543045624 6.537276965118987 4.787604694788606 0 0 0
724 242 2 -1.1794 0.5727564782337664 11.169199824589471 13.004356620762207 0 0 0
744 248 1 0.5897 -0.288265041526234 6.83076011712363 10.923879851430774 0 0 0
703 235 2 -1.1794 -2.4036482561540238 8.498750528885429 12.238831584261284 0 0 0
742 248 2 -1.1794 0.04435432105161974 7.534020568005806 11.481650950336595 0 0 0
705 235 1 0.5897 -2.411995300339278 9.042199788159197 13.02685639102857 0 0 0
743 248 1 0.5897 0.0671136940584085 8.302324877297032 10.911075123834044 0 0 0
704 235 1 0.5897 -1.5407279869642316 8.084713788275378 12.242082677195246 0 0 0
190 64 2 -1.1794 0.35290783345929144 9.909336026682924 9.688173873953478 0 0 0
678 226 1 0.5897 0.21678668100648935 9.518594623513238 13.999772952774936 0 0 0
534 178 1 0.5897 1.5609553716313567 6.599753472106968 11.933398513478998 0 0 0
192 64 1 0.5897 0.8665049016807194 10.71339008420189 9.7653871587884 0 0 0
692 231 1 0.5897 -1.6417484756506968 10.112433663044088 9.646772255929989 0 0 0
748 250 2 -1.1794 -2.993181963338701 10.060487703240943 14.44327219854802 0 0 0
695 232 1 0.5897 -2.9573187130682834 10.000810961463369 18.663210509272297 0 0 0
749 250 1 0.5897 -3.266472025260078 9.79553186750809 15.321653149264677 0 0 0
706 236 2 -1.1794 -3.2643556875943087 9.105162829770745 16.972960931095376 0 0 0
569 190 1 0.5897 -1.4088043489829989 6.535171181606849 18.29518974142661 0 0 0
568 190 2 -1.1794 -1.2728284956824183 7.333126051435881 17.78418836739243 0 0 0
708 236 1 0.5897 -2.6530884896321796 8.378701066259376 16.851788825455913 0 0 0
570 190 1 0.5897 -0.510556646019138 7.141439754390991 17.23794972753617 0 0 0
707 236 1 0.5897 -4.0939260541480955 8.68528020754581 17.200338328853 0 0 0
515 172 1 0.5897 -2.0293947699707813 6.431427605001122 14.597650849708424 0 0 0
676 226 2 -1.1794 0.3705247887176961 8.843428117882537 14.660752140479739 0 0 0