#include		in.partitions
include		in.temp
variable        temperature equal 259.10
variable	tempDamp equal 100.0
include		in.pressure
variable        pressure equal 9000.0
variable        pressureDamp equal 1000.0 # This is 1 ps
include		in.seed
variable        seed equal 745823

units		real
atom_style	full

read_restart	restart.lmp.${pid}
read_restart	restart.lmp.0
Reading restart file ...
  restart file = 30 Jul 2021, LAMMPS = 30 Jul 2021
  restoring atom style full from restart
  orthogonal box = (0.057399644 0.10303162 0.070453719) to (19.942601 19.896969 20.629544)
  4 by 2 by 4 MPI processor grid
  restoring pair style lj/cut/tip4p/long/omp from restart
  restoring bond style harmonic/omp from restart
  restoring angle style harmonic/omp from restart
  972 atoms
  648 bonds
  324 angles
Finding 1-2 1-3 1-4 neighbors ...
  special bond factors lj:    0        0        0       
  special bond factors coul:  0        0        0       
     2 = max # of 1-2 neighbors
     1 = max # of 1-3 neighbors
     1 = max # of 1-4 neighbors
     2 = max # of special neighbors
  special bonds CPU = 0.002 seconds
  read_restart CPU = 0.008 seconds
include 	in.setup
variable	out_freq equal 1000
variable	out_freq2 equal 10000
variable	out_freq3 equal 1000

timestep	2.0

neigh_modify    delay 7 every 1

include		in.tip4p
# This is TIP4P/Ice

# create groups ###
group ox type 2
324 atoms in group ox
group hy type 1
648 atoms in group hy

# set charges - beside manually ###
set group ox charge -1.1794
Setting atom values ...
  324 settings made for charge
set group hy charge 0.5897
Setting atom values ...
  648 settings made for charge

# ### TIP3P Potential Parameters ###
pair_style lj/cut/tip4p/long/omp 2 1 1 1 0.1577 8.5
pair_coeff 1 1*2 0.000 0.000
pair_coeff 2 2 0.21084 3.1668
bond_style  harmonic
bond_coeff  1 450 0.9572
angle_style harmonic
angle_coeff 1 55 104.52
kspace_style pppm/tip4p/omp 1.0e-5
pair_modify tail yes

thermo          ${out_freq}
thermo          1000
thermo_style    custom step temp pe etotal epair emol press lx ly lz vol pxx pyy pzz pxy pxz pyz enthalpy

restart 	${out_freq3} restart.lmp.${pid} restart2.lmp.${pid}
restart 	1000 restart.lmp.${pid} restart2.lmp.${pid}
restart 	1000 restart.lmp.0 restart2.lmp.${pid}
restart 	1000 restart.lmp.0 restart2.lmp.0


include         in.dump
dump            myDump all atom ${out_freq2} dump.water.${pid}
dump            myDump all atom 10000 dump.water.${pid}
dump            myDump all atom 10000 dump.water.0
dump            myDump2 all dcd ${out_freq2} dump.dcd
dump            myDump2 all dcd 10000 dump.dcd
dump_modify     myDump append yes
dump_modify     myDump2 append yes


variable natoms 	equal  "count(all)"                        # NUMBER ATOMS
variable H      	equal  "enthalpy/v_natoms"                 # ENTHALPY-per-atom
variable Vol      	equal  "vol/v_natoms"                 # volume-per-atom
fix AVG all 		ave/time ${out_freq} 1 ${out_freq} v_Vol v_H file vol_enthalpy.dat
fix AVG all 		ave/time 1000 1 ${out_freq} v_Vol v_H file vol_enthalpy.dat
fix AVG all 		ave/time 1000 1 1000 v_Vol v_H file vol_enthalpy.dat


timer           timeout 02:55:00 every 1000
New timer settings: style=normal  mode=nosync  timeout=02:55:00

fix 		1 all shake 1e-6 200 0 b 1 a 1
       0 = # of size 2 clusters
       0 = # of size 3 clusters
       0 = # of size 4 clusters
     324 = # of frozen angles
  find clusters CPU = 0.001 seconds
fix             2 all nph aniso ${pressure} ${pressure} ${pressureDamp}
fix             2 all nph aniso 9000 ${pressure} ${pressureDamp}
fix             2 all nph aniso 9000 9000 ${pressureDamp}
fix             2 all nph aniso 9000 9000 1000
fix             3 all temp/csvr ${temperature} ${temperature} ${tempDamp} ${seed}
fix             3 all temp/csvr 259.1 ${temperature} ${tempDamp} ${seed}
fix             3 all temp/csvr 259.1 259.1 ${tempDamp} ${seed}
fix             3 all temp/csvr 259.1 259.1 100 ${seed}
fix             3 all temp/csvr 259.1 259.1 100 745823


run             250000
PPPM initialization ...
  extracting TIP4P info from pair style
  using 12-bit tables for long-range coulomb (../kspace.cpp:340)
  G vector (1/distance) = 0.37196571
  grid = 24 24 24
  stencil order = 5
  estimated absolute RMS force accuracy = 0.0035378785
  estimated relative force accuracy = 1.0654216e-05
  using double precision FFTW3
  3d grid and FFT values/proc = 3211 432
Last active /omp style is kspace_style pppm/tip4p/omp
Neighbor list info ...
  update every 1 steps, delay 7 steps, check yes
  max neighbors/atom: 2000, page size: 100000
  master list distance cutoff = 10.8154
  ghost atom cutoff = 10.8154
  binsize = 5.4077, bins = 4 4 4
  1 neighbor lists, perpetual/occasional/extra = 1 0 0
  (1) pair lj/cut/tip4p/long/omp, perpetual
      attributes: half, newton on, omp
      pair build: half/bin/newton/omp
      stencil: half/bin/3d
      bin: standard
Per MPI rank memory allocation (min/avg/max) = 10.18 | 10.19 | 10.19 Mbytes
Step Temp PotEng TotEng E_pair E_mol Press Lx Ly Lz Volume Pxx Pyy Pzz Pxy Pxz Pyz Enthalpy 
28250000    264.55275   -4677.7383   -4167.5261   -4677.7383            0    9152.0172    19.885202    19.793938    20.559091    8092.1906    10333.403    8844.3177    8278.3312  0.078588079   -601.64374    87.112689   -3087.4389 
28251000    254.37234   -4708.5891   -4218.0107   -4708.5891            0    6991.5403    20.005834    19.955443    20.430172    8156.2412    6020.6799    7099.6559     7854.285    462.76872   -676.05487    1125.3414   -3386.3641 
28252000    262.30506   -4711.6928   -4205.8154   -4711.6928            0    8575.9699    19.829471    20.053484    20.434278    8125.6903    8718.8575    7316.7019    9692.3503    -512.4496   -929.21053    670.40765   -3189.5213 
28253000    257.63425   -4701.6315   -4204.7622   -4701.6315            0    8974.9659    19.977926    19.868085    20.399303    8096.9553    8324.9117    9301.5534    9298.4328    900.95947    1197.3818   -737.07725   -3144.9463 
28254000    251.98988   -4730.2835   -4244.2998   -4730.2835            0    8917.3267    19.699478    19.825815    20.675714      8075.07    10105.575    7586.5046    9059.9003     680.7488     374.2186   -194.59424   -3194.1365 
28255000    252.22312   -4683.2805    -4196.847   -4683.2805            0    9282.7668    19.932836    19.855182    20.361364    8058.4186    8577.0265    10433.232     8838.042   -79.817971    786.20071   -1328.0378   -3105.9012 
28256000    271.24494   -4697.1884   -4174.0698   -4697.1884            0    10204.323    19.828784    19.676694    20.555813    8020.1571     9853.832    11040.117     9719.019   -60.835198   -547.40597   -607.64122   -2980.5133 
28257000    262.44164     -4709.62   -4203.4792     -4709.62            0    8735.9647    19.997931    19.540492    20.648324    8068.7334    7609.4076    10392.537    8205.9494   -65.773924    1281.9694   -978.53302   -3175.4815 
28258000    274.77679   -4724.7494   -4194.8192   -4724.7494            0    9955.1295     19.69597    19.938678    20.474633    8040.6258     9836.424    11516.064    8512.9004   -88.611588    1756.7547   -2477.0444   -3027.4381 
28259000    272.05019    -4698.187   -4173.5154    -4698.187            0    8573.8172    19.925792     19.70044    20.590124    8082.5889    10685.254    6080.5941    8955.6031   -902.97775    981.59757    953.81671   -3162.8658 
28260000     277.8892    -4729.313   -4193.3803    -4729.313            0    8101.3619    19.864442    20.074109    20.354725    8116.6702    8576.2823    7799.0518    7928.7516   -60.545781   -858.58352   -495.24142   -3234.3953 
28261000    252.23717   -4689.5218   -4203.0612   -4689.5218            0    11586.343    19.851413    19.756357    20.413494    8006.0013    10742.669    13047.502    10968.858   -874.44463    658.40588    74.543824   -2850.2478 
28262000    270.15561    -4672.561   -4151.5432    -4672.561            0    7583.5554    19.898573    19.892024    20.434036    8088.2595    7567.8086    7591.6344    7591.2231    479.51315   -1170.6927     2.058213   -3256.9948 
28263000    274.46626    -4696.327   -4166.9957    -4696.327            0    6048.1311     20.03234    19.737887    20.642688    8162.0378    4758.9281    7695.1668    5690.2983    105.61616   -267.69691   -452.95709   -3447.0567 
28264000    251.02911   -4696.6275   -4212.4968   -4696.6275            0    9148.5289    19.775799    19.688216    20.607526    8023.5442    8809.5844    9083.1843    9552.8181   -536.33178    -276.8893    472.90681   -3141.9802 
28265000    255.76671   -4698.7268   -4205.4592   -4698.7268            0    9612.5264    19.958988    19.800816    20.383122    8055.4963    9155.5314    9262.3538    10419.694    245.78657   -60.628075    1085.8148   -3076.1685 
28266000    250.70989   -4690.3922   -4206.8771   -4690.3922            0    8741.4657    19.751898    19.922767    20.560191    8090.6911    9396.4277    8258.4357    8569.5337    24.490355    974.46568   -750.94692   -3175.4329 
28267000     265.1046   -4726.4204   -4215.1439   -4726.4204            0    8797.6086    19.815297    19.758214    20.720868    8112.5283    8391.0868    9288.6105    8713.1285   -13.046496    1099.7576   -641.18504   -3174.2733 
28268000    242.37883   -4701.3013   -4233.8534   -4701.3013            0    8025.1711     19.76904    19.912492    20.707414    8151.4913    9598.5422    6995.3297    7481.6415   -597.56133     626.3353   -327.78209   -3279.8119 
28269000     258.4329   -4703.1416    -4204.732   -4703.1416            0    8554.6588    19.862009    19.821942    20.496119    8069.3956    9852.3552    6126.9965    9684.6248   -255.76193     942.6776    1193.3432   -3197.9867 
28270000    256.05938   -4705.4845   -4211.6524   -4705.4845            0    9457.4674    19.684904    19.843244     20.62447    8056.1727    12673.471     6544.953    9153.9784   -196.22296    860.38948    -1844.924    -3100.485 
28271000    250.16977   -4713.6222   -4231.1487   -4713.6222            0     8347.842     20.07859    19.732622    20.415922    8088.8544    5939.7108    9809.3469    9294.4683    522.24841    890.08955    490.66696   -3246.3735 
28272000    254.57928   -4685.3954   -4194.4179   -4685.3954            0    9393.7287    19.728622    20.026064    20.358129    8043.2249    12444.837    5113.0065    10623.342   -365.10533   -215.86476    41.646048    -3092.513 
28273000    249.19654   -4703.4292   -4222.8327   -4703.4292            0    9256.7353    19.931426    19.668993    20.521082     8044.902    9352.5919    8629.1887    9788.4254    361.55232    662.57546    -1605.602    -3136.771 
28274000     271.0564   -4674.8306   -4152.0756   -4674.8306            0    8439.8626    19.638796    19.874488    20.653097    8061.1313    8674.5489    7785.4004    8859.6386   -511.91356     173.8561    887.75859   -3159.8572 
28275000    268.71493   -4690.9461   -4172.7067   -4690.9461            0    9226.6802     19.97398    19.562293    20.706201    8090.6755     9332.991    9670.7024    8676.3471    136.38484   -463.85254   -2359.7795    -3084.012 
28276000    266.24442   -4686.2978    -4172.823   -4686.2978            0    7191.9547    19.892615    19.894279    20.501936    8113.6256    5293.8789    9661.8495    6620.1357    665.30542    835.49345   -202.96259   -3321.8069 
28277000    271.19334   -4680.6641   -4157.6449   -4680.6641            0     10452.74    19.777882    19.816024    20.500106    8034.3806    11551.867    11019.752    8786.6019    523.47559   -1258.5221   -59.844845   -2932.8639 
28278000    255.61817   -4711.1677   -4218.1865   -4711.1677            0    9754.4288    19.927526    19.768817    20.370637    8024.8822    10574.289    8535.2008    10153.797    534.35195   -154.47466    1291.0075   -3076.5801 
28279000     268.2629   -4709.8938   -4192.5263   -4709.8938            0    9557.0761    19.981312    19.874831    20.302831    8062.7659    8440.7668    9392.4148    10838.047   -389.13212    60.746829   -460.76395   -3068.7368 
28280000    263.11772   -4697.9525   -4190.5078   -4697.9525            0    7498.6189    19.799777     19.87888    20.655438    8129.9262    7687.2463    8069.2729    6739.3375   -330.28959    213.14199    9.0712827   -3301.4218 
28281000    256.56307   -4663.0088   -4168.2053   -4663.0088            0    9769.1089    19.913461    19.739482     20.52999    8069.9571    9308.1644    10016.077    9983.0852   -136.97545   -511.18695    584.67406   -3018.4589 
28282000    269.16914   -4710.9535   -4191.8382   -4710.9535            0    9393.7499    19.803306    19.848743    20.542363    8074.6016    7954.2829    9985.6072    10241.359    214.93839     478.3982    933.38252   -3085.6323 
28283000    268.42491    -4709.399    -4191.719    -4709.399            0    8073.4305    20.048326     19.58669    20.518303    8057.1346    7802.0128     7730.272    8688.0066      -425.47   -769.42812    985.17733   -3243.0502 
28284000    254.61184   -4705.3986   -4214.3582   -4705.3986            0    9872.8075    19.768561    19.735831    20.512282    8002.8459    8801.5957    11562.149    9254.6779   -262.51927   -1148.6146    655.02981   -3062.0703 
28285000    247.55713   -4724.0849   -4246.6501   -4724.0849            0    8843.1195    19.738057    19.688755    20.712553    8049.2663    11332.261    8099.4288    7097.6686    409.72092   -87.212401   -726.55465   -3208.5538 
28286000    253.72818   -4722.7381    -4233.402   -4722.7381            0    6610.0915    19.945868    19.634529    20.662531    8092.0198    5785.7653     6093.794    7950.7151    594.13862    1122.0479     607.8038   -3453.3199 
28287000    257.70402   -4693.5281   -4196.5242   -4693.5281            0    10371.242    19.882242     19.62926    20.506581    8003.1789    12046.477    8972.7157    10094.533     946.2299   -1898.4427    359.10792    -2986.012 
28288000    265.48948   -4691.1667   -4179.1479   -4691.1667            0    9059.5988    19.855322    19.851035    20.389496    8036.4934     8099.991    9773.0764    9305.7289   -1644.1629   -479.36953   -1061.8044   -3117.3266 
28289000    253.83254   -4714.7092   -4225.1718   -4714.7092            0    6276.4699     19.84369    19.823737    20.554241    8085.5471    6214.8683    7513.6337    5100.9077    172.40581    698.37555   -718.07793   -3485.0542 
28290000    249.89108   -4690.6627   -4208.7267   -4690.6627            0    7633.7681    20.038791     19.67717    20.607396    8125.6343    8312.9436    7852.4333    6735.9273    367.56939     -814.836   -400.94726   -3304.0944 
28291000    254.37586   -4696.4835   -4205.8983   -4696.4835            0    7988.6642    19.979513    19.866781    20.465382    8123.2959     7347.402    9714.0273    6904.5634   -38.757959    398.16954    -650.0783   -3259.4817 
28292000    259.08136   -4711.8783   -4212.2181   -4711.8783            0    9197.0844    19.746842    19.887512    20.565189    8076.2697    9392.1989    9140.0793    9058.9749    1136.3078    291.21197    183.95254   -3128.9478 
28293000    267.67303     -4706.17     -4189.94     -4706.17            0    7803.6534    19.758409    19.814787    20.692169    8101.1636    11689.588    5109.1342    6612.2381    1.2591594    296.76761    138.34105   -3267.9605 
28294000    251.72131   -4719.9262   -4234.4605   -4719.9262            0    8126.4047    20.089379    19.672314    20.409677    8065.9976    7027.6713    8372.7562    8978.7866    142.18776   -530.11444   -517.12374   -3278.5166 
28295000    260.84437   -4749.1101   -4246.0497   -4749.1101            0    8280.0694    19.849819    19.900802    20.498991    8097.6615    7751.6718    7987.9065    9100.6298    426.19246   -732.44372    660.29698   -3268.2059 
28296000    263.08977   -4735.4741   -4228.0833   -4735.4741            0    7816.3674    19.957529    20.020966    20.337245    8126.1331    6305.1416    8593.8123    8550.1482   -104.66587    424.00639    67.007862   -3301.7553 
28297000    256.56269   -4700.4477    -4205.645   -4700.4477            0    9921.0888    19.916958     19.57338    20.713313    8074.9235    11749.965    9588.1903    8425.1111   -1178.4034    33.939238    559.05838   -3037.2931 
28298000     231.6929   -4687.0324   -4240.1931   -4687.0324            0    8570.9081    19.802615     19.71669    20.777857    8112.5482    7894.3136    10622.979    7195.4318    299.63326    884.81728    435.09275   -3226.1416 
28299000    259.13812   -4698.5901   -4198.8205   -4698.5901            0    9038.7695    19.995826    19.843395    20.317844    8061.8173    9356.1131    7709.4562    10050.739   -365.29506    249.54473    161.88787   -3136.1022 
28300000    250.16805   -4708.2738   -4225.8037   -4708.2738            0    8023.5682    19.930978    19.821033    20.429255    8070.6298    6714.1769     10124.92     7231.608    648.20574    1241.8272   -333.17402   -3281.4148 
28301000    277.22071   -4654.6261   -4119.9826   -4654.6261            0    10936.978    19.860314    19.505236    20.651943    8000.1518    9636.3406    13877.122    9297.4727    995.58272    1729.2178    721.03514   -2843.9215 
28302000     266.7495   -4750.0784   -4235.6295   -4750.0784            0    9010.9085    19.860891    19.789553    20.575926    8087.1241    10252.262     6939.608    9840.8553   -538.08119    754.90313    82.486233   -3172.8613 
28303000    246.33126    -4708.092   -4233.0214    -4708.092            0    9300.1775    19.739102    20.075882    20.230794    8017.0568    8115.0645    10372.649    9412.8191    434.66885   -344.71756    208.90211   -3145.6395 
28304000    254.99278   -4667.5882   -4175.8132   -4667.5882            0    11056.181    19.919819    19.785555    20.342588    8017.5156    10128.867    10891.104    12148.572    148.79704   -111.06802   -1025.1229   -2883.0445 
28305000    271.75047   -4714.7393   -4190.6457   -4714.7393            0    10595.671     19.86851    19.823313    20.369879    8022.8742    10033.642    11173.586    10579.785   -42.166216   -279.34627    -133.9813    -2950.895 
28306000     278.8514   -4689.7955   -4152.0071   -4689.7955            0    8420.1891    19.840536    19.678772    20.710404    8086.1159    9499.6173    7950.0253    7810.9249   -565.37078    50.426014    612.52826   -3159.0335 
28307000    244.99009     -4716.54    -4244.056     -4716.54            0    8037.8168    19.888173    19.782498    20.623724    8114.1514    8958.5728    8069.1577    7085.7198    536.46622    916.80296   -1693.5062   -3292.8883 
28308000      259.333   -4697.1116   -4196.9661   -4697.1116            0    8022.5798    20.051387    19.870484    20.273489    8077.5816     8088.155    7067.1684    8912.4159    970.81953    1690.0845   -671.68565   -3251.8802 
28309000    258.38616   -4705.0822   -4206.7627   -4705.0822            0    9777.5397    19.626699    19.778524     20.80615    8076.6802    11088.297    9101.2903    9143.0318   -11.547084    -532.7717    707.94072   -3055.0654 
28310000    254.28472   -4686.6859   -4196.2764   -4686.6859            0     9041.631    19.802704    19.704803    20.568807    8026.1208    10045.343    9858.2003    7221.3493   -936.80625    1251.9453     -30.2508   -3137.9288 
28311000    259.03825   -4696.6817   -4197.1047   -4696.6817            0    8811.2995    20.132314    19.668325      20.4973    8116.2928    8459.4608    9336.4656     8637.972    275.52156   -495.03069   -1721.3043   -3154.1305 
28312000    266.53629   -4695.6082   -4181.5706   -4695.6082            0    6493.1864    20.066823    19.910062    20.515211    8196.4768    4381.4741    6650.3831    8447.7019    60.828352    954.31352    437.42732   -3405.3932 
28313000    265.39169   -4686.1471   -4174.3169   -4686.1471            0    8980.9706    19.733006    19.916169    20.570753    8084.4274    9308.6621    8712.9674    8921.2821    -365.9307     458.1886    -856.0011   -3115.4328 
28314000    263.12058   -4698.7728   -4191.3227   -4698.7728            0    8869.2502    19.793271    19.748376    20.484483    8007.0762    10626.106    7687.6893    8293.9549   -182.26557    1600.8229   -1300.2889    -3155.616 
28315000    254.26458    -4708.398   -4218.0274    -4708.398            0    8655.3361    19.928397    19.641855    20.634192     8076.856    8501.4908    9295.3428    8169.1746   -202.97149   -565.94751    583.08298   -3198.4923 
28316000    270.47408    -4682.232      -4160.6    -4682.232            0    9367.6799    19.861588    19.890174    20.549125    8117.9413    7760.6575    10104.207    10238.175    530.59243   -2944.8858    1117.1978    -3051.543 
28317000    257.44921   -4711.4708   -4214.9584   -4711.4708            0    7950.1432    19.888193     19.78708     20.53171    8079.8288    9307.6502    7205.1687    7337.6107    213.77515    1417.2237   -517.86007   -3278.1452 
28318000    260.43167   -4708.1799   -4205.9156   -4708.1799            0    8672.0129    19.721427    19.976839    20.468806    8064.1313    8704.5728    8903.5693    8407.8965    -31.09793    105.64058   -260.87771   -3186.0254 
28319000    250.06764   -4710.1625    -4227.886   -4710.1625            0    10616.429    19.891878    19.479407    20.573246     7971.762    11101.978    10906.296     9841.014    574.09887    437.32414    216.16233   -2993.6203 
28320000    257.18229   -4679.3335   -4183.3358   -4679.3335            0    8484.2211    19.714275    19.700056    20.728041    8050.1977    11365.349    7594.8401    6492.4739    333.97275    531.15585    -1058.902   -3187.2554 
28321000    264.85722   -4701.5722   -4190.7728   -4701.5722            0    10539.634    19.857262    19.779409    20.380893    8004.8993    9427.8158    10121.809    12069.277   -483.79276    177.24244    436.97623   -2960.3417 
28322000    273.33634   -4673.3529   -4146.2008   -4673.3529            0    8769.7306    19.842263    19.986983    20.399411    8090.1408    7270.7832    10979.033    8059.3753    630.18636    2203.5937    433.94779   -3111.4918 
28323000    253.91033   -4730.9203   -4241.2328   -4730.9203            0    8396.1911    19.741356    19.867395    20.665146    8105.0626    9934.8664     7612.294    7641.4128    29.820572   -839.62315    431.22144   -3248.7693 
28324000    244.75437   -4709.1692   -4237.1398   -4709.1692            0    8731.8502    19.854177     19.88497    20.558097     8116.331    8214.3875    8343.1869    9637.9763   -459.30707   -1377.6857    260.03743    -3203.565 
28325000    242.22438   -4679.3008   -4212.1508   -4679.3008            0    9741.2789    19.768273    19.963966    20.508979    8093.9329    11510.598    10035.995    7677.2438   -2.7825272    213.62182    209.46811   -3062.2736 
28326000    265.13456   -4720.8637   -4209.5294   -4720.8637            0     7533.998     20.14999    19.924211    20.245078    8127.8451    7108.4445    6043.2958    9450.2538   -94.601195   -2369.2225   -552.66621   -3316.4773 
28327000    244.27534   -4719.7457   -4248.6402   -4719.7457            0    8388.1451    19.776466    19.887953      20.5391    8078.3038    10548.275     7791.651    6824.5089   -1109.2903   -1160.1754    1404.5514   -3260.4012 
28328000     270.4471   -4688.6303   -4167.0503   -4688.6303            0    8676.2311    19.810621    19.661117    20.637746    8038.3802     9200.158    8112.3304    8716.2049   -17.321127    1209.2759    288.15626   -3149.9224 
28329000    254.81858   -4710.4487   -4219.0096   -4710.4487            0    9967.2473    19.722705    19.858922    20.492808    8026.4523    10640.064    9361.8537    9899.8239    87.801504    1217.1901   -867.98013   -3052.2678 
28330000     267.5541   -4696.2374   -4180.2368   -4696.2374            0    7140.8103    19.869244     19.79693    20.583224    8096.4122    7091.2307    6836.5051    7494.6952   -172.73796   -164.44505    265.76431   -3337.0652 
28331000    274.61737   -4710.2526     -4180.63   -4710.2526            0    10544.256    19.569105    19.923041     20.45044    7973.1373    9678.7069    11162.018    10792.044    848.78529    1469.1211    250.36943   -2954.5435 
28332000    258.19644   -4724.1053   -4226.1517   -4724.1053            0    7731.5751    19.923243    19.616884    20.558102     8034.763    7093.4934    8923.0459    7178.1862    439.62417   -770.61541   -374.72456   -3320.1752 
28333000    252.48315   -4686.9995   -4200.0645   -4686.9995            0    9993.6375    19.822604    19.857506    20.583601    8102.2711    12196.907    9474.4545    8309.5507   -705.85744   -377.67928    296.40407   -3019.1832 
28334000    262.73795   -4664.0337   -4157.3215   -4664.0337            0    8215.0896    20.057142    19.750832    20.340058    8057.6173    8256.5341    7893.8233    8494.9114   -397.19652    385.97816   -1601.2819   -3191.9492 
28335000    259.03249   -4713.8838   -4214.3178   -4713.8838            0     8679.375    19.850318    19.748048    20.453079    8017.7096    8084.3455    10428.529    7525.2507    67.259787   -1251.1374    -135.8079   -3199.4379 
28336000    252.05772   -4710.7166   -4224.6021   -4710.7166            0    8120.2385    20.055763    19.849588    20.306593    8084.0269    8830.2707    7040.9038    8489.5409    432.76752    91.108157    -119.8185   -3267.2484 
28337000    254.22709   -4715.7882   -4225.4899   -4715.7882            0    8136.3623    19.978095    19.894044    20.499978     8147.616     6174.358    9712.9558     8521.773    247.91944   -44.917748    1525.9272   -3258.6897 
28338000    257.58083   -4688.4675   -4191.7012   -4688.4675            0    8579.4994     19.99222    19.737927    20.445654    8067.9566    8511.8796    7290.6321    9935.9864   -600.43442    1070.4236    358.20968   -3182.2127 
28339000    246.83975    -4719.693   -4243.6417    -4719.693            0    8011.6403    19.811684    19.784504    20.497871    8034.4344    7236.9441    8948.3917     7849.585   0.94692864    207.32454   -877.56469   -3304.8859 
28340000    263.39112   -4739.1928   -4231.2209   -4739.1928            0    7360.6957    19.977406    19.702352    20.657394    8130.7894    7828.2943    6785.1568     7468.636   -267.79202   -912.73588   -329.15806   -3358.3953 
28341000    257.25029   -4705.8353   -4209.7065   -4705.8353            0    9826.1331    19.577782    20.045584    20.519479    8052.8297    11376.722    10549.472    7552.2057   -570.39658    58.205025    -195.7704   -3055.7032 
28342000    259.81667    -4703.598   -4202.5197    -4703.598            0    9852.3812    19.797759    19.896607    20.253823    7978.1478    11452.488    8867.7865     9236.869   -518.78539   -967.11351     103.7436   -3056.1646 
28343000     263.9486   -4694.2903   -4185.2432   -4694.2903            0    9138.3934    19.776918    20.045156    20.520032    8134.7852    9858.7914    8237.8805    9318.5082   -150.98322   -700.13289    746.95842   -3101.0871 
28344000    261.10012   -4712.8345   -4209.2809   -4712.8345            0    7572.4326    19.931696    19.624141    20.637911    8072.3624    6723.5286    8432.4965    7561.2726    -311.1295   -73.549509   -469.32854   -3317.8002 
28345000    244.22009   -4720.6255   -4249.6265   -4720.6255            0     8121.883    19.995069    19.767371     20.48404     8096.316     8123.081    7742.2407    8500.3274   -558.01649     495.5444    684.20849   -3290.6233 
28346000    269.05746   -4712.6666   -4193.7667   -4712.6666            0    9084.0742    19.887657    19.942645    20.339696    8066.9771    9517.5726    7201.5759    10533.074     250.8589    449.26221   -1495.6218   -3125.0382 
28347000    268.96585   -4728.0987   -4209.3754   -4728.0987            0    8331.0897     20.03123    19.621748    20.574974    8086.9469    8975.4869    9652.9696    6364.8125    257.87575   -1282.9724    1305.3712   -3226.8082 
28348000    253.95943   -4695.3289   -4205.5467   -4695.3289            0     9224.269     19.70999    19.976286    20.450881    8052.1741    10240.002    8754.5068    8678.2984   -1000.3314    -1046.877    1200.2602   -3122.3159 
28349000    255.02818   -4712.0994   -4220.2561   -4712.0994            0    7452.5922    20.045054    19.946579    20.320768    8124.8577    6653.3701    7338.9909    8365.4155     414.9335    1043.5625   -772.51587   -3337.1783 
28350000    248.34537   -4688.7716   -4209.8166   -4688.7716            0    8888.5574     19.89665    19.866311    20.554667     8124.706    9233.0856    9487.4645     7945.122   -663.72199    347.65144    711.12112    -3156.607 
28351000    258.97364   -4735.3003   -4235.8478   -4735.3003            0    8733.5862    19.733691    19.805871    20.574194    8041.2782    10907.924    6248.9643    9043.8702   -804.90562    1913.5124    7.0263024    -3211.627 
28352000    253.86235   -4695.0648   -4205.4699   -4695.0648            0    8731.3054    19.846085    19.971327    20.427346     8096.433    6294.7799    9869.8387    10029.298    350.59755    1780.9785    -1234.273   -3174.4933 
28353000    255.18024   -4678.2649   -4186.1284   -4678.2649            0    9366.1687    19.954466    19.871528       20.336    8063.7475     10497.45    8372.6745    9228.3816   -59.388249    112.15067   -161.90688    -3084.653 
28354000    267.24253   -4708.3184   -4192.9187   -4708.3184            0    8659.9342    19.585905    19.958868    20.647168    8071.2357    9917.3606    7997.5582    8064.8838    632.37878    2710.6684   -1490.7289   -3173.5518 
28355000    269.14508   -4669.0228   -4149.9539   -4669.0228            0    10772.339    19.713161    19.747692    20.550657    8000.1539    10473.301    12398.347    9445.3712    263.83701   -165.34843    413.87308   -2893.1015 
28356000     254.5128   -4724.1732   -4233.3239   -4724.1732            0    7974.6329    19.901569    19.883615    20.472245    8101.1774    7242.4597    7514.4926    9166.9463    193.34397   -729.46551   -10.545937    -3291.142 
28357000    257.69029    -4689.904   -4192.9266    -4689.904            0    11558.613    19.772829      19.9456    20.236655     7980.951    11988.064    10650.988    12036.785   -467.35117    90.716753     1300.054   -2847.5736 
28358000     263.5048   -4707.3056   -4199.1144   -4707.3056            0    7673.0915    19.991046    19.866964    20.603035    8182.7302    7322.2804    8203.5371    7493.4571   -91.891086   -1470.4661    -211.8739   -3283.4328 
28359000    259.32369   -4704.3782   -4204.2507   -4704.3782            0     9176.509    19.729401    19.960476      20.5011    8073.5018    8810.5619    8027.2657    10691.699   -391.96059   -1266.9583   -506.53089   -3123.7741 
28360000    259.38714   -4667.9833   -4167.7333   -4667.9833            0    9186.8714    20.073364     19.53822    20.448432    8019.8303    9166.6174     8948.667      9445.33   -100.77997   -1058.6475   -1438.6352   -3093.2277 
28361000    275.75497   -4702.9908   -4171.1741   -4702.9908            0    7033.2433    19.811545     20.00915    20.350042    8067.0042    6880.8916    7220.3213     6998.517   -234.65211   -677.53825    413.10448   -3343.7202 
28362000    258.89435   -4684.3322   -4185.0326   -4684.3322            0    9914.0671    19.543572    19.813235    20.712369    8020.2723    10440.187    11080.959    8221.0561    391.71266   -531.54278    -839.2088   -3025.4095 
28363000    249.33483   -4707.5134   -4226.6502   -4707.5134            0    9621.7906    19.925601    19.598138    20.520351    8013.2928    10577.286    9443.0309    8845.0548    475.65234   -181.08997   -1415.9535   -3102.1933 
28364000    257.52103    -4688.298    -4191.647    -4688.298            0    8117.2435    20.026213    19.924477     20.21607    8066.4506    7679.5722    7210.3814     9461.777    543.72653   -628.87975   -465.82893   -3236.7271 
28365000     252.1896   -4692.4952   -4206.1264   -4692.4952            0    7802.6152    19.917132    19.915559    20.448606    8111.1608    6790.7204    9066.8358    7550.2893    396.97304    -425.9992   -430.23541   -3283.1319 
28366000    254.70562   -4723.1806   -4231.9594   -4723.1806            0    11127.863    19.864828    19.695958    20.498454    8020.1599    12074.745     11342.43    9966.4138   -776.70808   -143.56348    1911.3463     -2930.38 
28367000    251.81835   -4711.1015   -4225.4487   -4711.1015            0    9301.6577    19.647056    19.556285    20.806206    7994.2314    12219.956    7690.0943    7994.9232   -222.42273    -237.6439   -863.51155   -3140.9901 
28368000    252.57716    -4716.443   -4229.3267    -4716.443            0    8011.9048    19.750354    19.823156    20.645089    8082.8485    6664.0007    9355.8425    8015.8713   -584.60541   -605.28422    277.14787   -3284.8829 
28369000    253.35106   -4718.5629   -4229.9541   -4718.5629            0    10172.217    19.867747    19.900419    20.419943    8073.5655    11857.992    8505.5244    10153.136   -692.59083   -1742.2307   -753.90547   -3032.2297 
28370000    262.57533   -4708.4799   -4202.0813   -4708.4799            0    10278.685    20.201353    19.783184    20.166224    8059.3725    10290.271    9410.2055    11135.578    335.33255   -280.60717    161.06533   -2993.9486 
28371000    252.52911   -4725.1526    -4238.129   -4725.1526            0     7766.833     19.81612    19.872979    20.597455    8111.3878    9865.2558    5372.4708    8062.7725    760.62838   -824.94821    139.75721   -3319.3416 
28372000    251.81111   -4664.1954   -4178.5565   -4664.1954            0    9499.7959    19.997904    19.577151    20.630705    8076.9623    8775.8538     9492.469    10231.065   -178.13565   -1193.5252   -883.54351   -3059.5356 
28373000    261.26334   -4704.9061   -4201.0378   -4704.9061            0    9490.5153     19.90582    19.881141    20.395213    8071.4139    10256.699    8310.5551    9904.2914    656.63756    -2035.223     1013.304    -3083.878 
28374000    251.37675   -4681.3207   -4196.5195   -4681.3207            0    9347.3899    19.807685    19.937089    20.442561     8072.922    8749.0338    10053.344     9239.792    187.05449   -727.77352    736.15973   -3096.0018 
28375000    264.32686   -4693.6007   -4183.8241   -4693.6007            0    9959.5921    19.891564    19.871968    20.469316    8091.2041     9923.768    10986.751     8968.257   -53.629472    225.18366   -551.96643   -3008.5732 
28376000    239.38952   -4702.2037   -4240.5209   -4702.2037            0    7546.1643    19.922971     19.86534    20.501611    8114.0576    7413.9832    6613.3534    8611.1564    185.79791     799.4888    916.19575    -3347.544 
28377000    255.38377   -4706.0269   -4213.4978   -4706.0269            0    8799.2872    19.942373     19.92104    20.293276    8061.9669    9793.5012    8113.7537    8490.6068     316.7424    303.38489    -375.7325    -3178.917 
28378000    263.75332   -4713.5302   -4204.8598   -4713.5302            0    10946.192    19.747252    19.916712    20.251459    7964.9058    13133.583    10062.547    9642.4472    638.66647   -465.57242    1205.0435   -2933.3503 
28379000    271.86096   -4690.2738   -4165.9671   -4690.2738            0     8467.259    19.706037    19.772445    20.742161    8081.9039    8933.7904     9522.543    6945.4434    411.08031     1115.256     -158.461   -3167.9628 
28380000    255.47101   -4733.5117   -4240.8143   -4733.5117            0    9364.8149       19.758    19.626591    20.603013    7989.4814    10989.825    8652.8717    8451.7477   -309.24606    1264.6893    400.70958   -3149.6411 
28381000    252.24145   -4726.8369    -4240.368   -4726.8369            0    10239.011    19.970775    19.721292     20.30895    7998.6694    7697.5568    12864.335    10155.142    955.76507    90.173897   -862.75564   -3045.9629 
28382000    266.62653    -4686.255   -4172.0433    -4686.255            0    8458.9281     19.83134    20.009172    20.437541    8109.7937    9524.8297    6725.6108    9126.3439   -65.621183    916.22964    953.22686   -3171.5803 
28383000    266.06737   -4681.6949   -4168.5616   -4681.6949            0    9448.4982    20.126473     19.71306    20.353265    8075.2464    8986.6332    9033.1373    10325.724    752.42398   -467.97435    174.06158   -3055.8196 
28384000    256.78253   -4726.3844   -4231.1577   -4726.3844            0    8378.0201    19.733789    20.066936    20.384807     8072.316    8159.6643    10037.111    6937.2848    195.52824    276.61889   -168.00306   -3244.8432 
28385000      252.495   -4695.3978   -4208.4399   -4695.3978            0    10678.238    19.931255    19.725511    20.411186    8024.7429    9450.7765    11477.743    11106.194   -221.33674    263.91733   -232.57565   -2958.7375 
28386000    262.35669   -4692.9131   -4186.9362   -4692.9131            0    11814.998     19.84329    19.655781    20.478441    7987.3162    11512.208    10928.161    13004.627   -18.020805    181.02655   -48.012023   -2810.6447 
28387000     258.6515    -4720.002   -4221.1709    -4720.002            0    9526.3253    19.912668    19.605816    20.609428    8046.0051    7397.8177    12229.448    8951.7101    283.80906   -880.92369    849.84793   -3103.3258 
28388000    260.60655   -4708.9971   -4206.3955   -4708.9971            0    9435.2951    19.712061    19.772884    20.568499    8016.8668    8028.4661    10441.239    9836.1801   -1156.0951   -559.43274    91.228345   -3103.2417 
28389000    247.65647   -4721.2931   -4243.6668   -4721.2931            0    9333.1694    20.085191    19.563976    20.497792    8054.5291    8141.1613    10189.151    9669.1964   -289.61171    129.17805   -689.25584    -3147.327 
28390000    256.11149    -4685.924   -4191.9914    -4685.924            0    8542.9457    19.821621    19.890912    20.467048    8069.5458     11299.94    5929.6761    8399.2211   -545.96822    1818.2424    1452.7926   -3186.6059 
28391000    261.81766   -4727.9209   -4222.9835   -4727.9209            0    8638.9351     20.09688    19.974477    20.216577    8115.4326    7951.7818    8951.7342    9013.2893    -31.39519   -857.79974    145.88468   -3200.5201 
28392000    261.27738   -4710.1325   -4206.2371   -4710.1325            0    9189.3573     19.74508    19.784847     20.58608    8042.0219    9348.3081     9510.901    8708.8628   -576.76845   -1218.2204   -49.680341   -3128.4666 
28393000    252.92267    -4700.691   -4212.9084    -4700.691            0    7993.2447     20.07858     19.52937    20.619857    8085.5002    5719.0681    10419.036    7841.6301    65.821504    1261.8816    974.48087   -3270.3551 
28394000    269.83733    -4732.751    -4212.347    -4732.751            0    8169.0388    19.986735      19.8613    20.424804     8107.882    8228.6177    8381.4959    7897.0028    969.81949   -815.34421   -301.51326   -3246.3978 
28395000    252.51665   -4694.9747   -4207.9751   -4694.9747            0    10806.045    19.918022    19.682134    20.518705    8043.9309    9891.6968    11480.644    11045.796    25.046402   -863.26487    158.02612   -2940.2911 
28396000    240.44724   -4693.2239   -4229.5012   -4693.2239            0    7755.3639    19.725878    20.014193    20.467306     8080.442    8018.2476    6582.4943    8665.3496    386.53026    313.08318    356.27641   -3315.5706 
28397000    257.27264   -4729.5415   -4233.3696   -4729.5415            0    7579.3645    19.734026    19.918285    20.464431     8043.912    9054.2873    6817.9654    6865.8406   -571.79582   -612.39557   -869.50825   -3344.2176 
28398000    250.06898   -4699.1855   -4216.9065   -4699.1855            0    11322.494    19.923218    19.667549    20.453032    8014.3339    11782.686    11018.191    11166.605   -184.75025    685.55217    900.81585   -2893.5239 
28399000    265.77327   -4700.0559   -4187.4898   -4700.0559            0    6965.3286    19.831961    19.786854    20.763319    8147.7779    5943.0912    8275.5376    6677.3569     450.9154    601.62113     2333.562   -3359.8208 
28400000    252.91252   -4707.7828   -4220.0197   -4707.7828            0    6840.1341    20.068987    19.699286    20.601872    8144.8416    4623.0826    8258.5544    7638.7652    246.28517    58.242531    -377.5998   -3407.5201 
28401000    264.57948   -4664.3153   -4154.0516   -4664.3153            0    9305.7294    19.674027    19.812169     20.50005    7990.6148     10240.66    9137.4542    8539.0735    904.09939   -205.37421   -488.17425   -3069.6091 
28402000    271.22733   -4720.0004   -4196.9157   -4720.0004            0    7088.8083    20.003263    19.821568    20.417333    8095.3914     6845.608    6797.9894    7622.8273   -113.22898   -803.87754   -1107.7687   -3359.9899 
28403000      259.794   -4714.4186    -4213.384   -4714.4186            0    9571.5301    19.840107    19.802401    20.499509    8053.8832    9613.1183    10047.499    9053.9734   -38.926816   -61.038611    512.94583   -3089.1348 
28404000    258.39585   -4704.6426   -4206.3044   -4704.6426            0    8810.5941    19.865745    19.677238    20.635691    8066.5532    8575.3307    10224.997    7631.4542    988.28176    550.88737   -59.439007    -3169.805 
28405000    257.50014   -4723.4947    -4226.884   -4723.4947            0    8235.6532    20.079482    19.669454    20.538435    8111.7051    9794.2583    7102.1684    7810.5328    -435.2836    17.646883   -1461.2842   -3252.5988 
28406000    246.46502   -4704.4266   -4229.0981   -4704.4266            0     8003.935    19.938862    19.773967    20.544343    8100.0265    7945.2543    9244.0362    6822.5144   -545.77566    1012.9217    182.50267   -3283.5886 
28407000    266.93023   -4707.8076   -4193.0102   -4707.8076            0    8664.3605    19.830529    19.662883    20.732144     8083.989    8400.6894    9631.7221      7960.67    1030.7456    792.34588   -506.52875   -3171.5108 
28408000    245.34681   -4719.7476   -4246.5756   -4719.7476            0    8366.6542    19.964088    19.934095    20.379467    8110.3356     7720.095    7911.1168    9468.7506   -447.89337   -2043.0624   -48.946174     -3256.96 
28409000    246.85753   -4707.4682   -4231.3827   -4707.4682            0    8012.4628    19.903437     20.01361    20.301164    8086.7576    9038.2583    6929.8311    8069.2989   -315.48166   -472.25224    102.98489   -3286.4163 
28410000    263.65324   -4701.7889   -4193.3114   -4701.7889            0    8181.7157    19.910355    19.870093    20.362655    8055.8858    8461.6281    8100.5054    7983.0136   -758.45106    656.14289   -193.11116   -3232.0676 
28411000    252.62681    -4705.541   -4218.3289    -4705.541            0    11494.583    20.085912    19.785869    20.150439    8008.1311    9758.0565    11888.635    12837.057    -36.21301    101.91775    1415.1821   -2875.8723 
28412000     253.6402   -4697.3502   -4208.1838   -4697.3502            0    9056.4398     19.87187    19.717888    20.665716    8097.4744    10592.224    8048.7743    8528.3216   -142.24132   -159.85984   -23.816219   -3138.6784 
28413000    264.75031   -4698.4692    -4187.876   -4698.4692            0     9892.114    19.802777    19.688284    20.524779     8002.256    10997.104     8023.194    10656.044    311.30255    592.52491    1724.2776   -3033.4199 
28414000      253.866   -4708.0823   -4218.4803   -4708.0823            0    9847.7219    19.831738    19.949597    20.343261    8048.5095    10896.432    9081.9827    9564.7509    52.802383    -655.6298    369.61962   -3062.5621 
28415000    272.16927   -4733.8243    -4208.923   -4733.8243            0    9758.3347    19.762542    19.734615    20.540373    8010.8718    9548.0643    9641.4144    10085.525   -497.77744   -436.98254   -525.91298   -3068.8533 
28416000    266.10537    -4697.539   -4184.3324    -4697.539            0    8435.3074    19.743238    19.791895    20.598313    8048.9165    8450.6502    8826.2216    8029.0505    -92.82629    187.22916    1149.2848   -3194.1523 
28417000    248.36861   -4665.9889   -4186.9891   -4665.9889            0     10311.91    19.744989    19.924941      20.2925    7983.4293    11143.174    9631.5322    10161.023   -202.68026     2461.374    -83.97894   -2986.3722 
28418000    266.06563   -4679.0483   -4165.9184   -4679.0483            0    10591.118    19.958852    19.813112    20.293336    8024.9382    9688.5094    9290.3629    12794.481   -470.90212    58.987211    -492.1963   -2926.3817 
28419000    280.05058   -4709.7599   -4169.6588   -4709.7599            0    7209.2538    19.781555    19.967486    20.566922     8123.686     7639.038    6890.0875    7098.6358   -292.34054   -239.83442    719.42435   -3315.5379 
28420000     255.4215   -4686.5205   -4193.9186   -4686.5205            0    9118.1382    19.754273    19.670813    20.770282    8070.9707    10031.293    10425.108    6898.0135   -708.16887    760.04104   -1010.4733   -3120.6515 
28421000    265.79707   -4715.4754   -4202.8634   -4715.4754            0    7592.2997    19.798701    20.100259    20.461141    8142.6954    6178.6004    8070.1031    8528.1955   -17.160629    147.91557   -348.15515   -3301.2561 
28422000    259.70213   -4727.1343   -4226.2769   -4727.1343            0    7066.7392    20.092099    19.896467    20.356456    8137.7329    5417.3372    7762.1891    8020.6913    858.39849   -662.07807   -279.58551   -3387.5928 
28423000    254.55091   -4725.9181   -4234.9953   -4725.9181            0    10035.047    19.749598    19.881608    20.504668    8051.2349    7942.2869    12836.849    9326.0047    176.85853    770.11231    1222.7394     -3056.69 
28424000    256.07516   -4697.3194   -4203.4569   -4697.3194            0    8087.4768    19.920495    19.685863    20.621139    8086.6237    7610.3643    8922.7889    7729.2771    296.02847    1168.8592    225.21116   -3249.6594 
28425000    266.71019    -4735.211    -4220.838    -4735.211            0    8934.1182    19.987151    19.744059    20.465935    8076.4204    10241.075    8209.9919    8351.2879   -398.09922     396.4086    98.458983   -3168.5212 
28426000    255.34904   -4725.3228   -4232.8607   -4725.3228            0    8813.4831    19.874651    19.835292    20.382914    8035.3419    9130.4476    8016.4979    9293.5037    75.139805    550.14996   0.88699668   -3200.0332 
28427000    256.85634    -4692.403   -4197.0339    -4692.403            0    8131.2561    19.819041    19.811088    20.505538    8051.2281    7270.3171    9072.1439    8051.3071   -465.79219    1327.5306    507.23411   -3242.2707 
28428000    259.98726    -4688.127   -4186.7197    -4688.127            0    10334.996    19.452735    20.011502     20.53475    7993.7357    9831.8075    12900.743    8272.4394   -345.15458    -351.1709   -1314.2931   -2981.8613 
28429000     254.9705   -4677.0183   -4185.2863   -4677.0183            0    7712.6907    20.127329    19.736115    20.541627    8159.8591    7117.5112    7465.0893    8555.4715   -611.25233   -425.66074    609.28352   -3267.4516 
28430000    259.29917   -4685.1458   -4185.0655   -4685.1458            0    9140.0037    19.750331    20.079081    20.342963    8067.3784    9440.8592    7744.8117     10234.34    268.90144   -214.76828    143.84008   -3109.7035 
28431000    253.83084   -4710.0347   -4220.5006   -4710.0347            0    9320.4154    19.873335    19.758545    20.657267    8111.4515    9246.2955    10198.251    8516.6993    89.162999   -519.58555    244.13356   -3117.9216 
28432000    258.41717   -4704.9825   -4206.6032   -4704.9825            0    9146.4207    19.778379    19.782889     20.66186    8084.4379    8569.8138    10540.607    8328.8409   -737.02788    632.79817    919.25248   -3128.2107 
28433000    260.81976   -4728.6097   -4225.5969   -4728.6097            0        10155    19.879661    19.728115    20.366853    7987.6403     8464.011    12552.272    9448.7172    -849.0584    323.53427   -688.96193   -3042.6253 
28434000    253.56304   -4725.5349   -4236.5173   -4725.5349            0    7197.5622    19.908299    19.960599    20.369557    8094.4867    6008.6526    8042.2802    7541.7539   -510.32149    837.21921    830.39269   -3386.8466 
28435000    267.27685   -4692.0274   -4176.5615   -4692.0274            0    10287.502    19.755025    19.695174    20.708991    8057.4265    12474.749    10000.045    8387.7119   -839.33897    1597.3799   -690.84936   -2967.6843 
28436000    269.70355    -4704.432   -4184.2861    -4704.432            0    9462.4068    19.948721    19.870468    20.485473    8120.2455    8903.3194    11658.351      7825.55   -530.66996   -71.817345   -584.26775   -3063.6963 
28437000    266.91082   -4715.2856   -4200.5257   -4715.2856            0    9435.7865    19.924271    19.874981    20.287714    8033.8231    9070.9688    10569.393    8666.9974   -174.72552   -119.39577    287.30771   -3094.9811 
28438000    264.54984   -4706.2129   -4196.0063   -4706.2129            0    9385.9164    19.879231     19.96109    20.281658     8047.987     9430.295    9498.8734    9228.5807    -632.2117    323.40144    580.66987    -3094.366 
28439000    242.84178   -4698.1419   -4229.8011   -4698.1419            0    10028.826    19.624977    19.524062    20.860891    7993.0435    11113.444    10320.938    8652.0979    363.89971    3.9295904   -996.85605   -3060.7374 
28440000    279.43478     -4695.15   -4156.2366     -4695.15            0    9445.7757    19.971475    19.511696    20.507573    7991.3367    9663.7032    8329.6488    10343.975   -232.65422    1039.6197   -3267.4879   -3055.3744 
28441000    265.72321   -4701.0912   -4188.6217   -4701.0912            0    9460.1045     19.68279    19.749579    20.613617    8013.0655    10907.776    8226.3714    9246.1656    194.21783    303.72842     217.2891   -3083.0917 
28442000    253.65738   -4675.7529   -4186.5533   -4675.7529            0    8696.8465    19.841356    19.644889    20.734556    8081.9412    10546.032     7757.946    7786.5613   -54.897436    238.17067   -3.4808607   -3161.4837 
28443000    258.03489   -4700.8612   -4203.2192   -4700.8612            0    8633.6325    19.844269    20.059783    20.327158     8091.667    10752.781    6250.4939    8897.6224    194.65444   -693.45704    -36.11396   -3184.3758 
28444000    257.15923   -4687.9789   -4192.0257   -4687.9789            0    7374.7474    19.865287    19.812886    20.585868    8102.3645    7949.3375    8610.6777    5564.2269    -898.4331    628.20467    724.75961    -3320.591 
28445000     266.0043   -4715.5433   -4202.5316   -4715.5433            0    9021.6707    19.788036    19.740093    20.706015    8088.1355    9445.1063    7923.5942    9696.3115   -267.65325     1386.558    964.18893   -3138.3609 
28446000    251.95924   -4697.7717   -4211.8472   -4697.7717            0    7835.2533    20.269885    19.621701    20.401464    8114.2668    4892.9952    9485.8344    9126.9304   -350.94683    1118.8793   -515.03285   -3284.6369 
28447000    259.55548   -4710.2769   -4209.7024   -4710.2769            0    8450.3508    19.749896    19.877962     20.52742    8058.8122    9276.5499    7860.3929    8214.1096    427.57632    1455.4503   -871.35302   -3216.5368 
28448000    261.41237   -4714.3474   -4210.1917   -4714.3474            0    8888.0677    20.070058    19.866093    20.397706    8132.8435    7314.3327    9278.4557    10071.415   -399.73392   -217.54871    650.25056   -3155.9853 
28449000    267.80228   -4683.0131   -4166.5338   -4683.0131            0    9335.7526    19.800496    19.764632    20.646705    8080.0776    10232.726    7959.5235    9815.0082    245.06512    1076.4673   -704.94766   -3066.4121 
28450000    246.25835   -4690.7975   -4215.8675   -4690.7975            0    8285.5901     19.88155    19.940873    20.479032    8119.0239    7686.3567    8590.6651    8579.7485    457.31612    253.88111    1192.0099   -3234.7904 
28451000    257.66051   -4708.9449    -4212.025   -4708.9449            0    7882.8471    20.087094    19.755036    20.418738    8102.5895    7663.4019    7788.6839    8196.4554   -483.56518    410.70954    197.67727    -3280.525 
28452000    255.26707   -4685.9745   -4193.6705   -4685.9745            0    9705.1647     19.66741    19.663175    20.824046    8053.1526    10767.659    9215.7503    9132.0851    108.02038    613.22267    863.66631   -3053.8283 
28453000     257.8871   -4724.7235   -4227.3666   -4724.7235            0    8740.9465    19.937506    19.622557     20.53875    8035.2692    7016.6725    10425.176    8780.9914   -181.10538   -138.34296    775.33092   -3203.0486 
28454000    251.77812   -4722.5874   -4237.0121   -4722.5874            0    8113.0781    19.994174    19.973185    20.302783    8107.8622    8501.6541    7054.6792    8782.9009   -424.72267    806.28687    802.00241   -3277.6824 
28455000    241.68071   -4704.3372   -4238.2356   -4704.3372            0    9229.8431    19.863428     19.80653    20.449536    8045.3708    8685.4721    9067.7711    9936.2862    509.11015    163.47976   -366.03444    -3155.266 
28456000    250.08105   -4720.9906   -4238.6882   -4720.9906            0    8907.4031     19.88779    19.695205    20.617483    8075.7467    8455.5263    10901.319    7365.3643    539.51057    820.91116   -164.56854   -3189.6056 
28457000    256.19098   -4714.3354   -4220.2496   -4714.3354            0    8397.4645    19.927918    20.058218    20.252928    8095.4705    8556.3661    8373.5184    8262.5092    -697.0618   -603.31804   -26.576047   -3228.8102 
28458000    255.38014   -4683.8189   -4191.2969   -4683.8189            0    9166.5202    19.752738    19.769724    20.561968    8029.5758    11552.779    7692.8916    8253.8899     443.5563   -980.08509    238.90485   -3117.8687 
28459000    260.91404   -4716.9107    -4213.716   -4716.9107            0    7401.1291    19.747727    19.845256    20.649809     8092.633     6751.762    8915.4372     6536.188   -252.20878   -316.50006   -171.04948   -3340.2144 
28460000    267.51557   -4702.3011   -4186.3749   -4702.3011            0    8338.9132    19.814347    19.867892    20.677787    8140.2102    8756.9605    8730.5671    7529.2121    -290.1636   -102.25111    1108.4113   -3196.4073 
28461000    249.75296   -4674.3641   -4192.6945   -4674.3641            0     9954.303    19.987252    19.752472    20.319672    8022.1587    9915.0087    8758.4828    11189.417    30.580398    1406.9572   -385.63508   -3028.0913 
28462000    254.08418   -4690.2863   -4200.2636   -4690.2863            0    10183.842    19.856686    19.759328    20.491806    8040.0582    10363.773    10308.855    9878.8971    526.07133     78.79989    571.99538    -3006.147 
28463000    253.26746   -4679.5531   -4191.1055   -4679.5531            0    7069.6798    19.745058    20.035773    20.575574     8139.851    7079.8024     7654.762    6474.4749    202.32437   -342.16803    1384.8276   -3351.8541 
28464000    257.18396   -4693.8542   -4197.8533   -4693.8542            0    8520.2882    19.911774     19.61807    20.644652    8064.4324    8558.5538    9159.5953    7842.7156    836.15767   -386.26324   -214.08588   -3195.7696 
28465000    243.64865   -4736.1648   -4266.2678   -4736.1648            0    7886.2475    19.990639    19.911836    20.405674    8122.4854    7881.2377    6778.1547    8999.3499   -311.45549   -270.78973   -1243.4806   -3332.0778 
28466000    250.72904   -4704.0849   -4220.5329   -4704.0849            0    8680.9498    20.057815     20.02699    20.131107    8086.6183    8071.5037    7166.3193    10805.026   -404.22383   -420.05323   -701.84535   -3196.7448 
28467000     247.3175   -4726.0276    -4249.055   -4726.0276            0    8015.5101    19.788739    19.950212    20.540079    8109.0078    8935.6791    6805.7966    8305.0547    82.564633     170.9867    83.357873   -3301.1283 
28468000     263.1509   -4693.6943   -4186.1856   -4693.6943            0    8992.8838    19.992669    19.728686    20.436221    8060.6398    8062.9771    10010.745    8904.9295    549.37904    62.810595   -1496.9077   -3129.0167 
28469000    266.06195   -4697.1654   -4184.0426   -4697.1654            0    10482.584    19.702641    20.018669    20.301886     8007.483    10383.924    10608.042    10455.787   -334.33815    1282.6423    385.52697   -2959.8767 
28470000    256.00749   -4728.0505   -4234.3185   -4728.0505            0    10125.286    19.978121    19.704157    20.396285    8029.0392    10940.283    9949.9307    9485.6443    544.97036    581.74769    549.20356   -3048.6951 
28471000    253.73146   -4701.3578   -4212.0154   -4701.3578            0    9935.4399     19.69975    20.015007    20.441352    8059.8335    13072.858    6431.1919     10302.27   -381.08347     86.14062    268.72304     -3044.16 
28472000     267.8291   -4746.1553   -4229.6244   -4746.1553            0    8173.2527    19.841628    19.844273    20.484503    8065.6233    8757.1968    7271.2303     8491.331    251.42117    1096.5771     -1585.98   -3268.2141 
28473000    251.84124   -4721.5294   -4235.8324   -4721.5294            0    7713.4267    19.696071    19.785777    20.850635    8125.5351    8291.4591    7955.7385    6893.0824   -378.51684   -671.75349   -934.31049   -3321.7713 
28474000    259.77145   -4712.5446   -4211.5535   -4712.5446            0    8939.6804    19.861753    19.805547    20.560641    8087.9986    10672.682    8585.3418    7561.0172   -421.21334   -898.31774   -771.62937    -3157.072 
28475000    257.95119   -4732.6139   -4235.1333   -4732.6139            0    9173.3866    20.228338    19.578652    20.387231    8074.2323    8375.5919    11328.805    7815.7624   -797.55146   -377.34715    988.79368   -3154.9268 
28476000    253.12873    -4698.305   -4210.1249    -4698.305            0    9933.7309    19.635911    20.009842    20.512583    8059.6292    10350.649     10176.45     9274.094    371.81827   -668.77554   -760.18528      -3042.5 
28477000    273.04236   -4679.0941   -4152.5089   -4679.0941            0     7955.097      20.0219    19.577097    20.714289    8119.3938    9244.4739    9061.2127    5559.6042    324.42026   -682.08442    1353.1546   -3210.5218 
28478000    256.90334   -4686.3386   -4190.8789   -4686.3386            0    6576.8882    19.939177    20.120767    20.368734    8171.7639    7241.8952    5522.7916    6965.9777   -373.88624    3.4948019   -1098.5554   -3407.0664 
28479000    267.27715   -4720.1954   -4204.7289   -4720.1954            0    6564.5386    19.962379    19.807972    20.723095    8194.2066    5448.4772    7747.2241    6497.9145    269.34919   -363.66279    -1414.954   -3420.2397 
28480000    280.20885   -4717.4134   -4177.0071   -4717.4134            0    8659.4252    19.947386    19.724917    20.568704    8092.9737    8337.0101     9266.217    8375.0485    65.020421   -748.76317    557.36445   -3154.9549 
28481000    264.65219    -4697.469    -4187.065    -4697.469            0    8824.9169    20.019534    19.702469    20.478615    8077.4673    6985.2545    9940.0409    9549.4554   -20.172109    871.43114    -542.3814   -3147.4759 
28482000    258.66994   -4705.5686   -4206.7018   -4705.5686            0    8326.9716    19.713457    19.826429    20.684459    8084.4686    8045.0641    8520.4953    8415.3553    227.28073    140.82311    426.88058   -3224.9212 
28483000    265.82907   -4729.3651   -4216.6913   -4729.3651            0    8825.9571    19.831232    19.895484    20.323469    8018.6645    8104.7171    8841.0898    9532.0643   -21.898916   -171.21888    248.00578   -3184.5486 
28484000    269.50712   -4711.7247   -4191.9575   -4711.7247            0    8523.8758    20.006598    19.806356    20.421106    8092.0227    7868.5532    8070.2177    9632.8565    627.02058   -645.36312   -489.94882   -3186.0221 
28485000    251.90705   -4713.6831   -4227.8592   -4713.6831            0     9484.505    19.830111    19.877164    20.458651    8064.1119    9998.8967    9938.3908    8516.2275    973.02161     1162.645     385.4123   -3112.4169 
28486000    249.47212   -4700.9187   -4219.7907   -4700.9187            0    8980.7628    19.899457    19.819263    20.341999    8022.7335    7376.2592    9504.0161    10062.013   -126.65298    83.135956    443.27525   -3169.0115 
28487000    265.63055   -4717.0028    -4204.712   -4717.0028            0    8879.4388    19.737844    19.898562    20.482365    8044.5452    8510.7694    9600.8082    8526.7388   -842.34704   -1395.4151   -2496.3343   -3162.9634 
28488000     263.4684   -4704.8843   -4196.7633   -4704.8843            0     9561.928    19.993385    19.767033     20.37568    8052.6707    10007.483    8967.3874    9710.9136    947.74361    1497.9037    347.17907   -3073.8111 
28489000     253.8803    -4692.613   -4202.9835    -4692.613            0    10832.916      19.7556    19.901821    20.334116    7994.8133    11241.487    8434.3077    12822.953   -246.89414    1658.4089   -275.63552   -2939.9072 
28490000    253.81081   -4690.7225    -4201.227   -4690.7225            0    9686.8255    19.888307    19.798025    20.628461    8122.4395     9944.766    10321.982     8793.728   -552.99383    272.76311   -822.85377   -3053.7503 
28491000    250.02549   -4698.3311   -4216.1359   -4698.3311            0    11850.829    19.716416    19.849569    20.326337    7954.9632    10647.308    12585.206    12319.973    484.73411    275.67962    414.80576   -2841.2622 
28492000    256.99784   -4696.6308   -4200.9889   -4696.6308            0    8418.0569    19.804867    19.965741    20.462015    8091.0663    7782.7061    9508.4117     7963.053    267.29075    1877.9538    386.49853    -3207.659 
28493000    260.31451   -4690.3667   -4188.3283   -4690.3667            0    7730.6674    20.174367    19.579431    20.505882    8099.8775    6693.4009    8015.3452     8483.256    982.41871   -156.01584   -608.25032   -3275.1169 
28494000    262.55146   -4695.2366    -4188.884   -4695.2366            0    7977.5039    19.789939    19.925076    20.484615    8077.4117    7863.6806    8784.3643     7284.467    1348.5332    172.51679    774.19472   -3249.1279 
28495000     268.8055   -4682.1349   -4163.7209   -4682.1349            0     8504.596    19.782304    20.022365    20.462373    8104.9109    7004.5426    10514.164    7995.0819    184.05448   -141.91005   -1436.3002   -3158.4623 
28496000    267.73045    -4708.339   -4191.9983    -4708.339            0    7666.1153    19.969817    19.691566    20.584523    8094.5956     7383.197    8330.2077    7284.9412   -119.65985    1165.4812    -234.4828   -3287.0029 
28497000    249.46227   -4683.4508   -4202.3418   -4683.4508            0    11027.417    19.552411    19.944464    20.536499    8008.4617     11949.16    11575.892    9557.1977    33.010566   -871.93526   -829.23635   -2914.3925 
28498000    254.50197   -4672.1774    -4181.349   -4672.1774            0    8487.5496    20.154954    19.848151    20.269442    8108.5584    9237.4032    6861.8067    9363.4389    -334.0222   -41.540608    -841.8606   -3177.6537 
28499000    244.45326   -4705.9811   -4234.5324   -4705.9811            0    9284.9589    20.022435    19.896257    20.310532    8091.1371    8991.8425    9818.8735    9044.1607    231.03109    364.82019    448.15292   -3138.8986 
28500000    272.50674   -4691.5246   -4165.9725   -4691.5246            0    10110.574    19.908147    19.732458    20.516875    8059.7811    11958.105    10113.443    8260.1757    -915.0828    338.55648    646.05266   -2977.5388 
Loop time of 415.892 on 64 procs for 250000 steps with 972 atoms

Performance: 103.873 ns/day, 0.231 hours/ns, 601.118 timesteps/s
194.0% CPU use with 32 MPI tasks x 2 OpenMP threads

MPI task timing breakdown:
Section |  min time  |  avg time  |  max time  |%varavg| %total
---------------------------------------------------------------
Pair    | 26.778     | 35.914     | 45.816     |  71.2 |  8.64
Bond    | 0.83805    | 1.1628     | 1.8626     |  19.2 |  0.28
Kspace  | 173.45     | 187.71     | 199.87     |  44.3 | 45.14
Neigh   | 2.2574     | 2.6711     | 3.2125     |  19.6 |  0.64
Comm    | 75.979     | 88.248     | 95.893     |  52.8 | 21.22
Output  | 0.48075    | 0.48112    | 0.48276    |   0.0 |  0.12
Modify  | 80.424     | 84.473     | 88.769     |  22.0 | 20.31
Other   |            | 15.23      |            |       |  3.66

Nlocal:        30.3750 ave          35 max          23 min
Histogram: 1 0 1 3 4 8 2 5 3 5
Nghost:        2707.06 ave        2726 max        2686 min
Histogram: 1 4 1 2 7 5 2 5 2 3
Neighs:        9743.78 ave       12249 max        7475 min
Histogram: 2 1 7 4 3 5 4 2 2 2

Total # of neighbors = 311801
Ave neighs/atom = 320.78292
Ave special neighs/atom = 2.0000000
Neighbor list builds = 7680
Dangerous builds = 0

unfix		3
unfix		2
unfix		1

write_data	data.final.${pid}
write_data	data.final.0
System init for write_data ...
PPPM initialization ...
  extracting TIP4P info from pair style
  using 12-bit tables for long-range coulomb (../kspace.cpp:340)
  G vector (1/distance) = 0.37207927
  grid = 24 24 24
  stencil order = 5
  estimated absolute RMS force accuracy = 0.0035233818
  estimated relative force accuracy = 1.061056e-05
  using double precision FFTW3
  3d grid and FFT values/proc = 3211 432
Last active /omp style is kspace_style pppm/tip4p/omp
WARNING: Not all mixed pair coeffs generated from mixing. Use write_data with 'pair ij' option to store all pair coeffs. (../write_data.cpp:312)

write_restart   restart.lmp.${pid}
write_restart   restart.lmp.0
System init for write_restart ...
PPPM initialization ...
  extracting TIP4P info from pair style
  using 12-bit tables for long-range coulomb (../kspace.cpp:340)
  G vector (1/distance) = 0.37207927
  grid = 24 24 24
  stencil order = 5
  estimated absolute RMS force accuracy = 0.0035233818
  estimated relative force accuracy = 1.061056e-05
  using double precision FFTW3
  3d grid and FFT values/proc = 3211 432
Last active /omp style is kspace_style pppm/tip4p/omp
Total wall time: 0:06:56
