LAMMPS data file via write_data, version 30 Jul 2021, timestep = 22250000

1296 atoms
2 atom types
864 bonds
1 bond types
432 angles
1 angle types

-10.758350955226103 12.738350955226103 xlo xhi
-9.134070871981143 12.124068871981143 ylo yhi
0.08646711035111387 21.773531889649462 zlo zhi
-9.361470207957922 1.8510346718004058 2.7858971218452324 xy xz yz

Masses

1 1.008
2 15.999

Pair Coeffs # lj/cut/tip4p/long/omp

1 0 0
2 0.21084 3.1668

Bond Coeffs # harmonic/omp

1 450 0.9572

Angle Coeffs # harmonic/omp

1 55 104.52

Atoms # full

280 94 2 -1.1794 -9.45355141334446 -4.434286331617852 1.6529512886835989 1 1 0
270 90 1 0.5897 -8.61012806359749 -7.535509842967484 2.0909161372449256 1 1 0
269 90 1 0.5897 -9.141904573416065 -6.139216158077266 2.3339837730805573 1 1 0
268 90 2 -1.1794 -9.227801147283728 -7.044484647398052 2.632731510842113 1 1 0
314 105 1 0.5897 -8.934784945115098 -6.660200483765096 4.535032187852128 1 1 0
299 100 1 0.5897 -6.630417296774916 -7.866875712866063 4.096602216465287 1 1 0
163 55 2 -1.1794 -7.282386536007426 -8.163914991529314 1.0854014964995433 1 1 0
164 55 1 0.5897 -6.587270208397786 -8.618942942780912 1.5607410126806034 1 1 0
298 100 2 -1.1794 -5.97509955943217 -7.186518617579148 3.942238409841054 1 1 0
73 25 2 -1.1794 -8.382473050296964 -3.6738443608014153 4.596823695680899 1 0 0
324 108 1 0.5897 -7.131820293405327 -4.3007905857188655 3.3900462229189605 1 1 0
107 36 1 0.5897 -9.36470236749975 1.3490660177862779 3.2821367492721496 1 0 0
282 94 1 0.5897 -10.34989784967338 -4.100539042505653 1.6899062785729744 1 1 0
84 28 1 0.5897 -8.0510813448284 -0.4062515059716407 4.049411241252013 1 0 0
75 25 1 0.5897 -9.147331052715925 -3.2379060707268907 4.221141880803379 1 0 0
281 94 1 0.5897 -8.919384301385065 -3.665828565638887 1.452223764221759 1 1 0
301 101 2 -1.1794 -7.973131696275715 -2.069249444739195 1.3532990266958806 1 1 0
53 18 1 0.5897 -12.40130957850097 0.8946764141138388 2.001839369796639 1 0 0
313 105 2 -1.1794 -8.895056258125152 -6.332952966674055 5.4336478303961115 1 1 0
259 87 2 -1.1794 -6.61681749648637 -5.452524498089552 0.25618276439021515 1 1 0
322 108 2 -1.1794 -6.45411633378096 -4.698401962407809 2.8433858876297675 1 1 0
300 100 1 0.5897 -5.142041262925183 -7.657160795432127 3.9160782799200073 1 1 0
243 81 1 0.5897 -0.9962386320188727 -5.6193316090631775 5.254664519394518 0 1 0
256 86 2 -1.1794 -12.175535262076238 -3.254524136249687 1.863484341889398 1 1 0
258 86 1 0.5897 -12.6311072932203 -2.661413890248455 1.2660886505147033 1 1 0
27 9 1 0.5897 -4.0699835516407 1.6303365739706628 5.273816528803657 0 0 0
90 30 1 0.5897 -3.6715562990369275 -0.14125735204811285 2.058049668520849 1 0 0
69 23 1 0.5897 -10.999153539574776 -2.4790324577166887 3.170571756729181 1 0 0
272 91 1 0.5897 -9.442475925912689 -1.1882794726343224 1.0454840575601083 1 1 0
83 28 1 0.5897 -9.494615223700556 -0.7793040113220684 4.311817728902092 1 0 0
82 28 2 -1.1794 -8.902231543573064 -0.02862763227391696 4.271079116188991 1 0 0
271 91 2 -1.1794 -10.24859883088588 -0.8675506890662827 0.6411529113748635 1 1 0
98 33 1 0.5897 -11.901940863311658 0.31213680917436015 4.273695828958423 1 0 0
54 18 1 0.5897 -11.625492321807545 -0.39444308564607766 1.8349449807200366 1 0 0
67 23 2 -1.1794 -10.672175519676374 -2.158399045465697 4.0110713886153775 1 0 0
68 23 1 0.5897 -11.392468422541732 -2.310813802300734 4.622822795248851 1 0 0
52 18 2 -1.1794 -12.293695454230669 0.021756513903957497 2.37945328456598 1 0 0
261 87 1 0.5897 -6.551988531214354 -5.123219187861868 1.1525912070771889 1 1 0
323 108 1 0.5897 -6.415621854659896 -5.609600047811366 3.1338594993408035 1 1 0
97 33 2 -1.1794 -11.899436536420577 0.6018015857735186 5.185999894948783 1 0 0
317 106 1 0.5897 -1.1859844620616755 -3.7500753542903507 1.5492680386116804 1 1 0
103 35 2 -1.1794 -2.9728462248669674 -2.2179866325109705 3.9738817350055107 1 0 0
310 104 2 -1.1794 -3.49335503692674 -8.505269131536398 3.817150200206842 1 1 0
275 92 1 0.5897 -10.637685516793885 -7.956740051509568 3.3198465140035305 1 1 0
241 81 2 -1.1794 -1.0137230717766954 -6.5747115500461115 5.309570786529771 0 1 0
88 30 2 -1.1794 -4.413295916568244 0.21982865533636442 2.5434914466525296 1 0 0
302 101 1 0.5897 -7.661980522694343 -1.9690086781777802 2.252940750174227 1 1 0
309 103 1 0.5897 -2.688340275447599 -1.3130035146776358 0.1204593466919246 1 1 0
306 102 1 0.5897 -0.7897126732191921 -7.358226984761943 1.993807104503787 1 1 0
304 102 2 -1.1794 -1.4962477782182404 -7.043505145342744 2.5577160295992964 1 1 0
318 106 1 0.5897 -2.6644165652436573 -4.055725466473283 1.4372622876498424 1 1 0
242 81 1 0.5897 -1.2498833754351928 -6.861393003136968 4.427401602148556 0 1 0
305 102 1 0.5897 -1.5536256185864765 -6.106686698725978 2.3701658813550965 1 1 0
316 106 2 -1.1794 -1.8138388725246024 -4.471983667310723 1.5766300205101793 1 1 0
311 104 1 0.5897 -2.753511725381557 -8.126386301862578 3.3424531773797077 1 1 0
293 98 1 0.5897 -4.989207367840398 -3.612703317227803 2.341636381658898 1 1 0
303 101 1 0.5897 -7.182891726298822 -2.0030375586998 0.8171832433707864 1 1 0
294 98 1 0.5897 -4.7242610599077315 -2.7164571294773214 1.1505920061371766 1 1 0
3 1 1 0.5897 -1.5269676850806029 -3.5021628654663086 4.215443227774362 0 0 0
96 32 1 0.5897 -6.0071152483298835 -1.878768869603415 4.540696697475994 1 0 0
95 32 1 0.5897 -5.7415193016932475 -0.8672243611094412 3.4460758934113054 1 0 0
105 35 1 0.5897 -3.4218251279643415 -2.540465047166248 3.192495295664779 1 0 0
94 32 2 -1.1794 -6.439121811833345 -1.391895618329623 3.8388757314611444 1 0 0
104 35 1 0.5897 -3.5852175313615477 -2.3876057213010453 4.689806961088347 1 0 0
26 9 1 0.5897 -4.310477129457357 0.45198707205815936 4.354537019863467 0 0 0
292 98 2 -1.1794 -4.280335110130793 -3.208258445401939 1.8414564262022965 1 1 0
89 30 1 0.5897 -4.564092991408891 1.0781392030319044 2.1476268374228282 1 0 0
99 33 1 0.5897 -11.650625642864501 1.5250529495443068 5.143812045875652 1 0 0
74 25 1 0.5897 -8.115228789968883 -3.1078963385650216 5.320951961354961 1 0 0
315 105 1 0.5897 -8.70958986681259 -5.3985855768608255 5.340644404777035 1 1 0
633 211 1 0.5897 -5.874418881836959 -6.207530068242093 5.3708552589318455 1 1 0
417 139 1 0.5897 -8.796458188590467 1.0589493681300368 5.5043469588097755 1 0 0
25 9 2 -1.1794 -4.1629137940436856 0.6777453984695079 5.272926771803251 0 0 0
201 67 1 0.5897 0.31323003251537784 -8.569511801154592 0.36911237709853334 1 1 0
165 55 1 0.5897 -7.475736819168864 -8.732742741396356 0.3403232475153934 1 1 0
260 87 1 0.5897 -6.7554433019799704 -6.394273067826047 0.35607579555226393 1 1 0
1 1 2 -1.1794 -0.7971479248714637 -3.870890814075433 4.713033989496191 0 0 0
59 20 1 0.5897 -13.767030528842911 -0.7867203154558577 3.3917276303334565 1 0 0
1143 381 1 0.5897 -10.228631572664298 -7.885729385551239 0.20284876841941452 0 0 1
44 15 1 0.5897 -10.344699866028472 0.9180010209200429 0.16861828650849411 1 0 0
1141 381 2 -1.1794 -10.446981957977204 -8.817088792700437 0.17207118276433245 0 0 1
1226 409 1 0.5897 -9.699570988636818 -5.589713398092054 0.1627140509975063 0 0 1
420 140 1 0.5897 -9.236267645853719 -6.214770941806874 9.944011938695262 1 0 0
618 206 1 0.5897 -7.830659718052154 -7.237070767452796 6.677693857431842 1 1 0
413 138 1 0.5897 -7.663447326977391 -3.7034829581783884 7.502602379496048 1 0 0
419 140 1 0.5897 -9.054643466052255 -5.4318680181499275 8.660990861606425 1 0 0
418 140 2 -1.1794 -9.725908540746172 -5.75489274937488 9.262103762569186 1 0 0
414 138 1 0.5897 -6.950932316240261 -5.022420829212006 7.292202509629791 1 0 0
350 117 1 0.5897 -7.358651202878703 -4.388208299960213 9.854006552292887 0 0 0
412 138 2 -1.1794 -7.604688542194429 -4.595139018985339 7.845592652354089 1 0 0
429 143 1 0.5897 -6.488142737756501 -7.15137903843638 8.664237459032613 1 0 0
427 143 2 -1.1794 -6.065057584335113 -7.087986006089427 9.520502652373619 1 0 0
428 143 1 0.5897 -6.770095853002977 -7.244348658856474 10.148809874615377 1 0 0
522 174 1 0.5897 -9.902718781599742 2.2629424814469914 7.413206982709054 1 0 0
430 144 2 -1.1794 -12.487997036826162 -2.114962079047009 8.351386694310495 1 0 0
330 110 1 0.5897 -3.1398123760962946 -0.32862383615555935 6.607173277270677 0 0 0
435 145 1 0.5897 -7.689765776567432 -1.0051723377481796 9.663321241580256 0 0 0
425 142 1 0.5897 -7.22391970321634 -1.36951276611126 6.722976182429447 1 0 0
400 134 2 -1.1794 -10.301899659616044 -0.9494536896739625 7.064673406425144 1 0 0
536 179 1 0.5897 -9.79879450761518 -0.010151992329168635 9.901909480268738 1 0 0
402 134 1 0.5897 -10.690547698187402 -0.5159970032723251 6.304853562579091 1 0 0
526 176 2 -1.1794 -12.863582630613315 1.2616579714173604 8.951687182271783 1 0 0
464 155 1 0.5897 -1.8067211489037085 -0.11850852327607342 10.19900600604731 0 0 0
537 179 1 0.5897 -9.545965728313515 -0.12188809530338496 8.413411238308539 1 0 0
426 142 1 0.5897 -8.701533271674592 -1.6461900985030393 6.90166800558685 1 0 0
401 134 1 0.5897 -11.043644295463565 -1.350434875847859 7.517750696255626 1 0 0
527 176 1 0.5897 -12.1097223787223 1.5789268378182744 8.454432914871711 1 0 0
535 179 2 -1.1794 -9.101930720604036 0.03308997226540811 9.247077243077827 1 0 0
424 142 2 -1.1794 -7.857976358981045 -2.0836741080019037 6.786767828533584 1 0 0
528 176 1 0.5897 -12.484434661022483 0.7143107407071945 9.63936713106189 1 0 0
356 119 1 0.5897 1.0966289201523658 -6.9030374543969035 10.126592445752847 0 0 0
337 113 2 -1.1794 -6.359352059967308 0.21726521043884084 6.8280903976016045 0 0 0
616 206 2 -1.1794 -7.369738430203233 -7.877130227853183 7.219987304806268 1 1 0
631 211 2 -1.1794 -5.6455899896972435 -5.689064681117589 6.142180435212721 1 1 0
415 139 2 -1.1794 -8.70533044144167 1.6930263223270785 6.21549175308637 1 0 0
329 110 1 0.5897 -3.64572487291786 -1.414603439528764 7.532733139209379 0 0 0
454 152 2 -1.1794 -4.883304487478243 1.1379583759165275 9.175409134314576 0 0 0
335 112 1 0.5897 -5.0469288658447535 -5.551523641589293 9.52533752793726 0 0 0
433 145 2 -1.1794 -6.909559841818885 -1.3869252982924483 10.065475019561738 0 0 0
411 137 1 0.5897 -13.401411519089052 0.29346017580626693 6.175519915674081 1 0 0
434 145 1 0.5897 -6.692309612518239 -0.7902571476013289 10.781627154660923 0 0 0
555 185 1 0.5897 -2.600036886938753 -6.808950503972553 6.3587826378553505 0 1 0
416 139 1 0.5897 -7.869501240471939 1.4735598973614064 6.627074517950688 1 0 0
347 116 1 0.5897 -1.3422239742889026 -5.3660086010139825 8.837897758643571 0 0 0
348 116 1 0.5897 -1.5533629916330725 -6.438863284600127 9.884981320372736 0 0 0
336 112 1 0.5897 -3.5951048291094763 -5.137613573011286 9.412782443973924 0 0 0
359 120 1 0.5897 -4.782387571490111 -3.1513104012307664 8.691428764026753 0 0 0
346 116 2 -1.1794 -2.017477355930989 -5.92234487968237 9.226172033383905 0 0 0
632 211 1 0.5897 -4.808002602365373 -6.049213719369652 6.433597146911479 1 1 0
546 182 1 0.5897 -0.05458221855503709 -7.2287227220869 6.728656707517467 0 1 0
553 185 2 -1.1794 -3.358185684208631 -6.855878887660094 6.941266992664381 0 1 0
554 185 1 0.5897 -3.023507641322654 -6.577676834053769 7.793772182501066 0 1 0
334 112 2 -1.1794 -4.484577008630164 -4.784129156294604 9.420506282584336 0 0 0
627 209 1 0.5897 -10.370066176454088 -6.451085514758457 6.374596965549922 1 1 0
338 113 1 0.5897 -5.840286120110281 0.31518802067494356 7.626306016467549 0 0 0
544 182 2 -1.1794 0.3852762153456606 -7.7346250052089776 7.4119061599932206 0 1 0
456 152 1 0.5897 -4.465593343096219 0.5540979410895446 9.808537246735323 0 0 0
360 120 1 0.5897 -5.671404524004624 -1.936922017595064 8.854276434569863 0 0 0
328 110 2 -1.1794 -2.8587333120172618 -0.9191237714751335 7.306136704841138 0 0 0
339 113 1 0.5897 -5.730290458391171 0.3365963819873379 6.116514686649551 0 0 0
455 152 1 0.5897 -4.154866349151756 1.5334559671279244 8.696630466914602 0 0 0
442 148 2 -1.1794 -7.485315630807378 2.3111460196481683 9.35994194853627 0 0 0
444 148 1 0.5897 -6.597429017050819 2.016707741707643 9.157145131917684 0 0 0
358 120 2 -1.1794 -4.973897022670097 -2.2963319715548547 8.306068649547885 0 0 0
443 148 1 0.5897 -8.002607210137171 1.5066565904948366 9.39600997506115 0 0 0
405 135 1 0.5897 -5.161673253878942 -2.7574549312841823 6.5138025440557925 1 0 0
410 137 1 0.5897 -13.776381098113692 0.5677764426571521 7.616399167616651 1 0 0
349 117 2 -1.1794 -7.312083195141424 -4.094727442047804 10.76389928646889 0 0 0
403 135 2 -1.1794 -5.01140667335163 -3.076915794068519 5.624093101316999 1 0 0
351 117 1 0.5897 -7.188413419635948 -3.1475006900937483 10.704353026242508 0 0 0
626 209 1 0.5897 -10.701858497194346 -6.492049688696517 7.851190052765299 1 1 0
404 135 1 0.5897 -5.328664300932244 -3.9798323572047902 5.636682147035543 1 0 0
669 223 1 0.5897 -4.327666360894299 -3.4833980449516506 10.785426683239562 0 0 0
652 218 2 -1.1794 -5.910318858348179 -5.747288243759985 12.505528057101202 0 0 0
780 260 1 0.5897 -7.694459024953235 -3.9506550781250143 15.077765190752062 0 0 0
779 260 1 0.5897 -7.222355019960029 -2.990730771157118 14.006456226405847 0 0 0
778 260 2 -1.1794 -8.014388444528713 -3.370306928518442 14.387045452763338 0 0 0
768 256 1 0.5897 -9.62286004061454 -2.4757105308019387 14.717851565598394 0 0 0
654 218 1 0.5897 -6.260942248951041 -5.082303558016349 11.913008500039025 0 0 0
653 218 1 0.5897 -6.650034789479771 -5.9844629055008145 13.064862099555086 0 0 0
662 221 1 0.5897 -9.11366710314826 -4.248452264966279 13.1958806980655 0 0 0
661 221 2 -1.1794 -9.507818251890322 -4.4337704677312 12.343540130499267 0 0 0
663 221 1 0.5897 -8.771955369751122 -4.423408041045233 11.731422529974063 0 0 0
684 228 1 0.5897 -8.659952320587468 -6.5543587252187185 14.613378505332154 0 0 0
682 228 2 -1.1794 -8.046035265805132 -6.775784810372954 13.913138089699256 0 0 0
740 247 1 0.5897 -10.892500875940698 -3.3175256945189657 11.964803822106258 1 0 0
807 269 1 0.5897 -4.174193135662754 2.745395014658717 11.661913553096014 0 0 0
797 266 1 0.5897 -1.9385870130382301 1.2289344700308753 13.093949528907098 0 0 0
655 219 2 -1.1794 -0.5399216965802154 -7.471476086366822 10.966024557182239 0 0 0
766 256 2 -1.1794 -10.498525838190002 -2.1777761093956185 14.964126117153821 0 0 0
729 243 1 0.5897 -8.283596995493731 -7.163703238754108 12.013813671613743 1 0 0
727 243 2 -1.1794 -8.467706558327137 -7.300537527986925 11.084509065814096 1 0 0
790 264 2 -1.1794 -11.139739212732305 0.25297464873787945 13.623964938129909 0 0 0
762 254 1 0.5897 -9.365768608356499 1.963100428064367 11.719171158152513 0 0 0
761 254 1 0.5897 -9.550945379693934 0.9374474470413485 12.817232755888295 0 0 0
764 255 1 0.5897 -3.7372304407226506 -1.2349158276425554 11.029628773811924 0 0 0
792 264 1 0.5897 -11.913938984767427 0.5804674195749993 14.081766417698912 0 0 0
924 308 1 0.5897 -2.876273069270712 3.017804338170304 15.291090693673839 0 0 0
760 254 2 -1.1794 -8.880997651646672 1.4525104936121842 12.367646175519377 0 0 0
837 279 1 0.5897 -11.434683249341122 -0.042447837218080764 11.858368490613238 1 0 0
791 264 1 0.5897 -10.95246008954867 -0.588086024533899 14.040765250449954 0 0 0
866 289 1 0.5897 -12.604712268941512 2.0587672593130097 16.005798513239558 0 0 0
788 263 1 0.5897 -5.199525866926821 -4.956974272537941 15.341278304406302 0 0 0
769 257 2 -1.1794 -12.602769889571306 2.5656482592926473 12.287644175767518 0 0 0
896 299 1 0.5897 -8.182971876970525 2.37336691338049 15.360720136700289 0 0 0
770 257 1 0.5897 -12.17612428150484 2.904368215300396 13.074650574983137 0 0 0
767 256 1 0.5897 -11.019452802376945 -2.9791623781042578 15.014332725970123 0 0 0
805 269 2 -1.1794 -4.823179710888193 2.5269142745459643 12.330789636424182 0 0 0
897 299 1 0.5897 -8.029624904364347 2.309648844398561 13.855908105471492 0 0 0
678 226 1 0.5897 -4.199656649141944 -6.5564876178035 12.243431936167129 0 0 0
802 268 2 -1.1794 -2.850654038311209 -2.4654082641259647 15.134611378295439 0 0 0
816 272 1 0.5897 -0.029882566483887985 -4.0171748764462425 15.204701992806644 0 0 0
689 230 1 0.5897 1.053818703715553 -5.688034677972591 13.144288688268933 0 0 0
667 223 2 -1.1794 -4.000596078255915 -3.021903147646009 11.557541764540579 0 0 0
789 263 1 0.5897 -4.862575416044216 -5.006805094147013 13.866137207348034 0 0 0
676 226 2 -1.1794 -3.273432676663232 -6.788541464864438 12.176653593943133 0 0 0
814 272 2 -1.1794 -0.3556935243220867 -3.4901715126221777 14.475063343239974 0 0 0
785 262 1 0.5897 -5.886386655293066 0.992470497686373 12.26355027428667 0 0 0
657 219 1 0.5897 -0.6538127034668921 -7.351981502147452 11.908904166797695 0 0 0
803 268 1 0.5897 -3.381901207718302 -3.25446249496132 15.240873525051368 0 0 0
795 265 1 0.5897 -2.903872345394838 -5.51349141501592 15.120664913398308 0 0 0
720 240 1 0.5897 -0.8512821877594181 -6.533908118464589 14.363888113953328 0 0 0
804 268 1 0.5897 -1.9929017847932542 -2.788807141626738 14.859142223371677 0 0 0
698 233 1 0.5897 -1.366117584154825 -4.177676624627885 13.001388712192313 0 0 0
699 233 1 0.5897 -1.0697247362364362 -4.358223172764012 11.52776310030598 0 0 0
697 233 2 -1.1794 -1.7761915954391512 -4.4188620802679965 12.17082384671413 0 0 0
718 240 2 -1.1794 -0.31477602318479825 -6.960522672835255 13.695782654510081 0 0 0
677 226 1 0.5897 -2.80963877578764 -5.958220506012454 12.284014673734156 0 0 0
668 223 1 0.5897 -3.16279626945507 -3.4422402777820196 11.751403425848842 0 0 0
793 265 2 -1.1794 -2.123018638246883 -5.908245258655009 15.508769839839806 0 0 0
773 258 1 0.5897 -6.00899522385456 -1.3795820493997182 13.017242604973127 0 0 0
774 258 1 0.5897 -5.119363531670274 -2.5868837587514655 12.8108815686369 0 0 0
818 273 1 0.5897 -5.586558102823798 -1.8052531953489392 15.372399928502851 0 0 0
787 263 2 -1.1794 -4.487919283457361 -4.796512451617566 14.721467563721982 0 0 0
901 301 2 -1.1794 -5.050729531579748 1.1543985686898655 15.607184067603054 0 0 0
772 258 2 -1.1794 -5.781955000645641 -2.2268117139665575 13.400411217094797 0 0 0
771 257 1 0.5897 -11.925844929853348 2.6046112095548946 11.611963811238223 0 0 0
765 255 1 0.5897 -3.4344153919256026 -0.0439852232493525 11.913605917097408 0 0 0
784 262 2 -1.1794 -6.4579360199159614 0.22497395221769345 12.244114454381304 0 0 0
828 276 1 0.5897 -3.876149678450494 0.5559698776571071 14.337895846488818 0 0 0
826 276 2 -1.1794 -3.2967082262335516 0.0390085745114348 13.778273279188602 0 0 0
836 279 1 0.5897 -11.493339084494217 -1.2379754931388351 10.931696119375086 1 0 0
895 299 2 -1.1794 -7.574989569301249 2.584447385626632 14.652115848850826 0 0 0
903 301 1 0.5897 -5.841272974498979 1.4982570707935832 15.191265043611786 0 0 0
786 262 1 0.5897 -7.344077377702106 0.584496685678582 12.285162878412406 0 0 0
827 276 1 0.5897 -3.2182044806957606 -0.8028352930617491 14.226965004773334 0 0 0
819 273 1 0.5897 -5.427461901518221 -0.4770637715247439 16.08092046168489 0 0 0
739 247 2 -1.1794 -11.68535376119674 -2.88520909320453 11.647524361989758 1 0 0
888 296 1 0.5897 -10.812233265233147 3.168287442034188 15.163189534842402 0 0 0
806 269 1 0.5897 -4.392687977402778 2.7349692100243264 13.159983871239769 0 0 0
835 279 2 -1.1794 -11.467910402106469 -0.2812004527835281 10.932025954580238 1 0 0
865 289 2 -1.1794 -13.058176814991956 1.4244532665271166 15.450761501853338 0 0 0
757 253 2 -1.1794 -9.928638500422707 -5.74334232524898 15.762603296429159 0 0 0
817 273 2 -1.1794 -5.583930610522373 -1.4073208754188364 16.242928676567153 0 0 0
794 265 1 0.5897 -1.8788971812570132 -5.311683040291994 16.216303828582646 0 0 0
763 255 2 -1.1794 -3.443979717534055 -0.324365931977459 10.998451951280028 0 0 0
1150 384 2 -1.1794 -6.213343598820275 -4.350656639390593 19.30491105986502 0 0 0
1152 384 1 0.5897 -6.763044669611293 -3.9950083818674695 20.003173866088503 0 0 0
1227 409 1 0.5897 -8.815031666095983 -3.0424790639377797 20.709318166396315 0 0 0
1109 370 1 0.5897 -8.839607481652246 -3.3209287516454307 17.900854407481766 0 0 0
1089 363 1 0.5897 -6.701173354599888 -4.699725847800115 17.433402029144176 0 0 0
1151 384 1 0.5897 -5.919036892908455 -5.1978492373677945 19.639279949253087 0 0 0
1108 370 2 -1.1794 -9.481006313609253 -4.02919706628966 17.845684603898945 0 0 0
1225 409 2 -1.1794 -8.016385555922344 -3.3865486601123918 21.109277422723892 0 0 0
1229 410 1 0.5897 -8.064193898907533 3.5844980209574313 18.384654024205958 0 0 0
1233 411 1 0.5897 -1.7733783763441728 2.4243217057826687 17.446731250615088 0 0 0
1124 375 1 0.5897 0.8217582131104564 -6.00978326078693 16.611481387316843 0 0 0
1096 366 2 -1.1794 -8.892262885024161 -6.6242273388473425 19.01901964379509 0 0 0
1130 377 1 0.5897 -7.099310074012156 -1.8662936620450097 18.561229587584705 0 0 0
1248 416 1 0.5897 -5.799515680382372 -1.6686943575464568 20.682291876378493 0 0 0
1205 402 1 0.5897 -12.398713789123466 1.2380084420310435 18.61300333417632 0 0 0
1129 377 2 -1.1794 -7.701085788978642 -1.8770118151483404 17.81695678406396 0 0 0
1125 375 1 0.5897 1.1465271652029614 -4.777037237909555 17.42773474789488 0 0 0
1131 377 1 0.5897 -7.133778117495624 -1.8126543669755497 17.04862535295195 0 0 0
1218 406 1 0.5897 -13.616832543247625 3.2705734679210625 17.828135113233643 0 0 0
1246 416 2 -1.1794 -6.169738638941944 -1.0710301866376444 20.032705180263953 0 0 0
1287 429 1 0.5897 -3.852646305647067 2.041059853586173 21.592287810631326 0 0 0
1219 407 2 -1.1794 -10.374345748351656 -2.084459709256908 20.401591059764854 0 0 0
1231 411 2 -1.1794 -1.898882681219245 2.17681991514511 16.530652374112492 0 0 0
1121 374 1 0.5897 -4.945135894638409 -3.4936092316526874 18.46405503800836 0 0 0
1165 389 2 -1.1794 -0.2592523604777952 -2.0593446242023745 17.87793738498211 0 0 0
1099 367 2 -1.1794 -10.148518589154719 -0.5279573553406625 17.207503117319497 0 0 0
1236 412 1 0.5897 -7.849235907649241 -0.33583710887472584 20.202279922819628 0 0 0
1009 337 2 -1.1794 -11.322223665914883 3.5456672283328157 20.98319358103481 0 -1 0
1100 367 1 0.5897 -9.287149064261728 -0.8063768800058302 17.518476043930946 0 0 0
1234 412 2 -1.1794 -8.711710652392654 0.055655318402642706 20.34032271004765 0 0 0
1259 420 1 0.5897 -9.167654675592454 1.7023956098985256 19.434218597731096 0 0 0
1258 420 2 -1.1794 -9.404902051887746 2.587076726695045 19.156380281650762 0 0 0
1260 420 1 0.5897 -10.048379178423117 2.8771151694243304 19.80295434861337 0 0 0
1216 406 2 -1.1794 -12.759975964792355 2.844077462944453 17.819559131489605 0 0 0
1197 399 1 0.5897 -9.747472130837334 2.4481237387168395 17.256371533027774 0 0 0
1206 402 1 0.5897 -11.485621981145918 0.057379589282311017 18.36004184385898 0 0 0
1235 412 1 0.5897 -9.25954952990596 -0.6699222340041384 20.639583286729852 0 0 0
1196 399 1 0.5897 -10.135140744043051 1.205678340240178 16.483436226301237 0 0 0
1250 417 1 0.5897 -11.880974655538557 0.588415621513521 20.84370287312214 0 0 0
1204 402 2 -1.1794 -12.148413888157311 0.3850656365304115 18.967959321481487 0 0 0
1047 349 1 0.5897 -4.302055393111688 4.055891520468217 20.51722694277707 0 -1 0
1272 424 1 0.5897 -0.17881239295022056 -0.21494229969939305 20.363473835209653 0 0 0
1137 379 1 0.5897 -2.7234683682909537 -1.0436551044408713 16.453865888575834 0 0 0
1142 381 1 0.5897 -8.554340870191234 -6.2567340108626155 20.92981740290616 0 0 0
1087 363 2 -1.1794 -6.731164814589943 -5.017026883700591 16.530840035075514 0 0 0
1097 366 1 0.5897 -9.0573857318113 -5.776978906920022 18.605422248643237 0 0 0
1217 406 1 0.5897 -12.139282695485411 3.5486829671434172 18.00489464317544 0 0 0
1011 337 1 0.5897 -12.157522747950242 3.9399342626837477 20.73217600023122 0 -1 0
1249 417 2 -1.1794 -11.920324579835246 0.9266186104960834 21.738282709547214 0 0 0
1252 418 2 -1.1794 -4.893520506111075 2.849118846748018 17.754070557434595 0 0 0
1240 414 2 -1.1794 -3.986972069920756 0.429733863696379 19.064734005269017 0 0 0
1186 396 2 -1.1794 1.4384897108824521 -4.6255363280869926 19.262760349179615 0 0 0
1285 429 2 -1.1794 -3.75661318698363 1.094094324338803 21.692882389730336 0 0 0
1247 416 1 0.5897 -5.419655300327147 -0.5699374466921086 19.712552323200548 0 0 0
1232 411 1 0.5897 -2.166514463833959 1.2585152652122353 16.564818996349004 0 0 0
1145 382 1 0.5897 -1.2282602363356148 -3.6270684187932165 17.668411607352517 0 0 0
1122 374 1 0.5897 -4.775560229082047 -2.3900320863640747 17.441643717271297 0 0 0
1123 375 2 -1.1794 1.0113744849128974 -5.075321684377586 16.52832014081371 0 0 0
1270 424 2 -1.1794 -0.9874326045429864 0.2945974343665565 20.311816154784218 0 0 0
1271 424 1 0.5897 -1.682223044049728 -0.36196428938972325 20.26391186550626 0 0 0
1144 382 2 -1.1794 -1.8738335343130252 -4.333617715898377 17.678754648022405 0 0 0
1263 421 1 0.5897 -1.1911672425142736 -2.977230114897065 20.67990929224785 0 0 0
1133 378 1 0.5897 -1.484783012585254 -5.84975533134728 18.643803653375024 0 0 0
1188 396 1 0.5897 0.6755712230332946 -4.320454839688081 19.753791470393715 0 0 0
1257 419 1 0.5897 -3.1234958766716154 -2.197421584896494 19.439617494212214 0 0 0
1255 419 2 -1.1794 -2.704522907776939 -1.9289630417767913 20.257267094525055 0 0 0
1261 421 2 -1.1794 -0.4616846213384047 -3.532987803238729 20.95406397898735 0 0 0
1256 419 1 0.5897 -3.3815381766537227 -2.0463376290024398 20.92373645777176 0 0 0
1120 374 2 -1.1794 -4.27857957083755 -3.004924063809165 17.98120770180897 0 0 0
1146 382 1 0.5897 -2.719174431340239 -3.885907967525746 17.71242637557247 0 0 0
1295 432 1 0.5897 -1.3536135608894355 1.8481453541179995 19.71415531296916 0 0 0
1045 349 2 -1.1794 -3.500205860314354 3.6896015990474105 20.890112150861576 0 -1 0
1296 432 1 0.5897 -2.195954454072858 3.105786340077602 19.734234305758058 0 0 0
1187 396 1 0.5897 1.7475257436572207 -5.389368359908782 19.749850267020285 0 0 0
1135 379 2 -1.1794 -2.3822136045040345 -0.43670939842167655 17.110549590568674 0 0 0
1286 429 1 0.5897 -3.7424415669342412 0.7579021710442753 20.796794288264053 0 0 0
1136 379 1 0.5897 -1.7426968534064997 -0.9509024902314422 17.60332012054603 0 0 0
1110 370 1 0.5897 -10.324517955951697 -3.6011134182360536 17.9920319767402 0 0 0
1241 414 1 0.5897 -4.3228443229654925 1.2851542529434195 18.797180757403417 0 0 0
1254 418 1 0.5897 -5.725207826492808 3.3017193546516896 17.89415845046142 0 0 0
1242 414 1 0.5897 -3.443610426132998 0.14484863214696908 18.329989290114924 0 0 0
1166 389 1 0.5897 0.14318211786419788 -1.8586069921338328 18.72287345217891 0 0 0
1046 349 1 0.5897 -3.3987592398702278 4.138755772759389 21.729222386044647 0 -1 0
1253 418 1 0.5897 -4.236563813120087 3.545099018470175 17.765634956660442 0 0 0
1010 337 1 0.5897 -11.047234880018536 4.037992313879524 21.756570461515572 0 -1 0
1088 363 1 0.5897 -6.806432744139952 -5.967624407987636 16.61317696676047 0 0 0
1221 407 1 0.5897 -10.752479599644541 -2.114182085199076 19.52275506166312 0 0 0
1179 393 1 0.5897 -0.9039726053218082 -5.276964669645706 21.57504868580029 0 0 0
1177 393 2 -1.1794 -1.1640041585753433 -6.185804897752318 21.724999883904722 0 0 0
1262 421 1 0.5897 -0.0946455874866654 -3.0878702087158523 21.71778591452432 0 0 0
1251 417 1 0.5897 -11.810595539010952 1.87255065447585 21.642111889078826 0 0 0
273 91 1 0.5897 -8.586488476835942 1.2859236715665983 21.635089589343252 1 1 -1
902 301 1 0.5897 -4.93541112101831 1.6958675903977731 16.38797296226432 0 0 0
758 253 1 0.5897 -9.661152443371535 -5.076626670886265 16.3950596573006 0 0 0
1195 399 2 -1.1794 -9.823192588440504 2.1029902208619298 16.366801546480637 0 0 0
1101 367 1 0.5897 -10.39744915221953 -1.1915346348741345 16.56426022764095 0 0 0
40 14 2 -1.1794 -15.448604326242307 3.898685964061837 1.87482516609768 1 0 0
177 59 1 0.5897 -14.388049335052049 4.171512529736214 3.3264061049660607 1 0 0
56 19 1 0.5897 -12.644311670896862 5.708845172381441 1.2420219585453676 1 0 0
66 22 1 0.5897 -13.70577187120291 2.992732478722367 1.4366639082669037 1 0 0
65 22 1 0.5897 -12.248807397354106 3.3958966915593347 1.3560548953608893 1 0 0
64 22 2 -1.1794 -12.820306014293767 2.6301046578429617 1.4114471793384187 1 0 0
191 64 1 0.5897 -13.058941518634683 5.982948863293631 4.164924871829765 1 0 0
183 61 1 0.5897 -12.191658669841228 3.4050234737831193 4.237878376490641 1 0 0
175 59 2 -1.1794 -13.878533207402889 4.241147487187883 4.133709672810926 1 0 0
176 59 1 0.5897 -14.534353509207056 4.25797782099332 4.830779888407427 1 0 0
181 61 2 -1.1794 -11.302794473113678 3.2416716189637125 4.553178062113132 1 0 0
55 19 2 -1.1794 -13.528479747930401 6.027157247135612 1.060067220846566 1 0 0
42 14 1 0.5897 -15.876461812566673 4.368417050670995 1.1589084949055828 1 0 0
108 36 1 0.5897 -10.074302080751044 2.671379432993234 3.480870623386989 1 0 0
215 72 1 0.5897 -12.57654745525788 8.486380370817722 3.540819492545127 1 0 0
190 64 2 -1.1794 -12.503448902165628 6.76144193750566 4.203069528630956 1 0 0
167 56 1 0.5897 -16.78133825350251 6.157320681340421 3.4898240237100344 1 0 0
153 51 1 0.5897 -12.937267962093049 9.199854218542201 1.2932802434734978 1 0 0
216 72 1 0.5897 -13.313111857912585 9.771176892388743 3.8543944720026575 1 0 0
162 54 1 0.5897 -14.779997053659763 6.550749325897687 2.1948301540020805 1 0 0
194 65 1 0.5897 -14.034196838780193 11.924224197037985 2.6920958786370104 1 0 0
148 50 2 -1.1794 -18.520131682210568 10.793909096542615 2.1156742945934264 1 0 0
174 58 1 0.5897 -16.958484976949602 9.726715094437589 1.9130147407491702 1 0 0
214 72 2 -1.1794 -12.686156829816374 9.388591486725543 3.2405773745264175 1 0 0
209 70 1 0.5897 -7.470777541747552 10.467626891660368 1.4424917365250485 1 0 0
206 69 1 0.5897 -15.036065021140761 7.33750009773591 4.55752125473944 1 0 0
160 54 2 -1.1794 -15.342415963947403 6.990253476261744 2.832581891064369 1 0 0
173 58 1 0.5897 -15.48688343650208 10.074385620230677 1.8402066903282939 1 0 0
85 29 2 -1.1794 -11.149670075159632 4.767438381658879 1.5738533095191758 1 0 0
195 65 1 0.5897 -13.815063077417857 11.737605088951193 1.2057745565344813 1 0 0
291 97 1 0.5897 -15.628122926729572 10.745390028983413 4.564481156693088 1 0 0
161 54 1 0.5897 -15.577085394524438 7.818773558488614 2.414670233980048 1 0 0
172 58 2 -1.1794 -16.09401970583164 9.336631131517278 1.7836957135551736 1 0 0
289 97 2 -1.1794 -14.807626913161613 10.387565073764174 4.903488872945634 1 0 0