LAMMPS data file via write_data, version 30 Jul 2021, timestep = 21000000

972 atoms
2 atom types
648 bonds
1 bond types
324 angles
1 angle types

0.1358832019565135 19.86411779804157 xlo xhi
0.047381451782010586 19.95261954821681 ylo yhi
0.18211141194420755 20.517886588065537 zlo zhi

Masses

1 1.008
2 15.999

Pair Coeffs # lj/cut/tip4p/long/omp

1 0 0
2 0.21084 3.1668

Bond Coeffs # harmonic/omp

1 450 0.9572

Angle Coeffs # harmonic/omp

1 55 104.52

Atoms # full

4 2 2 -1.1794 4.471278756476257 1.276762229098667 3.579905887788968 0 0 0
102 34 1 0.5897 0.3132340087521145 1.0616199988527493 5.061720789740084 1 0 0
17 6 1 0.5897 4.572007425112684 4.547646655328935 2.958711342363142 0 0 0
10 4 2 -1.1794 1.5106565828925616 3.9961536185856334 4.079706562700584 0 0 0
11 4 1 0.5897 1.3497848961485117 3.2706378804763014 3.476423709388205 0 0 0
12 4 1 0.5897 2.4573057228745405 4.132969972401785 4.043496051664313 0 0 0
16 6 2 -1.1794 4.2544983940615335 4.0272181776643325 3.6966333995939635 0 0 0
18 6 1 0.5897 4.379254759195956 3.1190541822455526 3.421129521084855 0 0 0
23 8 1 0.5897 2.973389977587094 1.0253488769764527 4.36298852368988 0 0 0
31 11 2 -1.1794 1.2123613285532064 1.9485494995442285 2.3025725119578344 0 0 0
33 11 1 0.5897 1.8008079550432532 2.1078260291827053 1.5646364689411447 0 0 0
5 2 1 0.5897 4.566733405790401 0.6552233633200942 2.858260318646464 0 0 0
32 11 1 0.5897 0.3413427769718401 2.1555643966397584 1.96396103908492 0 0 0
1 1 2 -1.1794 2.742192018893031 2.6022711289556355 0.2434211907354129 0 0 0
3 1 1 0.5897 3.6952358185505183 2.5240572643950006 0.2855569286506498 0 0 0
236 79 1 0.5897 1.1252365963188824 0.155102137878073 2.1135118170631157 0 1 0
22 8 2 -1.1794 2.191065414852882 0.8275341351924035 4.877782978670428 0 0 0
6 2 1 0.5897 5.066795693680342 0.9530790074859818 4.255759409326075 0 0 0
356 119 1 0.5897 1.6029907535070922 2.302273278349483 8.642684108811768 0 0 0
561 187 1 0.5897 1.2228500501475092 0.3353290303059347 8.746419708465215 0 1 0
325 109 2 -1.1794 2.5634779260916836 2.4629096693736794 7.049913314255319 0 0 0
326 109 1 0.5897 2.398225910172974 1.9121562219716912 6.284697316201816 0 0 0
327 109 1 0.5897 3.47093618812658 2.2749691740366167 7.28940998223189 0 0 0
328 110 2 -1.1794 3.8331720701519854 1.1754702656507943 10.093576202272514 0 0 0
355 119 2 -1.1794 0.9034681241804888 2.174327673664508 9.283366674019547 0 0 0
27 9 1 0.5897 2.623180775254507 4.368280208856008 6.670676574440702 0 0 0
330 110 1 0.5897 4.055520746866535 0.5592741633708431 9.395675090972869 0 0 0
341 114 1 0.5897 4.377008730969259 3.1631551113864194 10.085127953381411 0 0 0
342 114 1 0.5897 4.347210944254734 4.621441770116405 9.679663915522402 0 0 0
81 27 1 0.5897 0.2590810341504586 4.4922554125524385 5.532463595200174 1 0 0
683 228 1 0.5897 4.158029045776292 2.513917226997773 14.215375049045681 0 0 0
334 112 2 -1.1794 1.5803570031385912 4.253323614211599 10.980796700910087 0 0 0
346 116 2 -1.1794 1.8239527604492665 0.9267703500985737 11.966950731243506 0 0 0
347 116 1 0.5897 0.9287721436010788 1.116013130654653 11.685864684784264 0 0 0
348 116 1 0.5897 2.3731589976278316 1.2501799292201417 11.252838388247236 0 0 0
350 117 1 0.5897 2.341539500189461 4.765179763803489 13.62096782176784 0 0 0
649 217 2 -1.1794 2.236798379324636 2.7395490822664335 13.93807033621817 0 0 0
650 217 1 0.5897 2.0701023941870424 2.14572903537639 13.206094283335325 0 0 0
651 217 1 0.5897 1.6354603141836481 2.4496341984378414 14.624022172561876 0 0 0
336 112 1 0.5897 2.5366868076585356 4.215795027280178 10.966359757873674 0 0 0
329 110 1 0.5897 4.405808718795281 0.931352199204573 10.820677284538135 0 0 0
340 114 2 -1.1794 4.293815921552099 4.046878061160347 10.44335945891108 0 0 0
405 135 1 0.5897 0.3090240099729138 4.553198385362291 12.223051135255515 1 0 0
335 112 1 0.5897 1.302250006192508 3.46965056562562 10.506756015413444 0 0 0
652 218 2 -1.1794 4.197452536087584 0.9859606469771734 16.96863521214852 0 0 0
653 218 1 0.5897 3.329788012995076 0.8042415050569894 17.329602296434544 0 0 0
654 218 1 0.5897 4.350507403678377 0.2774513607083009 16.343513926470557 0 0 0
658 220 2 -1.1794 1.3936099684194108 3.9673061759499766 17.401858527431116 0 0 0
659 220 1 0.5897 0.8224453891949965 3.979480599414388 18.16984527224811 0 0 0
664 222 2 -1.1794 4.107982661820296 3.730509387455438 17.402868099111167 0 0 0
665 222 1 0.5897 3.172308423778563 3.898556507935437 17.291251113974063 0 0 0
666 222 1 0.5897 4.239359792380148 2.8543670408091377 17.04046249579185 0 0 0
670 224 2 -1.1794 1.9507896407341194 0.9716499130177895 18.466264540113286 0 0 0
671 224 1 0.5897 2.1746678769179666 1.7016861989576315 19.04343743903928 0 0 0
672 224 1 0.5897 0.9938001991237495 0.9637818890939925 18.449449555788924 0 0 0
681 227 1 0.5897 0.7517689093292071 2.6146918087824838 16.437277154747875 0 0 0
679 227 2 -1.1794 0.5973083774326826 1.904961926102029 15.813867886624083 0 0 0
2 1 1 0.5897 2.5840746894034927 3.53540159601125 20.436032538763726 0 0 -1
884 295 1 0.5897 1.1892041062779082 0.1266001776347415 15.63868671807216 0 1 0
660 220 1 0.5897 1.1599447477441478 4.758494840968826 16.916436378231943 0 0 0
662 221 1 0.5897 4.425185273473059 4.925742139594898 16.10533402012629 0 0 0
110 37 1 0.5897 2.410604943513693 9.1407011771665 0.9490047944043206 0 0 0
141 47 1 0.5897 1.2073639195243753 7.952702453772219 2.4752910447439085 0 0 0
139 47 2 -1.1794 1.0010660846733725 8.837765839726202 2.174751753954542 0 0 0
114 38 1 0.5897 3.369079145818444 7.77022697420536 4.299070262649556 0 0 0
13 5 2 -1.1794 4.761084148487473 5.940679259117935 1.7674259325626362 0 0 0
14 5 1 0.5897 4.0219300627762635 5.762838887170301 1.185867027709499 0 0 0
15 5 1 0.5897 4.432866909358271 6.60106307554846 2.3776326966249344 0 0 0
19 7 2 -1.1794 1.089132424671122 6.0050515441354575 2.28634175836009 0 0 0
20 7 1 0.5897 1.153766770814773 5.352088439140219 2.983242264586919 0 0 0
112 38 2 -1.1794 4.19086417782483 7.782092491829021 3.808457927072902 0 0 0
674 225 1 0.5897 1.9757146967347545 5.704738866241737 0.7880895539495764 0 0 1
21 7 1 0.5897 0.17471152975106108 5.9671409346237905 2.006022607897389 0 0 0
140 47 1 0.5897 1.2379672715833139 9.402379904784562 2.9104774320709073 0 0 0
126 42 1 0.5897 4.371329149305061 9.487492455096792 3.5193283575427796 0 0 0
111 37 1 0.5897 3.8162202115803634 9.332026698051415 0.42041759870730827 0 0 0
113 38 1 0.5897 4.845978401368249 7.464634590570017 4.4299320926288255 0 0 0
673 225 2 -1.1794 2.674170357754475 5.430083505471255 0.1940294253856365 0 0 1
25 9 2 -1.1794 2.650204519065583 5.32111423866377 6.757903025876844 0 0 0
464 155 1 0.5897 1.7601273371022788 8.946711158764545 8.573253572601933 0 0 0
438 146 1 0.5897 3.997020028416686 8.751424330857128 10.078666466616717 0 0 0
437 146 1 0.5897 3.932258881291931 7.389706650010248 9.420329458472729 0 0 0
339 113 1 0.5897 4.195868183149187 5.590164060493416 7.669622883206263 0 0 0
435 145 1 0.5897 2.6180111660911725 8.909190479659873 6.5149150059641 0 0 0
433 145 2 -1.1794 2.936086103732065 9.50835190535936 7.190216773996801 0 0 0
463 155 2 -1.1794 0.9322226140990068 8.727253522496174 9.000570250700207 0 0 0
345 115 1 0.5897 1.0000881605669876 6.889237000325572 8.945336020981209 0 0 0
344 115 1 0.5897 1.2907149044450124 5.595447957478363 9.675755066886618 0 0 0
343 115 2 -1.1794 1.0617552239792167 5.943118237176393 8.813842037018624 0 0 0
468 156 1 0.5897 4.746280384249866 9.414968831292567 7.380608699115137 0 0 0
26 9 1 0.5897 2.0394408960558232 5.5144094849352125 7.469072066521203 0 0 0
337 113 2 -1.1794 4.652877807704482 5.890975688081496 8.455004326224332 0 0 0
131 44 1 0.5897 2.176751143457206 6.756917562788258 5.715354057545683 0 0 0
465 155 1 0.5897 0.2600782167498896 9.001509382854467 8.37671409868362 0 0 0
436 146 2 -1.1794 3.6955238983944976 7.854476157541303 10.222914360229732 0 0 0
132 44 1 0.5897 0.9446144175161001 7.574790904181901 5.39172961372155 0 0 0
130 44 2 -1.1794 1.899461886521802 7.586239600681885 5.326056823411545 0 0 0
757 253 2 -1.1794 2.5557652344369983 9.452422699930619 13.992750016199958 0 0 0
351 117 1 0.5897 3.360460370238085 5.812287137287829 14.017457775731103 0 0 0
668 223 1 0.5897 1.1720371704804935 5.952213350423507 14.931081166213264 0 0 0
759 253 1 0.5897 2.241554382373475 8.994481746660574 13.213173911477002 0 0 0
792 264 1 0.5897 4.527150061303792 9.043372746550391 14.273210678705864 0 0 0
454 152 2 -1.1794 1.7606711993541517 7.643496752779293 11.964396024169647 0 0 0
455 152 1 0.5897 2.4143211498116646 7.696064520093873 11.267140416179421 0 0 0
456 152 1 0.5897 2.0940026276947394 6.968405922068531 12.555434497194687 0 0 0
349 117 2 -1.1794 2.446718266489616 5.70746551618093 13.752366639701107 0 0 0
789 263 1 0.5897 1.5322149667560303 9.008731775217159 15.233932370885624 0 0 0
858 286 1 0.5897 0.6326423473215161 7.240802717119847 18.431325580234187 1 0 0
788 263 1 0.5897 1.0634630527570477 9.356463101777017 16.630767153379793 0 0 0
663 221 1 0.5897 4.600847084905595 6.411319487021927 15.8729460210463 0 0 0
779 260 1 0.5897 2.5254927248760803 8.212984017628846 19.17527149470657 0 0 0
780 260 1 0.5897 3.1103850232852492 7.537819101225135 17.953040014365698 0 0 0
675 225 1 0.5897 2.6735165787724746 6.090574612849522 19.837017008834167 0 0 0
760 254 2 -1.1794 4.502912811473266 8.02053252262718 16.910482206395436 0 0 0
761 254 1 0.5897 4.477407970183321 8.977181878480945 16.890311716947636 0 0 0
778 260 2 -1.1794 2.4127505733843733 7.4540238725097705 18.60300882366917 0 0 0
787 263 2 -1.1794 0.9373851202345629 8.720770381391018 15.926349146164245 0 0 0
667 223 2 -1.1794 0.5995278996690372 5.989329538859519 15.69726429954994 0 0 0
669 223 1 0.5897 0.6955295056529024 6.883351711306592 16.02549832906484 0 0 0
109 37 2 -1.1794 2.895859953932685 9.422033224143004 20.509173077107945 0 0 -1
661 221 2 -1.1794 4.70866313846351 5.560665562180547 15.447542327791242 0 0 0
222 74 1 0.5897 4.290063747904525 13.987027089681742 2.312034125520202 0 0 0
118 40 2 -1.1794 1.6937181868945774 10.755936295441227 3.9132770030019346 0 0 0
119 40 1 0.5897 2.624399710962277 10.658973496220499 4.114712352692504 0 0 0
120 40 1 0.5897 1.6522594632872631 11.512874182120978 3.328871433102566 0 0 0
220 74 2 -1.1794 3.8290499167289873 14.410791611122681 3.0359496904058205 0 0 0
783 261 1 0.5897 2.0337552867455773 12.305511649202057 0.7553871734881331 0 0 1
124 42 2 -1.1794 4.38612326432006 10.443995495669364 3.552438720898925 0 0 0
240 80 1 0.5897 2.40447183307907 14.321428924973295 4.24515223444112 0 0 0
127 43 2 -1.1794 0.9410243207672234 12.704210830920868 2.127428720821798 0 0 0
129 43 1 0.5897 1.0179487517715278 13.645760384522227 2.281667776918802 0 0 0
123 41 1 0.5897 4.392302915037925 12.291405928097783 1.05030435030444 0 0 0
246 82 1 0.5897 4.9797839046101675 14.340328350247889 4.364824731334164 0 0 0
122 41 1 0.5897 4.903830562653893 11.705903798045222 2.349274599850249 0 0 0
125 42 1 0.5897 5.013113790365545 10.650481460770168 4.245547518941553 0 0 0
238 80 2 -1.1794 1.859222025730921 14.228247653916156 5.026310121170474 0 0 0
188 63 1 0.5897 0.3117535764749917 11.145174198090634 4.8860541276466 1 0 0
133 45 2 -1.1794 2.7822450384625568 12.110875971792732 6.5366687832781 0 0 0
134 45 1 0.5897 2.1037534842692165 12.39441182158874 7.149403286732635 0 0 0
135 45 1 0.5897 3.599007571772008 12.190498432265901 7.029356475970431 0 0 0
446 149 1 0.5897 4.623270722423263 13.190933662273435 8.770112787051279 0 0 0
445 149 2 -1.1794 4.75048016069342 12.432956732215382 8.199586637971274 0 0 0
573 191 1 0.5897 0.9111324347065721 14.418723249553384 9.00728126175238 0 0 0
450 150 1 0.5897 4.576187175922589 11.169961498851084 9.446933489981253 0 0 0
451 151 2 -1.1794 0.8641976711612005 12.674666304877483 8.373024033361403 0 0 0
453 151 1 0.5897 1.030782375693207 12.173389270069135 9.171254433961654 0 0 0
544 182 2 -1.1794 4.274738136270296 14.328326395295479 10.047243018398365 0 0 0
448 150 2 -1.1794 4.229083687712542 10.650393896997887 10.17202509655006 0 0 0
239 80 1 0.5897 2.2458331622157766 13.493459304045276 5.502579907734094 0 0 0
434 145 1 0.5897 2.6971958847565545 10.378510202122207 6.87087573506464 0 0 0
443 148 1 0.5897 1.1662750398092419 10.228108909665599 10.1431354635024 0 0 0
317 106 1 0.5897 0.19808428249342214 14.094067433187027 5.432979739907061 1 0 0
758 253 1 0.5897 2.5961616627002866 10.372195739551623 13.73087487734004 0 0 0
449 150 1 0.5897 4.8149331725080335 10.839700121734738 10.904908572841125 0 0 0
457 153 2 -1.1794 2.5631975543715746 12.154760580002785 13.421405171445993 0 0 0
458 153 1 0.5897 1.9268756378353307 12.264181591098232 14.128023002612984 0 0 0
459 153 1 0.5897 3.413856663160166 12.272532184384856 13.844129547648034 0 0 0
546 182 1 0.5897 4.910248006196444 14.194215017875953 10.750329143860418 0 0 0
442 148 2 -1.1794 1.3659655835877338 11.0428005271665 10.60424665237221 0 0 0
562 188 2 -1.1794 1.9393652721874675 14.281664479490747 11.59952936280852 0 0 0
563 188 1 0.5897 2.063467836804586 13.49557196605581 12.131384982838144 0 0 0
444 148 1 0.5897 2.3200527659168504 11.110948944589996 10.568819052080325 0 0 0
769 257 2 -1.1794 4.6325511901328245 12.764332535515944 15.105374497509608 0 0 0
545 182 1 0.5897 3.430774065746869 14.388057965597062 10.49477796958617 0 0 0
512 171 1 0.5897 0.1415445609467187 11.063457708397207 11.89916664657068 1 0 0
642 214 1 0.5897 0.14038036087296035 14.31151380292278 11.733896789771851 1 0 0
766 256 2 -1.1794 1.500017693124868 10.877726647836434 17.51174644285407 0 0 0
868 290 2 -1.1794 4.227752080932671 14.666849293632502 17.078201231211423 0 0 0
768 256 1 0.5897 1.297316284265324 11.440915592314024 16.764807945283458 0 0 0
772 258 2 -1.1794 4.119677227037817 10.795187462146277 17.010462058304853 0 0 0
773 258 1 0.5897 3.1744653022967544 10.800389638166115 17.161221630496527 0 0 0
774 258 1 0.5897 4.240053073947249 11.326182335184859 16.223217542363265 0 0 0
777 259 1 0.5897 0.9335806499170477 13.375172860736026 15.655797108795934 0 0 0
767 256 1 0.5897 0.7415800059936721 10.962976093036797 18.089393848276572 0 0 0
869 290 1 0.5897 3.3429853430919296 14.422568884338386 17.34966018280921 0 0 0
886 296 2 -1.1794 1.8296970370413357 14.203549085571591 18.520121857901792 0 0 0
888 296 1 0.5897 1.98685420040143 13.425645362658425 19.05525940089823 0 0 0
781 261 2 -1.1794 2.7229742451407715 12.165315314912377 20.441926740353487 0 0 0
771 257 1 0.5897 4.638207050621335 13.530734439943847 15.67879668237799 0 0 0
782 261 1 0.5897 2.74363207340839 11.216814200447464 20.314855789333556 0 0 0
870 290 1 0.5897 4.771467679196124 14.49121357587713 17.846125011437422 0 0 0
887 296 1 0.5897 2.081775577536343 14.936332932592418 19.081989588865888 0 0 0
775 259 2 -1.1794 0.7155075211906857 12.451716234835635 15.529685911201495 0 0 0
249 83 1 0.5897 1.5387711300442088 15.551376072599414 1.4742527780034607 0 0 0
248 83 1 0.5897 1.0847913285146942 15.91405520619841 2.8721553194714193 0 0 0
247 83 2 -1.1794 0.9029674864927285 15.31373927157263 2.1491373106171263 0 0 0
235 79 2 -1.1794 0.8818526883079157 19.171470977583873 1.8548612735456027 0 0 0
226 76 2 -1.1794 1.3891065640777152 17.37590524999115 3.8546805720420187 0 0 0
227 76 1 0.5897 1.127157332419289 18.050336785151686 3.2279948549673865 0 0 0
228 76 1 0.5897 0.7946979092311911 17.493034391705287 4.595725393719528 0 0 0
230 77 1 0.5897 4.4376665348125455 18.975509839514267 0.9268675820429645 0 0 0
229 77 2 -1.1794 4.797947096579087 19.119909813671207 1.8018126196941018 0 0 0
232 78 2 -1.1794 4.065728227211013 17.165813025640148 3.5551893367407064 0 0 0
233 78 1 0.5897 4.313709996254211 17.813778817933482 2.8957548972077043 0 0 0
234 78 1 0.5897 3.136915263551051 17.331161389609413 3.7167075903349027 0 0 0
221 74 1 0.5897 4.027911675574156 15.341649174727703 2.935048308889656 0 0 0
890 297 1 0.5897 2.125592625160113 18.95730068388795 0.5155363811656353 0 0 1
219 73 1 0.5897 3.4728707724060777 15.959773001950717 0.4550171107509498 0 0 0
571 191 2 -1.1794 0.6714465183738065 15.333686943955874 8.860302160547523 0 0 0
576 192 1 0.5897 4.415785532103744 15.594736960691701 7.4232578223004495 0 0 0
559 187 2 -1.1794 1.0415386199778167 19.307549984067514 8.633149249602631 0 0 0
241 81 2 -1.1794 2.8289434116148118 18.720259315189203 6.704481740381582 0 0 0
242 81 1 0.5897 2.8092135371641556 17.76551236015777 6.638947107137173 0 0 0
243 81 1 0.5897 2.159768523449869 18.92997018967202 7.3559501354927015 0 0 0
541 181 2 -1.1794 2.648174169907536 15.948700845214193 7.049328169352082 0 0 0
542 181 1 0.5897 2.044353342761103 15.720208963137438 7.755994480940583 0 0 0
558 186 1 0.5897 4.315903341511625 17.56981142720049 9.906077421888607 0 0 0
553 185 2 -1.1794 4.546314463905797 18.85638929029313 8.713703626689803 0 0 0
555 185 1 0.5897 4.2031377764401485 18.829324860800895 7.820571068182676 0 0 0
572 191 1 0.5897 1.002597861820346 15.795284563725394 9.630655709293746 0 0 0
543 181 1 0.5897 2.273250811514391 15.53700466204253 6.270795012045212 0 0 0
551 184 1 0.5897 1.3977042929228092 18.1548606820998 9.953897137633271 0 0 0
24 8 1 0.5897 2.3801166345291014 19.888266070566193 5.286797975409563 0 -1 0
885 295 1 0.5897 1.935732647884502 19.123981408049893 14.684600825790442 0 0 0
866 289 1 0.5897 3.66963706444731 15.87109207824653 13.880280006103208 0 0 0
879 293 1 0.5897 4.380942774278623 18.804561663179904 14.529733735287552 0 0 0
867 289 1 0.5897 2.233330536688972 15.768426925369885 14.347461785940686 0 0 0
550 184 2 -1.1794 1.478244681949007 17.52700674049491 10.67189281137706 0 0 0
552 184 1 0.5897 2.420531297018516 17.45667369447851 10.824623206562475 0 0 0
565 189 2 -1.1794 3.227278062326019 18.71457901266718 13.233247767665073 0 0 0
566 189 1 0.5897 2.892656273756817 17.82519164514794 13.11816338663689 0 0 0
567 189 1 0.5897 2.718733003439054 19.24372454597885 12.618765673884957 0 0 0
865 289 2 -1.1794 2.770764280175869 16.060136987251568 13.611078921435343 0 0 0
556 186 2 -1.1794 4.165418750311713 17.042881635469094 10.690853435585037 0 0 0
557 186 1 0.5897 4.392289736107593 16.150840130046127 10.428157877624583 0 0 0
896 299 1 0.5897 0.34192616700688994 15.526268611846211 15.164903417845228 0 0 0
883 295 2 -1.1794 1.3306931258318164 19.10932951111309 15.426142322988557 0 0 0
877 293 2 -1.1794 4.962458148082893 18.87942222372361 15.286318945525563 0 0 0
621 207 1 0.5897 0.14593832485713776 17.932070278644325 11.850296452875629 1 0 0
564 188 1 0.5897 2.2033472409270702 15.002463732795164 12.17133927671014 0 0 0
881 294 1 0.5897 3.0778193067923607 17.660098669829424 17.514105147749568 0 0 0
897 299 1 0.5897 1.2673999159124731 15.860767329552427 16.31528446673049 0 0 0
878 293 1 0.5897 4.648112002423215 18.213158061681902 15.897454566570508 0 0 0
882 294 1 0.5897 4.074159472600481 16.5663350760692 17.193431708807296 0 0 0
880 294 2 -1.1794 4.013619633468184 17.500949067971497 17.391079465581477 0 0 0
874 292 2 -1.1794 1.2834339740406504 17.309361228189758 17.408124681938382 0 0 0
875 292 1 0.5897 0.6700114034377632 17.63156572614207 18.06847616648418 0 0 0
876 292 1 0.5897 1.2792276227371449 17.982705197442037 16.72783039741445 0 0 0
889 297 2 -1.1794 2.7710108920097083 18.907809733460574 20.146208218981265 0 0 0
891 297 1 0.5897 2.4463434799449137 19.514312488348715 19.48069176882749 0 0 0
895 299 2 -1.1794 1.12326827052765 15.216103195561715 15.622588122221805 0 0 0
218 73 1 0.5897 2.682933380763868 17.050977728102424 20.100061094392636 0 0 -1
217 73 2 -1.1794 2.638818791668699 16.128757730858844 20.35264003432181 0 0 -1
69 23 1 0.5897 6.7243878040227525 2.100789446202517 1.897546212800943 0 0 0
53 18 1 0.5897 9.865992231412026 4.009185801815184 4.170195776188529 0 0 0
68 23 1 0.5897 8.186325757925726 2.3622683499301433 1.604033845864026 0 0 0
67 23 2 -1.1794 7.6014457320489 1.9921175381968552 2.2651661639495613 0 0 0
46 16 2 -1.1794 7.975129918730621 4.150137406716303 4.071295817996695 0 0 0
47 16 1 0.5897 7.785697345593929 3.3508262415262595 3.579935509143716 0 0 0
48 16 1 0.5897 7.254463605767577 4.223734647663841 4.6969154170296985 0 0 0
273 91 1 0.5897 7.535641927118183 0.27542054944905314 1.995293485884857 0 1 0
9 3 1 0.5897 5.251503117930819 4.306529895295488 5.129983544336481 0 0 0
34 12 2 -1.1794 5.509593588835848 2.580085957759073 0.5433418348343035 0 0 0
37 13 2 -1.1794 9.204242932265856 2.7732395092095214 0.323627086794146 0 0 0
58 20 2 -1.1794 8.698189911944079 0.7357972494075392 5.189724521140785 0 0 0
41 14 1 0.5897 9.83187645580941 0.9772827291205286 3.6726526312247687 0 0 0
8 3 1 0.5897 5.6033731815681085 3.6789074328764637 6.46193070178985 0 0 0
391 131 2 -1.1794 7.454865344466344 2.1296164240215876 9.163299868784055 0 0 0
393 131 1 0.5897 7.36876225183911 1.1785429723999057 9.097938638407694 0 0 0
59 20 1 0.5897 8.829621975870607 1.425052066621764 5.840769586158275 0 0 0
361 121 2 -1.1794 9.161413624744666 2.5798581721379668 7.106012953952417 0 0 0
392 131 1 0.5897 8.078422464586145 2.361973920761921 8.475282806647725 0 0 0
362 121 1 0.5897 9.046872814408376 3.502720044444732 6.879228561601272 0 0 0
7 3 2 -1.1794 5.877578127875339 4.363538365930418 5.851762841164855 0 0 0
359 120 1 0.5897 5.946932571576869 2.190092710648426 8.189485630901752 0 0 0
360 120 1 0.5897 5.515531862322225 1.6001547480259222 6.863717307506995 0 0 0
358 120 2 -1.1794 5.282073846622265 2.2707093062010673 7.5056405056351165 0 0 0
28 10 2 -1.1794 6.099017789281764 0.4483911371439248 5.5929042256032435 0 0 0
29 10 1 0.5897 7.045883306492447 0.48479736480417374 5.457719786546648 0 0 0
352 118 2 -1.1794 5.704560839808123 0.7782026027182111 12.175684100205471 0 0 0
353 118 1 0.5897 6.610071023208388 0.8833263833805758 11.883843117365968 0 0 0
717 239 1 0.5897 6.4489700654112925 2.1388749785121277 15.38659527613652 0 0 0
331 111 2 -1.1794 5.865008339014612 4.773416355341421 12.675844595563632 0 0 0
372 124 1 0.5897 7.092726815382561 4.335730836275591 11.574801657592722 0 0 0
685 229 2 -1.1794 8.954794113080304 2.8511550104652215 13.853020282800108 0 0 0
382 128 2 -1.1794 8.4519078120605 0.8955148260556877 11.999033297486022 0 0 0
383 128 1 0.5897 8.553592229939776 1.6786379039469026 12.539945021735248 0 0 0
384 128 1 0.5897 9.05666746312883 1.0278997641374916 11.269017005479192 0 0 0
370 124 2 -1.1794 7.767640849640008 4.176648677486861 10.914975072930192 0 0 0
686 229 1 0.5897 8.443730722377468 2.537539642801442 14.599104551625993 0 0 0
354 118 1 0.5897 5.6081964463774305 1.4075084269527056 12.890448991830205 0 0 0
684 228 1 0.5897 5.272680039497166 3.4937642642190316 13.91658028537015 0 0 0
386 129 1 0.5897 9.179589372773592 4.615698996053364 13.607598049259794 0 0 0
682 228 2 -1.1794 5.10849579820138 2.5726681884072926 14.118707137782485 0 0 0
332 111 1 0.5897 5.233535800885268 4.569519408776002 11.986042262173223 0 0 0
371 124 1 0.5897 7.468510361755276 3.395813931402868 10.449115254990486 0 0 0
687 229 1 0.5897 9.865268965187214 2.692650448828033 14.102193210607105 0 0 0
377 126 1 0.5897 9.909556670825939 4.076817226716417 11.056558718002293 0 0 0
657 219 1 0.5897 6.658383414554353 4.527113681948917 18.756472047277903 0 0 0
655 219 2 -1.1794 5.850063741744303 4.690467710666125 19.24238210987933 0 0 0
38 13 1 0.5897 9.018656123314175 2.240773617366533 19.885952495332248 0 0 -1
715 239 2 -1.1794 7.229403379334715 1.9605830550993404 15.911288807233282 0 0 0
676 226 2 -1.1794 6.055696874616739 0.7787170644861953 18.9479287417155 0 0 0
35 12 1 0.5897 5.793263441791999 1.9329182516697188 20.2334318658283 0 0 -1
694 232 2 -1.1794 8.036654824409371 4.124704587764294 17.540413784400805 0 0 0
695 232 1 0.5897 7.741354050364436 3.3495482044339924 17.062772298586616 0 0 0
710 237 1 0.5897 9.317503575244418 4.6381487612754855 20.4132563382666 0 0 0
706 236 2 -1.1794 8.840085942230923 0.9543038601907028 18.634437640441895 0 0 0
708 236 1 0.5897 7.905020595374771 0.7921195438619326 18.509821739348062 0 0 0
36 12 1 0.5897 5.669895303703225 3.4248874807997582 20.45859711965847 0 0 -1
716 239 1 0.5897 7.307632497152325 1.0065885996549253 15.908574835399042 0 0 0
677 226 1 0.5897 5.436912902363366 0.8521326777344804 18.221358253911156 0 0 0
702 234 1 0.5897 9.845785890637618 4.127337872194095 17.747454518263794 0 0 0
656 219 1 0.5897 5.157922431543523 4.340742748498928 18.68128890611233 0 0 0
707 236 1 0.5897 9.137181580286873 0.23226399368932185 19.18815678077027 0 0 0
696 232 1 0.5897 7.87056858032638 4.853080869542736 16.9420149775763 0 0 0
143 48 1 0.5897 6.118385001102996 8.9453846697596 1.135442436348379 0 0 0
176 59 1 0.5897 7.513756729425479 8.004159190649077 2.4792465550233866 0 0 0
711 237 1 0.5897 8.794632141308364 5.868575998233173 0.7877655296722509 0 0 1
57 19 1 0.5897 7.653459827976568 5.4496519459108566 2.8899327359476863 0 0 0
175 59 2 -1.1794 7.472942048048482 8.9490204574459 2.3315922341781192 0 0 0
55 19 2 -1.1794 7.476729809591894 6.106264697480573 2.216260243943049 0 0 0
56 19 1 0.5897 6.556888526778423 5.973536500424732 1.9872449972780506 0 0 0
177 59 1 0.5897 8.224791863217746 9.136818064594856 1.7697828736238086 0 0 0
166 56 2 -1.1794 8.691902401137833 7.55053587378594 5.059496711813158 0 0 0
142 48 2 -1.1794 5.5767513905236585 9.01300908428352 0.34916093542816423 0 0 0
145 49 2 -1.1794 9.321932113947199 9.418169210788761 0.37277418235208026 0 0 0
467 156 1 0.5897 5.706139628936214 8.445077053041109 6.725018258022601 0 0 0
501 167 1 0.5897 6.714557301125661 8.722729706381845 8.629862178462698 0 0 0
380 127 1 0.5897 7.57981400225641 6.649753185857914 8.790207823592208 0 0 0
61 21 2 -1.1794 9.288533907131495 5.255935453463777 6.65648694989224 0 0 0
499 167 2 -1.1794 7.519768347657854 8.395581822817558 9.030813397058022 0 0 0
168 56 1 0.5897 8.80058912229717 8.290489433411887 5.656846977751009 0 0 0
338 113 1 0.5897 5.578270998604873 5.730403337830068 8.270495234586296 0 0 0
466 156 2 -1.1794 5.679007909603452 9.248492616836998 7.244637889200206 0 0 0
500 167 1 0.5897 7.728919808164551 9.038581352815225 9.708319566126121 0 0 0
470 157 1 0.5897 8.657216095848513 9.092942180853168 7.806957001089688 0 0 0
379 127 2 -1.1794 7.459777055786305 5.7169560681242 8.612175308737557 0 0 0
62 21 1 0.5897 8.516372147036222 5.479628821544436 7.176006014390763 0 0 0
469 157 2 -1.1794 9.093661471640127 9.433847857230303 7.02626553260641 0 0 0
381 127 1 0.5897 7.533132871776366 5.297629501230659 9.469480299381521 0 0 0
137 46 1 0.5897 5.935522904980655 6.082453371099043 5.694872664299888 0 0 0
167 56 1 0.5897 9.009161747987772 6.794614828282612 5.553571520493472 0 0 0
136 46 2 -1.1794 6.06285403136756 7.030867197948828 5.671797056203318 0 0 0
138 46 1 0.5897 6.978287592207742 7.143947009362605 5.416100331651332 0 0 0
471 157 1 0.5897 9.988492195929632 9.617194261925393 7.312353042442065 0 0 0
491 164 1 0.5897 9.11870300481683 7.394289840624413 10.939597987674073 0 0 0
794 265 1 0.5897 8.974662103657119 8.417821124711404 13.067661361345811 0 0 0
462 154 1 0.5897 5.18805404306924 7.510342964563804 11.44185115882146 0 0 0
791 264 1 0.5897 5.970057108101378 9.094004096441251 14.728416568888028 0 0 0
333 111 1 0.5897 5.944089460405303 5.7270982711441025 12.654535736089402 0 0 0
793 265 2 -1.1794 9.111064631995525 8.935649751041757 13.861039157897252 0 0 0
790 264 2 -1.1794 5.420732179170126 9.147665966695007 13.946403840809367 0 0 0
387 129 1 0.5897 9.193090451857671 6.035424522112132 13.082171092249613 0 0 0
460 154 2 -1.1794 5.949039252248607 7.438101503863679 12.017915767660446 0 0 0
461 154 1 0.5897 5.771302909019679 8.054042232030895 12.728709865808158 0 0 0
492 164 1 0.5897 7.713180148655843 7.191267260991409 11.464032401795832 0 0 0
490 164 2 -1.1794 8.63203300868796 7.162692026525994 11.730603694636132 0 0 0
385 129 2 -1.1794 9.360390507726626 5.51827822322293 13.87005690266408 0 0 0
824 275 1 0.5897 8.115869462607495 8.922170415824118 15.2789424069279 0 0 0
705 235 1 0.5897 7.930838149277138 5.8711429389322 15.104637443936415 0 0 0
795 265 1 0.5897 9.044991956068712 9.844694356678872 13.568631390377313 0 0 0
814 272 2 -1.1794 8.81977051047759 7.516785388028549 18.754334100040566 0 0 0
786 262 1 0.5897 7.0879788706301685 7.381545992622671 18.647375351999052 0 0 0
815 272 1 0.5897 8.940614626065686 6.730063460194452 19.286006439094308 0 0 0
825 275 1 0.5897 7.269915898415059 7.891540456609559 15.99585864292664 0 0 0
785 262 1 0.5897 6.046036130570834 6.356963162038463 19.042858167669984 0 0 0
823 275 2 -1.1794 7.38417229689375 8.835979742429076 15.889972254203302 0 0 0
816 272 1 0.5897 8.930394528438951 8.241611147702635 19.369640056535466 0 0 0
784 262 2 -1.1794 6.147877113695904 7.275233755034651 18.792589142771334 0 0 0
144 48 1 0.5897 5.9055392534972455 8.32440282576707 20.107079613756866 0 0 -1
703 235 2 -1.1794 7.35296859024283 6.034085207248187 15.850092814129434 0 0 0
704 235 1 0.5897 6.478534244905227 5.815081663853771 15.528251404398237 0 0 0
709 237 2 -1.1794 9.402504317925535 5.591242593660677 20.43814846236461 0 0 0
762 254 1 0.5897 5.127921757055924 7.81170802894711 17.604705467680482 0 0 0
154 52 2 -1.1794 8.383713295934191 10.958997479080532 3.978698143170485 0 0 0
276 92 1 0.5897 9.189236941497265 14.235080220886456 4.447343350364605 0 0 0
156 52 1 0.5897 9.328270248110512 10.9021767946389 3.8346411758580463 0 0 0
163 55 2 -1.1794 7.705265178538334 12.984989140534202 2.106944031891831 0 0 0
164 55 1 0.5897 6.786695064802918 12.814028099915149 1.8991309448599505 0 0 0
165 55 1 0.5897 7.923296932088088 12.339650241892477 2.779404906534194 0 0 0
275 92 1 0.5897 7.718261343058123 14.084240888315787 4.771758256289585 0 0 0
819 273 1 0.5897 8.635015593551278 12.343952693584587 0.4933713283332978 0 0 1
285 95 1 0.5897 7.6456507111762235 14.910536153013423 2.310997184050045 0 0 0
116 39 1 0.5897 6.967741358065645 11.32745495929574 5.143430583415912 0 0 0
155 52 1 0.5897 8.026354110117442 10.190954608718394 3.533036438971639 0 0 0
245 82 1 0.5897 5.457326499922765 13.19317511850537 5.229605448365402 0 0 0
244 82 2 -1.1794 5.625329667474138 14.115139347712839 5.034709540252934 0 0 0