LAMMPS data file via write_data, version 30 Jul 2021, timestep = 3500000

1296 atoms
2 atom types
864 bonds
1 bond types
432 angles
1 angle types

-10.81031994779561 12.790319947795611 xlo xhi
-9.264533518272849 12.254531518272849 ylo yhi
0.012793036934830582 21.847205963063068 zlo zhi
-9.251142112780304 1.9757090973052247 2.6812047102716656 xy xz yz

Masses

1 1.008
2 15.999

Pair Coeffs # lj/cut/tip4p/long/omp

1 0 0
2 0.21084 3.1668

Bond Coeffs # harmonic/omp

1 450 0.9572

Angle Coeffs # harmonic/omp

1 55 104.52

Atoms # full

280 94 2 -1.1794 -9.599240383802158 -4.371512181761127 1.2191396580833047 1 1 0
107 36 1 0.5897 -9.524667471038898 1.454330255892069 3.366264286174193 1 0 0
270 90 1 0.5897 -8.720873751022474 -7.444725314006699 2.170196566600488 1 1 0
269 90 1 0.5897 -9.605384965316969 -6.235411960478029 1.952873440505146 1 1 0
268 90 2 -1.1794 -9.545586525835661 -7.0495096241739095 2.452806635878157 1 1 0
298 100 2 -1.1794 -5.932499797240321 -6.993267136921468 4.151338316308212 1 1 0
314 105 1 0.5897 -9.204651666709822 -6.85213571404158 4.2362569621473405 1 1 0
299 100 1 0.5897 -6.606046462898475 -7.6625450144073675 4.031063953211856 1 1 0
163 55 2 -1.1794 -7.182329124736432 -7.965568777673174 1.032265895659045 1 1 0
164 55 1 0.5897 -6.38029404085167 -8.40103397695749 1.320901848735738 1 1 0
275 92 1 0.5897 -10.646312931777484 -7.889004310566035 3.4673585344754385 1 1 0
73 25 2 -1.1794 -8.50157850398105 -3.8677751900826705 4.866626669501314 1 0 0
258 86 1 0.5897 -12.425047300315889 -2.463566554144707 1.5514720552811203 1 1 0
44 15 1 0.5897 -10.12707893698585 1.1346391077600426 0.3044016732603365 1 0 0
323 108 1 0.5897 -6.240899769034842 -5.3678176580402575 3.47540871880843 1 1 0
260 87 1 0.5897 -6.96169690679852 -6.054723549732424 0.4029477429876574 1 1 0
281 94 1 0.5897 -8.980688609137601 -3.6452001698137293 1.296188912781498 1 1 0
282 94 1 0.5897 -10.449304165851022 -3.986270577108617 1.431697941787132 1 1 0
324 108 1 0.5897 -7.130741086926919 -4.168144179575865 3.722278346093166 1 1 0
75 25 1 0.5897 -9.234275713968556 -3.3192408212471562 4.586454197165032 1 0 0
59 20 1 0.5897 -13.69351114726837 -1.1302021414885477 3.22353038443604 1 0 0
67 23 2 -1.1794 -10.629394138066548 -2.243119592158993 4.3363235015845705 1 0 0
68 23 1 0.5897 -11.21750191745187 -2.2809386281721675 5.090548147183054 1 0 0
256 86 2 -1.1794 -12.074386502348325 -3.1333695222214155 2.138529157817865 1 1 0
69 23 1 0.5897 -11.189955559089494 -2.4362819893055594 3.5850091066738816 1 0 0
315 105 1 0.5897 -8.727095233156756 -5.720048790689567 5.120424038195835 1 1 0
261 87 1 0.5897 -6.694568886505834 -4.880446486017913 1.320118811844818 1 1 0
53 18 1 0.5897 -12.595733319535794 1.0087382050058178 1.947356241514189 1 0 0
272 91 1 0.5897 -9.606669094330151 -1.241705634135137 1.1312331037504813 1 1 0
84 28 1 0.5897 -8.126661045455016 -0.5351168135876136 4.000070168019122 1 0 0
54 18 1 0.5897 -11.665015684924352 -0.18509876018300808 1.9705964466866919 1 0 0
82 28 2 -1.1794 -9.001315601442224 -0.15627478460696054 4.087570454590778 1 0 0
83 28 1 0.5897 -9.582052878373606 -0.911758177879296 4.177590390618397 1 0 0
271 91 2 -1.1794 -10.393698302997501 -0.8295799379783748 0.7749737941532323 1 1 0
98 33 1 0.5897 -12.267277822088307 0.4292257953298595 4.221561810937996 1 0 0
52 18 2 -1.1794 -12.412202070655937 0.20119882254885546 2.427423324703802 1 0 0
97 33 2 -1.1794 -12.148846115973829 0.5868540162674254 5.158149344465329 1 0 0
301 101 2 -1.1794 -7.9540686983047095 -2.0734621913940208 1.3307650685445045 1 1 0
259 87 2 -1.1794 -6.8330994395429006 -5.106220316814076 0.4004001622706934 1 1 0
300 100 1 0.5897 -5.115000611362942 -7.485902252542257 4.2236759241605375 1 1 0
165 55 1 0.5897 -7.54663533914425 -8.549883280132255 0.3675397323845845 1 1 0
313 105 2 -1.1794 -8.818228407113068 -6.6725004570232285 5.093244948356774 1 1 0
99 33 1 0.5897 -11.900957128502759 1.5095062520333524 5.216679980668739 1 0 0
257 86 1 0.5897 -12.82102871501423 -3.701594839632164 2.3275789037274617 1 1 0
1251 417 1 0.5897 -13.617335832555638 -0.9868868269924533 0.013310264140251563 0 0 1
1143 381 1 0.5897 -10.396684657492793 -8.334282362032653 0.05727448272376617 0 0 1
420 140 1 0.5897 -8.95726973983776 -6.631131537899655 9.720989333442194 1 0 0
618 206 1 0.5897 -7.900757066578138 -7.380716954244821 6.545112791757356 1 1 0
413 138 1 0.5897 -7.649783895737335 -3.5233105518935375 7.728150975190233 1 0 0
419 140 1 0.5897 -8.861449965467122 -5.567837369801917 8.647623897397546 1 0 0
418 140 2 -1.1794 -9.494021915438529 -6.0715677080600985 9.159743547047535 1 0 0
414 138 1 0.5897 -6.814617238029006 -4.771493851783948 7.537038757599512 1 0 0
427 143 2 -1.1794 -5.844126606282196 -7.027502294651692 9.32590989065753 1 0 0
350 117 1 0.5897 -7.334609485785062 -4.516307500880686 9.947880566088799 0 0 0
412 138 2 -1.1794 -7.550150185992268 -4.422630607769078 8.040507206930853 1 0 0
428 143 1 0.5897 -6.459888135167308 -7.328815865090382 9.993891119642646 1 0 0
429 143 1 0.5897 -6.307032693073025 -7.154669128889087 8.49792336297038 1 0 0
430 144 2 -1.1794 -12.240284721716606 -2.4347911235456277 8.358168480102847 1 0 0
528 176 1 0.5897 -12.298295153165887 0.5815983955189097 10.070503037586125 1 0 0
74 25 1 0.5897 -8.040426446394829 -3.338227446509144 5.516956228785076 1 0 0
616 206 2 -1.1794 -7.3614144736421725 -7.824803524928031 7.199391602966357 1 1 0
536 179 1 0.5897 -9.841039198062148 -0.014414982803419463 10.17565157877089 1 0 0
411 137 1 0.5897 -13.438332862375551 0.20215787749470415 6.448382273028704 1 0 0
537 179 1 0.5897 -9.42712823223211 0.02008883295804509 8.719930339225995 1 0 0
424 142 2 -1.1794 -7.983237675007878 -2.0129527284171225 7.0884975290376095 1 0 0
535 179 2 -1.1794 -9.077356531971521 0.08968565187030286 9.608110502696565 1 0 0
351 117 1 0.5897 -7.150890420492068 -3.2052124445178674 10.681963900170496 0 0 0
527 176 1 0.5897 -11.993345893302095 1.5966776717260256 8.989543763538862 1 0 0
526 176 2 -1.1794 -12.68296717858351 1.0145600598021698 9.308433597985951 1 0 0
426 142 1 0.5897 -8.840939893040913 -1.6012858533216052 6.983249426481435 1 0 0
402 134 1 0.5897 -10.827461740015814 -0.1857872055204055 6.466699973169094 1 0 0
401 134 1 0.5897 -10.971498752429302 -1.1535621151739477 7.621911772856752 1 0 0
400 134 2 -1.1794 -10.329191730480714 -0.6108499924935362 7.164712170702658 1 0 0
627 209 1 0.5897 -10.372463265988719 -6.971824061049636 6.337334324452269 1 1 0
435 145 1 0.5897 -7.487454615415657 -1.0401612510163893 10.061043248165387 0 0 0
522 174 1 0.5897 -9.811977599799622 2.154069269125632 7.401384802228304 1 0 0
349 117 2 -1.1794 -7.298521698387978 -4.139753787845042 10.827068015523631 0 0 0
633 211 1 0.5897 -5.73911636528517 -5.938668325085554 5.721820310731784 1 1 0
626 209 1 0.5897 -10.402278831295396 -6.805898551639477 7.841703415191199 1 1 0
425 142 1 0.5897 -7.3639545223937075 -1.283252700786039 7.077401454392716 1 0 0
727 243 2 -1.1794 -8.09831852663251 -7.721190003122963 10.856527674899027 1 0 0
431 144 1 0.5897 -11.990650545668299 -3.2441874537963313 8.804082203907408 1 0 0
516 172 1 0.5897 -14.25596991646804 1.8804029208653557 9.227088407582063 1 0 0
458 153 1 0.5897 -10.17863920325774 2.6050410149961216 9.677014927876042 0 0 0
617 206 1 0.5897 -7.991413887191946 -8.210100319153524 7.808328096769164 1 1 0
520 174 2 -1.1794 -10.579530037600074 2.454582347798567 7.887952485490931 1 0 0
652 218 2 -1.1794 -5.654774935858534 -5.269402116958535 12.767117469324852 0 0 0
780 260 1 0.5897 -7.408856234949826 -4.0803259834073335 15.292646482517831 0 0 0
779 260 1 0.5897 -7.165753417601007 -3.066909369622257 14.194577710248439 0 0 0
778 260 2 -1.1794 -7.865334363024466 -3.521473270345501 14.663733502958443 0 0 0
768 256 1 0.5897 -9.591811858009796 -2.629659337701721 14.994922280575409 0 0 0
654 218 1 0.5897 -6.154941152273537 -4.7985096556285285 12.100567634570849 0 0 0
653 218 1 0.5897 -6.292568644422239 -5.852668394910954 13.178373532306892 0 0 0
662 221 1 0.5897 -8.837711424744105 -4.1613794548402065 13.346062112158087 0 0 0
766 256 2 -1.1794 -10.504944666856705 -2.3482142006212428 14.938764700478302 0 0 0
661 221 2 -1.1794 -9.318818896538527 -4.5226876998237255 12.601760402500013 0 0 0
729 243 1 0.5897 -7.954742917889747 -7.650310085317321 11.800155604300185 1 0 0
663 221 1 0.5897 -8.70728013857615 -4.461173342376462 11.868021970481657 0 0 0
788 263 1 0.5897 -5.1845405690357484 -4.445440971238209 15.81723637953939 0 0 0
835 279 2 -1.1794 -11.501109384301927 -0.4387910549586671 11.240486578651648 1 0 0
684 228 1 0.5897 -8.342893706037655 -6.705595771520324 13.829825703746547 0 0 0
682 228 2 -1.1794 -7.703923433468045 -7.228508622663373 13.3455770030826 0 0 0
896 299 1 0.5897 -8.347691561767668 2.4975752450981084 15.810729558502283 0 0 0
760 254 2 -1.1794 -8.782840683027509 1.438546454823605 12.612920354480334 0 0 0
769 257 2 -1.1794 -12.400518993963383 2.46639167009363 12.288648223459388 0 0 0
836 279 1 0.5897 -11.495052136177463 -1.3921336200717622 11.326172854949794 1 0 0
791 264 1 0.5897 -10.934156491770684 -0.6276307535736745 14.288775633198659 0 0 0
740 247 1 0.5897 -10.882630768347894 -3.5651154669039116 12.131818997494024 1 0 0
837 279 1 0.5897 -11.38688424883596 -0.1168240973466137 12.134533507311168 1 0 0
790 264 2 -1.1794 -11.146269544138713 0.2290948457877544 13.918233237888035 0 0 0
792 264 1 0.5897 -11.607558424217862 0.6869715404855175 14.6208833458397 0 0 0
762 254 1 0.5897 -9.275234154155982 2.0231310392058486 12.036691917019475 0 0 0
761 254 1 0.5897 -9.452824887093277 0.9184957293785132 13.056556610241701 0 0 0
757 253 2 -1.1794 -9.963763898915266 -6.093040494868893 15.234738901438034 0 0 0
789 263 1 0.5897 -4.94173398783989 -4.53428892510448 14.325680221808433 0 0 0
770 257 1 0.5897 -11.97362617833266 2.8352191181988182 13.061780513913346 0 0 0
888 296 1 0.5897 -11.012036784708972 3.2755482814386934 15.211046032163365 0 0 0
758 253 1 0.5897 -9.801841032112831 -5.577363500587174 16.024615007507116 0 0 0
771 257 1 0.5897 -11.760063884808183 2.5756737045533296 11.585774040941583 0 0 0
767 256 1 0.5897 -11.008575233461674 -3.161809954278459 14.962040443273208 0 0 0
749 250 1 0.5897 -10.292578012053006 -6.064122617662686 12.491972820840678 1 0 0
865 289 2 -1.1794 -12.94492980169806 1.2300745539600282 15.891503912097832 0 0 0
739 247 2 -1.1794 -11.652115138521753 -3.1248746430974226 11.770876386097614 1 0 0
1150 384 2 -1.1794 -6.561662646634325 -4.552718299104287 19.47059153212826 0 0 0
1131 377 1 0.5897 -7.242184772601325 -2.241974455535387 17.30926163649096 0 0 0
1234 412 2 -1.1794 -8.86664887681382 0.18608754365734015 20.506927361920386 0 0 0
1108 370 2 -1.1794 -9.675012657585693 -4.521396191965309 17.796898672392935 0 0 0
1152 384 1 0.5897 -7.306970382058817 -4.287234344760497 20.009308262321262 0 0 0
1227 409 1 0.5897 -9.30098604788749 -3.366888350224908 20.99078635150187 0 0 0
1109 370 1 0.5897 -8.928359626973542 -3.923209130715316 17.76936446077534 0 0 0
1089 363 1 0.5897 -6.478680239834317 -4.819637112784648 17.57826373548991 0 0 0
1221 407 1 0.5897 -10.788325032675964 -2.5997071022970903 19.663252014489828 0 0 0
1151 384 1 0.5897 -6.381984448029309 -5.45438433257348 19.737036581165025 0 0 0
1141 381 2 -1.1794 -8.617389861800037 -6.582525546273692 21.7745697433452 0 0 0
1130 377 1 0.5897 -7.5076001636819605 -2.1336772401005746 18.795676348620344 0 0 0
1225 409 2 -1.1794 -8.458644407831784 -3.724201201306961 21.27178582063267 0 0 0
1205 402 1 0.5897 -11.968295167571734 1.394365850599776 18.591381939232424 0 0 0
1129 377 2 -1.1794 -7.9506948069974515 -2.229090488075058 17.952703105810137 0 0 0
1009 337 2 -1.1794 -11.288523789690457 3.6426757826366654 21.21228605563536 0 -1 0
1110 370 1 0.5897 -10.432297819319627 -3.9535311140393983 17.9393026252302 0 0 0
1248 416 1 0.5897 -6.083447956850829 -1.3421511722300679 21.172671995941005 0 0 0
1204 402 2 -1.1794 -11.922118095890585 0.4774301535153267 18.862212772890132 0 0 0
1197 399 1 0.5897 -9.675074551686375 2.7393007929935926 17.610102508003827 0 0 0
866 289 1 0.5897 -12.821145765969412 1.7157773407406562 16.70687226140276 0 0 0
1096 366 2 -1.1794 -8.968484418893219 -6.810981628066828 18.98302843718742 0 0 0
1246 416 2 -1.1794 -6.527637659875473 -1.0966609418179942 20.361161293066743 0 0 0
1236 412 1 0.5897 -8.01560608446227 -0.21783414950854763 20.33726800001893 0 0 0
1249 417 2 -1.1794 -11.68477951759694 0.7582401370512066 21.65256498046157 0 0 0
1100 367 1 0.5897 -9.230837690400401 -1.0403878722046045 17.46068633916744 0 0 0
1142 381 1 0.5897 -8.70023937452223 -6.692710878627632 20.82742993339629 0 0 0
1099 367 2 -1.1794 -9.955202041709521 -0.5505265632447767 17.071404975598153 0 0 0
1206 402 1 0.5897 -11.272460182328949 0.08694274365633525 18.27771249891146 0 0 0
1097 366 1 0.5897 -9.266932589056136 -6.031941785401518 18.513666926596848 0 0 0
1235 412 1 0.5897 -9.496445892196519 -0.5261886316712925 20.396972059910627 0 0 0
1216 406 2 -1.1794 -12.67102791927644 2.9503989479123955 17.824793099235347 0 0 0
1260 420 1 0.5897 -9.914105414479415 3.1860841790062153 20.014149803645484 0 0 0
1259 420 1 0.5897 -8.984632116664162 2.000299938712276 19.865988400957967 0 0 0
1258 420 2 -1.1794 -9.308763962516771 2.7709477444335864 19.399825952333366 0 0 0
1219 407 2 -1.1794 -10.434143171053062 -2.1586483488257002 20.435286907191838 0 0 0
1247 416 1 0.5897 -5.861052006044712 -0.6345367886261766 19.85298293379015 0 0 0
1011 337 1 0.5897 -12.137003492122126 3.6489500011663125 20.769438596720672 0 -1 0
1121 374 1 0.5897 -5.003917398797802 -3.612308913477614 18.890925491483856 0 0 0
1195 399 2 -1.1794 -9.770175481438477 2.511081460075154 16.68547573577543 0 0 0
1087 363 2 -1.1794 -6.600814706230318 -5.094269980150315 16.669576148915972 0 0 0
1088 363 1 0.5897 -6.690729338723712 -6.046072049153752 16.71660467771923 0 0 0
1250 417 1 0.5897 -11.615597321729085 0.7084959203602637 20.699233143131686 0 0 0
1196 399 1 0.5897 -9.818944809879989 1.555156622709612 16.678078983296764 0 0 0
273 91 1 0.5897 -8.619131872097817 1.34469460288285 21.822871508954474 1 1 -1
1226 409 1 0.5897 -8.072265559542782 -3.033031528276136 21.809401612618743 0 0 0
1101 367 1 0.5897 -10.41608208121504 -1.1924419821353816 16.531465170397915 0 0 0
40 14 2 -1.1794 -15.505333796469607 4.172278634034294 1.5191545306517487 1 0 0
177 59 1 0.5897 -14.304119542952517 5.01167891496824 3.2223070632906747 1 0 0
56 19 1 0.5897 -12.712441057828732 5.83072859429007 1.121040335687723 1 0 0
66 22 1 0.5897 -14.000053940859031 3.200667852270197 1.6296184697696823 1 0 0
65 22 1 0.5897 -12.494241979160734 3.3501688131465777 1.6709851886231795 1 0 0
64 22 2 -1.1794 -13.187123132264404 2.706767726533979 1.5226923791855287 1 0 0
205 69 2 -1.1794 -15.307962142395825 7.941481808791195 5.163303654933519 1 0 0
191 64 1 0.5897 -12.90210309685444 6.425544685567857 4.075259967057018 1 0 0
183 61 1 0.5897 -12.4345163180338 3.9500057670104933 4.489189006400815 1 0 0
175 59 2 -1.1794 -13.824529004734162 5.013292645781917 4.050583418331254 1 0 0
108 36 1 0.5897 -10.326658823109609 2.700304060468641 3.676647899764998 1 0 0
85 29 2 -1.1794 -11.431370775678296 4.75648219283816 1.5334614253750596 1 0 0
176 59 1 0.5897 -14.50411643706379 4.9491393103089045 4.721543064880517 1 0 0
55 19 2 -1.1794 -13.418434924003808 6.393745075487578 0.8035320157950504 1 0 0
192 64 1 0.5897 -11.414432370471516 6.668516433329875 3.9360496935196565 1 0 0
43 15 2 -1.1794 -10.022244800972246 2.085497245375322 0.33716335395733193 1 0 0
161 54 1 0.5897 -15.474088953873405 8.196116449416945 2.0728453588022626 1 0 0
215 72 1 0.5897 -12.51324109339476 8.754565663038491 3.470595847903775 1 0 0
285 95 1 0.5897 -17.369055658350014 12.012270764375273 3.110266145287596 1 0 0
42 14 1 0.5897 -15.855560074648906 4.725166373929312 0.8206757312078801 1 0 0
190 64 2 -1.1794 -12.257911224509932 7.120977988820268 3.9429810529698615 1 0 0
162 54 1 0.5897 -14.739199537224101 6.902034466193438 1.794850310395862 1 0 0
150 50 1 0.5897 -18.874487844930947 11.470526743095618 1.2362891785408932 1 0 0
160 54 2 -1.1794 -15.455728324343571 7.269516497564069 2.3122865795763947 1 0 0
193 65 2 -1.1794 -14.015055603552973 11.903983516435815 1.8652145224735448 1 0 0
106 36 2 -1.1794 -9.527428802381387 2.4033833820128887 3.241602612287161 1 0 0
148 50 2 -1.1794 -18.34918344564523 11.094741244709901 1.9426829430716122 1 0 0
283 95 2 -1.1794 -16.879115033019623 12.207598928416303 3.9089042814959636 1 0 0
284 95 1 0.5897 -17.525977984398903 12.136298633956454 4.610789536661086 1 0 0
289 97 2 -1.1794 -14.728883347361307 10.605050343702068 4.644304405605571 1 0 0
291 97 1 0.5897 -15.44867957336368 11.093308367022857 4.244671792896788 1 0 0
206 69 1 0.5897 -15.110388076314578 7.501814446880189 4.336398801476349 1 0 0
174 58 1 0.5897 -16.84937092869506 10.36095568250921 1.4995254414792523 1 0 0
173 58 1 0.5897 -15.36225570996051 10.636350772384326 1.5635199185311173 1 0 0
172 58 2 -1.1794 -15.999943124550224 9.990323291501849 1.2601760111423266 1 0 0
207 69 1 0.5897 -15.121337345162292 8.86501999005944 4.994611681882103 1 0 0
181 61 2 -1.1794 -11.618835881965289 3.516057342712143 4.739299210422946 1 0 0
216 72 1 0.5897 -13.284298769017454 10.054262957391856 3.5613943158712917 1 0 0
152 51 1 0.5897 -13.079406201806165 8.254111496233147 0.29476406308823505 1 0 0
167 56 1 0.5897 -16.91491015785277 6.172764374406929 3.162770273982824 1 0 0
153 51 1 0.5897 -13.02181938662488 9.648359203295076 0.881658962607159 1 0 0
45 15 1 0.5897 -10.192807428290115 2.3143505834553153 1.250750989530533 1 0 0
151 51 2 -1.1794 -13.04791210919506 9.178489474466762 0.048227367599968866 1 0 0
86 29 1 0.5897 -10.86328931828984 4.956209952441833 2.2773778074733113 1 0 0
290 97 1 0.5897 -14.368225604035782 11.202566974627043 5.29922155901611 1 0 0
87 29 1 0.5897 -10.837204392588198 4.705053321328551 0.7848070402502074 1 0 0
149 50 1 0.5897 -18.979103680930862 10.616979668021727 2.482219749780924 1 0 0
1010 337 1 0.5897 -13.346827991757266 1.6237883201955672 0.06389810600099152 0 -1 1
525 175 1 0.5897 -11.813779491152756 8.326293323491004 5.43459526859382 1 0 0
182 61 1 0.5897 -11.266842073170727 4.056268462640311 5.446612477386051 1 0 0
57 19 1 0.5897 -13.791321557446487 5.916185960748065 0.06265838457289702 1 0 0
508 170 2 -1.1794 -13.591764784029623 6.571140147756886 7.042140474834373 1 0 0
644 215 1 0.5897 -12.649148318738932 6.946385596427042 10.131320704251198 1 0 0
643 215 2 -1.1794 -11.97601954625356 7.0303650557274295 9.456057209869062 1 0 0
521 174 1 0.5897 -10.748377748856209 3.334290680511508 7.55048501004466 1 0 0
510 170 1 0.5897 -14.078476340737815 7.036034836153714 6.361589105940909 1 0 0
509 170 1 0.5897 -14.255157476132412 6.058639567597208 7.504087479256249 1 0 0
532 178 2 -1.1794 -11.174058911483367 5.0665195135253605 7.199257022174391 1 0 0
534 178 1 0.5897 -12.04298489143632 5.455545665236398 7.1001347538059605 1 0 0
567 189 1 0.5897 -13.34269079320251 11.08414644970339 10.761651326703749 0 0 0
645 215 1 0.5897 -12.465856131393044 7.116114967638797 8.638269777940321 1 0 0
459 153 1 0.5897 -10.078134618738918 3.7595430799117207 10.650964705136001 0 0 0
543 181 1 0.5897 -10.362541707192424 5.923966224015459 9.760114021022236 0 0 0
636 212 1 0.5897 -15.30692535191331 7.496720841051758 9.783580938522322 1 0 0
327 109 1 0.5897 -13.680241624062635 13.26765491615701 9.586507072159803 0 -1 0
538 180 2 -1.1794 -15.667147601113257 5.1269178018239625 8.399860760070613 1 0 0
628 210 2 -1.1794 -13.573171312137665 9.619259000330047 8.15515516726997 1 0 0
566 189 1 0.5897 -13.582721429436479 9.834469081296682 9.941742349862373 0 0 0
325 109 2 -1.1794 -13.006638569789468 12.7939788455618 10.074442965173812 0 -1 0
634 212 2 -1.1794 -15.691050320254472 8.253597594840802 9.341025180276805 1 0 0
635 212 1 0.5897 -14.94804844990799 8.691429650072863 8.925832932002415 1 0 0
640 214 2 -1.1794 -14.188689319653456 12.155404437478289 7.111245045906482 1 0 0
630 210 1 0.5897 -12.92638573704814 9.215485970160643 7.576506073904717 1 0 0
629 210 1 0.5897 -13.849681863072503 10.409761868197666 7.691568408359904 1 0 0
642 214 1 0.5897 -15.082132315202914 12.495558080828658 7.063894316456498 1 0 0
519 173 1 0.5897 -16.804389846482504 7.532266020672516 6.121646470737122 1 0 0
646 216 2 -1.1794 -18.690169068977625 12.088735972384018 8.425331121107956 1 0 0
565 189 2 -1.1794 -13.458898821519886 10.137366246348034 10.841172421646984 0 0 0
533 178 1 0.5897 -10.574631091949843 5.812624622684428 7.189167108953881 1 0 0
457 153 2 -1.1794 -10.34106076686715 2.8412188250996415 10.590220660761812 0 0 0
641 214 1 0.5897 -13.63233023799663 12.926598976608055 7.002405358439045 1 0 0
728 243 1 0.5897 -17.61347517422214 12.88777407387865 10.721743851045536 1 -1 0
876 292 1 0.5897 -12.874876057590788 4.422430736660784 14.629185311089795 0 0 0
869 290 1 0.5897 -12.708487779722319 8.319213570991472 13.029294708114712 0 0 0
874 292 2 -1.1794 -13.734339905754208 4.82053283130975 14.767217682855257 0 0 0
898 300 2 -1.1794 -14.12907915924589 7.224833527871887 13.547240876893103 0 0 0
945 315 1 0.5897 -14.29982866019051 6.805957844066924 11.878196649787457 1 0 0
900 300 1 0.5897 -14.610702503019617 7.630325604334736 14.268198465579767 0 0 0
899 300 1 0.5897 -13.757439460703502 6.427735017975662 13.925124137313171 0 0 0
650 217 1 0.5897 -15.645449474045883 8.994010659749357 16.234671348367407 0 -1 0
887 296 1 0.5897 -10.371808450409596 4.110470437931102 14.122576106331616 0 0 0
848 283 1 0.5897 -14.014898107963276 3.4284439925009202 11.8921541314551 1 0 0
680 227 1 0.5897 -11.18933169493741 9.552187032069572 15.484592088093624 0 -1 0
868 290 2 -1.1794 -11.880214483453205 8.683040172832627 12.716719845745246 0 0 0
875 292 1 0.5897 -14.310970052939268 4.083166013322698 14.96702128533218 0 0 0
659 220 1 0.5897 -17.2535328524804 11.283975445261142 15.246466549377779 0 -1 0
879 293 1 0.5897 -14.948238644889743 9.789085592954436 11.865807434807557 0 0 0
956 319 1 0.5897 -17.23768928545764 10.995831720347233 12.049569433590664 1 0 0
877 293 2 -1.1794 -15.664375278252063 9.778931268932137 12.500797053830823 0 0 0
870 290 1 0.5897 -12.123462091578038 9.220919450813579 11.963246271057391 0 0 0
660 220 1 0.5897 -15.787075405049912 11.645742375540426 15.145684195150366 0 -1 0
878 293 1 0.5897 -15.253988089670242 10.026195550988916 13.329329482053007 0 0 0
658 220 2 -1.1794 -16.655419431771264 12.031019436600442 15.262954556694647 0 -1 0
672 224 1 0.5897 -13.742780830507815 10.30297037337306 15.341623942902787 0 -1 0
671 224 1 0.5897 -13.547900638987084 11.349208413691063 14.264923029037126 0 -1 0
670 224 2 -1.1794 -14.226141572356374 10.868571480753968 14.73939862468317 0 -1 0
683 228 1 0.5897 -16.92942309152975 13.453369563273878 13.808952946588834 0 -1 0
710 237 1 0.5897 -12.148910624893997 12.46676948503212 15.295095707792205 0 -1 0
886 296 2 -1.1794 -11.210185264099149 3.7396116652877502 14.397677738966065 0 0 0
955 319 2 -1.1794 -17.928002620605604 11.170489654301363 11.409985758790953 1 0 0
649 217 2 -1.1794 -15.947519918392926 8.376886512039693 15.568378832418976 0 -1 0
1209 403 1 0.5897 -13.295190760151876 5.897915362540559 16.27604260829855 0 0 0
944 315 1 0.5897 -14.30979575131391 5.488100515539545 11.133328291438644 1 0 0
943 315 2 -1.1794 -14.182831066240807 6.428326406542169 11.006529671897242 1 0 0
1018 340 2 -1.1794 -12.140726400934465 7.350880032944001 20.16355586524668 0 -1 0
1019 340 1 0.5897 -12.772246193820887 6.6359849695659285 20.242369730724278 0 -1 0
1020 340 1 0.5897 -11.29339369732177 6.943269564439017 20.342616067153738 0 -1 0
1030 344 2 -1.1794 -9.715044059501485 6.1333564546146455 20.221342780412396 0 -1 0
1207 403 2 -1.1794 -13.11843585570022 6.507996409037897 16.99201490957896 0 0 0
1237 413 2 -1.1794 -10.915697964235553 5.209090250089382 17.93590201939528 0 0 0
1208 403 1 0.5897 -12.361725326801977 6.134720604768553 17.44391826864575 0 0 0
1238 413 1 0.5897 -10.664255074710052 5.494812426013416 18.814066866636324 0 0 0
1239 413 1 0.5897 -10.085772068156716 5.105007894390326 17.4705372611084 0 0 0
1035 345 1 0.5897 -14.710889818543098 9.157805121088142 21.216850079830333 0 -1 0
1032 344 1 0.5897 -9.187791510121672 5.687323419833518 20.88409659682679 0 -1 0
1126 376 2 -1.1794 -14.94666637366078 14.652738203602766 20.60111283796405 0 -1 0
990 330 1 0.5897 -14.536325603848653 7.0862531249778264 17.95249950292673 0 -1 0
1117 373 2 -1.1794 -14.177514790759124 10.840803040889327 20.989285732203975 0 -1 0
1013 338 1 0.5897 -11.065710818367192 11.107798643755288 18.480599881251923 0 -1 0
1118 373 1 0.5897 -13.875609657995835 11.51840149549502 21.594045082986757 0 -1 0
1043 348 1 0.5897 -12.084270107583114 9.017339839681 19.623014668942126 0 -1 0
981 327 1 0.5897 -12.534687007967326 9.480371665892466 17.329924125838566 0 -1 0
991 331 2 -1.1794 -16.09750646311204 13.810445802659846 17.37069548478478 0 -1 0
1023 341 1 0.5897 -13.316870771601177 12.409081732697594 17.272340566047408 0 -1 0
1042 348 2 -1.1794 -12.111205323858513 9.95011677647311 19.40983124202561 0 -1 0
1002 334 1 0.5897 -16.46060302315921 10.660751199864823 17.900835188369488 0 -1 0
1021 341 2 -1.1794 -13.874011194539142 12.290651174082022 18.04157629044771 0 -1 0
1140 380 1 0.5897 -11.939932412969487 12.797292169450127 20.619303992550886 0 -1 0
979 327 2 -1.1794 -12.653834877347125 9.137480293981827 16.444330091526677 0 -1 0
992 331 1 0.5897 -15.486713614853883 13.314100745801923 17.915470730913153 0 -1 0
1033 345 2 -1.1794 -14.946834270293635 8.236151042642671 21.322091405887914 0 -1 0
988 330 2 -1.1794 -15.206524026949516 7.450854166103483 18.53049428869994 0 -1 0
1128 376 1 0.5897 -14.043686451074636 14.372975000834984 20.45097198191789 0 -1 0
1001 334 1 0.5897 -14.951555804148455 10.77957617981567 17.916222041565323 0 -1 0
1138 380 2 -1.1794 -12.436761551531873 13.438778139623661 20.111471579818495 0 -1 0
1127 376 1 0.5897 -15.43240979314566 13.837760455245153 20.727574440227038 0 -1 0
1022 341 1 0.5897 -13.357063242368838 12.638367854787386 18.768114892047134 0 -1 0
1119 373 1 0.5897 -14.81530006648365 11.284852563164836 20.430508700638292 0 -1 0
1044 348 1 0.5897 -12.626664990004157 10.34256168928583 20.1144295988771 0 -1 0
1000 334 2 -1.1794 -15.662319125524963 10.199609157387915 17.64331311475567 0 -1 0
1003 335 2 -1.1794 -13.557157071118944 5.0340175194691295 20.584300889453342 0 -1 0
1111 371 2 -1.1794 -16.3621981380647 12.39881806800863 20.14243089119971 0 -1 0
1034 345 1 0.5897 -14.866369349898754 7.865993782201983 20.443120300055362 0 -1 0
989 330 1 0.5897 -15.39265400927657 8.31629182393144 18.166285403542012 0 -1 0
980 327 1 0.5897 -12.903083836101978 8.22230783477271 16.572904573252213 0 -1 0
993 331 1 0.5897 -16.283392353071726 13.232306666687396 16.630931882587586 0 -1 0
1098 366 1 0.5897 -17.450305917052304 14.414031617474823 18.49531068957276 0 -1 0
1217 406 1 0.5897 -12.244750146854297 3.8041034891743717 17.749938184733896 0 0 0
1031 344 1 0.5897 -9.073991880681476 6.538724437252149 19.637506282970346 0 -1 0
1112 371 1 0.5897 -16.857528280446886 12.137750801430137 20.91873740591454 0 -1 0
1113 371 1 0.5897 -17.003676409545534 12.38401452852866 19.432275350592302 0 -1 0
1005 335 1 0.5897 -13.983909691026053 4.842098669468054 19.749415650795374 0 -1 0
27 9 1 0.5897 -3.882385062684243 1.8999848505534267 4.863812198152426 0 0 0
318 106 1 0.5897 -2.844257538971747 -4.302287234551858 1.4858855641463433 1 1 0
293 98 1 0.5897 -5.20098177356254 -3.791805647049464 2.21789367707088 1 1 0
90 30 1 0.5897 -3.940952038817551 -0.15149967889614047 1.7922863680941192 1 0 0
306 102 1 0.5897 -0.7720350870038057 -7.509172160448302 2.0125263677695817 1 1 0
316 106 2 -1.1794 -1.9416258521663696 -4.616794392809741 1.536101669759518 1 1 0
310 104 2 -1.1794 -3.478623739163859 -8.392407059342121 3.769158587532065 1 1 0
242 81 1 0.5897 -0.9743426045128594 -6.639423244888725 4.427745626901564 0 1 0
305 102 1 0.5897 -1.6618013960994418 -6.311553778703847 2.2694763462914183 1 1 0
322 108 2 -1.1794 -6.428184362814642 -4.4854959291763095 3.1549231088571306 1 1 0
304 102 2 -1.1794 -1.4198687412359323 -7.16561016755995 2.6277203509334903 1 1 0
311 104 1 0.5897 -2.7233797454070903 -7.9191098080045865 3.420274780348209 1 1 0
292 98 2 -1.1794 -4.452270721978974 -3.4983618516780544 1.6987933495384784 1 1 0
302 101 1 0.5897 -7.524446556097141 -1.936504477461459 2.1749810447566955 1 1 0
94 32 2 -1.1794 -6.620342679812487 -1.4260964163626024 3.7616716291967536 1 0 0
88 30 2 -1.1794 -4.633702823931955 0.1189015883010569 2.3949098264777677 1 0 0
96 32 1 0.5897 -6.2694917668617975 -1.8884110146661763 4.522823626402724 1 0 0
104 35 1 0.5897 -3.6457197339510268 -2.5847387963958273 4.449929969252375 1 0 0
294 98 1 0.5897 -4.826932449904989 -2.8953654815009884 1.0567260732717219 1 1 0
95 32 1 0.5897 -5.926436969589065 -0.8167552758264804 3.5100395635715347 1 0 0
103 35 2 -1.1794 -2.9441158037205426 -2.356478404671474 3.8401702622426943 1 0 0
105 35 1 0.5897 -3.344101582533817 -2.4341013535019274 2.9741290988899833 1 0 0
26 9 1 0.5897 -4.0440230728213535 0.494069007259208 4.326251108538949 0 0 0
89 30 1 0.5897 -4.774055646575723 1.0453188926634684 2.1991340851804244 1 0 0
3 1 1 0.5897 -1.465716369347799 -3.231173751892734 4.407070510676263 0 0 0
25 9 2 -1.1794 -3.949314104988031 0.9864001200115808 5.141542382698183 0 0 0
303 101 1 0.5897 -7.280811619316034 -1.8668922250472422 0.6825312832942922 1 1 0
307 103 2 -1.1794 -2.5701605667387053 -0.9293220442649961 0.6599331784493752 1 1 0
241 81 2 -1.1794 -1.189587804442441 -6.332492683154976 5.308413380951108 0 1 0
317 106 1 0.5897 -1.4165877138627962 -3.8233222759058965 1.640180029022481 1 1 0
199 67 2 -1.1794 0.49917363701925765 -8.120705465758952 0.7717117631925574 1 1 0
1262 421 1 0.5897 -2.1080112920526624 -5.727360796718022 0.17735540157992416 0 0 1
243 81 1 0.5897 -1.0287803014356243 -5.389344717049227 5.279802510081004 0 1 0
1179 393 1 0.5897 -2.5578775155289666 -8.01994628553277 0.025312873080970678 0 0 1
201 67 1 0.5897 0.22772468499849374 -8.654055212904897 0.02479404947237842 1 1 0