LAMMPS data file via write_data, version 30 Jul 2021, timestep = 4000000

972 atoms
2 atom types
648 bonds
1 bond types
324 angles
1 angle types

0.04539807913718086 19.954602920863856 xlo xhi
-0.01005705205926688 20.010058052055975 ylo yhi
-0.09711700435957837 20.797115004364194 zlo zhi

Masses

1 1.008
2 15.999

Pair Coeffs # lj/cut/tip4p/long/omp

1 0 0
2 0.21084 3.1668

Bond Coeffs # harmonic/omp

1 450 0.9572

Angle Coeffs # harmonic/omp

1 55 104.52

Atoms # full

4 2 2 -1.1794 4.315184204364738 1.3058479940447967 3.3303090075211483 0 0 0
5 2 1 0.5897 4.423861253700187 0.5904932790935158 2.7036263504826423 0 0 0
17 6 1 0.5897 4.451370254388009 4.464227777872611 2.611164076730681 0 0 0
10 4 2 -1.1794 1.238429322683952 4.04998571180336 3.6522685227586074 0 0 0
11 4 1 0.5897 1.099465297416119 3.2913934939449416 3.085287491124486 0 0 0
12 4 1 0.5897 2.1844469000905664 4.194473494451008 3.632300061216767 0 0 0
16 6 2 -1.1794 4.051929052165895 4.042307709059691 3.371883090575511 0 0 0
18 6 1 0.5897 4.14545862656531 3.104746809260049 3.2029935426068765 0 0 0
23 8 1 0.5897 2.7546913516704254 0.9611731467998927 4.259179981238976 0 0 0
31 11 2 -1.1794 0.9678581507385227 2.0948263205433806 1.7571611974384889 0 0 0
33 11 1 0.5897 1.5391101894507229 2.3930686697256682 1.0493655985022583 0 0 0
32 11 1 0.5897 0.08112394221666219 2.2402168776897615 1.4273022846724623 0 0 0
236 79 1 0.5897 0.962286484878255 0.20881640476996036 1.8103373931664573 0 1 0
22 8 2 -1.1794 2.068930074679183 0.808860107059013 4.909382708124167 0 0 0
102 34 1 0.5897 0.19680816330466977 0.8152898634767736 4.984387156905717 1 0 0
3 1 1 0.5897 3.5331389994791236 2.592018140856206 -0.03459962074316891 0 0 0
328 110 2 -1.1794 4.102012718599363 1.2172802626124064 10.211284427664824 0 0 0
27 9 1 0.5897 2.617151645827606 4.5046544178889505 6.526329486712424 0 0 0
356 119 1 0.5897 1.590275546744038 2.3677651885435793 8.353755181152108 0 0 0
325 109 2 -1.1794 2.651045459255963 2.5514731239656285 6.924887718270868 0 0 0
326 109 1 0.5897 2.4160107621636637 1.9183635428692598 6.24650359537656 0 0 0
327 109 1 0.5897 3.588137446799242 2.4159169286017486 7.065349357662163 0 0 0
330 110 1 0.5897 4.280659441583995 0.5233900417355722 9.576557435724293 0 0 0
355 119 2 -1.1794 0.8538451505194241 2.1505998856284094 8.92537431382229 0 0 0
342 114 1 0.5897 4.164253498852698 4.53928482032509 9.808893704944001 0 0 0
357 119 1 0.5897 0.08907017228749588 2.1721729623386805 8.350139310374148 0 0 0
335 112 1 0.5897 0.9588870780240542 3.500788765030157 10.067113404202539 0 0 0
341 114 1 0.5897 3.9591356983289705 3.0738159849156776 10.128872065189212 0 0 0
561 187 1 0.5897 0.8564992806220704 0.27161489616485923 8.930401699639349 0 1 0
24 8 1 0.5897 2.3784694100032406 0.05586430500938988 5.412794303731245 0 0 0
651 217 1 0.5897 2.134234914146485 2.3312646935641403 14.675763055077557 0 0 0
683 228 1 0.5897 4.448115954070321 2.4989832299120063 14.248501394149095 0 0 0
346 116 2 -1.1794 2.02793380650263 0.8343782022335374 11.9488184312696 0 0 0
347 116 1 0.5897 1.1497932795734855 1.0419343819819091 11.629387016825644 0 0 0
348 116 1 0.5897 2.599369997385209 0.9870140976811994 11.196212462960235 0 0 0
350 117 1 0.5897 2.6956578763625596 4.500275014853834 13.52827686331704 0 0 0
649 217 2 -1.1794 2.720730285679501 2.5452261606071835 13.950161855470057 0 0 0
650 217 1 0.5897 2.3747064505831337 2.0498169066134486 13.207798669524735 0 0 0
334 112 2 -1.1794 1.1197885358162811 4.292445596989896 10.580602145688298 0 0 0
336 112 1 0.5897 2.072504214832894 4.336004697713941 10.662271205844796 0 0 0
329 110 1 0.5897 4.714617747099346 1.0507473391665179 10.927682905408453 0 0 0
340 114 2 -1.1794 3.8220605984543012 3.9524075552156885 10.483240462253354 0 0 0
652 218 2 -1.1794 4.1376597045209 1.1921682134131244 17.193305833710482 0 0 0
653 218 1 0.5897 3.300282026153869 0.925975235841875 17.57302923711058 0 0 0
654 218 1 0.5897 4.332512233557321 0.5162070780041306 16.544181440725907 0 0 0
658 220 2 -1.1794 1.2247248617499975 4.1937969948955045 17.487307125652716 0 0 0
659 220 1 0.5897 0.6093664331202397 4.282015434678186 18.21518365764859 0 0 0
664 222 2 -1.1794 3.9153128047330186 3.917562365412781 17.45209658918164 0 0 0
665 222 1 0.5897 2.964283325204768 3.98496891114582 17.537071491748215 0 0 0
666 222 1 0.5897 4.081707847177458 2.9799481789276094 17.354681037106875 0 0 0
670 224 2 -1.1794 2.002576608133909 0.8639384042125026 18.83210828678171 0 0 0
671 224 1 0.5897 2.125885212985618 1.613352353075434 19.41473556489557 0 0 0
672 224 1 0.5897 1.052889030145824 0.7800956231403414 18.74665070882854 0 0 0
681 227 1 0.5897 0.8246970491375163 2.740376971278237 16.46828860113319 0 0 0
884 295 1 0.5897 0.6613133483638072 0.31507730705908454 15.812973707724366 0 1 0
679 227 2 -1.1794 0.800794074573626 2.063828684853552 15.791546140537495 0 0 0
660 220 1 0.5897 1.0154684184331748 4.925068534940957 16.90616120031612 0 0 0
2 1 1 0.5897 2.6934521395630147 3.8258012731150814 20.605222798677424 0 0 -1
656 219 1 0.5897 4.771218316870123 4.347569098879972 19.017183944559477 0 0 0
1 1 2 -1.1794 2.657377341885233 2.86935723755332 20.590610302234424 0 0 -1
126 42 1 0.5897 4.229768575520109 9.64709353659598 3.2884758282708857 0 0 0
141 47 1 0.5897 0.909784689033059 7.857725158188938 2.0744634582388537 0 0 0
139 47 2 -1.1794 0.8497255451623665 8.756711349576838 1.7511862659716215 0 0 0
111 37 1 0.5897 3.5423673590281504 9.349390414768255 0.14686275178626498 0 0 0
14 5 1 0.5897 4.209984926372784 5.8261708586774335 0.8270479265751495 0 0 0
15 5 1 0.5897 4.613837425658674 6.5938014923271675 2.067865602546444 0 0 0
19 7 2 -1.1794 0.832901728322743 5.979125215598135 1.8360010715405386 0 0 0
140 47 1 0.5897 1.1202435596214941 9.297250231347071 2.493414530325211 0 0 0
20 7 1 0.5897 1.0390469465936545 5.288692074003257 2.466145822493559 0 0 0
674 225 1 0.5897 2.0873133948754816 5.755329952169887 0.5290439391593919 0 0 1
110 37 1 0.5897 2.070247021043766 9.327526164410914 0.4994284853554817 0 0 0
112 38 2 -1.1794 4.257972983776559 7.900023691679401 3.243919267536148 0 0 0
114 38 1 0.5897 3.42478930546145 7.7000825251033875 3.6706250447720796 0 0 0
13 5 2 -1.1794 4.856996748524901 5.83855683270555 1.5323662487214564 0 0 0
132 44 1 0.5897 1.1015427005471408 7.515847479611731 4.783730848275485 0 0 0
113 38 1 0.5897 4.918870425483101 7.724205112319423 3.913660716422915 0 0 0
130 44 2 -1.1794 2.052544471393933 7.475042906794347 4.682895991105237 0 0 0
464 155 1 0.5897 1.4664840188349717 8.953974211486425 8.25522046718455 0 0 0
437 146 1 0.5897 4.22999028119664 7.423404208341557 9.530834098248546 0 0 0
468 156 1 0.5897 4.652771649649076 9.056381175043434 7.464276426613719 0 0 0
26 9 1 0.5897 1.9925941129857438 5.726094729109647 7.166658101561545 0 0 0
463 155 2 -1.1794 0.7954433545383207 8.717710581041779 8.895639579637248 0 0 0
25 9 2 -1.1794 2.6230296652263547 5.46141627455024 6.496782807703106 0 0 0
337 113 2 -1.1794 4.510101664564013 5.839655737189488 8.554782642471267 0 0 0
339 113 1 0.5897 4.107663825573337 5.693600442550762 7.6986623266302985 0 0 0
343 115 2 -1.1794 0.7784488052480508 6.021382067848764 8.46751230502358 0 0 0
344 115 1 0.5897 0.914330589963709 5.455310094010276 9.227359452870207 0 0 0
345 115 1 0.5897 0.9160528205488685 6.908004937673144 8.801064661108038 0 0 0
433 145 2 -1.1794 2.732067388216965 9.295824278444547 6.890366455682551 0 0 0
435 145 1 0.5897 2.5698507460294135 8.775140375757735 6.1037054782993785 0 0 0
131 44 1 0.5897 2.3089112951093487 6.677175071523694 5.145464451602721 0 0 0
438 146 1 0.5897 4.154262849518648 8.803124040967685 10.14945131256029 0 0 0
443 148 1 0.5897 0.9862148072132387 9.960409060591362 10.285633499039802 0 0 0
757 253 2 -1.1794 2.841830542405524 9.223013822226521 14.082372003436825 0 0 0
533 178 1 0.5897 0.39227223876270084 7.322671679780412 12.199666778528773 1 0 0
792 264 1 0.5897 4.600168483410363 9.231731324049818 14.17334378327073 0 0 0
351 117 1 0.5897 3.445199363391172 5.546494945330025 14.325529336948557 0 0 0
454 152 2 -1.1794 2.1061889216760554 7.583721030584539 12.11529275117999 0 0 0
455 152 1 0.5897 2.7342409197043267 7.693305252792849 11.4012936592867 0 0 0
456 152 1 0.5897 2.4046485086626728 6.8016190606050175 12.5795381270757 0 0 0
759 253 1 0.5897 2.6252399882711726 8.671691764573822 13.330439397869172 0 0 0
668 223 1 0.5897 1.3286987473460952 5.804837429120754 14.85228921007684 0 0 0
349 117 2 -1.1794 2.6918528783511526 5.432379708486528 13.74613676801314 0 0 0
789 263 1 0.5897 1.6437742571772869 8.933792574817696 15.3329597052852 0 0 0
436 146 2 -1.1794 4.157979536964387 7.872400443920851 10.373140043164742 0 0 0
787 263 2 -1.1794 0.9371350063031865 8.745573525599108 15.950603621057311 0 0 0
788 263 1 0.5897 1.0685958052840832 9.370745593275284 16.663441891502245 0 0 0
663 221 1 0.5897 4.454713766162753 6.634902629867371 16.06689250607199 0 0 0
780 260 1 0.5897 2.827588088954798 7.61171579532842 18.195409925988375 0 0 0
858 286 1 0.5897 0.4930548530549585 7.40181115500989 18.870310390115943 1 0 0
675 225 1 0.5897 2.614421497262258 6.2315922323486035 20.0863791476558 0 0 0
760 254 2 -1.1794 4.339516700221308 8.01399109553178 17.16142128545936 0 0 0
761 254 1 0.5897 4.2935401417893795 8.969147691982238 17.11828156956799 0 0 0
779 260 1 0.5897 2.4646298047128834 8.297879217550912 19.495175316424785 0 0 0
778 260 2 -1.1794 2.2732849559913197 7.520502537964283 18.970439192651227 0 0 0
669 223 1 0.5897 0.8996749999477571 6.917587736035163 15.784873529712593 0 0 0
662 221 1 0.5897 4.4898550714511565 5.127285919009424 16.200769788214075 0 0 0
673 225 2 -1.1794 2.792977219955695 5.610898544054013 20.792861860622946 0 0 0
109 37 2 -1.1794 2.6830724474615826 9.62336583131743 20.720477355088427 0 0 -1
661 221 2 -1.1794 4.696995793045335 5.838430453761573 15.594432926726716 0 0 0
667 223 2 -1.1794 0.7375217574278407 5.9966474215671655 15.580277330802408 0 0 0
783 261 1 0.5897 2.295200303123672 12.546989201511122 0.27644361424436265 0 0 1
118 40 2 -1.1794 1.6221984445842859 11.049595742231633 3.4045726817534114 0 0 0
119 40 1 0.5897 2.5759331144398776 11.052457317450708 3.4859743243702868 0 0 0
120 40 1 0.5897 1.4324629102042103 11.750502002787893 2.7808683176544045 0 0 0
122 41 1 0.5897 4.732774540342647 11.720960109998801 2.197722938879144 0 0 0
123 41 1 0.5897 4.268727593551588 12.274342056146113 0.8671597637614572 0 0 0
124 42 2 -1.1794 4.245550004264342 10.591310520090802 3.4450082986705075 0 0 0
240 80 1 0.5897 2.4406492342648773 13.977744996307184 4.374102965877841 0 0 0
127 43 2 -1.1794 1.0646200640794656 12.936006805978142 1.5293730609216631 0 0 0
129 43 1 0.5897 1.0969756682150968 13.833639543519682 1.8602798672053504 0 0 0
220 74 2 -1.1794 4.026283652544082 14.305488090823992 3.3268175753868583 0 0 0
222 74 1 0.5897 4.37133272524807 13.848376129250228 2.5598399302992454 0 0 0
125 42 1 0.5897 4.770120993638112 10.694204784487145 4.239042391407598 0 0 0
238 80 2 -1.1794 1.7681636490837083 14.070066151112167 5.049003459968494 0 0 0
188 63 1 0.5897 0.2958835199108091 10.878162236063801 4.6835793010172155 1 0 0
121 41 2 -1.1794 4.9499921394681685 12.373753707696153 1.5321762061075943 0 0 0
128 43 1 0.5897 0.14145334751788852 12.789340051795596 1.3232370590068132 0 0 0
133 45 2 -1.1794 2.37955622956701 12.160522354252894 6.845754239619036 0 0 0
134 45 1 0.5897 1.7161936646084848 12.360467621272118 7.506224810787841 0 0 0
135 45 1 0.5897 3.2138728806184567 12.288476466993513 7.297186341204762 0 0 0
239 80 1 0.5897 1.9519424579919946 13.364339048890525 5.669044500108067 0 0 0
573 191 1 0.5897 0.7199375388011761 14.753325413419878 9.152567837504847 0 0 0
446 149 1 0.5897 4.464311771445484 13.237711685944657 9.041683028298317 0 0 0
450 150 1 0.5897 4.274151741289142 11.245775416216958 9.807565509941357 0 0 0
451 151 2 -1.1794 0.7729915561554896 12.818229545159976 9.006158561194024 0 0 0
453 151 1 0.5897 0.9661811152407525 12.142699361645382 9.656232539054438 0 0 0
445 149 2 -1.1794 4.623451257187665 12.495429611340775 8.45861630525703 0 0 0
544 182 2 -1.1794 4.256441047984534 14.442026593131569 10.320619333604629 0 0 0
434 145 1 0.5897 2.494103304438423 10.188698893169585 6.640500468919433 0 0 0
444 148 1 0.5897 2.2650779847006053 10.621538717257192 10.754000997731211 0 0 0
758 253 1 0.5897 2.579461135303651 10.104548382586774 13.817140399574647 0 0 0
457 153 2 -1.1794 2.5625317165894614 11.92493257420383 13.592810202369506 0 0 0
458 153 1 0.5897 1.9307556889693283 12.116241992502305 14.286000016105367 0 0 0
459 153 1 0.5897 3.4114441183944617 12.15160471136343 13.972565319217166 0 0 0
769 257 2 -1.1794 4.688221234618439 12.588567044727293 15.237226180769543 0 0 0
562 188 2 -1.1794 2.070314058012888 14.073817914450249 11.924915435011078 0 0 0
563 188 1 0.5897 2.2028103652262607 13.259793389591216 12.410807366056087 0 0 0
449 150 1 0.5897 4.606214270364118 10.86680486486 11.235177717664989 0 0 0
545 182 1 0.5897 3.482486409187734 14.273304441893908 10.857998554262725 0 0 0
442 148 2 -1.1794 1.3134480908877098 10.724441102510843 10.760455212959956 0 0 0
546 182 1 0.5897 4.995622251111479 14.277880926927054 10.906210388906963 0 0 0
564 188 1 0.5897 2.3201345435306973 14.763680849270381 12.539697403945244 0 0 0
775 259 2 -1.1794 0.7679535035240243 12.77789261037428 15.569351169526257 0 0 0
512 171 1 0.5897 0.22941448253629915 11.206810111692628 12.152791775506765 1 0 0
642 214 1 0.5897 0.1904591376501088 14.277829583693302 11.719755417437273 1 0 0
448 150 2 -1.1794 4.05298981534424 10.617363755687352 10.494922952287432 0 0 0
766 256 2 -1.1794 1.4142658826872823 10.92669271466681 17.575612994617874 0 0 0
767 256 1 0.5897 0.7622601237819162 11.08152071061688 18.25911045374393 0 0 0
768 256 1 0.5897 1.293847827643466 11.650359311908458 16.96072590804171 0 0 0
772 258 2 -1.1794 4.16205307226521 10.668063896185775 17.24206209595128 0 0 0
773 258 1 0.5897 3.2223148209444235 10.793440190549926 17.374017596249438 0 0 0
774 258 1 0.5897 4.383408623537934 11.25550968319928 16.519441073870603 0 0 0
965 322 1 0.5897 0.2523369605604622 14.079522349482685 18.859831987628127 1 0 0
771 257 1 0.5897 4.438892727090653 13.319601200213844 15.802647802933661 0 0 0
868 290 2 -1.1794 4.107373574681848 14.572613903680372 17.04233117458875 0 0 0
869 290 1 0.5897 3.305316962891976 14.478851138564194 17.556291298928503 0 0 0
886 296 2 -1.1794 2.0548702420238687 14.275078036236582 18.847507741423286 0 0 0
888 296 1 0.5897 2.355344526208611 13.512938868133071 19.342625289054077 0 0 0
870 290 1 0.5897 4.795716635380789 14.21757355157004 17.60480519974563 0 0 0
782 261 1 0.5897 2.845807832886311 11.369838499287143 20.394040921460917 0 0 0
777 259 1 0.5897 0.8979145882243914 13.721246435764579 15.666748699391702 0 0 0
781 261 2 -1.1794 2.9529227184705173 12.313249598981013 20.51568205120893 0 0 0
249 83 1 0.5897 1.4409612024524714 15.77872576994914 1.264564654900871 0 0 0
248 83 1 0.5897 1.115525575379715 16.273821326344887 2.6577317898404282 0 0 0
247 83 2 -1.1794 0.9228181245208207 15.567425148483284 2.041170777325965 0 0 0
890 297 1 0.5897 1.868965331623878 19.062179249855028 0.2737195661632345 0 0 1
226 76 2 -1.1794 1.5579588196058216 17.661139500717223 3.7708180723151563 0 0 0
227 76 1 0.5897 1.3966622752700397 18.262226852104614 3.043528399374942 0 0 0
228 76 1 0.5897 0.7824289479345364 17.742533960594745 4.3259486060549674 0 0 0
229 77 2 -1.1794 4.61508765082231 19.155254895215243 1.516961204262384 0 0 0
230 77 1 0.5897 4.172621426762921 19.078976045825048 0.6715862058079253 0 0 0
232 78 2 -1.1794 4.256024881658512 17.257682445217267 3.5668701161176872 0 0 0
233 78 1 0.5897 4.411304899911389 17.786154507596148 2.7840162312242462 0 0 0
234 78 1 0.5897 3.3525504716254235 17.454758133866704 3.8141315272529774 0 0 0
235 79 2 -1.1794 0.78869775611216 19.307847780128185 1.616002427170872 0 0 0
221 74 1 0.5897 4.073400369976922 15.232977330679235 3.0947805627138165 0 0 0
219 73 1 0.5897 3.528119800906098 15.96269007351253 0.029792993983722482 0 0 0
551 184 1 0.5897 1.3387928550178008 18.203453039104595 10.212561125214483 0 0 0
576 192 1 0.5897 4.286480109657653 15.686340428267094 7.484427282381554 0 0 0
572 191 1 0.5897 0.9287415598296362 16.155665734667163 9.68349097378084 0 0 0
241 81 2 -1.1794 2.629550884804965 18.79769318121673 6.75699042851135 0 0 0
242 81 1 0.5897 2.6580074775057425 17.843509796639456 6.68613420425646 0 0 0
243 81 1 0.5897 1.9198563800555442 18.971367666443935 7.375387991661813 0 0 0
541 181 2 -1.1794 2.5036774115589617 16.14918957559639 6.899934342237381 0 0 0
542 181 1 0.5897 1.891462614074168 16.02350772484897 7.624946467074717 0 0 0
571 191 2 -1.1794 0.6537059302408214 15.675003004412574 8.902736179452372 0 0 0
553 185 2 -1.1794 4.665348867895892 18.881485582989253 8.816743862317306 0 0 0
555 185 1 0.5897 4.2393330869852885 18.848285154155036 7.960204699915959 0 0 0
559 187 2 -1.1794 0.7735345787762076 19.350659346195087 8.776137738180147 0 0 0
558 186 1 0.5897 4.3074370299215206 17.623412832917342 10.081280582059481 0 0 0
543 181 1 0.5897 2.2459708576306876 15.493591558026866 6.251817971277185 0 0 0
867 289 1 0.5897 2.3502405931367596 15.858629107430561 14.69751127017935 0 0 0
885 295 1 0.5897 1.1919024250364652 19.22133578978815 14.935584662790875 0 0 0
866 289 1 0.5897 3.761972864998909 15.876342641876176 14.15109640574956 0 0 0
879 293 1 0.5897 3.9762327283270618 19.068018657384638 14.685645858684754 0 0 0
550 184 2 -1.1794 1.4074066795078986 17.53271626200134 10.892028841791982 0 0 0
552 184 1 0.5897 2.3449204954863734 17.350254403887348 10.955330958518267 0 0 0
565 189 2 -1.1794 2.4204314643990705 18.7419577287087 13.726734216390135 0 0 0
566 189 1 0.5897 2.594881586389831 17.83702131162153 13.467980731145298 0 0 0
567 189 1 0.5897 2.2607744052454892 19.2008739723273 12.902008035301458 0 0 0
865 289 2 -1.1794 2.8454129296148114 15.938393134551704 13.882227375229599 0 0 0
556 186 2 -1.1794 4.106951004940165 17.091542843716795 10.851463433166915 0 0 0
877 293 2 -1.1794 4.670845050321337 19.140649558945928 15.340223297487979 0 0 0
896 299 1 0.5897 0.2980463818953235 15.6884668794917 15.326914571273512 0 0 0
557 186 1 0.5897 4.213312790167324 16.188089234093635 10.553552884117048 0 0 0
621 207 1 0.5897 0.05001238149422704 17.93809292526343 12.08841935766693 1 0 0
881 294 1 0.5897 3.1103221383168127 17.493217041321486 17.679059702146304 0 0 0
897 299 1 0.5897 1.038539582432001 16.110803671082948 16.578013391397143 0 0 0
891 297 1 0.5897 2.47764227884967 19.60959143124773 19.89444633667854 0 0 0
882 294 1 0.5897 4.0765640054856735 16.415705651055486 17.234837707199986 0 0 0
874 292 2 -1.1794 1.2436404776673278 17.613504478371837 17.603050879145417 0 0 0
875 292 1 0.5897 0.6839157613631656 17.820453466357364 18.35146813286572 0 0 0
876 292 1 0.5897 0.990726180765561 18.247245830832732 16.931724978990403 0 0 0
878 293 1 0.5897 4.460230038408854 18.469252326376353 15.989177024765073 0 0 0
880 294 2 -1.1794 4.033536304509007 17.34068048421185 17.477428340508034 0 0 0
889 297 2 -1.1794 2.5951471879177004 18.930215485229194 20.55846225809721 0 0 0
895 299 2 -1.1794 1.0307881544902735 15.443339948582569 15.89193486124857 0 0 0
218 73 1 0.5897 2.5909581408818836 17.103674850826874 20.58953260203862 0 0 -1
217 73 2 -1.1794 2.602702968226554 16.167945303359435 20.79094310377717 0 0 -1
887 296 1 0.5897 2.1444726964073433 15.007771049259897 19.45694424338471 0 0 0
883 295 2 -1.1794 0.5238212237100945 19.41364364137817 15.593565441198868 0 0 0
69 23 1 0.5897 6.516952159096456 1.984560891025046 1.4319988436334106 0 0 0
53 18 1 0.5897 9.63500775239309 4.120906642654332 3.7271584607852337 0 0 0
68 23 1 0.5897 8.003984864653908 2.21109247550113 1.260728231999004 0 0 0
67 23 2 -1.1794 7.330026705288186 2.080827330207689 1.927858105908511 0 0 0
46 16 2 -1.1794 7.848005099564532 4.168150425072052 3.709535304289639 0 0 0
47 16 1 0.5897 7.626330546744705 3.400633271705932 3.1822274004922693 0 0 0
48 16 1 0.5897 7.193922919931653 4.176255748461954 4.40836277249117 0 0 0
34 12 2 -1.1794 5.265463885658742 2.271157814411796 0.33143993463995136 0 0 0
9 3 1 0.5897 5.136142045794941 4.274908547337998 4.870339046323875 0 0 0
58 20 2 -1.1794 8.855151249898283 0.7733685701512348 5.036368616745623 0 0 0
29 10 1 0.5897 7.094216087283202 0.7547359296984936 5.03682407762731 0 0 0
273 91 1 0.5897 7.428540012953919 0.27997455893667916 1.9168118073464187 0 1 0
37 13 2 -1.1794 9.147609304479767 2.598421359533349 -0.060980380281900996 0 0 0
6 2 1 0.5897 5.025838380529658 1.1834817690214023 3.9597871905077184 0 0 0
8 3 1 0.5897 5.61710141826839 3.625745800256491 6.150666666051146 0 0 0
391 131 2 -1.1794 7.510928391287912 2.175802861796293 8.88893838871721 0 0 0
393 131 1 0.5897 7.466492978860266 1.2233564172625309 8.97359218486961 0 0 0
360 120 1 0.5897 5.717137382220687 1.5856940986801107 6.536694544634651 0 0 0
361 121 2 -1.1794 9.435385614052935 2.6550009690052505 7.021815347860155 0 0 0
7 3 2 -1.1794 5.774875168055448 4.375004081221252 5.5762072970103365 0 0 0
392 131 1 0.5897 8.289549138706404 2.333213317391536 8.354879640201398 0 0 0
362 121 1 0.5897 9.275062864858395 3.5726206633911954 6.801451375130143 0 0 0
358 120 2 -1.1794 5.3646904253202 2.2332346563682766 7.147205748629073 0 0 0
359 120 1 0.5897 6.035507766878566 2.3138308738160234 7.8252590911905875 0 0 0
59 20 1 0.5897 8.922528660464895 1.4477642914165532 5.712334560517681 0 0 0
371 124 1 0.5897 7.645475143666823 3.3969138767359475 10.310067667826402 0 0 0
28 10 2 -1.1794 6.17369815571441 0.588317001468443 5.239789528387061 0 0 0
352 118 2 -1.1794 5.8049455358888835 0.6668330511666996 12.270544957733263 0 0 0
353 118 1 0.5897 6.7138338115068885 0.7953012485687928 11.999154920822345 0 0 0
354 118 1 0.5897 5.687719963905668 1.2658306379198065 13.007926284334667 0 0 0
684 228 1 0.5897 5.566353725114914 3.3845951485132075 13.741360763630468 0 0 0
372 124 1 0.5897 7.21957153229006 4.291515041760051 11.454739222299503 0 0 0
685 229 2 -1.1794 9.085165536708885 2.7564124895282833 13.813345346571127 0 0 0
382 128 2 -1.1794 8.523237009316494 0.910644091925148 11.882982471367008 0 0 0
383 128 1 0.5897 8.766745908847957 1.5437076610725142 12.558393262049188 0 0 0
384 128 1 0.5897 9.207161882021623 0.9936905949799104 11.21845264372507 0 0 0
682 228 2 -1.1794 5.402153049433652 2.56946607620325 14.215582553719942 0 0 0
686 229 1 0.5897 8.63842078420623 2.4771613364939356 14.612529695188794 0 0 0
370 124 2 -1.1794 7.866209150840886 4.216283685753642 10.752991212160454 0 0 0
331 111 2 -1.1794 5.807850852869397 4.668945299066094 12.502196575797932 0 0 0
386 129 1 0.5897 9.097577675102649 4.614241488468377 13.705781406033624 0 0 0
332 111 1 0.5897 5.0498398777744145 4.525456701252534 11.935557860765242 0 0 0
377 126 1 0.5897 9.674598686610176 4.046726318630945 10.41059711300339 0 0 0
717 239 1 0.5897 6.649560313414664 2.2942660960417736 15.43388554664216 0 0 0
716 239 1 0.5897 7.4121399546867766 1.1091328240317848 15.986998176848044 0 0 0
38 13 1 0.5897 8.926555017072301 2.034252189039487 20.092226397986273 0 0 -1
655 219 2 -1.1794 5.55368103765864 4.442972602645682 19.560216041707616 0 0 0
657 219 1 0.5897 6.274283064301342 4.168355675594968 18.99315379261019 0 0 0
676 226 2 -1.1794 5.741723125319097 0.41192173640589913 19.22628492931435 0 0 0
35 12 1 0.5897 5.424417345015542 1.612267032907869 20.54974932744325 0 0 -1
694 232 2 -1.1794 7.802620313305649 4.013464391898798 18.03443866411892 0 0 0
695 232 1 0.5897 7.735907251143637 3.2550039980441214 17.45429755083816 0 0 0
677 226 1 0.5897 5.244136012259578 0.6112293110046358 18.433237502707975 0 0 0
706 236 2 -1.1794 8.433355256199045 0.783677823420176 18.908229455506255 0 0 0
708 236 1 0.5897 7.487591519857191 0.6378178148291055 18.886022956483806 0 0 0
710 237 1 0.5897 9.150163695740755 4.389640352213727 20.676180625846893 0 0 0
715 239 2 -1.1794 7.437370745694702 2.0641178228064767 15.926463330941445 0 0 0
702 234 1 0.5897 9.625324416562766 4.076391606115992 18.019492382292686 0 0 0
36 12 1 0.5897 5.414623813134223 3.1077851985414613 20.785108905413715 0 0 -1
696 232 1 0.5897 7.629176326316757 4.765128894849763 17.467698405505892 0 0 0
707 236 1 0.5897 8.77612099149278 0.056858471301285546 19.428342941309765 0 0 0
689 230 1 0.5897 9.68662230337795 0.8440571450817757 17.564477594460897 0 0 0
143 48 1 0.5897 6.029031967239204 8.874859229351564 0.8200445794398132 0 0 0
176 59 1 0.5897 7.651868633362622 8.019528161501226 2.2244341492154978 0 0 0
177 59 1 0.5897 8.126286015516142 9.123104016947902 1.302987990831414 0 0 0
711 237 1 0.5897 8.561044358328315 5.5991802941334585 0.4761826016190275 0 0 1
175 59 2 -1.1794 7.539837596485693 8.952109389391165 2.0399368358213295 0 0 0
55 19 2 -1.1794 7.470708428815073 6.116723787449021 1.7745751721024066 0 0 0
56 19 1 0.5897 6.526106645042494 6.044348239772233 1.6377124740618192 0 0 0
57 19 1 0.5897 7.6732180829335 5.435350209319437 2.4156620557642663 0 0 0
142 48 2 -1.1794 5.290193913009972 8.839051538275031 0.21252380638138568 0 0 0
166 56 2 -1.1794 8.645299153529967 7.53345316022029 4.938352157138828 0 0 0
149 50 1 0.5897 9.910961851095582 7.745018422196534 3.7218520786785505 0 0 0
147 49 1 0.5897 9.996826551237868 9.120051167787016 -0.0752343174973713 0 0 0
138 46 1 0.5897 6.847500601389173 7.323892266020433 5.117447931257536 0 0 0
168 56 1 0.5897 8.840586524315585 8.214236414982837 5.5823034831974825 0 0 0
167 56 1 0.5897 8.796308001563293 6.711364848949716 5.404888205173213 0 0 0
467 156 1 0.5897 5.732420974180828 8.316778047239323 6.703157424279659 0 0 0
499 167 2 -1.1794 7.7389759787138725 8.576486390198413 9.039381383506974 0 0 0
62 21 1 0.5897 8.513676197391796 5.468717095457426 7.2815005351425155 0 0 0
338 113 1 0.5897 5.45173614516489 5.816340845273005 8.384443037829069 0 0 0
469 157 2 -1.1794 9.171200081253701 9.467901856239394 6.882638529844431 0 0 0
500 167 1 0.5897 7.817666304865331 9.248860471894417 9.716117497377663 0 0 0
470 157 1 0.5897 8.642643542561919 9.228527865006448 7.643943191772584 0 0 0
501 167 1 0.5897 6.884748436983719 8.737972593941707 8.638815674703851 0 0 0
61 21 2 -1.1794 9.130422074992154 5.349626999206438 6.559216053491775 0 0 0
379 127 2 -1.1794 7.34333862769359 5.795144430397549 8.546593571011607 0 0 0
380 127 1 0.5897 7.591761858049344 6.667302876789641 8.853052394715002 0 0 0
466 156 2 -1.1794 5.6025201928728885 9.00301247490205 7.357744918312931 0 0 0
381 127 1 0.5897 7.528173216431955 5.21856367290482 9.287986473657304 0 0 0
137 46 1 0.5897 5.826905133083267 6.280378036548005 5.51924826863062 0 0 0
136 46 2 -1.1794 5.921766190085353 7.214933897866752 5.335139857542229 0 0 0
63 21 1 0.5897 9.985902794764211 5.551093840972738 6.938440406807271 0 0 0
791 264 1 0.5897 5.887740151062758 9.118924806068884 14.961603688725463 0 0 0
794 265 1 0.5897 9.17252343850741 8.668039592212544 13.546353498919613 0 0 0
790 264 2 -1.1794 5.548121458106058 9.338070001298528 14.093912704514805 0 0 0
333 111 1 0.5897 5.894530134780293 5.621019982458202 12.550571890895277 0 0 0
793 265 2 -1.1794 9.346898169759129 9.26280128427565 14.275816083768886 0 0 0
385 129 2 -1.1794 9.116571418912022 5.5148253566750185 14.02963639618211 0 0 0
387 129 1 0.5897 9.118917978359056 6.054242724829979 13.238881114831862 0 0 0
460 154 2 -1.1794 6.162200394402436 7.352555291203218 12.275961943760736 0 0 0
461 154 1 0.5897 5.912354333004474 7.988751979284733 12.946110652801753 0 0 0
462 154 1 0.5897 5.564030458267631 7.522992218252779 11.548380894874823 0 0 0
490 164 2 -1.1794 9.006378297027048 7.46866625778809 12.225460368504415 0 0 0
491 164 1 0.5897 9.465364206878025 7.66223627255347 11.408081173197402 0 0 0
492 164 1 0.5897 8.078255720963543 7.537219486722368 12.001559432042887 0 0 0
705 235 1 0.5897 7.963568241581847 5.643555277996066 15.49364272699915 0 0 0
824 275 1 0.5897 8.091783594417706 8.934693988979381 15.511430921458558 0 0 0
814 272 2 -1.1794 8.887674184051471 7.304728314770008 18.86844193934295 0 0 0
786 262 1 0.5897 7.050927317413369 7.1834497206162915 18.933592326737614 0 0 0
815 272 1 0.5897 9.048065574169582 6.602670060012976 19.499045941968554 0 0 0
816 272 1 0.5897 8.974273771213394 8.110020433461873 19.37862808568368 0 0 0
823 275 2 -1.1794 7.380390394923024 8.721724220886529 16.115426604475108 0 0 0
703 235 2 -1.1794 7.419919203519887 5.9437828058348785 16.222039799456613 0 0 0
825 275 1 0.5897 7.3920884190102 7.766282230188431 16.172653618359664 0 0 0
784 262 2 -1.1794 6.1076633684060875 7.200245418912938 19.09550706677825 0 0 0
785 262 1 0.5897 5.877948968973908 6.287645604848786 19.27068733305852 0 0 0
144 48 1 0.5897 5.545620547278196 8.184639297240098 20.45655090922735 0 0 -1
709 237 2 -1.1794 9.246202063476375 5.338792461761624 20.754778499237126 0 0 0
762 254 1 0.5897 5.065299300062007 7.835416862313378 17.759411884628317 0 0 0
704 235 1 0.5897 6.52196094876315 5.8629742715532975 15.900507028826237 0 0 0
804 268 1 0.5897 7.7574871543086505 9.998527469511997 17.358492940644762 0 0 0
145 49 2 -1.1794 9.086255319348894 9.346996745024082 20.630324653703624 0 0 -1
154 52 2 -1.1794 8.000217598141333 10.932724091544529 3.9804846204115796 0 0 0
819 273 1 0.5897 8.644472104319647 12.409325663422605 0.6050079137676865 0 0 1
156 52 1 0.5897 8.95496519744414 10.89008686282747 4.03413448322896 0 0 0
163 55 2 -1.1794 7.645530357314416 12.80199679608426 1.9812433620776941 0 0 0
164 55 1 0.5897 6.754789897695494 12.689952555409592 1.6491677392197548 0 0 0
165 55 1 0.5897 7.731294094493427 12.139243906847183 2.666574493117544 0 0 0
285 95 1 0.5897 7.6199543507340195 14.784441681382662 2.133819214893311 0 0 0
276 92 1 0.5897 9.277135000586794 14.2196270701057 4.405600381695928 0 0 0
246 82 1 0.5897 5.104259926809951 13.947440808076461 4.681988519942589 0 0 0
155 52 1 0.5897 7.76031513795754 10.213412055128297 3.3962607198622736 0 0 0
275 92 1 0.5897 7.824307696327349 14.046807227380393 4.794644551378434 0 0 0
480 160 1 0.5897 7.735919125151728 11.256030738781932 10.217422142858464 0 0 0
169 57 2 -1.1794 9.418299362806453 12.253393219242808 6.9561479272919 0 0 0