LAMMPS data file via write_data, version 30 Jul 2021, timestep = 1500000

864 atoms
2 atom types
576 bonds
1 bond types
288 angles
1 angle types

0.07486992524703773 18.132702474756655 xlo xhi
1.1797181525677853 22.449459647431105 ylo yhi
0.09134113392609322 22.12185466607437 zlo zhi

Masses

1 1.00794
2 15.9994

Pair Coeffs # lj/cut/tip4p/long/omp

1 0 0
2 0.21084 3.1668

Bond Coeffs # harmonic/omp

1 450 0.9572

Angle Coeffs # harmonic/omp

1 55 104.52

Atoms # full

361 1 2 -1.1794 7.458424654097395 3.7618812927510397 1.5049450036533591 4 -2 -2
441 1 1 0.5897 1.267606750124814 2.2024630255955495 2.7634881898749675 1 -1 0
700 1 2 -1.1794 1.0152660296380907 3.7244590879675834 3.7735770495246412 3 1 2
439 1 2 -1.1794 1.1174626232967786 1.4460212585192496 2.196562989247922 1 -1 0
440 1 1 0.5897 0.2474593243660649 1.593060651820572 1.8256216059879538 1 -1 0
333 1 1 0.5897 8.620823702524138 1.2166145840918894 3.099906162692144 -1 -3 -4
701 1 1 0.5897 1.6688328829674834 4.039540993364428 4.397835952869655 3 1 2
690 1 1 0.5897 6.993821466513757 4.344020173254038 5.142260465443705 3 -1 4
650 1 1 0.5897 2.3751261550794442 4.93488579169513 1.1791547008379129 2 -1 0
218 1 1 0.5897 5.478994666203037 5.453701636946554 3.2827118435542446 4 0 -1
447 1 1 0.5897 3.519643271203654 5.0000943217163245 4.73974277803522 2 0 -1
362 1 1 0.5897 6.987159276034025 3.9733348454412907 2.3107657575895617 4 -2 -2
688 1 2 -1.1794 7.068882376577639 4.777951997242415 4.292440966029146 3 -1 4
651 1 1 0.5897 1.2829381858403597 4.745563991695304 2.2101585411886373 2 -1 0
649 1 2 -1.1794 1.638386270190331 5.384731138600332 1.5926596539864193 2 -1 0
114 1 1 0.5897 5.200702671832379 5.537810067073861 0.9771474273223545 -3 -2 2
217 1 2 -1.1794 4.661055530753734 5.357871173107095 2.7949132454480856 4 0 -1
363 1 1 0.5897 7.269698660981054 2.8359767950135604 1.352532353437218 4 -2 -2
546 1 1 0.5897 2.8355608928511375 1.3119913319070422 1.5489833617830349 -3 4 5
702 1 1 0.5897 0.19582770298187704 3.71541757714284 4.268112691309892 3 1 2
689 1 1 0.5897 8.010548339270775 4.889586709794359 4.16233717303975 3 -1 4
332 1 1 0.5897 8.73423601586799 2.5617599917597573 2.4148173782214997 -1 -3 -4
445 1 2 -1.1794 2.955434517543948 4.5651342856672095 5.378962112497847 1 0 -1
219 1 1 0.5897 4.372398880615301 6.2557464730992525 2.6316594494175023 4 0 -1
790 1 2 -1.1794 6.653441925754656 1.212442336592111 0.6633734749296468 1 5 0
848 1 1 0.5897 1.2893199146965417 5.730056426695961 9.776324514760653 6 -2 5
609 1 1 0.5897 4.824343189943947 5.154336653912408 9.201058021594564 6 3 2
117 1 1 0.5897 4.391427120995579 3.625017981283642 10.33826972257918 -1 -2 4
232 1 2 -1.1794 4.470451090043023 2.6809238714650157 6.858867951930422 -2 2 0
115 1 2 -1.1794 3.7424210643846227 2.9445664155519777 10.516878635972065 -1 -2 4
847 1 2 -1.1794 1.2994318446444675 6.202073024949194 8.943710919581832 6 -2 5
407 1 1 0.5897 3.6993754595784454 5.907742448974601 7.094373226859618 -5 -2 3
234 1 1 0.5897 4.61626428382773 2.1157674627458882 7.617464761816889 -2 2 0
134 1 1 0.5897 1.8542370924995712 3.2790646304614968 7.817164024911157 1 -5 -2
233 1 1 0.5897 5.289432323241131 3.1664065444635785 6.760345075629515 -2 2 0
321 1 1 0.5897 7.389965946846583 4.2220557615146905 7.352823977665009 2 0 0
116 1 1 0.5897 3.335510914809548 2.7722514591794347 9.66784148009472 -1 -2 4
375 1 1 0.5897 4.448478435578609 1.3262346427891436 9.794277266198634 4 6 -1
607 1 2 -1.1794 5.324698314641946 5.070238924891151 10.01266491858979 6 3 2
608 1 1 0.5897 6.117384313265826 5.584593542274912 9.86027914131657 6 3 2
135 1 1 0.5897 1.141081934286693 2.7923116542883175 9.060591150992684 1 -5 -2
561 1 1 0.5897 8.350653682040697 5.618707662730729 9.537249210116606 4 1 2
133 1 2 -1.1794 1.9464821528115877 2.6778624650302403 8.556213961131393 1 -5 -2
559 1 2 -1.1794 7.954224865744499 5.729706371006299 10.401353500802706 4 1 2
743 1 1 0.5897 0.4770111687149823 5.328855318507208 6.730497532277646 -2 0 2
169 1 2 -1.1794 9.018062958255612 1.4505001949252379 7.296991991086711 -3 3 -2
406 1 2 -1.1794 3.8585192657567426 6.272908506232266 7.964703329655828 -5 -2 3
408 1 1 0.5897 3.03586989316299 6.13892645682724 8.435257210346167 -5 -2 3
446 1 1 0.5897 3.5118095629109978 3.892600742378014 5.771743300676533 1 0 -1
320 1 1 0.5897 7.640322581215622 2.8010246016645004 6.894982885905496 2 0 0
319 1 2 -1.1794 6.989526389223371 3.5022437186859476 6.865333168588303 2 0 0
57 1 1 0.5897 0.5185096749247191 4.034759365473699 10.745525080332817 -2 0 0
560 1 1 0.5897 8.43002986003721 5.118765993597512 10.96395182699814 4 1 2
801 1 1 0.5897 4.711021467452559 1.1875821056322147 5.885036280293031 0 -1 3
851 1 1 0.5897 8.840013198186556 1.4485788240895514 10.697197212533595 -7 1 -1
691 1 2 -1.1794 7.131766596470419 2.2325690380875365 16.159836882973465 1 2 3
79 1 2 -1.1794 1.7898575321512193 5.38592869493866 11.442434077104798 3 0 -3
741 1 1 0.5897 7.299594237137602 3.858351709758862 12.49061171550238 -1 0 2
739 1 2 -1.1794 6.378124673108935 3.761817150955436 12.250332307195412 -1 0 2
239 1 1 0.5897 4.295056301219666 5.258300975619189 14.106585264984915 -6 -5 0
44 1 1 0.5897 5.299414426302995 2.84296484843194 16.27875915030405 2 6 -1
828 1 1 0.5897 6.266050649963306 1.7539988712978989 12.329927129402067 -1 3 1
80 1 1 0.5897 1.2711864644245034 5.798780746450677 12.132838813410295 3 0 -3
740 1 1 0.5897 6.304591365999698 4.197583464045818 11.401302946132088 -1 0 2
245 1 1 0.5897 0.9407187898929106 3.3493232424579067 16.103617977891332 -3 4 -2
682 1 2 -1.1794 2.3169104488876777 1.8651998547643887 12.634133074377775 5 0 -5
684 1 1 0.5897 2.0880456171622113 2.6232164529911257 13.171927264401704 5 0 -5
81 1 1 0.5897 2.5557947072111356 5.033798421846418 11.895736831400924 3 0 -3
43 1 2 -1.1794 4.629772023910505 3.4872570462095926 16.5080893849561 2 6 -1
45 1 1 0.5897 4.246272652899611 3.7436624145062525 15.66944836853547 2 6 -1
683 1 1 0.5897 2.913788546236384 2.2126325333256274 11.971405637769518 5 0 -5
240 1 1 0.5897 4.842517608182073 4.36469436089914 13.014164132228677 -6 -5 0
238 1 2 -1.1794 4.262803159906015 4.360722778725107 13.775768513749377 -6 -5 0
693 1 1 0.5897 7.764923472596952 1.7005744540778653 15.67794340586499 1 2 3
388 1 2 -1.1794 8.825878617864703 4.35026516198775 15.371556088203231 2 5 4
390 1 1 0.5897 8.691182882826016 5.1927879384417315 15.805300377903562 2 5 4
389 1 1 0.5897 8.064362006057262 3.8271343290539783 15.621673903216683 2 5 3
349 1 2 -1.1794 0.10850820861204165 3.638081430436585 14.57548421728804 -11 3 -3
351 1 1 0.5897 0.2276761567285965 4.4182755778794185 14.033985105866435 -11 3 -3
856 1 2 -1.1794 5.749189409136095 5.969947372763845 17.073721543518126 1 0 -4
223 1 2 -1.1794 5.526026570632303 2.872875021233148 20.88168528867304 3 -1 -7
248 1 1 0.5897 3.6449889112308513 1.9711580598640173 17.502175996924674 -1 3 -3
258 1 1 0.5897 0.711291088871292 3.404804592960788 21.896432040682562 -2 0 -1
191 1 1 0.5897 6.3448219158665 2.220614512599633 19.275892354194205 6 6 -6
278 1 1 0.5897 6.662477464217885 4.539335468261494 18.641985468824277 -1 1 1
37 1 2 -1.1794 1.279122183173714 5.979616282428872 17.322264358590086 0 1 -4
38 1 1 0.5897 1.2562798487410778 5.022733830055912 17.327244466337742 0 1 -4
279 1 1 0.5897 6.627605498019914 4.222951012609074 20.121957412874387 -1 1 1
39 1 1 0.5897 1.7846200315170258 6.21165596996058 18.10123590959395 0 1 -4
192 1 1 0.5897 5.607857452605434 1.3861819563363649 18.250105218600098 6 6 -6
571 1 2 -1.1794 3.2414410643469487 1.3146210790659443 20.587914373974105 2 -3 -6
190 1 2 -1.1794 6.469261035241294 1.5079305773185543 18.649216436820403 6 6 -6
573 1 1 0.5897 2.5280567045728755 1.9507544058947595 20.63833764932253 2 -3 -6
857 1 1 0.5897 5.289482092375067 5.144134243834532 16.92262486255094 1 0 -4
554 1 1 0.5897 8.315354592719476 6.37235398706643 19.75062429164008 -5 -7 3
224 1 1 0.5897 5.788053462479637 2.3964371799128754 21.669426799682313 3 -1 -7
246 1 1 0.5897 0.5929002172349886 2.989651736778979 17.532359732654275 -3 4 -2
257 1 1 0.5897 1.485031988558844 4.112290408634405 20.804443102782564 -2 0 -1
277 1 2 -1.1794 7.220910105838259 4.273763961838608 19.372578072973223 -1 1 1
256 1 2 -1.1794 1.2654989543134918 3.240707656049944 21.133509311478534 -2 0 -1
50 1 1 0.5897 3.0075921601427433 5.212201731529428 21.00906119214945 7 0 -2
49 1 2 -1.1794 2.455005781599907 5.379270134659984 20.2455642971174 7 0 -2
858 1 1 0.5897 5.147689490905982 6.4844238309007975 17.611943148967693 1 0 -4
225 1 1 0.5897 4.69369916983259 2.4751275002785555 20.626428134190334 3 -1 -7
692 1 1 0.5897 7.237689941160311 1.9638068105826778 17.072348248546998 1 2 3
540 1 1 0.5897 8.77998269898706 3.2887374512906886 22.054540727755374 -1 -3 0
539 1 1 0.5897 8.81035611632031 3.1207186943894847 20.55038027265449 -1 -3 0
113 1 1 0.5897 5.280641774370387 4.525056236325173 21.8853235137297 -3 -2 1
51 1 1 0.5897 1.9781574075518578 6.179678688880199 20.464936255725227 7 0 -2
244 1 2 -1.1794 1.2851314585571887 3.3763618218711424 16.99625155262663 -3 4 -2
112 1 2 -1.1794 5.09660492486963 5.447884805897376 22.060440099239692 -3 -2 1
716 1 1 0.5897 6.951196259078824 8.444927895232311 5.175332265287826 5 -7 -4
551 1 1 0.5897 5.235194629567925 11.083746457958583 5.521093808719048 -3 6 -3
355 1 2 -1.1794 2.2401345916608535 10.772323267000068 1.4367493968729792 1 -2 4
209 1 1 0.5897 1.0966112478191117 11.217693807095804 4.560546370496932 1 -3 2
299 1 1 0.5897 7.5129150130341955 11.384398862029368 2.790182836399794 -4 -1 0
210 1 1 0.5897 1.7106182146588553 10.897631468916579 3.2143611452274405 1 -3 2
721 1 2 -1.1794 4.727377382351451 11.396030371699732 3.9083905221628137 1 0 1
704 1 1 0.5897 4.669222618940094 7.892807005624305 3.5755712906383814 3 -2 -1
723 1 1 0.5897 3.9360144847509773 11.113565263789226 3.450034708323528 1 0 1
703 1 2 -1.1794 4.581385673863274 8.09321235690885 2.643744602296345 3 -2 -1
765 1 1 0.5897 8.492208800914788 10.054411785629647 5.1502438452146695 -4 0 -2
411 1 1 0.5897 4.0361916985272455 8.655325163628294 0.8100994461980485 3 3 -4
455 1 1 0.5897 7.135869932327556 9.567372832168092 1.2851762265443698 1 -2 1
149 1 1 0.5897 8.417085330572824 8.06471509127351 2.4150465017199196 -4 -1 4
715 1 2 -1.1794 6.034109591789053 8.182129932714824 5.252964539398129 5 -7 -4
454 1 2 -1.1794 7.02683139931212 8.61734348864677 1.326187500863279 1 -2 1
705 1 1 0.5897 5.4819559109064055 8.148707780322741 2.3243257980755474 3 -2 -1
456 1 1 0.5897 6.886963116196388 8.352382861487119 0.41714539610140267 1 -2 1
722 1 1 0.5897 5.427152286486487 11.295756723785754 3.263099558387502 1 0 1
208 1 2 -1.1794 1.9280817967028734 11.226730302402341 4.086446762231662 1 -3 2
713 1 1 0.5897 2.6393318067777494 9.967704138339483 5.206974762521993 -6 -1 4
763 1 2 -1.1794 8.673980236742864 9.148770963830367 5.401052816198221 -4 0 -2
764 1 1 0.5897 8.979939518398222 8.733300587830717 4.594892014020088 -4 0 -2
298 1 2 -1.1794 6.896681306249222 11.226564573032434 2.0750142149704267 -4 -1 0
356 1 1 0.5897 2.7653660336241366 10.18845318132102 0.8895914305312916 1 -2 4
357 1 1 0.5897 1.5629420310462014 11.107261778776438 0.8490833994948768 1 -2 4
578 1 1 0.5897 0.36462255954249706 6.819264721865114 2.579644485541859 2 2 -2
516 1 1 0.5897 1.3264952766233196 7.149847629718322 0.12255874208270257 -3 -4 -1
626 1 1 0.5897 5.5511285525665155 6.759099144565544 7.68339528822776 -4 -3 3
230 1 1 0.5897 7.25703323530183 8.696373664364632 10.247029799213516 2 4 0
842 1 1 0.5897 1.2500957652148368 9.155996724110791 9.85352595885131 -1 2 -1
501 1 1 0.5897 0.10908983573270889 9.103486183750832 7.602113315825646 0 0 -2
542 1 1 0.5897 7.088389591168299 11.275128598059043 8.97210260255417 -3 0 3
395 1 1 0.5897 7.62006484938273 7.959508261179906 8.100718895566041 1 0 5
712 1 2 -1.1794 2.7219667630046662 9.220115828958008 5.798934489032469 -6 -1 4
841 1 2 -1.1794 0.6238231426236155 8.723652171957426 9.273006220462403 -1 2 -1
627 1 1 0.5897 6.576653764343261 7.094255614077708 6.621491060465527 -4 -3 3
510 1 1 0.5897 3.5599163451207527 9.824722231930387 8.668865297417485 4 -2 3
396 1 1 0.5897 8.12194250215119 9.352614046076631 8.415487877500734 1 0 4
508 1 2 -1.1794 3.300345189862966 10.565290939233696 8.120851559471214 4 -2 3
301 1 2 -1.1794 4.179261584092467 8.517787387442503 9.703049360078387 0 0 8
849 1 1 0.5897 1.1690427759467512 7.118827722509047 9.18596783418084 6 -2 5
509 1 1 0.5897 2.9746362962202286 10.164831962873393 7.314831726740201 4 -2 3
543 1 1 0.5897 6.946790972953362 10.909490836802718 7.509953392118545 -3 0 3
303 1 1 0.5897 4.121494181654185 7.734878886049004 9.15546081512046 0 0 8
394 1 2 -1.1794 8.307107736133192 8.427254352122752 8.575419737420907 1 0 5
302 1 1 0.5897 5.028041046914331 8.443513007420492 10.13916324850506 0 0 8
714 1 1 0.5897 1.8317396332285947 8.87770080416113 5.878784228263636 -6 -1 4
541 1 2 -1.1794 7.594030284777872 10.992298060208942 8.210209629809492 -3 0 3
552 1 1 0.5897 4.756571802179019 11.014980999949048 6.955618368527212 -3 6 -3
625 1 2 -1.1794 6.473506191434856 6.639569940761554 7.457405238549876 -4 -3 3
550 1 2 -1.1794 5.496597413925423 10.787350777039006 6.392855573836321 -3 6 -3
229 1 2 -1.1794 6.672447647841633 8.3785157761468 10.935042299921264 2 4 0
122 1 1 0.5897 3.4170555810657173 11.346734163526516 11.054367687476999 0 -3 -1
717 1 1 0.5897 5.6006951264873495 8.937761177873174 5.649629882646539 5 -7 -4
267 1 1 0.5897 7.279227569757762 10.539852156256881 14.034828791671847 -3 -1 -1
786 1 1 0.5897 3.0400523732092632 10.963370860910645 15.606738068709504 5 4 3
118 1 2 -1.1794 0.6169679167207064 10.981683210800437 13.484917221578915 6 -2 -2
306 1 1 0.5897 8.506566891836595 7.6047157932208815 13.311233209190176 5 -1 -6
648 1 1 0.5897 1.4679160997074912 7.202294093820316 15.923592522941318 -5 0 1
784 1 2 -1.1794 3.2188046812358206 10.044509258655186 15.407030033692767 5 4 3
304 1 2 -1.1794 7.798289785067265 7.4946187798093495 13.945557995304533 5 -1 -6
197 1 1 0.5897 5.44330164812254 6.678227058231054 15.371817506105332 -2 -2 -1
523 1 2 -1.1794 2.361862508453218 9.64343823773766 11.755454888836013 2 0 3
525 1 1 0.5897 1.7906721108570125 9.97271289060933 12.449327338645967 2 0 3
265 1 2 -1.1794 7.13377919878359 9.85208384428036 14.684399422903336 -3 -1 -1
785 1 1 0.5897 3.6906893674951955 10.067247187762318 14.574596597343639 5 4 3
524 1 1 0.5897 3.1892302739997 9.451314371944786 12.196675244354154 2 0 3
266 1 1 0.5897 6.1912610410138385 9.688287437520836 14.653526083850336 -3 -1 -1
30 1 1 0.5897 8.44994420809804 7.131159383176903 15.870468541613427 -7 0 5
646 1 2 -1.1794 1.0825402635306245 7.8654470100037015 15.351011603782156 -5 0 1
305 1 1 0.5897 7.671788858038986 8.367273225786587 14.317865867604615 5 -1 -6
8 1 1 0.5897 0.28762274533815824 6.741181372314669 14.072821934230697 3 -1 -1
196 1 2 -1.1794 5.238197797457045 6.760262672764609 14.440492094380726 -2 -2 -1
31 1 2 -1.1794 4.668776958501714 9.38722393347327 13.220547409404883 4 7 1
198 1 1 0.5897 6.0909184931297045 6.75649763069187 14.005765132771716 -2 -2 -1
567 1 1 0.5897 7.434573711276939 10.809683421529105 16.44098435633266 -1 7 -6
33 1 1 0.5897 4.738624906290176 8.523731397967309 13.627530783773842 4 7 1
32 1 1 0.5897 5.328634358394976 9.379804129668422 12.5272236751093 4 7 1
231 1 1 0.5897 7.093506955059968 7.582255602712439 11.258782198063242 2 4 0
647 1 1 0.5897 1.6704085268615658 8.617171851197519 15.424834441479923 -5 0 1
536 1 1 0.5897 4.704952089656311 9.798421948655472 16.50682372737083 5 6 3
654 1 1 0.5897 4.381822387303405 7.582997064582374 19.493032255028748 -1 1 -1
558 1 1 0.5897 1.2910469566907121 9.205593368559672 18.925348497403874 3 1 0
653 1 1 0.5897 3.397564507097058 8.071968523194313 18.451978563340724 -1 1 -1
638 1 1 0.5897 6.673088496334054 10.914207076075353 19.52795758806317 -7 1 3
65 1 1 0.5897 6.687954248823834 7.581373399391784 20.40213644797788 3 0 -5
637 1 2 -1.1794 7.562404925312431 11.26800796714916 19.519832639046605 -7 1 3
66 1 1 0.5897 5.6042316924662945 6.8336004688565435 21.14917384890295 3 0 -5
639 1 1 0.5897 7.834922058879114 11.211179354560608 18.60405713195115 -7 1 3
854 1 1 0.5897 4.607838034250999 10.388934164098954 18.927398173405724 -3 0 0
556 1 2 -1.1794 2.0589635597802243 9.17691706145541 18.35473013663884 3 1 0
29 1 1 0.5897 8.018041182306902 7.090234498829434 17.320807207395962 -7 0 5
652 1 2 -1.1794 4.147651263706776 7.489183542807489 18.569725023504013 -1 1 -1
537 1 1 0.5897 5.2572899608559105 8.719023956127891 17.413160078166687 5 6 3
853 1 2 -1.1794 4.827242017344659 10.704886714313231 19.803858799216577 -3 0 0
64 1 2 -1.1794 5.8338588154234206 7.701482890280756 20.817245013721486 3 0 -5
557 1 1 0.5897 1.996500526413156 9.973713775300986 17.828098785384668 3 1 0
515 1 1 0.5897 1.87140810903683 8.429258228369449 21.554898540911264 -3 -4 -2
855 1 1 0.5897 4.416284191170347 11.56763240227997 19.857797400825135 -3 0 0
410 1 1 0.5897 4.345636879273944 9.209649895114037 21.46634329528697 3 3 -5
565 1 2 -1.1794 8.086149385593366 11.38325636666083 16.844217721455518 -1 7 -6
514 1 2 -1.1794 1.2588742921895337 7.714155730528176 21.382938044841445 -3 -4 -2
535 1 2 -1.1794 5.398892537192137 9.626321861448586 17.143186782739505 5 6 3
553 1 2 -1.1794 8.159308278670418 7.298611778269937 19.56671270428976 -5 -7 3
28 1 2 -1.1794 8.729209949770171 6.830523048847155 16.735213672457323 -7 0 5
409 1 2 -1.1794 3.621641985720525 9.04265530870864 22.06973178398553 3 3 -5
185 1 1 0.5897 9.086927622999584 10.714642011783264 20.539259966737674 -1 6 3
555 1 1 0.5897 9.034022336862762 7.67401495970894 19.466345528781957 -5 -7 3
619 1 2 -1.1794 5.0897313021266415 14.877635084585815 1.037687543689287 1 -1 4
532 1 2 -1.1794 4.955272164812218 15.138012595072276 3.8617904243240013 -7 -2 0
300 1 1 0.5897 7.048452001714985 11.947476254019142 1.4639713178101061 -4 -1 0
533 1 1 0.5897 4.9888217646536415 14.89316580670243 2.937093992535261 -7 -2 0
78 1 1 0.5897 2.671199440811652 13.585868539201506 5.484097318212856 -6 -4 -3
746 1 1 0.5897 5.164416454566274 16.97724004150998 3.7849660025135705 1 2 -8
621 1 1 0.5897 5.847359733902558 14.348828889413335 0.7877032562292637 1 -1 4
376 1 2 -1.1794 7.5529049953649645 14.69705458032811 4.815362328928639 2 4 4
274 1 2 -1.1794 7.24664724676395 13.64532828995961 0.22547638995457794 -2 3 -3
377 1 1 0.5897 6.648699053314665 14.650459900705622 4.5049107341429515 2 4 4
252 1 1 0.5897 7.599446433804481 12.55640915561946 4.457318126197065 3 -4 2
632 1 1 0.5897 0.5435332358582723 14.118169572909085 4.769760597630539 4 4 4
620 1 1 0.5897 4.3344759177819325 14.325538287077745 0.8354317476969783 1 -1 4
77 1 1 0.5897 3.698209994322094 12.515189911788223 5.183162967230215 -6 -4 -3
534 1 1 0.5897 4.405890229424685 14.467564111033958 4.2677730729566115 -7 -2 0
776 1 1 0.5897 8.730133590229462 15.378322449624875 3.4442349315359855 3 -4 1
21 1 1 0.5897 2.8598094987100233 12.478476917684976 0.9780696159884066 -4 -4 2
19 1 2 -1.1794 2.970032404175553 13.314345923003664 0.5249411732258087 -4 -4 2
250 1 2 -1.1794 8.22060919915809 11.83323084654041 4.371799153924023 3 -4 2
20 1 1 0.5897 2.0797903258148507 13.584697469360416 0.30020669115755116 -4 -4 1
275 1 1 0.5897 8.118137705994794 13.986268557773021 0.4264469315623184 -2 3 -3
631 1 2 -1.1794 0.9601336683543388 14.441177801873154 5.568671082822475 4 4 4
146 1 1 0.5897 0.9065778858699605 15.81955147975369 0.2226407557251662 1 1 -3
251 1 1 0.5897 9.075502534997868 12.258090542717968 4.3026776415273105 3 -4 2
420 1 1 0.5897 7.815612062895964 14.982797437806148 10.950886108870764 -7 -3 5
111 1 1 0.5897 4.341202945596836 14.348064797333535 6.914683441590976 -2 -3 -8
513 1 1 0.5897 1.577692682928159 15.467523734805622 10.378250888999107 0 2 -4
123 1 1 0.5897 3.7004500037253854 12.81475784155121 10.81726445578479 0 -3 -1
781 1 2 -1.1794 6.5043610886462915 12.250953754983547 10.57766704055951 -2 -1 0
831 1 1 0.5897 4.888151658346728 16.646770186594626 7.161156562774277 3 2 4
110 1 1 0.5897 5.607509088350591 14.557373882561766 7.717377592941779 -2 -3 -8
497 1 1 0.5897 3.693772682766105 14.456281497633327 9.343515754453412 1 0 2
109 1 2 -1.1794 4.690441035581591 14.826696273746727 7.666400039433558 -2 -3 -8
498 1 1 0.5897 2.440207867203902 13.607763208759991 9.326382942081205 1 0 1
179 1 1 0.5897 7.515210628684071 13.100675240545387 7.816625583148544 -8 1 -1
180 1 1 0.5897 8.188809420482544 14.451034674045424 7.9370066892634386 -8 1 -1
512 1 1 0.5897 1.092193407005523 16.670012940953438 9.597245632130155 0 2 -4
327 1 1 0.5897 2.0829595974917545 11.869117052736021 8.163536988692744 1 -1 -1
782 1 1 0.5897 6.669838946218831 13.193365758218096 10.552818479621019 -2 -1 0
511 1 2 -1.1794 0.7824593861960037 15.9416349437309 10.135454319114102 0 2 -4
496 1 2 -1.1794 3.0147680796155165 14.097476920614358 9.914783169141625 1 0 2
419 1 1 0.5897 6.564054964810558 15.736460392102071 10.554329988300704 -7 -3 5
325 1 2 -1.1794 1.4534392422653315 12.58642063778637 8.236426233334795 1 -1 -1
178 1 2 -1.1794 7.338943439266296 14.040645973685349 7.777474376435466 -8 1 -1
783 1 1 0.5897 5.593819033753156 12.174624473849063 10.862639313520233 -2 -1 0
418 1 2 -1.1794 6.8665307481076585 14.992104325466338 11.074509186647912 -7 -3 5
326 1 1 0.5897 0.7582725017784075 12.239728957489543 8.795599866694104 1 -1 -1
287 1 1 0.5897 1.1980478559668846 16.201790551979798 5.887714232373318 4 1 2
633 1 1 0.5897 0.778336989686267 13.767136763382956 6.223488261633404 4 4 4
378 1 1 0.5897 7.484716138257515 14.613252740000407 5.766387647812847 2 4 4
260 1 1 0.5897 4.290516205206995 17.056138543090817 10.898144218469389 1 -2 6
76 1 2 -1.1794 3.5892001110300757 13.355944053782883 5.627447789694348 -6 -4 -3
711 1 1 0.5897 7.370209783709586 15.608688576929168 12.794785774550652 -4 -5 -2
612 1 1 0.5897 3.213399734960249 12.658317541912442 12.873604545150625 3 3 -1
611 1 1 0.5897 2.478282417251066 13.860543640222057 13.426665525878459 3 3 -1
610 1 2 -1.1794 2.715436515813936 12.956845808689737 13.634548447271762 3 3 -1
359 1 1 0.5897 6.064151142549373 13.377118152904885 15.328624509146623 3 -1 -5
755 1 1 0.5897 9.041641437288215 16.568624540020494 16.033290729384888 -3 -1 -5
710 1 1 0.5897 6.570525866673846 16.57293336847058 13.644717626565253 -4 -5 -2
199 1 2 -1.1794 4.519979000977101 16.31023804687969 16.401884826231218 2 -4 -1
709 1 2 -1.1794 7.436564656180343 16.173287717435738 13.564832070870285 -4 -5 -2
728 1 1 0.5897 2.2656836791755 16.15871219265587 12.607662806669746 -2 2 -1
727 1 2 -1.1794 1.850499124353815 15.523184600543798 13.190654447371482 -2 2 -1
468 1 1 0.5897 3.7741814950207506 13.593006995872008 14.806324330041743 5 -3 7
360 1 1 0.5897 7.259980482044102 13.00915179229698 14.476431962109624 3 -1 -5
729 1 1 0.5897 0.9262454297480143 15.53775104654335 12.942296698285924 -2 2 -1
467 1 1 0.5897 3.811869375879988 13.265522625677098 16.283807135399123 5 -3 7
466 1 2 -1.1794 4.256516043633752 13.78141240234755 15.611297974120337 5 -3 7
754 1 2 -1.1794 9.052667519920007 15.614088179306002 16.103013938773703 -3 -1 -5
200 1 1 0.5897 4.6266682141137165 16.85791238695527 15.624200343496337 2 -4 -1
824 1 1 0.5897 2.6937688818696626 16.166163561368776 15.86402631217353 0 4 2
756 1 1 0.5897 8.610217835568058 15.310456525546495 15.310442831295587 -3 -1 -5
825 1 1 0.5897 1.6657486897220577 16.150631549261185 14.752910886735414 0 4 2
358 1 2 -1.1794 7.013632772683086 13.262165673100847 15.366052441030506 3 -1 -5
823 1 2 -1.1794 1.7700834913340349 16.341851230527624 15.684942876970826 0 4 2
201 1 1 0.5897 4.530819974891777 15.413563674913705 16.06725068198882 2 -4 -1
566 1 1 0.5897 7.838731745170017 12.263572561150658 16.5614480386245 -1 7 -6
430 1 2 -1.1794 7.962103119783684 11.987761323867103 12.89586070628516 -5 -2 -3
431 1 1 0.5897 8.824065660130584 12.292514735464572 12.61253788720344 -5 -2 -3
259 1 2 -1.1794 3.641528502149117 16.940469137554572 11.592132061303914 1 -2 6
121 1 2 -1.1794 3.9309416505590575 12.081970391460414 11.388244680502316 0 -3 -1
83 1 1 0.5897 0.40269368232165575 17.049698215632336 16.304517487771854 -2 -2 -7
432 1 1 0.5897 7.4828297667345 11.832966183904537 12.08193808093425 -5 -2 -3
120 1 1 0.5897 1.0679727474506722 11.820265274680095 13.38746092810103 6 -2 -2
315 1 1 0.5897 3.8738382847525146 16.22412203587139 19.64022820675572 0 0 -1
268 1 2 -1.1794 0.21313334940353876 11.934556691909911 21.765180273154513 2 6 7
346 1 2 -1.1794 6.959730788934661 16.08706140758779 17.655800595667376 -4 3 -4
780 1 1 0.5897 1.848163468140136 12.722304872614325 16.95744958906323 -1 0 0
147 1 1 0.5897 0.4241145827844545 15.316421665499183 20.909386779815545 1 1 -4
348 1 1 0.5897 6.145578639447164 16.357036077747512 17.231066390204717 -4 3 -4
761 1 1 0.5897 7.434443772584224 16.940306266336087 19.19901613618315 -1 -3 -2
347 1 1 0.5897 7.452512230988765 15.639917674025615 16.96778921128297 -4 3 -4
531 1 1 0.5897 1.3703677017858493 16.279016359895525 19.072455202293554 -2 -1 -7
313 1 2 -1.1794 3.3004865961066807 16.690095439953947 19.03173836249349 0 0 -1
314 1 1 0.5897 3.7208966312406773 16.585745307722583 18.178220851289108 0 0 -1
372 1 1 0.5897 3.3822629869513574 13.631594773468073 20.50865857639134 2 7 -3
386 1 1 0.5897 6.759157095197837 14.388188629786509 18.64439107635831 -4 1 0
145 1 2 -1.1794 0.781548324266898 15.0177794298942 21.745557991022068 1 1 -4
276 1 1 0.5897 7.134882288428633 13.809299471610682 21.31962479757892 -2 3 -4
385 1 2 -1.1794 6.398246470148226 13.871603814283235 19.36481623358038 -4 1 0
371 1 1 0.5897 4.432309920223284 13.665130177375412 19.41874553709524 2 7 -3
529 1 2 -1.1794 0.4537613255758328 16.0039633891156 19.05411304861725 -2 -1 -7
370 1 2 -1.1794 3.5572831381666514 13.3315792905308 19.61675139133651 2 7 -3
762 1 1 0.5897 8.69047090400797 16.860048682328763 20.040230092748452 -1 -3 -2
387 1 1 0.5897 6.863681202337905 13.036554998811619 19.31803510036267 -4 1 0
778 1 2 -1.1794 2.5555719364448066 12.140111004904648 17.23448593716325 -1 0 0
779 1 1 0.5897 2.829151727602556 12.482843988346824 18.08526845881375 -1 0 0
426 1 1 0.5897 5.267148055846697 16.135396467928103 21.86177984969044 7 -5 1
424 1 2 -1.1794 5.316844233236793 16.837901037728983 21.213586929254348 7 -4 1
530 1 1 0.5897 0.10967883133312334 16.369878637814935 18.23934640242306 -2 -1 -7
425 1 1 0.5897 6.229916594025876 16.835368311961584 20.926499677869778 7 -4 1
269 1 1 0.5897 0.31648873446929504 12.700706729306972 21.200862913779474 2 6 7
816 1 1 0.5897 1.617215265100431 19.05890529134423 3.6022478538792853 -3 7 -2
61 1 2 -1.1794 8.06582387965264 20.636407923941178 3.1635277372055093 -3 -1 4
815 1 1 0.5897 2.6683556201725622 18.229833250642336 2.895573201642047 -3 7 -2
491 1 1 0.5897 5.335347091074524 19.57839951094195 2.7327963132315323 0 2 4
640 1 2 -1.1794 0.5609712494129884 20.55357909374733 3.641280786547362 4 2 -4
490 1 2 -1.1794 5.2208643508293475 20.52866751405832 2.7369779145327358 0 2 4
642 1 1 0.5897 0.8490235563198347 21.30674249165888 3.125632944292174 4 2 -4
661 1 2 -1.1794 3.7631632134149657 18.2518476418034 1.3547980217770532 -3 -5 2
663 1 1 0.5897 4.525911485756104 17.930718525095152 1.835676528452115 -3 -5 2
492 1 1 0.5897 5.151524654694975 20.757938372993856 3.6636704063118453 0 2 4
737 1 1 0.5897 1.9294365894215242 17.95723772025071 0.7514547856625615 3 -2 0
814 1 2 -1.1794 2.147781267668909 18.26803470495898 3.6978855123973977 -3 7 -2
792 1 1 0.5897 5.934202086271563 22.091773776334648 1.1597671984242268 1 4 0
273 1 1 0.5897 3.1322989370519516 19.15844253354588 5.100341944133302 -1 3 3
745 1 2 -1.1794 5.5328703899239065 17.840220882818095 3.596053889736191 1 2 -8
747 1 1 0.5897 6.168933900438151 17.988038532047185 4.295851043658798 1 2 -8
791 1 1 0.5897 7.029046510818594 21.75241860945352 0.1708745860385341 1 4 0
662 1 1 0.5897 4.131544398449759 18.724494690984493 0.6084485824914647 -3 -5 2
62 1 1 0.5897 7.136261156090346 20.408641832209234 3.1506655343261265 -3 -1 4
288 1 1 0.5897 1.5560781574977165 17.492352607228938 5.182089121409483 4 1 2
545 1 1 0.5897 3.97968077205497 21.633690252889068 1.8385324128285507 -3 3 5
799 1 2 -1.1794 4.945415514399087 21.6833369399224 5.373050437902952 0 -2 3
736 1 2 -1.1794 1.0029940172674574 17.72131887102318 0.7047011799107662 3 -2 0
63 1 1 0.5897 8.454987653983865 20.09538845107582 2.476520116351132 -3 -1 4
770 1 1 0.5897 8.944849387028299 17.884178071717862 1.9818326365104193 3 -1 1
544 1 2 -1.1794 3.7550487161037682 22.418671681760507 1.3390263895827255 -3 3 5
438 1 1 0.5897 6.816162469420258 17.99299736398806 10.156445410655355 -1 4 0
800 1 1 0.5897 4.6111075411059605 20.946813085066665 5.884815426872826 0 -2 3
830 1 1 0.5897 4.509354893514653 18.050374367262116 6.73917560840568 3 2 4
436 1 2 -1.1794 6.034051002570821 17.475191202744142 9.965893494950565 -1 4 0
629 1 1 0.5897 6.55927157651043 18.10744851810096 6.176411665408102 -2 -4 4
735 1 1 0.5897 7.280957824879343 21.390160771825343 9.222161033189948 -3 1 -1
291 1 1 0.5897 2.237714917858673 18.717659673266198 8.53054285557443 -8 -5 -6
464 1 1 0.5897 7.934036247730664 21.159292186302267 7.057910048469103 6 1 -2
628 1 2 -1.1794 7.318105294709464 18.398676254607707 5.670957031971408 -2 -4 4
465 1 1 0.5897 6.491109665694603 21.20875925353338 6.602775694688368 6 1 -2
809 1 1 0.5897 4.605332559614884 18.828468146088106 9.715056507052843 3 -1 -2
734 1 1 0.5897 8.269776151422517 20.595049155618298 10.047788713494551 -3 1 -1
374 1 1 0.5897 4.31900958556059 21.158527791555308 9.337446711462777 4 5 -1
733 1 2 -1.1794 7.8082516375286275 21.433106243806265 10.019813796413231 -3 1 -1
290 1 1 0.5897 1.6481378431956104 17.61517347924508 7.676974330109175 -8 -5 -6
808 1 2 -1.1794 3.9140203074531428 19.489265285352104 9.67525338313264 3 -1 -2
810 1 1 0.5897 3.6063723027517485 19.56939638180952 10.578064026561933 3 -1 -2
630 1 1 0.5897 7.600272897041189 19.20414505121048 6.10423944959692 -2 -4 4
289 1 2 -1.1794 1.634145410775758 17.975536608515654 8.563584668399471 -8 -5 -6
829 1 2 -1.1794 5.202644359982445 17.55073586750862 7.170291858221093 3 2 4
587 1 1 0.5897 1.9797761159498413 22.190907480760934 7.14786445070917 0 2 4