LAMMPS (30 Jul 2021)
  using 1 OpenMP thread(s) per MPI task
package omp 0
using multi-threaded neighbor list subroutines
echo both

include		in.partitions
variable        pid world 0
include		in.temp
variable        temperature equal 226.54
variable	tempDamp equal 100.0
include		in.pressure
variable        pressure equal 2625.0
variable        pressureDamp equal 1000.0 # This is 1 ps
include		in.seed
variable        seed world 745823

units		real
atom_style	full
read_restart	restart.lmp.${pid}
read_restart	restart.lmp.0
Reading restart file ...
  restart file = 30 Jul 2021, LAMMPS = 30 Jul 2021
  restoring atom style full from restart
  orthogonal box = (0.34515045 1.4980729 0.42108274) to (17.862422 22.131105 21.792113)
  4 by 4 by 4 MPI processor grid
  restoring pair style lj/cut/tip4p/long/omp from restart
  restoring bond style harmonic/omp from restart
  restoring angle style harmonic/omp from restart
  864 atoms
  576 bonds
  288 angles
Finding 1-2 1-3 1-4 neighbors ...
  special bond factors lj:    0        0        0       
  special bond factors coul:  0        0        0       
     2 = max # of 1-2 neighbors
     1 = max # of 1-3 neighbors
     1 = max # of 1-4 neighbors
     2 = max # of special neighbors
  special bonds CPU = 0.900 seconds
  read_restart CPU = 1.016 seconds
include 	in.setup
variable	out_freq equal 1000
variable	out_freq2 equal 10000
variable	out_freq3 equal 1000

timestep	2.0

neigh_modify    delay 7 every 1

include		in.tip4p
# This is TIP4P/Ice

# create groups ###
group ox type 2
288 atoms in group ox
group hy type 1
576 atoms in group hy

# set charges - beside manually ###
set group ox charge -1.1794
Setting atom values ...
  288 settings made for charge
set group hy charge 0.5897
Setting atom values ...
  576 settings made for charge

# ### TIP3P Potential Parameters ###
pair_style lj/cut/tip4p/long/omp 2 1 1 1 0.1577 8.5
pair_coeff 1 1*2 0.000 0.000
pair_coeff 2 2 0.21084 3.1668
bond_style  harmonic
bond_coeff  1 450 0.9572
angle_style harmonic
angle_coeff 1 55 104.52
kspace_style pppm/tip4p/omp 1.0e-5
pair_modify tail yes

thermo          ${out_freq}
thermo          1000
thermo_style    custom step temp pe etotal epair emol press lx ly lz vol pxx pyy pzz pxy pxz pyz enthalpy

restart 	${out_freq3} restart.lmp.${pid} restart2.lmp.${pid}
restart 	1000 restart.lmp.${pid} restart2.lmp.${pid}
restart 	1000 restart.lmp.0 restart2.lmp.${pid}
restart 	1000 restart.lmp.0 restart2.lmp.0


include         in.dump
dump            myDump all atom ${out_freq2} dump.water.${pid}
dump            myDump all atom 10000 dump.water.${pid}
dump            myDump all atom 10000 dump.water.0
dump            myDump2 all dcd ${out_freq2} dump.dcd
dump            myDump2 all dcd 10000 dump.dcd
dump_modify     myDump append yes
dump_modify     myDump2 append yes


variable natoms 	equal  "count(all)"                        # NUMBER ATOMS
variable H      	equal  "enthalpy/v_natoms"                 # ENTHALPY-per-atom
variable Vol      	equal  "vol/v_natoms"                 # volume-per-atom
fix AVG all 		ave/time ${out_freq} 1 ${out_freq} v_Vol v_H file vol_enthalpy.dat
fix AVG all 		ave/time 1000 1 ${out_freq} v_Vol v_H file vol_enthalpy.dat
fix AVG all 		ave/time 1000 1 1000 v_Vol v_H file vol_enthalpy.dat


timer           timeout 23:50:00 every 1000
New timer settings: style=normal  mode=nosync  timeout=23:50:00

fix 		1 all shake 1e-6 200 0 b 1 a 1
       0 = # of size 2 clusters
       0 = # of size 3 clusters
       0 = # of size 4 clusters
     288 = # of frozen angles
  find clusters CPU = 0.009 seconds
fix             2 all nph iso ${pressure} ${pressure} ${pressureDamp}
fix             2 all nph iso 2625 ${pressure} ${pressureDamp}
fix             2 all nph iso 2625 2625 ${pressureDamp}
fix             2 all nph iso 2625 2625 1000
fix             3 all temp/csvr ${temperature} ${temperature} ${tempDamp} ${seed}
fix             3 all temp/csvr 226.54 ${temperature} ${tempDamp} ${seed}
fix             3 all temp/csvr 226.54 226.54 ${tempDamp} ${seed}
fix             3 all temp/csvr 226.54 226.54 100 ${seed}
fix             3 all temp/csvr 226.54 226.54 100 745823

run             250000
PPPM initialization ...
  extracting TIP4P info from pair style
  using 12-bit tables for long-range coulomb (../kspace.cpp:340)
  G vector (1/distance) = 0.37323013
  grid = 24 24 25
  stencil order = 5
  estimated absolute RMS force accuracy = 0.0031882251
  estimated relative force accuracy = 9.6012453e-06
  using double precision FFTW3
  3d grid and FFT values/proc = 2730 288
Last active /omp style is kspace_style pppm/tip4p/omp
Neighbor list info ...
  update every 1 steps, delay 7 steps, check yes
  max neighbors/atom: 2000, page size: 100000
  master list distance cutoff = 10.8154
  ghost atom cutoff = 10.8154
  binsize = 5.4077, bins = 4 4 4
  1 neighbor lists, perpetual/occasional/extra = 1 0 0
  (1) pair lj/cut/tip4p/long/omp, perpetual
      attributes: half, newton on, omp
      pair build: half/bin/newton/omp
      stencil: half/bin/3d
      bin: standard
Per MPI rank memory allocation (min/avg/max) = 9.237 | 9.241 | 9.246 Mbytes
Step Temp PotEng TotEng E_pair E_mol Press Lx Ly Lz Volume Pxx Pyy Pzz Pxy Pxz Pyz Enthalpy 
 5750000    223.59077   -3963.7029    -3580.476   -3963.7029            0    1668.5402    17.517272    20.633032     21.37103     7724.226    1217.4347    1563.0301    2225.1558    357.19511    246.19937   -292.06276   -3392.5151 
 5751000    224.95496   -3992.6093   -3607.0442   -3992.6093            0    1707.3598    17.533419    20.652052     21.39073    7745.6064    1234.6465    1689.7013    2197.7317   -967.28016   -1648.1097   -250.04886   -3414.1779 
 5752000    218.51678   -3998.9655   -3624.4352   -3998.9655            0    1852.7563    17.577917    20.704464    21.445018     7804.729    2162.8064    976.27521    2419.1873   -392.55795   -1512.6555    51.618091   -3413.5471 
 5753000     224.6364   -4022.2952   -3637.2761   -4022.2952            0    2451.7162    17.596801    20.726707    21.468056    7829.9098    2235.8207      1908.54    3210.7878    253.37285    -110.7628   -760.77037   -3357.3117 
 5754000    227.19106   -4074.6645   -3685.2668   -4074.6645            0    2840.6519    17.593648    20.722993    21.464209    7825.7014    1526.1488    2569.6394    4426.1676     257.4016   -710.44589    756.39039   -3361.0637 
 5755000    224.32892   -4012.0503   -3627.5582   -4012.0503            0    2664.3444    17.585392    20.713268    21.454137    7814.6893    3727.8508    2035.8883     2229.294    427.46283    403.73571    60.627719    -3323.905 
 5756000     230.5178   -4009.8243   -3614.7246   -4009.8243            0    2917.8931    17.549232    20.670678    21.410022    7766.5825    3459.3724    2351.4757    2942.8311     716.6576    -310.0145    811.27158   -3284.2218 
 5757000    234.02939   -4015.7411   -3614.6227   -4015.7411            0    3554.7943    17.537531    20.656895    21.395747    7751.0577    2318.3869    4412.7722    3933.2237   -339.77743    587.57853    -39.84763   -3212.7844 
 5758000    234.86486   -4014.4633   -3611.9129   -4014.4633            0     2249.813    17.559159     20.68237    21.422133    7779.7699    2961.8308    2630.9687    1156.6396    1236.0583   -183.28063   -1756.7191   -3356.6492 
 5759000    238.21017   -3999.8601    -3591.576   -3999.8601            0    5023.8457    17.479334    20.588346    21.324746    7674.1486    5003.6282     5643.517    4424.3918   -1056.4198   -2.1994641    861.26847   -3029.3093 
 5760000    227.67167   -4004.4193   -3614.1979   -4004.4193            0    1973.4311    17.508813    20.623069    21.360711    7713.0418    3134.2985    695.40944    2090.5854    300.00724    159.17561    271.89635   -3392.2129 
 5761000    235.62198    -4009.875    -3606.027    -4009.875            0    3923.8864     17.47812    20.586917    21.323266    7672.5507    5579.2261    3332.1289    2860.3043    318.10618   -421.59558    402.04451   -3166.9587 
 5762000    241.09434   -3995.9018   -3582.6743   -3995.9018            0    1084.0286    17.545031    20.665729    21.404897    7761.0058    1279.7111    1111.5682     860.8066    118.78834    896.38941    1795.4658   -3459.9771 
 5763000    238.84472   -3998.9808   -3589.6092   -3998.9808            0     2521.555    17.471066    20.578608    21.314659     7663.264    3527.4449    790.79423     3246.426    285.50349   -696.81634   -548.21908    -3307.798 
 5764000      225.929   -4021.2713   -3634.0367   -4021.2713            0    1964.0383    17.512675    20.627618    21.365423     7718.147     1709.362    1670.9009    2511.8521    689.59981    476.36933    417.50385   -3412.9621 
 5765000    231.95742   -4026.6552   -3629.0881   -4026.6552            0    3469.0776    17.507376    20.621376    21.358958    7711.1432    4474.7927    2682.2799      3250.16    1027.1811    1379.3125    165.57632   -3238.9587 
 5766000    232.61802   -4028.9326   -3630.2333   -4028.9326            0      3615.95    17.532493    20.650961      21.3896    7744.3789    3177.2119    3715.9072    3954.7309    214.46942   -183.46161   -1350.9698   -3221.8341 
 5767000    229.98577   -4012.3069   -3618.1191   -4012.3069            0    3805.6083    17.445609    20.548623    21.283602    7629.8144    5905.3127    4355.7758    1155.7364     249.5703    1156.3184    596.26288   -3194.6576 
 5768000    221.79174   -4017.5364   -3637.3929   -4017.5364            0    1722.5887    17.515774    20.631268    21.369203    7722.2451    537.09418    1537.3374    3093.3345   -695.82941    769.36131    332.53045   -3443.3932 
 5769000    224.86906   -3993.9718   -3608.5539   -3993.9718            0    2495.2685     17.53874    20.658319    21.397221    7752.6598    2723.8315    2387.1883    2374.7858     -1095.53    31.202256   -280.07996   -3326.4274 
 5770000     216.1154   -4009.7253   -3639.3109   -4009.7253            0    2146.8604    17.543604    20.664048    21.403156    7759.1123    2841.1513    649.00127    2950.4287    509.34322    61.495602    728.06721    -3396.375 
 5771000    227.01338   -4026.5483   -3637.4552   -4026.5483            0    2157.6574    17.463096    20.569221    21.304936    7652.7816    1482.9316    3215.4494    1774.5913   -745.33955    -548.0516   -379.41448   -3396.6434 
 5772000    228.31367   -4010.0819   -3618.7601   -4010.0819            0    1902.7373    17.532986    20.651541    21.390202    7745.0322   -131.83666    3414.3283    2425.7203    764.41628   -370.57997   -236.35099   -3403.8395 
 5773000    213.99301   -4004.0344   -3637.2577   -4004.0344            0    1632.7605    17.561867     20.68556    21.425437    7783.3695    1600.1245    4065.3903   -767.23317    1031.6615   -906.11246    87.249568    -3451.919 
 5774000    242.35674    -3995.497   -3580.1058    -3995.497            0    2701.7033    17.623504     20.75816    21.500634    7865.6095     1522.624    5022.9663    1559.5197    109.91732   -558.69252   -334.47567   -3270.1885 
 5775000    226.50335   -4002.5103   -3614.2913   -4002.5103            0    3317.0439     17.56269    20.686529    21.426441    7784.4638    4000.6329    3041.5857    2908.9132    1896.0164   -720.73314    150.75725   -3237.7126 
 5776000    238.37909   -4000.8712   -3592.2976   -4000.8712            0    4498.1046    17.496891    20.609027    21.346166    7697.2972    3046.6874    5014.9149    5432.7114   -714.80404    120.11638   -237.69773    -3087.353 
 5777000    232.75027   -4010.9047   -3611.9787   -4010.9047            0    2220.2777    17.595058    20.724654     21.46593    7827.5836    2124.8166    3233.7093    1302.3073   -257.94943   -766.61694   -327.69833   -3358.5178 
 5778000    220.93799   -4016.3558   -3637.6756   -4016.3558            0    3666.4834    17.520974    20.637393    21.375547    7729.1246    3156.4061    4045.3207    3797.7234    1269.6353    952.85306    512.60453   -3224.3846 
 5779000     214.1997   -4014.9778   -3647.8468   -4014.9778            0    1586.6735    17.558183    20.681221    21.420942    7778.4724    2215.3234    1303.8578    1240.8393   -84.939445     -433.723      47.5473   -3467.8529 
 5780000    227.88306   -3980.2758   -3589.6921   -3980.2758            0    4417.7126    17.497249    20.609448    21.346603    7697.7699    4762.6166    5669.3949    2821.1262    740.41243   -333.50451    235.89016   -3093.7416 
 5781000     227.2105    -3984.871     -3595.44    -3984.871            0    1297.8176    17.587256    20.715465    21.456412    7817.1758    612.43732    1464.7301    1816.2853   -405.83175    877.27832    927.62721   -3447.4817 
 5782000    220.57745   -3986.0721   -3608.0099   -3986.0721            0    1438.8159    17.586879    20.715021    21.455952    7816.6729    1742.4134    2820.1976   -246.16312   -177.83724   -407.99486    230.99505   -3443.9875 
 5783000    239.06764   -4040.6277    -3630.874   -4040.6277            0    1357.0448    17.581216     20.70835    21.449042    7809.1238    613.75167    2323.5256    1133.8572   -466.63064    -687.8893    642.38036   -3476.3228 
 5784000    215.72543   -4022.7606   -3653.0146   -4022.7606            0    2360.7356    17.542043    20.662209    21.401251    7757.0409    1025.9129    3373.6364    2682.6576   -1488.9841   -175.43971     1305.351   -3385.9482 
 5785000    217.26557   -4021.5997   -3649.2139   -4021.5997            0    2272.1896    17.524896    20.642012    21.380332     7734.316    3392.0834    1044.2971    2380.1882   -380.88583   -344.94967   -327.45801   -3392.9176 
 5786000    217.93325   -3999.6804   -3626.1502   -3999.6804            0    4041.9405    17.517729    20.633571    21.371589    7724.8314    3588.7315    4549.2056    3987.8844    537.19496    156.53904   -432.39893   -3170.7903 
 5787000     233.6613   -3988.9865    -3588.499   -3988.9865            0    2085.4107    17.506615     20.62048    21.358029    7710.1374    1669.2553    2860.3618    1726.6149    558.81003    580.43545   -208.34016   -3354.0062 
 5788000      223.574    -3993.676   -3610.4778    -3993.676            0     2505.668     17.53266    20.651158    21.389804    7744.6007     2465.406    2733.8255    2317.7727    -1056.196   -1605.2996    394.43933   -3327.4699 
 5789000    230.35882   -3983.0314   -3588.2043   -3983.0314            0    4870.5975    17.386773    20.479322    21.211822    7552.8793    4284.6942    5011.7323    5315.3659   -660.25245   -334.81381   -764.72445   -3051.7031 
 5790000    209.50627   -3970.8552   -3611.7687   -3970.8552            0    843.03878     17.56758    20.692289    21.432406    7790.9677    1881.4042    506.31046    141.40169    407.39478    191.20978   -797.48808   -3515.9798 
 5791000    222.53089   -4000.6126   -3619.2023   -4000.6126            0    2368.8999    17.550587    20.672273    21.411675    7768.3807     2522.338    2103.7818    2480.5797    -411.6789    1216.9905    432.25212   -3350.8205 
 5792000    215.12206   -3960.2609    -3591.549   -3960.2609            0    1670.8828    17.526352    20.643727    21.382108    7736.2439    2608.5534    2390.5593    13.535754   -36.569345   -229.52005   -42.828166   -3403.0314 
 5793000    231.63882   -3999.6405   -3602.6195   -3999.6405            0    2054.5034     17.44238    20.544819    21.279662    7625.5784    1865.1642    1841.8648    2456.4812    183.32519    1466.5088    355.21994   -3374.1356 
 5794000    227.00336   -3997.3092   -3608.2332   -3997.3092            0    3304.8049    17.462579    20.568612    21.304306    7652.1022     1925.234    3922.4976     4066.683    245.48546   -24.011044    1339.5789   -3239.4234 
 5795000    213.92998   -4043.4345   -3676.7658   -4043.4345            0    3281.5787     17.46213    20.568083    21.303758    7651.5122    2427.0881     2771.065    4646.5828   -293.20467   -423.12237    186.54634   -3310.5762 
 5796000    244.68019   -4038.8939   -3619.5205   -4038.8939            0    4356.1874    17.452805    20.557099    21.292382    7639.2604     6529.531    2844.5711    3694.4602    676.03169    24.610196   -33.155656   -3134.1943 
 5797000    218.26442   -4020.2353   -3646.1375   -4020.2353            0    3094.0901    17.512238    20.627103    21.364889    7717.5694    2982.0605    3900.3707    2399.8391     -572.843    705.54579    4.4499407   -3297.8889 
 5798000    235.46853   -4017.5945   -3614.0095   -4017.5945            0    2785.3296    17.466554    20.573293    21.309155    7657.3286    3472.9371    2529.4697     2353.582   -63.200987    343.03297    1412.2397   -3302.9598 
 5799000    226.13184   -3997.4021   -3609.8199   -3997.4021            0    3385.3487    17.468069    20.575078    21.311004    7659.3216    3910.1727    4059.1985    2186.6751   -1312.5019   -658.96522    614.05969   -3231.6651 
 5800000     227.0128   -4029.5646   -3640.4724   -4029.5646            0    1952.1486    17.519503     20.63566    21.373753    7727.1784     2012.873    1307.6115    2535.9613   -100.67996    1381.3984   -484.26916    -3420.479 
 5801000      216.645   -3961.1758   -3589.8537   -3961.1758            0    3554.8486    17.479961    20.589085    21.325511    7674.9745    3747.2035    3296.4403    3620.9021   -292.77163   -474.86262    913.58855   -3191.9537 
 5802000    223.45521   -4026.2913   -3643.2967   -4026.2913            0      2530.49    17.494823    20.606591    21.343643    7694.5682    2380.7468    2357.1028    2853.6204   -787.94506    122.14325    1385.7345   -3359.3317 
 5803000    226.11714   -4023.2031   -3635.6461   -4023.2031            0    2581.8597    17.462466    20.568478    21.304168    7651.9534    1775.4736    2745.9277    3224.1779    16.132216   -254.93958    401.44204   -3347.5211 
 5804000    223.73951   -4002.2683   -3618.7865   -4002.2683            0    3310.8606    17.492166    20.603462    21.340402    7691.0634    2996.3305    3863.3779    3072.8736    996.67254    872.95367    528.65981   -3247.4196 
 5805000    219.92129   -4001.1668   -3624.2293   -4001.1668            0    1302.2905    17.473457    20.581425    21.317577    7666.4115   -124.88885    1247.0576    2784.7029   -405.76852    657.50791    1298.8979   -3478.6244 
 5806000    234.16691   -3993.6824   -3592.3283   -3993.6824            0    3420.8538    17.499546    20.612154    21.349405    7700.8018    4836.0075    3481.8173    1944.7367    403.58555   -453.87982   -568.49183    -3208.138 
 5807000    217.11641   -4008.5448   -3636.4147   -4008.5448            0    2377.8922    17.618144    20.751847    21.494095    7858.4351    1856.7784    4204.7437    1072.1546    510.94231   -1703.0893   -273.11928   -3363.8911 
 5808000    226.73864   -4019.7918   -3631.1695   -4019.7918            0    2256.3692    17.512209    20.627069    21.364854     7717.531    1136.8163    3532.6914    2099.5998   -434.89757    666.52592   -2221.6746     -3377.21 
 5809000     228.4499   -4016.4434   -3624.8881   -4016.4434            0    2628.1277    17.453995    20.558501    21.293833    7640.8231    3390.1354    3049.6607    1444.5871   -1824.0078   -1041.3317    1103.4034   -3332.0265 
 5810000    225.20187   -4041.4203    -3655.432   -4041.4203            0    2301.2861    17.500826    20.613662    21.350967    7702.4919    2641.4109    1984.6189    2277.8286   -519.81566   -1664.5051     799.5372   -3396.9218 
 5811000    229.04913   -4031.8381   -3639.2557   -4031.8381            0    1695.3071    17.534335     20.65313    21.391847    7746.8201    1735.9987    655.17952     2694.743    129.07464   -618.86384    435.61572   -3447.7209 
 5812000    231.42363    -3997.544   -3600.8918    -3997.544            0    3208.8757    17.472175    20.579914    21.316012    7664.7232    3763.9478    2342.7623    3519.9172    650.26942    2061.2614   -55.519901   -3242.1968 
 5813000    237.67174   -4004.4563    -3597.095   -4004.4563            0     2783.401    17.507056    20.620999    21.358567    7710.7201    2763.6227    1767.5476    3819.0326    836.10098   -1506.3342   -1282.3746   -3284.0934 
 5814000    218.17658   -4012.8982    -3638.951   -4012.8982            0    1962.0409    17.529251    20.647142    21.385646    7740.0842     2638.838     2310.781    936.50374    -311.0919    158.32167    893.72306   -3417.4735 
 5815000    216.74734   -4025.6379   -3654.1404   -4025.6379            0    1348.0743    17.467509    20.574419    21.310321     7658.585    501.55472    2789.9823     752.6859   -547.23583   -266.15886    834.84617   -3503.5705 
 5816000    248.14461   -4025.3962   -3600.0849   -4025.3962            0    1645.7683    17.456266    20.561175    21.296603    7643.8054    1330.2066     2466.087    1141.0113    -882.7206    1155.4829    424.14321   -3416.6195 
 5817000    215.01666   -4030.9395   -3662.4083   -4030.9395            0      2385.14    17.436426    20.537807    21.272399    7617.7731    1266.8792    2207.4252    3681.1156    535.86307   -237.54324   -510.32867   -3397.4254 
 5818000    223.97251   -4022.8753   -3638.9941   -4022.8753            0    2001.0069    17.445613    20.548627    21.283607    7629.8197    1523.4841    2239.0318    2240.5047    -1338.236   -720.75354   -341.79813   -3416.3358 
 5819000    211.10896   -4028.8042   -3666.9707   -4028.8042            0    2983.4008    17.475008    20.583251    21.319469    7668.4527    1825.8195    3446.5603    3677.8226   -1065.3326   -434.59096    241.08402   -3333.3175 
 5820000    235.28529   -4027.0063   -3623.7354   -4027.0063            0    613.47462    17.549541    20.671041    21.410399    7766.9922    -62.02385    1444.2968    458.15088   -1468.1398    544.73439    602.47027   -3554.2449 
 5821000      223.765   -4020.8387   -3637.3132   -4020.8387            0    2064.8571     17.51042    20.624962    21.362672    7715.1663    1155.0822    2056.5837    2982.9053    336.61216   -542.01995   -811.97284     -3404.98 
 5822000    248.30691   -3992.5754   -3566.9858   -3992.5754            0    1067.8553     17.55855    20.681653     21.42139    7778.9601    2372.9544    1161.3252    -330.7136    112.06322    1072.4039   -92.432328   -3445.8396 
 5823000    224.32128   -4039.2477   -3654.7687   -4039.2477            0    3823.0049    17.461568     20.56742    21.303072    7650.7723    4249.8416    3196.4649    4022.7082   -287.92561    326.55529   -22.756286   -3228.2029 
 5824000    229.72699   -4023.2938   -3629.5496   -4023.2938            0    3188.4945    17.394646    20.488595    21.221427    7563.1439    2871.4133    2101.0484    4593.0218    8.8028907   -185.64924    327.16447   -3277.8565 
 5825000    232.03919    -4026.716   -3629.0088    -4026.716            0    1980.9944    17.461422    20.567249    21.302895    7650.5815    761.26162    2850.3271    2331.3944   -675.07197    1041.8549    516.87871   -3407.9776 
 5826000    221.72645   -4005.6702   -3625.6387   -4005.6702            0    1180.1934    17.436526    20.537925    21.272522    7617.9042    1011.5048     1329.359    1199.7164    939.53512   -374.56588    1669.4889     -3494.52 
 5827000    219.38407   -4017.8617   -3641.8449   -4017.8617            0     3262.605    17.403515    20.499041    21.232247    7574.7182    2846.1803    3767.9046    3173.7301   -686.29604    922.56866   -200.04716   -3281.4266 
 5828000    235.11982   -3979.7992   -3576.8119   -3979.7992            0    3607.6059    17.426757    20.526418    21.260603    7605.1067    2370.5541    4197.5371    4254.7265   -130.80872    1588.5517   -615.76466   -3176.6827 
 5829000    234.01337    -4037.671   -3636.5801    -4037.671            0    2168.5453    17.456824    20.561832    21.297284    7644.5383    759.22481    2682.0417    3064.3694    765.04639   -2219.4218   -56.374848   -3394.8139 
 5830000    235.28253   -3984.6523   -3581.3861   -3984.6523            0    3203.0943    17.433306    20.534132    21.268592    7613.6838    2535.4624    3909.2984    3164.5223    -522.4246    813.42344    1403.3405   -3225.7216 
 5831000      226.792   -4009.2766   -3620.5629   -4009.2766            0    5545.2723    17.377438    20.468326    21.200433    7540.7198    4990.1785    5072.7341    6572.9043   -916.36671    685.42608    526.90104    -3010.729 
 5832000    219.33841   -4020.9835    -3645.045   -4020.9835            0    2655.7022     17.43117    20.531616    21.265987    7610.8856    2449.3856    2730.9221     2786.799    1304.5966    1042.7547    227.66398   -3350.2701 
 5833000    219.65593   -4000.1191   -3623.6363   -4000.1191            0    2895.4945    17.356827     20.44405    21.175289    7513.9209    2770.9807    3105.2168     2810.286   -799.43475    548.25929   -431.02016   -3306.3398 
 5834000    229.50894   -3975.5314   -3582.1609   -3975.5314            0      3879.61    17.429484    20.529629    21.263929     7608.677    3412.7676    3900.4045    4325.6578   -640.69885    1163.9322   -1246.8052    -3151.661 
 5835000     235.8478    -4025.767   -3621.5319    -4025.767            0    2514.2623    17.433411    20.534255    21.268721    7613.8216    2294.3693    2196.0453    3052.3721    203.92437    184.89277    191.62051   -3342.3488 
 5836000    223.23969   -4003.4183   -3620.7931   -4003.4183            0    3555.0818    17.457465    20.562587    21.298066    7645.3805    3231.6704    3033.4545    4400.1206   -1111.3831   -185.30267    306.00778   -3224.4014 
 5837000    219.15162   -4012.6061   -3636.9878   -4012.6061            0    1934.9006    17.535775    20.654826    21.393604    7748.7287    1099.5753    3453.5964    1251.5301    -1424.585   -1403.4576    148.90078   -3418.3299 
 5838000    235.82312   -3997.2044   -3593.0116   -3997.2044            0    3034.1212    17.509926    20.624379    21.362068    7714.5126    2934.0909    2242.8363    3925.4366   -1164.2273   -644.12965   -1145.9063   -3251.6479 
 5839000    213.72636   -4023.0601   -3656.7404   -4023.0601            0    3403.7907    17.506771    20.620664     21.35822    7710.3438    2852.9817    4955.4399    2402.9506   -148.60277   -294.99948    290.16939   -3273.9928 
 5840000     235.8942    -4034.724   -3630.4094    -4034.724            0    3055.9469    17.481848    20.591307    21.327813    7677.4603    4333.6508    1197.5008    3636.6891   -1219.3709    -628.5848    666.95006   -3288.2415 
 5841000    212.63851   -4017.2363   -3652.7811   -4017.2363            0    3768.6039    17.434474    20.535508    21.270018    7615.2147    4398.7672    3617.8409    3289.2036   -547.83733   -2091.2461   -332.65074   -3234.2396 
 5842000    237.43465    -4006.366   -3599.4112    -4006.366            0    1903.1107    17.474341    20.582466    21.318655    7667.5748     1389.151    1927.8444    2392.3369   -1710.1678   -1076.5487   -102.51178   -3386.5982 
 5843000    227.13417   -4023.5671   -3634.2669   -4023.5671            0     1678.249    17.430635    20.530986    21.265334    7610.1855     904.1106     1352.349    2778.2874     249.6642   -1216.0793    1228.7153   -3448.0035 
 5844000    223.01894   -3989.4471   -3607.2003   -3989.4471            0    2644.6916    17.466157    20.572826    21.308671    7656.8067    937.10508    2351.6766    4645.2932    -1303.096    -4.525774    286.86987   -3311.8764 
 5845000    230.29612   -4017.7547   -3623.0351   -4017.7547            0    2126.6494    17.530991    20.649192    21.387768    7742.3888    887.08472    2590.7971    2902.0663    -1081.658    340.32711    -1271.923   -3382.9049 
 5846000    230.51391   -3984.7401   -3589.6471   -3984.7401            0    3823.9791    17.552734    20.674802    21.414295    7771.2329    3762.2312     3216.469    4493.2369    1235.9653   -471.51813    197.35505   -3156.2547 
 5847000    222.66796   -4006.4337   -3624.7884   -4006.4337            0    2748.3279    17.581408    20.708577    21.449277    7809.3801    3024.9227    2356.3701    2863.6908    490.43528    275.06624    -1285.459   -3311.7764 
 5848000    220.48836   -4028.8507   -3650.9412   -4028.8507            0    1791.1402    17.584027    20.711661    21.452472    7812.8704    784.01442    1649.5831     2939.823    1084.0681    331.79945    133.06266   -3446.8538 
 5849000     232.6215   -4004.1988   -3605.4935   -4004.1988            0    3935.8373    17.520676    20.637043    21.375184    7728.7311    4575.2204    4204.1843    3028.1071    42.891867   -1838.7712   -332.29158   -3161.8632 
 5850000    228.49082   -4022.5097   -3630.8842   -4022.5097            0    2517.1846    17.615978    20.749296    21.491453    7855.5374    3033.0778    2812.5895    1705.8865   -96.402901   -1015.9173   -89.846393   -3342.5031 
 5851000    215.15003   -4008.6908    -3639.931   -4008.6908            0    3363.2972    17.481886    20.591352     21.32786    7677.5108    3402.7871    3661.6187    3025.4857    304.81549    77.251645      778.934   -3263.3473 
 5852000    236.22557   -4001.5186   -3596.6361   -4001.5186            0    3572.9165    17.571513    20.696921    21.437205    7796.2013     3382.577    4177.0841    3159.0885   -1164.3125    82.460503   -988.28109   -3190.3969 
 5853000    226.37735   -3988.4537   -3600.4507   -3988.4537            0    2011.0207    17.582983    20.710431    21.451198    7811.4784    2135.1736    2468.4841    1429.4044    475.48807   -182.22211   -282.99384   -3371.3504 
 5854000    230.56411   -4022.8166   -3627.6376   -4022.8166            0    2319.1753    17.548111    20.669357    21.408654    7765.0935    2007.1093    2042.4985    2907.9181   -1105.3617    1047.2511   -830.61329   -3365.0005 
 5855000    221.59931   -3977.1726   -3597.3589   -3977.1726            0    2944.0524     17.52635    20.643725    21.382105    7736.2411     2982.867    2592.4591     3256.831    641.58687    279.13581    422.17297   -3265.1958 
 5856000    221.14201   -4018.8727   -3639.8429   -4018.8727            0    4000.0315    17.517081    20.632808    21.370798     7723.974    5401.8598    2934.8936     3663.341    474.01218   -158.27231    545.11179   -3189.2544 
 5857000    220.48613    -4022.724   -3644.8183    -4022.724            0    3001.6407       17.573    20.698673    21.439019     7798.181    2743.7246    4054.5821    2206.6154   -709.12087   -1172.6881   -93.221207   -3303.4463 
 5858000    225.60772   -4014.2502   -3627.5663   -4014.2502            0    2737.6864    17.549367    20.670837    21.410187    7766.7617    2329.7956    3657.9659    2225.2978    924.25988    192.97039    941.30821   -3317.4679 
 5859000    220.30042   -4010.6999   -3633.1125   -4010.6999            0      708.995    17.632732    20.769029    21.511892    7877.9719    1572.5652    51.667694    502.75208   -836.69472   -1171.4958   -991.87753   -3551.6545 
 5860000    228.30988   -4023.3943    -3632.079   -4023.3943            0    1173.0651    17.663291    20.805023    21.549173    7919.0016    992.03605    1902.3775    624.78174   -563.55954   -206.46222   -485.92923   -3496.6011 
 5861000    225.82587   -4000.6879   -3613.6301   -4000.6879            0    2421.0961    17.602923    20.733918    21.475525    7838.0845      2079.75    2169.8735    3013.6647   -780.83541    734.81968   -1639.6807   -3336.8736 
 5862000    231.27634   -4016.4564   -3620.0566   -4016.4564            0    2431.5025    17.567382    20.692056    21.432165    7790.7047    1750.7019    4331.7337     1212.072   -782.68535   -1760.7409   -1594.3522   -3343.7907 
 5863000    221.96699   -4015.8575   -3635.4137   -4015.8575            0     1741.359    17.594477     20.72397    21.465221    7826.8077    899.27497    2112.1576    2212.6445    1268.4821    627.99203   -1978.2389   -3436.6446 
 5864000    229.90603   -3976.5373   -3582.4863   -3976.5373            0    3618.5077    17.543544    20.663978    21.403083    7759.0333      2822.07    3342.8256    4690.6273   -874.74308   -1604.9305    513.78799   -3173.0248 
 5865000    231.13123   -4000.9715   -3604.8205   -4000.9715            0     2698.759    17.616225    20.749587    21.491754    7855.8678    2727.1822    3112.9072    2256.1877    442.96237   -393.54344   -285.33226   -3295.6242 
 5866000    220.78734   -4016.8877   -3638.4658   -4016.8877            0     3592.663    17.532801    20.651324    21.389976    7744.7875      4429.56    2242.1148    4106.3141    90.096793   -140.29593    140.26718   -3232.6753 
 5867000    218.95292   -4028.9181   -3653.6403   -4028.9181            0    2800.1743    17.532591    20.651077     21.38972    7744.5096    3195.0748    3874.2501    1331.1978    247.20859   -241.14368   -890.57058   -3337.3726 
 5868000    226.58371   -4025.8133   -3637.4565   -4025.8133            0    2794.1917    17.565493    20.689831    21.429861    7788.1921    2737.7073    2982.5028    2662.3651     182.7933    -1414.906   -1109.6876   -3320.0844 
 5869000    231.58921   -4009.0567   -3612.1207   -4009.0567            0    1157.4752    17.572342    20.697898    21.438216    7797.3049    1426.6745   -515.79378    2561.5448     552.9824    239.33867   -1368.4031   -3480.4976 
 5870000    216.85746   -4007.7263   -3636.0401   -4007.7263            0    2152.6003    17.598534    20.728749    21.470171    7832.2237    3815.2135    973.76679    1668.8207   -429.15512    45.667738    224.90651   -3390.1594 
 5871000    227.83276   -4016.0269   -3625.5294   -4016.0269            0    3107.7266    17.473966    20.582024    21.318198     7667.081    5252.2672    2199.2859    1871.6266   -245.88072    732.76761   -51.551135   -3278.0342 
 5872000    238.09953   -4003.2903   -3595.1959   -4003.2903            0    2843.5289    17.554172    20.676496    21.416049    7773.1432    4794.1224    1017.2114     2719.253   -1208.2827   -1675.8479   -831.83727    -3272.844 
 5873000    217.75343   -4018.1342   -3644.9123   -4018.1342            0    1849.6948    17.590952    20.719818    21.460921    7822.1048    1418.0612    1930.5717    2200.4514   -751.29113    381.86057    228.80996   -3433.9039 
 5874000    233.97482   -4005.7457   -3604.7209   -4005.7457            0    2141.1805     17.57293     20.69859    21.438934     7798.088     1578.767    1448.6637    3396.1107   -22.966923     364.6196   -662.52574   -3361.2106 
 5875000    243.18942   -3998.1504    -3581.332   -3998.1504            0    4093.3323    17.519065    20.635144    21.373218    7726.5983    4545.1343    3616.4255    4118.4372    109.00506   -75.573302   -1694.7335   -3120.0769 
 5876000    216.17892    -4011.371   -3640.8477    -4011.371            0    2231.7942    17.556049    20.678707    21.418339    7775.6364    1192.5411    1994.1325     3508.709   -1525.8824   -549.16803   -658.51672    -3387.763 
 5877000    216.34233   -4001.2868   -3630.4835   -4001.2868            0     2383.991    17.533736    20.652425    21.391117    7746.0263    977.21709    2454.7458    3720.0101    653.24754    1144.6611   -486.22214   -3361.1692 
 5878000     228.7372   -4015.5928   -3623.5451   -4015.5928            0    2551.2826    17.574286    20.700188    21.440588    7799.8936    1301.2465    3640.8052     2711.796   -1294.5144    922.36087   -39.740106   -3333.3279 
 5879000     237.4736   -3995.7426    -3588.721   -3995.7426            0    2907.3374    17.604219    20.735444    21.477106    7839.8158    2911.9253    1867.4916    3942.5953   -179.82167   -978.71809    1682.8013   -3256.3086 
 5880000    214.93852   -4006.8789   -3638.4817   -4006.8789            0    3113.2941     17.57395    20.699792    21.440178    7799.4456    1479.0829    3437.3452    4423.4541   -892.70701   -114.31807   -609.23059   -3284.3541 
 5881000    224.49462   -4022.1658   -3637.3897   -4022.1658            0    2331.6884    17.516542    20.632173     21.37014     7723.261    1934.7603    1333.9027    3726.4024    592.60779   -193.65343   -421.08721    -3374.758 
 5882000    235.10989   -3983.8476   -3580.8773   -3983.8476            0    1259.7242    17.578368    20.704996    21.445568    7805.3296    1146.4317    981.58924    1651.1516     318.9033   -886.42918    313.97928   -3437.4794 
 5883000    225.04868   -4007.3838   -3621.6581   -4007.3838            0     2472.576    17.529134    20.647005    21.385503    7739.9296    2021.9075     1710.206    3685.6144   -871.39762    345.95522    647.68831   -3342.5564 
 5884000    220.58526   -4020.3295   -3642.2539   -4020.3295            0    2055.9201    17.563778     20.68781    21.427768    7785.9104    1941.8488     2735.109    1490.8024   -917.03956    1799.7442   -1495.8072   -3408.8052 
 5885000    216.55658   -4027.9117   -3656.7411   -4027.9117            0    1690.7036    17.571706    20.697149    21.437441     7796.459     2002.294    2449.9037    619.91305   -49.951919   -1242.3145    146.05627   -3464.5024 
 5886000    229.35548   -3997.5194   -3604.4119   -3997.5194            0    1632.7971    17.495157    20.606984     21.34405    7695.0085    1150.5979    1666.2177    2081.5757    386.98317   -95.444997   -953.83201   -3421.1732 
 5887000    230.32114   -4025.6346   -3630.8721   -4025.6346            0    2946.1143    17.474515     20.58267    21.318867     7667.803    4023.8138    2006.5506    2807.9786   -687.60956   -843.17307   -390.32644   -3301.4168 
 5888000    220.53895     -3983.34   -3605.3438     -3983.34            0    2622.9872     17.53903     20.65866    21.397575    7753.0447    2375.2525    2224.0296    3269.6795    1161.1168    287.83916    467.95627   -3308.7621 
 5889000    216.27278   -4018.7783   -3648.0941   -4018.7783            0    2904.1729    17.502613    20.615766    21.353147    7704.8514    3502.0079    1309.0809    3901.4298   -6.6249869    429.51466   -244.44387   -3321.7599 
 5890000    222.32887   -3997.6602   -3616.5961   -3997.6602            0    1801.0932    17.561635    20.685286    21.425154    7783.0609    2581.3994    1508.0729    1313.8073   -410.94629    304.80319   -782.15431   -3412.1577 
 5891000    226.37148   -4025.5928   -3637.5999   -4025.5928            0    1849.7872    17.523789    20.640709    21.378982    7732.8508    1788.3157    1500.0341    2261.0118    741.33034    700.21318    926.95044   -3428.9888 
 5892000    223.83378   -4004.2612   -3620.6178   -4004.2612            0    1325.6189    17.506727    20.620612    21.358167    7710.2862    684.83572    444.15326    2847.8676    479.23696   -308.22256    4.0239368   -3471.5564 
 5893000    203.18946     -3961.77   -3613.5102     -3961.77            0    3540.7001    17.435774    20.537039    21.271604    7616.9183     3159.734    3760.6997    3701.6668    488.69182     111.9167   -1052.3177   -3220.1917 
 5894000    212.41396   -3978.5344   -3614.4642   -3978.5344            0    3477.6402    17.442219     20.54463    21.279467    7625.3679    3606.9946    2613.1108    4212.8152     679.5035    173.22403   -357.41768   -3227.7222 
 5895000    235.95332   -4000.1008   -3595.6849   -4000.1008            0    1798.0181    17.459388    20.564853    21.300413     7647.908    1880.9241    2903.0519    610.07814   -609.93844    2.2102953   -622.93057   -3395.1395 
 5896000    233.04536   -4032.3083   -3632.8765   -4032.3083            0     2589.405    17.444923    20.547816    21.282766    7628.9154    4093.6041    2827.8562    846.75492   -331.88099    135.27798     159.9373   -3344.7795 
 5897000    218.54217     -4022.38   -3647.8062     -4022.38            0    2005.3589    17.512446    20.627348    21.365143    7717.8438    1573.7963     3561.939    880.34129   -483.59097    997.97402   -387.68505   -3422.0894 
 5898000    217.07102   -4022.7873   -3650.7349   -4022.7873            0    1785.9616    17.507772    20.621843    21.359441    7711.6666    3347.4472    2254.8519   -244.41435   -615.43085    697.49268   -526.94926   -3449.8737 
 5899000    228.27681   -3985.1098   -3593.8512   -3985.1098            0    2251.3018      17.4885    20.599142    21.335929    7686.2275    1567.7207      2906.22    2279.9646    359.20928     1912.204      156.018   -3341.4898 
 5900000    217.82402   -4007.8209    -3634.478   -4007.8209            0    2843.4354    17.440193    20.542244    21.276995    7622.7108    1549.7132    3819.1385    3161.4544    1118.6134    11.295575   -262.52326   -3318.3749 
 5901000    239.70907   -4015.1012    -3604.248   -4015.1012            0    1736.0806    17.535229    20.654184    21.392939    7748.0058    3149.3922    1060.1056    998.74402    1206.3319   -113.08386   -796.26345   -3408.0766 
 5902000    216.99702   -4022.2839   -3650.3584   -4022.2839            0    1515.8742    17.565008    20.689259    21.429268    7787.5461    1857.4893    1360.5811    1329.5523    140.51506     1390.214    368.25667   -3478.1955 
 5903000    233.17886   -4015.9198   -3616.2592   -4015.9198            0    3545.5793    17.457279    20.562369    21.297839    7645.1364    4187.1303    2777.3005    3672.3071    24.521997    45.948336   -130.84855   -3220.9396 
 5904000    227.66068   -4040.3576   -3650.1549   -4040.3576            0    2659.3398    17.523623    20.640513    21.378779    7732.6309    4048.0887    1964.3734    1965.5573    824.56651    269.21198   -791.58847   -3350.2546 
 5905000    220.80632   -4018.4342   -3639.9797   -4018.4342            0    3304.3746    17.549336    20.670799    21.410149    7766.7199     3938.575    3610.3391    2364.2097   -119.07409   -795.27978   -684.32094   -3265.6944 
 5906000    208.60022   -4029.0591   -3671.5254   -4029.0591            0     2617.956    17.555218    20.677728    21.417325    7774.5323    1120.2355    2872.9575    3860.6751   -333.42496   -992.41061    1367.7784   -3374.6922 
 5907000     215.0551   -4016.8323   -3648.2352   -4016.8323            0    2256.2259    17.594409     20.72389    21.465138    7826.7175    51.224126    3524.9052    3192.5484    636.71724    853.27782    1545.4298   -3390.6991 
 5908000    225.12175   -4035.1838   -3649.3329   -4035.1838            0    3251.9693    17.510291     20.62481    21.362515    7714.9961    2659.1512    3944.8339    3151.9228   -661.77281   -1082.1639    449.15766   -3283.4366 
 5909000    222.34895   -4031.2063   -3650.1079   -4031.2063            0     2845.245    17.556613    20.679371    21.419027     7776.386    2273.3019    3944.5867    2317.8463    19.536906    51.075448     508.1762   -3327.4269 
 5910000    235.63367   -4019.3604   -3615.4923   -4019.3604            0    4702.7608     17.46306    20.569178    21.304893    7652.7347    3400.7665    5166.7805    5540.7354   -239.65548   -679.78571   -2.9296181   -3090.6299 
 5911000    219.25879   -4046.6262   -3670.8242   -4046.6262            0    2755.3252     17.55221    20.674185    21.413655    7770.5362    3175.8037    1865.7023    3224.4696   -752.69915    295.30366    1562.9686   -3358.5761 
 5912000    216.07095   -4004.0354   -3633.6972   -4004.0354            0    3389.1001    17.494662    20.606401    21.343447     7694.356    3146.1069    2819.7847    4201.4088    659.69269   -981.27091     606.2708   -3253.3917 
 5913000    232.53616   -4021.9132   -3623.3542   -4021.9132            0    2062.5874    17.586609    20.714703    21.455623    7816.3131    2065.9704    3222.6582    899.13348    -706.8586   -102.03356    789.94198   -3388.2338 
 5914000    223.55614   -4030.4839   -3647.3164   -4030.4839            0    3522.6655    17.535101    20.654033    21.392783     7747.836    2933.6144    2821.2371     4813.145    2295.6844    109.89375    254.15554   -3249.2755 
 5915000    218.21061   -4010.0061   -3636.0006   -4010.0061            0    415.94627    17.649507    20.788787    21.532357    7900.4766    450.55077   -457.23833    1254.5264    1014.7818    1157.2823   -432.45111   -3588.0751 
 5916000    232.11844   -4009.1408   -3611.2978   -4009.1408            0    2729.2358    17.588797     20.71728    21.458291    7819.2303    1385.6106    4113.4214    2688.6755   -575.48772   -1288.1734   -107.12245   -3300.0681 
 5917000    218.45691   -4034.6604   -3660.2328   -4034.6604            0    2030.5048    17.553584    20.675804    21.415332    7772.3622    2241.6907     3500.056     349.7677   -605.47838    42.427913   -884.08358   -3430.0711 
 5918000    245.75576     -4016.85   -3595.6331     -4016.85            0    2778.9413    17.577463     20.70393    21.444464    7804.1247    4566.1489    2589.2287    1181.4463   -230.94343    519.23624     207.3655   -3279.3474 
 5919000    235.10066   -3982.7501   -3579.7956   -3982.7501            0      2682.42    17.587031      20.7152    21.456137    7816.8756    3883.1122    2884.6541    1279.4937    405.91565    170.39771    612.34253   -3273.9968 
 5920000    230.88604   -4009.5834   -3613.8526   -4009.5834            0    2117.5501    17.597962    20.728075    21.469473    7831.4601    2466.0493    1924.6707    1961.9303    634.96887   -386.91272    570.40272   -3371.9991 
 5921000    226.62504   -4012.3067   -3623.8792   -4012.3067            0    2401.3736    17.558957    20.682132    21.421886    7779.5007     3762.122    1599.6178    1842.3809    -191.9561   -1329.2493   -95.263038   -3351.4288 
 5922000    229.16457   -4036.1536   -3643.3734   -4036.1536            0    2896.5796    17.514218    20.629435    21.367305    7720.1868    2087.8158    2436.0364    4165.8865     -914.269   -308.47489    256.97908   -3317.2446 
 5923000    217.30783    -4016.771   -3644.3129    -4016.771            0    4211.3649    17.516292    20.631878    21.369835    7722.9299    5067.5886    3194.9401     4371.566   -179.74325    272.16392    1829.6732   -3169.9826 
 5924000    212.77329   -4021.1222   -3656.4361   -4021.1222            0    3642.3241    17.533671    20.652348    21.391038    7745.9404     3759.105    4742.9313    2424.9358    169.05235    -783.4125   -553.61753   -3244.9752 
 5925000    225.41444   -4019.2928   -3632.9402   -4019.2928            0    2714.6066    17.621491    20.755789    21.498178    7862.9146    3517.0725    2777.0427    1849.7045     839.9029    231.32499    487.28616   -3321.6494 
 5926000    223.83484   -4033.7449   -3650.0997   -4033.7449            0     1480.171    17.676271    20.820312    21.565009    7936.4731     1014.337    903.64348    2522.5326    -48.18283   -689.94035   -508.20686   -3478.7768 
 5927000    224.66293   -3993.5735   -3608.5089   -3993.5735            0    1126.0082    17.660049    20.801205    21.545219    7914.6426    810.04404    1556.4629    1011.5177   -877.87328    95.816658   -518.89144   -3478.5373 
 5928000    236.14377    -4016.964   -3612.2217    -4016.964            0     2500.845    17.598545    20.728762    21.470184    7832.2382    1036.2193    1374.2693    5092.0465   -46.894662   -113.92015   -1818.6134   -3326.5623 
 5929000    221.30084   -4008.8029   -3629.5009   -4008.8029            0    1083.5822    17.642788    20.780874     21.52416     7891.458    393.71246    1565.1308    1291.9034    462.69991   -307.58466    1023.4371   -3504.7927 
 5930000    217.91903   -3999.7176   -3626.2118   -3999.7176            0    1388.8117     17.61617    20.749521    21.491686    7855.7932    67.614948    1854.6935    2244.1266     1018.109    103.80732   -1345.0396   -3467.0975 
 5931000     216.5607   -3984.0087   -3612.8311   -3984.0087            0    3170.3113    17.491411    20.602572    21.339481    7690.0671    2595.5838    2751.9314    4163.4187    725.90547    2111.3665    574.62358   -3257.2751 
 5932000    226.82387   -3997.8296   -3609.0613   -3997.8296            0    4305.7155    17.499431    20.612018    21.349265    7700.6495    3320.1786     4823.603     4773.365   -1512.3081   -774.96125    1253.5566   -3125.5033 
 5933000    223.42049   -4039.0685   -3656.1334   -4039.0685            0    3340.0841    17.522296     20.63895     21.37716     7730.874    4029.4578    3321.1093    2669.6854    71.205441   -656.65147   -219.86506   -3279.5494 
 5934000    226.67007   -4045.8701   -3657.3654   -4045.8701            0    1737.5287    17.531651    20.649969    21.388573     7743.263    1730.9925    1690.7307    1790.8627    111.81511   -19.502719    6.7428359   -3461.1505 
 5935000    227.53991   -3999.6052   -3609.6096   -3999.6052            0    2992.4399    17.611995    20.744604    21.486593    7850.2097    3571.4537    2440.1809    2965.6852    74.195862    76.336158    282.55099   -3267.0134 
 5936000    229.34187   -4011.6618   -3618.5776   -4011.6618            0    2873.2989    17.594336    20.723804    21.465049    7826.6199    2843.0501     3180.196    2596.6505    407.77391   -188.81445   -594.05166   -3290.6101 
 5937000    216.82621   -4016.7669   -3645.1342   -4016.7669            0    1740.3788     17.57239    20.697954    21.438274    7797.3687    3571.7175    1510.8595     138.5595   -987.81964   -839.66651    1539.0651   -3447.2242 
 5938000    234.92486   -4010.9829   -3608.3297   -4010.9829            0    2808.4943    17.581679    20.708896    21.449608    7809.7413    3125.0574    1371.9913    3928.4342   -1324.6876   -1006.3627   -300.66685   -3288.4505 
 5939000    219.46177   -4043.0886   -3666.9387   -4043.0886            0    4417.4445    17.537492    20.656849    21.395699     7751.005    3884.1301    5353.0833    4015.1202    8.0065474   -2072.2971   -29.087716   -3167.5887 
 5940000     233.9595    -3986.309   -3585.3105    -3986.309            0    899.98975    17.613786    20.746713    21.488777    7852.6044    1529.3534    558.67052     611.9453    934.32553   -103.38074   -515.97696   -3482.2417 
 5941000    227.90298   -4011.6344   -3621.0165   -4011.6344            0     1676.681    17.512705    20.627654    21.365459    7718.1871    804.58399    2711.0725    1514.3865    111.54744    773.91112   -1291.3232   -3432.2862 
 5942000    227.41973    -4017.701   -3627.9113    -4017.701            0    3254.5426    17.607812    20.739677    21.481489    7844.6172    2032.1959    4452.6929     3278.739    131.85577   -772.05513   -1643.0723   -3255.5731 
 5943000    225.75713   -4017.1015   -3630.1615   -4017.1015            0    1829.7495    17.576336    20.702602    21.443089    7802.6231    2382.3342     1631.693    1475.2213   -127.75848   -224.42875    167.42444   -3421.9484 
 5944000    232.28744   -4013.3438   -3615.2111   -4013.3438            0    1237.4647    17.641095     20.77888    21.522095    7889.1868    1364.8315    137.49313    2210.0694   -656.19019   -208.82202   -291.40796   -3472.8337 
 5945000     216.1595   -4009.1334   -3638.6434   -4009.1334            0    1773.9602    17.604619    20.735916    21.477594    7840.3506    1123.2505    2179.1963    2019.4338   -1534.0496      669.465   -631.03546   -3435.8026 
 5946000    225.46313   -4025.0699   -3638.6338   -4025.0699            0    457.06149    17.595256    20.724888    21.466172    7827.8479   -1202.5831    952.31859    1621.4489    13.560546   -453.98183     330.5377   -3586.4552 
 5947000    224.15159   -4012.4515   -3628.2633   -4012.4515            0    1693.7367    17.578958    20.705691    21.446288     7806.116    1058.1237    1539.9038    2483.1825   -1180.3095     1072.055   -1914.7557   -3435.4412 
 5948000    223.07214    -4013.929   -3631.5909    -4013.929            0    1952.3155    17.636693    20.773694    21.516724    7883.2816    2125.7501    1584.4699    2146.7265    565.03441   -336.76636     38.54221   -3407.1341 
 5949000    235.25773   -4012.0258   -3608.8021   -4012.0258            0    922.37959    17.672369    20.815716    21.560249    7931.2181    1786.9611    794.07988    186.09775    563.97542    664.40077    420.73013   -3502.1117 
 5950000    221.61426   -4019.4331   -3639.5938   -4019.4331            0    3843.1336    17.584967    20.712769    21.453619    7814.1237     4042.724    3974.1536    3512.5231   -135.48376    1661.2695   -81.154652   -3201.6266 
 5951000    220.40065   -4002.2743   -3624.5151   -4002.2743            0    3677.9779    17.564562    20.688734    21.428725    7786.9532    3303.3934    3950.5897    3779.9504    227.94617   -227.68561    361.35578   -3206.8266 
 5952000     234.5768   -4028.6907   -3626.6341   -4028.6907            0    3194.8973    17.616875    20.750351    21.492546    7856.7362     3285.329    3057.2085    3242.1542   -990.57962    496.23669   -1044.8205   -3260.5549 
 5953000    222.10813   -4043.7033   -3663.0176   -4043.7033            0    1950.3297     17.63642    20.773374    21.516392    7882.9164    3085.4001    1709.3494    1056.2397     1206.096    1216.2252   -326.91377   -3438.7994 
 5954000    222.21291   -4023.8328   -3642.9675   -4023.8328            0     2546.159    17.615715    20.748985    21.491131    7855.1844    2384.5749    2941.7194    2312.1828    706.14646   -1456.7299    -143.7528     -3351.28 
 5955000    208.63937   -4015.9053   -3658.3045   -4015.9053            0     2745.919    17.611512    20.744035    21.486004    7849.5643    2942.1091    1811.6942    3483.9538   -289.59468   -124.46768   -596.29575   -3343.9576 
 5956000    217.29157   -4044.2261   -3671.7957   -4044.2261            0    2878.3023    17.609094    20.741187    21.483054    7846.3314    3455.5236    2127.4289    3051.9544    267.97677   -966.96944   -180.00837   -3342.4296 
 5957000    215.77079   -4007.7688    -3637.945   -4007.7688            0    986.10019    17.650355    20.789787    21.533392    7901.6167    1694.2804    155.75571    1108.2645    429.39549   -1292.5901    835.01977   -3524.3098 
 5958000    225.70714   -4019.3857   -3632.5314   -4019.3857            0    4673.6914    17.651521     20.79116    21.534815    7903.1824    4828.0437    2557.9502    6635.0802     807.9493    -1369.308    493.03927   -3093.8426 
 5959000    226.20131    -4033.859   -3646.1577    -4033.859            0    951.42467    17.651164    20.790739    21.534379    7902.7024    963.75764    1122.4472    768.06919    31.321078   -1272.9259    32.911907   -3536.5033 
 5960000    229.09534    -4020.583   -3627.9214    -4020.583            0    2931.7096    17.680864    20.825723    21.570613    7942.6617    4288.4982     3162.384    1344.2468    308.68113    685.69144   -575.15364   -3288.3252 
 5961000    229.76049   -4053.5666    -3659.765   -4053.5666            0    3421.0947    17.627734    20.763142    21.505794    7871.2745    1795.4391    3624.4197    4843.4252   -365.22549     180.1988    200.15391   -3267.0423 
 5962000    232.21443   -4045.3253   -3647.3177   -4045.3253            0    3847.5633    17.584647    20.712391    21.453228    7813.6963    4486.1483    3049.4947    4007.0469   -1424.3622   -642.17259    307.72067   -3208.8696 
 5963000    230.96039   -4022.6722    -3626.814   -4022.6722            0    2367.7989    17.585476    20.713368     21.45424    7814.8022    2858.7886    1807.6854    2436.9226     -624.866    -430.6284     1070.232   -3356.9539 
 5964000    220.94004   -4034.2796    -3655.596   -4034.2796            0   -853.47465    17.713414    20.864061    21.610323    7986.6081    -1351.426   -596.21203   -612.78587   -1415.2489   -15.724664   -415.73406   -3755.0057 
 5965000    216.15269   -4078.1267   -3707.6484   -4078.1267            0    1609.8663    17.646204    20.784897    21.528327    7896.0422     1761.488    1141.0066    1927.1044    -226.2891   -798.53519   -1156.1507   -3522.2631 
 5966000    213.67571   -4021.7483   -3655.5155   -4021.7483            0    2014.7388    17.611894    20.744485     21.48647     7850.075    1846.6874    2621.1205    1576.4086    253.10455    378.08822   -727.12107   -3424.8575 
 5967000    216.39908   -4036.1678   -3665.2672   -4036.1678            0     3742.591    17.535284    20.654248    21.393005    7748.0777    3213.4602    3424.5598     4589.753    354.31222    816.28178    158.66586   -3242.3628 
 5968000    226.98471   -4030.8554   -3641.8114   -4030.8554            0    3318.9746    17.616283    20.749654    21.491824    7855.9443    3127.3386    3478.8532    3350.7319   -57.113182    929.13642    682.78259   -3261.5535 
 5969000    224.12499    -4015.189   -3631.0464    -4015.189            0    2006.4011    17.656972    20.797581    21.541465    7910.5064    2626.1035    1441.8324    1951.2674    130.35674    314.70677    596.30623   -3399.5747 
 5970000    217.08782   -4043.8512   -3671.7701   -4043.8512            0    3010.2751     17.63392    20.770429    21.513341    7879.5641    2691.4818     2080.197    4259.1466    203.93343     1373.292   -1352.4502   -3325.8432 
 5971000    231.18691    -4041.114   -3644.8675    -4041.114            0    3263.5975    17.619263    20.753164    21.495459    7859.9317    2991.7798     3599.486    3199.5267    -162.4728    993.90605   -1507.1075   -3270.7645 
 5972000    214.58905    -4043.464   -3675.6657    -4043.464            0    3154.2402    17.662977    20.804654    21.548791    7918.5803    3921.0723     1509.354    4032.2942    1196.1715    497.43978   -871.47918   -3311.4002 
 5973000    219.35557   -4044.0026   -3668.0347   -4044.0026            0    2366.0261    17.683471    20.828793    21.573793     7946.175    2837.3224     2319.107    1941.6489    193.38786   -550.42061   -212.32728   -3393.8434 
 5974000     223.6683   -4022.8914   -3639.5316   -4022.8914            0    3435.5051    17.618684    20.752482    21.494753     7859.157    3611.5081     2605.104    4089.9031   -94.781161    194.19183   -433.78289   -3245.7617 
 5975000    230.68914    -4066.167   -3670.7737    -4066.167            0    3611.6547    17.619003    20.752858    21.495143    7859.5845    2952.4953    3432.2313    4450.2375   -179.05269     800.7217    1004.4915   -3256.7915 
 5976000    228.73142   -4039.4415   -3647.4037   -4039.4415            0    2302.5078    17.707465    20.857055    21.603066    7978.5648    1436.2883    1792.0084    3679.2267     253.1168    175.56483    942.54903   -3379.4858 
 5977000    234.32364   -3997.8857    -3596.263   -3997.8857            0    734.24768    17.707521    20.857121    21.603135    7978.6406    1381.4106    246.83742    574.49506    1320.0162    954.77782    423.79284   -3510.8257 
 5978000    223.84772   -3997.5816   -3613.9143   -3997.5816            0    3366.9796    17.583515    20.711058    21.451847    7812.1877    2435.4592    3861.6711    3803.8086   -187.78279   -170.03544    58.830119   -3230.3051 
 5979000      223.805   -4005.6163   -3622.0222   -4005.6163            0    2693.9688    17.653342    20.793305    21.537036    7905.6281     2344.722    2736.9843    3000.2002   -174.32078    1223.3271   -364.22292   -3311.4198 
 5980000    237.50461   -4003.5582   -3596.4835   -4003.5582            0    252.60719    17.655237    20.795537    21.539348    7908.1742     1053.907   -1249.8188    953.73341    182.06912   -552.76756    -2315.457   -3567.3496 
 5981000    227.78954   -3998.9852   -3608.5618   -3998.9852            0    4238.8605    17.584583    20.712316     21.45315    7813.6113    4363.0662    4232.3544    4121.1611   -456.06512   -926.25393   -248.45878   -3125.5287 
 5982000     217.5437    -4003.918   -3631.0555    -4003.918            0    2007.5633    17.639598    20.777116    21.520268    7887.1779    2031.2358    2748.7477    1242.7066     50.73654   -501.14939    595.01052   -3400.1328 
 5983000    222.21168   -4037.2696   -3656.4064   -4037.2696            0    1609.9258    17.501389    20.614325    21.351654    7703.2352    2334.2425    438.34933    2057.1856   -713.69118   -7.6496225   -816.85694   -3475.5413 
 5984000    243.55157   -4041.1557   -3623.7166   -4041.1557            0    2075.7117    17.608941    20.741007    21.482867    7846.1267    1024.2921    3255.2567    1947.5864   -416.08094    117.17763    874.19983   -3386.1977 
 5985000    217.99371   -4039.7682   -3666.1344   -4039.7682            0    1941.6834    17.537327    20.656655    21.395498    7750.7869    1727.7145    1721.7986    2375.5372    -851.9518    531.48942    375.03414   -3446.6518 
 5986000    222.65727   -4018.3801   -3636.7532   -4018.3801            0     3090.603    17.517654    20.633482    21.371496    7724.7315    3940.7952    2486.7198    2844.2939   -978.83018   -36.944087   -1114.2327   -3288.5743 
 5987000    243.11916   -4044.8488   -3628.1509   -4044.8488            0    2455.9428    17.568919    20.693866     21.43404    7792.7494    2875.3478    1789.1211    2703.3597    547.69276   -338.38757   -818.80146   -3349.0348 
 5988000    220.45438   -3997.4806   -3619.6293   -3997.4806            0    2467.6466     17.54916    20.670592    21.409934    7766.4865    4565.8795   -371.51514    3208.5753   -1141.2695    357.85871   -1222.7592   -3340.1282 
 5989000    226.43323   -4019.3369   -3631.2381   -4019.3369            0    709.24872    17.570674    20.695933    21.436181    7795.0847    441.52721    465.93028    1220.2887   -1021.8613    641.00437     1525.871   -3550.6083 
 5990000    228.39874   -4028.6235   -3637.1558   -4028.6235            0    3246.6884    17.515543    20.630996    21.368921    7721.9394     2773.669    2680.9948    4285.4015   -543.61308     429.8809   -367.12031   -3271.5249 
 5991000    226.29607   -4053.3783   -3665.5146   -4053.3783            0    2674.3677    17.537423    20.656768    21.395615     7750.914    2329.5753    1785.2872    3908.2407   -282.38388    413.04653   -675.11214   -3363.2064 
 5992000    232.13769   -4044.8063   -3646.9302   -4044.8063            0    1512.7394    17.580989    20.708083    21.448766    7808.8218    2108.8924   -414.12778    2843.4536   -1483.0081    777.22266   -784.47029   -3474.6539 
 5993000    237.47091   -4028.1358   -3621.1188   -4028.1358            0    1334.6471    17.600396    20.730942    21.472442    7834.7095    1286.4809    856.10928    1861.3512    830.73892   -244.22709   -662.60126   -3468.6204 
 5994000     238.3737    -4035.808   -3627.2436    -4035.808            0    3204.2651    17.511239    20.625926     21.36367    7716.2483    3934.4794     3349.111     2329.205    1552.7296   -627.47478    10.093435   -3266.6562 
 5995000    240.31281   -4026.0925   -3614.2045   -4026.0925            0    2779.2124    17.511246    20.625934    21.363679    7716.2576     3196.064    3789.8666    1351.7065   -1909.3895   0.40221517   -266.27392   -3301.4495 
 5996000     224.9282   -4025.3981   -3639.8788   -4025.3981            0    1587.6847     17.61364    20.746541    21.488599    7852.4089    1628.4004    1024.9657    2109.6879   -725.62804   -293.27837   -300.81256   -3458.0582 
 5997000    226.81476   -4032.2971   -3643.5443   -4032.2971            0    2450.9702    17.531514    20.649808    21.388407    7743.0826    3545.4047    2282.2227    1525.2832   -23.894701    -737.8781   -1150.1227   -3366.7687 
 5998000    232.05654   -4008.5903   -3610.8534   -4008.5903            0    3566.0067    17.551532    20.673386    21.412828    7769.6355    3295.7888    4225.1089    3177.1225   -1080.6592   -33.913409   -1735.8834   -3206.7814 
 5999000    218.16406   -4022.5631   -3648.6374   -4022.5631            0    2791.6607    17.524497    20.641542    21.379845     7733.788    4618.4682    1216.6597    2539.8542    723.83885    510.68064   -1209.5902   -3333.7678 
 6000000    230.89626    -3998.012   -3602.2637    -3998.012            0    401.70176    17.596483    20.726333    21.467668    7829.4853    693.92386   -766.34379    1277.5252   -1746.7142   -414.86874   -816.58548   -3556.3954 
Loop time of 412.274 on 64 procs for 250000 steps with 864 atoms

Performance: 104.785 ns/day, 0.229 hours/ns, 606.393 timesteps/s
99.1% CPU use with 64 MPI tasks x 1 OpenMP threads

MPI task timing breakdown:
Section |  min time  |  avg time  |  max time  |%varavg| %total
---------------------------------------------------------------
Pair    | 18.118     | 24.278     | 32.234     |  55.2 |  5.89
Bond    | 0.26863    | 0.28257    | 0.29406    |   1.1 |  0.07
Kspace  | 183.73     | 190.2      | 197.24     |  23.3 | 46.13
Neigh   | 3.0182     | 3.5371     | 4.0037     |  11.5 |  0.86
Comm    | 84.856     | 90.908     | 97.384     |  25.6 | 22.05
Output  | 1.2039     | 1.2068     | 1.2207     |   0.2 |  0.29
Modify  | 93.168     | 94.846     | 98.744     |  12.9 | 23.01
Other   |            | 7.019      |            |       |  1.70

Nlocal:        13.5000 ave          19 max           7 min
Histogram: 1 0 2 8 12 24 5 6 3 3
Nghost:        2060.05 ave        2118 max        2019 min
Histogram: 7 9 5 10 12 5 4 8 2 2
Neighs:        3946.55 ave        6206 max        1899 min
Histogram: 1 2 7 11 18 11 7 4 1 2

Total # of neighbors = 252579
Ave neighs/atom = 292.33681
Ave special neighs/atom = 2.0000000
Neighbor list builds = 9535
Dangerous builds = 0

unfix		3
unfix		2
unfix		1

write_data	data.final.${pid}
write_data	data.final.0
System init for write_data ...
PPPM initialization ...
  extracting TIP4P info from pair style
  using 12-bit tables for long-range coulomb (../kspace.cpp:340)
  G vector (1/distance) = 0.37285672
  grid = 24 24 25
  stencil order = 5
  estimated absolute RMS force accuracy = 0.0032313226
  estimated relative force accuracy = 9.7310321e-06
  using double precision FFTW3
  3d grid and FFT values/proc = 2730 288
Last active /omp style is kspace_style pppm/tip4p/omp
WARNING: Not all mixed pair coeffs generated from mixing. Use write_data with 'pair ij' option to store all pair coeffs. (../write_data.cpp:312)

write_restart   restart.lmp.${pid}
write_restart   restart.lmp.0
System init for write_restart ...
PPPM initialization ...
  extracting TIP4P info from pair style
  using 12-bit tables for long-range coulomb (../kspace.cpp:340)
  G vector (1/distance) = 0.37285672
  grid = 24 24 25
  stencil order = 5
  estimated absolute RMS force accuracy = 0.0032313226
  estimated relative force accuracy = 9.7310321e-06
  using double precision FFTW3
  3d grid and FFT values/proc = 2730 288
Last active /omp style is kspace_style pppm/tip4p/omp
Total wall time: 0:06:54
