LAMMPS data file via write_data, version 30 Jul 2021, timestep = 500000

864 atoms
2 atom types
576 bonds
1 bond types
288 angles
1 angle types

0.24564048534703886 17.961931914652325 xlo xhi
1.3808633153794112 22.248314484623478 ylo yhi
0.2996808183731723 21.91351498162763 zlo zhi

Masses

1 1.00794
2 15.9994

Pair Coeffs # lj/cut/tip4p/long/omp

1 0 0
2 0.21084 3.1668

Bond Coeffs # harmonic/omp

1 450 0.9572

Angle Coeffs # harmonic/omp

1 55 104.52

Atoms # full

83 1 1 0.5897 3.1400273465437243 7.141040427684824 2.0025125897928397 -2 -2 -5
532 1 2 -1.1794 1.1384254588268259 3.0359877270415967 4.398713795197719 -5 -2 -2
534 1 1 0.5897 0.9813525265584787 3.980168000742952 4.408132614961357 -5 -2 -2
533 1 1 0.5897 1.8876383719268819 2.911518908094037 4.98131236239625 -5 -2 -2
82 1 2 -1.1794 3.765652082693009 6.432777997186575 1.850207925909833 -2 -2 -5
171 1 1 0.5897 1.1825423596675155 6.595370815803776 4.70417272915267 -3 5 -1
323 1 1 0.5897 4.757316013330854 7.060717722372809 3.2221645365181093 5 -1 -2
322 1 2 -1.1794 5.102064587766387 7.265377354994094 4.091359892961826 5 -1 -2
43 1 2 -1.1794 1.9573304940643335 8.199294396218715 4.819302936591125 3 6 -1
753 1 1 0.5897 3.1606720908054293 3.2280406660810788 3.4429073379191872 3 2 0
84 1 1 0.5897 4.054038215541035 6.55760617710023 0.9460567551781454 -2 -2 -5
819 1 1 0.5897 5.429074119178896 3.131622192667323 2.4717362444900153 3 -1 0
751 1 2 -1.1794 3.549740284668635 3.5555202990912247 2.631978698192436 3 2 0
752 1 1 0.5897 3.5433645546896546 4.507654264975642 2.730153524248014 3 2 0
324 1 1 0.5897 6.048321155147484 7.14750598409004 4.008083165824221 5 -1 -2
41 1 1 0.5897 0.7269004216523242 4.748706007483511 1.5296911021120942 -1 0 5
257 1 1 0.5897 2.6559614692540925 3.8447732556427896 0.9966801901528197 -1 -1 0
44 1 1 0.5897 2.088965371310585 8.320084696012295 3.878919228960894 3 6 -1
574 1 2 -1.1794 3.615295435417321 3.0392773335928336 5.725774764468589 2 1 0
576 1 1 0.5897 3.723877694387172 3.990217670074983 5.738523911001585 2 1 0
207 1 1 0.5897 3.928333569170885 6.2758433937889695 5.358600108103532 -4 3 -3
205 1 2 -1.1794 3.835777529031971 5.595134357163991 6.02516423313372 -4 3 -3
206 1 1 0.5897 3.0580663408471973 5.849687160548754 6.521760304322709 -4 3 -3
575 1 1 0.5897 4.501762632142259 2.695025233794931 5.834891948534724 2 1 0
407 1 1 0.5897 1.4483934834789638 1.5331335512062898 3.2572011671953276 -6 -1 4
169 1 2 -1.1794 0.7367408273789309 5.758665722444668 4.572167987302775 -3 5 -1
170 1 1 0.5897 0.4400168178426223 5.785724616005263 3.6625182573187773 -3 5 -1
438 1 1 0.5897 5.419842328545796 5.615481377523412 7.348912595160349 0 5 0
579 1 1 0.5897 0.975736035734842 5.219128792980894 7.375940578147854 2 2 -1
120 1 1 0.5897 5.950887537369525 7.6687580992346485 7.459752052619036 3 -2 -1
610 1 2 -1.1794 6.203471114554593 2.3257143497760526 6.452209551993845 3 3 -1
612 1 1 0.5897 6.201470488766605 1.491831512559208 5.982247901641085 3 3 -1
818 1 1 0.5897 6.581474116500693 2.2129069222547777 2.1255374277543364 3 0 0
817 1 2 -1.1794 6.385074137493141 3.0952205896223006 2.4404828073977987 3 0 0
750 1 1 0.5897 7.083188123892 3.671619053363005 3.963549472788231 2 5 0
748 1 2 -1.1794 7.346152823633936 4.075433072765266 4.790599897474378 2 5 0
749 1 1 0.5897 7.516979861304866 4.990414775927183 4.567293054599413 2 5 0
8 1 1 0.5897 10.716806388741109 4.041459827575775 4.226769920260688 3 -1 0
7 1 2 -1.1794 11.07480612609744 4.510528007362537 3.4730853006713645 3 -1 0
9 1 1 0.5897 11.246308950790985 5.393857049522932 3.799514731020149 3 -1 0
382 1 2 -1.1794 7.7318617373413385 6.748795527993514 4.068585483785146 -9 -1 -2
383 1 1 0.5897 8.312904364071919 7.0112848688169 3.354631647020503 -9 -1 -2
384 1 1 0.5897 8.084176137538993 7.192398191588309 4.840159777863408 -9 -1 -2
850 1 2 -1.1794 11.904227981481087 7.051652308693538 4.564543474582815 -5 -1 -1
782 1 1 0.5897 9.094492032770447 3.3570270892742675 5.3929885854416515 -3 1 2
357 1 1 0.5897 7.503046101530697 7.412528436114872 0.8499532935392714 0 -2 4
72 1 1 0.5897 7.088793861283499 3.932031599672788 1.0811199453053373 4 4 -4
355 1 2 -1.1794 8.322122420675171 7.003312459892558 1.1290361420056572 0 -2 4
356 1 1 0.5897 8.223273587107133 6.081544951803021 0.8906800125460967 0 -2 4
852 1 1 0.5897 11.114487886189044 7.173982458995209 5.09140297293504 -5 -1 -1
695 1 1 0.5897 11.227223743198884 2.0017606899109035 0.9865894593578033 1 -1 0
611 1 1 0.5897 6.714210622600071 2.9136336049141756 5.895677939057808 3 3 -1
781 1 2 -1.1794 9.96687506402188 3.3402349590360263 5.786565916666858 -3 1 2
783 1 1 0.5897 9.898945545914899 3.919540157465825 6.545529206187824 -3 1 2
420 1 1 0.5897 9.482390598548196 6.79209974309155 6.636179047031173 -7 -3 5
266 1 1 0.5897 9.311528670407517 3.7565629694677947 0.7786106124015492 -4 0 -2
265 1 2 -1.1794 10.248357960877692 3.6218598111847946 0.9215928957354579 -4 0 -2
267 1 1 0.5897 10.400276991640562 3.9236800429410326 1.8171716177230988 -4 0 -2
804 1 1 0.5897 9.853947447276639 7.797408031907563 0.6393517465176473 4 2 -1
70 1 2 -1.1794 7.5630399270207755 4.3436488559283335 0.35869212803322714 4 4 -4
418 1 2 -1.1794 9.174361199237461 7.543613028824956 6.129640894733062 -7 -3 5
419 1 1 0.5897 9.122571654215541 8.25689299740285 6.765872313242174 -7 -3 5
802 1 2 -1.1794 10.640710563951318 8.28671911825612 0.3988947625761015 4 2 -1
425 1 1 0.5897 9.501777577574583 1.590551646922754 6.787816933273498 7 -3 1
332 1 1 0.5897 17.009324421765484 1.7418799538016436 4.459956323211677 -1 -1 -3
794 1 1 0.5897 12.624828956775376 2.303796359152944 6.6877763190836506 -4 1 5
40 1 2 -1.1794 17.93762400265205 5.454682329138703 1.9324785980067227 -2 0 5
851 1 1 0.5897 12.623332744545237 7.105003157652125 5.194053041628987 -5 -1 -1
23 1 1 0.5897 12.755153057509458 4.097852128794072 4.062990092742816 -3 4 2
22 1 2 -1.1794 13.61483980180078 4.066898316979669 4.482772770398649 -3 4 2
42 1 1 0.5897 17.02760186637706 5.252180323204957 1.7154880347930628 -2 0 5
24 1 1 0.5897 13.503977879190451 4.563321914918797 5.293639100469901 -3 4 2
27 1 1 0.5897 14.680941732904131 5.588820798103295 2.0980002205323234 -2 7 6
25 1 2 -1.1794 14.131982356358423 6.181383160529422 2.61157034617268 -2 7 6
613 1 2 -1.1794 15.370836722596735 8.332723672176844 3.616895499022971 -6 1 5
454 1 2 -1.1794 14.313146313326406 7.8636751738129815 6.18489068891949 1 -1 1
455 1 1 0.5897 14.808080075801511 8.314063930019191 5.500477434971285 1 -1 1
456 1 1 0.5897 14.659159658551562 6.971201898045727 6.1834470427445245 1 -1 1
615 1 1 0.5897 14.870884639954424 7.533093165366227 3.4529609603585794 -6 1 5
678 1 1 0.5897 16.94268330965563 5.570567202785041 5.661098353379845 1 0 -3
26 1 1 0.5897 13.622369331953223 5.6041333472338195 3.1801767579902718 -2 7 6
738 1 1 0.5897 14.084867932040263 2.6425966469263864 3.2764859819899086 1 -1 -1
441 1 1 0.5897 12.254717808702114 5.490101792165266 7.2773297125160985 0 0 0
439 1 2 -1.1794 12.98372148150962 4.946346362503482 6.97879687575357 0 0 0
478 1 2 -1.1794 15.853605244630652 3.0592347399541246 6.890478156445962 -4 3 -4
676 1 2 -1.1794 16.21157478276436 5.53089567438756 6.27765191288458 1 0 -3
480 1 1 0.5897 16.211112792322016 3.92762786515705 6.705236823216418 -4 3 -4
479 1 1 0.5897 16.07665355410021 2.5383156607849826 6.119029527453486 -4 3 -4
677 1 1 0.5897 16.36904776190818 6.254993335966692 6.8835592693255565 1 0 -3
736 1 2 -1.1794 14.242457149150553 1.9326929274180698 2.6540363084017797 1 -1 -1
737 1 1 0.5897 13.514322524352142 1.9899369150139985 2.0353476374968835 1 -1 -1
793 1 2 -1.1794 13.402997894521926 1.807687913008201 6.941866248312779 -4 1 5
795 1 1 0.5897 14.118299106092282 2.4419180547383603 6.893595408831633 -4 1 5
780 1 1 0.5897 17.523289936741605 8.187175062879163 0.3875176828336616 -2 1 0
203 1 1 0.5897 13.488462654468469 7.326319454683272 1.2811371226364519 -5 2 2
697 1 2 -1.1794 15.52135628995576 4.293723557952193 1.206091350257131 -2 3 -2
698 1 1 0.5897 15.17113091370487 3.443022590261314 1.4704583940603537 -2 3 -2
204 1 1 0.5897 12.426454581581217 8.017392543439643 0.4526306281599526 -5 2 2
202 1 2 -1.1794 13.374953470751276 7.9293607433740245 0.5464993494263753 -5 2 2
491 1 1 0.5897 1.3588091448995552 8.759597163369314 1.8737421540750074 2 3 4
490 1 2 -1.1794 2.2553716961132877 8.809884176161017 2.2052259769141713 2 3 4
45 1 1 0.5897 1.13048088661106 8.644347976516048 5.0050096655429686 3 6 -1
492 1 1 0.5897 2.3776950646289006 9.732871288164716 2.427385051508882 2 3 4
433 1 2 -1.1794 1.4221442952165224 11.618123062036506 3.3335104019833133 0 2 -1
428 1 1 0.5897 3.561038616726872 13.169034906083278 1.531508133056546 1 0 -3
427 1 2 -1.1794 3.138486017294829 13.950068268037287 1.1741992920600257 1 0 -3
434 1 1 0.5897 0.5372538062018526 11.983012944780002 3.325502009160076 0 2 -1
435 1 1 0.5897 1.7336785616551116 11.724338211644982 2.434674701238641 0 2 -1
330 1 1 0.5897 4.23904713971689 10.072760802958356 4.902802711983715 2 4 0
328 1 2 -1.1794 4.824386759254465 10.058278200339112 4.145565819489741 2 4 0
131 1 1 0.5897 2.8221013352532416 12.375226179885649 4.665307215101899 -5 1 1
130 1 2 -1.1794 3.5141558539581936 12.771559211959335 5.194637884181456 -5 1 1
59 1 1 0.5897 4.840514313770487 11.058222331319051 2.492055358836889 2 -1 -1
58 1 2 -1.1794 4.4586630758471975 11.557376957466774 1.7700630486577298 2 -1 -1
60 1 1 0.5897 4.698630430493861 11.065376696682646 0.9848293744837291 2 -1 -1
132 1 1 0.5897 3.3947229053840364 13.714212779383436 5.078965207951625 -5 1 1
567 1 1 0.5897 1.6363597120179736 14.477208476177351 2.0387088352112768 0 5 -6
429 1 1 0.5897 3.7038924819748242 14.673656734535854 1.444331885840151 1 0 -3
168 1 1 0.5897 2.7819678714891265 9.007042089054831 6.404327824449999 -3 0 2
166 1 2 -1.1794 3.4884718316436194 9.629214485729374 6.577500956310225 -3 0 2
167 1 1 0.5897 3.044127637457613 10.413186662212972 6.900255147427229 -3 0 2
98 1 1 0.5897 2.4922432469402636 12.243723481752053 6.754291321247875 2 -7 6
391 1 2 -1.1794 5.762474990280038 14.839018540129787 7.127345286263381 3 -3 -1
329 1 1 0.5897 4.89976050864767 9.131531823280358 3.918191218094252 2 4 0
3 1 1 0.5897 5.448308940510779 12.567832275380846 5.13779366867488 1 -7 3
51 1 1 0.5897 5.847703640465546 12.683779548297316 1.313716743056362 7 0 -1
515 1 1 0.5897 1.795848330011435 15.215440714974637 3.832074032096615 -4 -4 0
565 1 2 -1.1794 0.8761490515885215 15.002537496312806 2.288405903243349 0 5 -6
118 1 2 -1.1794 6.031515674723764 8.622480399085322 7.4474619803595115 3 -2 -1
119 1 1 0.5897 5.142812111082009 8.936318204520232 7.280285005660117 3 -2 -1
2 1 1 0.5897 6.213633762592173 13.52897306742475 6.022322590112325 1 -7 3
1 1 2 -1.1794 6.3362020231747636 12.817475312157145 5.393849663810847 1 -7 3
138 1 1 0.5897 11.545111706094458 8.431353658128113 3.3733974063620997 7 -6 1
137 1 1 0.5897 11.250695412000237 8.984359107327343 1.995202179031171 7 -6 1
657 1 1 0.5897 7.626819914658295 9.854812283689991 0.8630415100997852 2 2 1
655 1 2 -1.1794 6.887776922764045 9.500259081017381 1.357352744079576 1 2 1
525 1 1 0.5897 9.729247175846467 10.069995396935683 3.0351197768930835 1 1 3
523 1 2 -1.1794 8.95616347680707 10.622781529179669 3.149148468198626 1 1 3
524 1 1 0.5897 8.45809225572847 10.197750227514904 3.8473681836348743 1 1 3
32 1 1 0.5897 8.083194508108665 12.588596148002917 6.059293589827571 3 6 1
553 1 2 -1.1794 10.44393715107095 12.614006545978722 1.8126844698732383 -5 -5 3
555 1 1 0.5897 9.869838276296798 12.171765541393931 2.438043214150341 -5 -5 3
31 1 2 -1.1794 9.030151814238106 12.699340870373742 6.14441929692192 3 6 1
726 1 1 0.5897 10.803051535830749 10.438538128266497 4.709430794937148 0 -5 3
50 1 1 0.5897 7.248785955404457 12.5468471150015 0.7568183031108534 7 0 -1
49 1 2 -1.1794 6.595138103724768 13.198761817817221 1.0097854604843517 7 0 -1
294 1 1 0.5897 7.054398148324024 14.113174673160177 2.380905532716352 -2 -2 2
292 1 2 -1.1794 7.321473564072275 14.504625336796584 3.2125745592211365 -2 -2 2
293 1 1 0.5897 7.245799107370352 13.792855682877361 3.848100295326955 -2 -2 2
656 1 1 0.5897 7.097809994180809 9.689525606882551 2.2718480466834308 1 2 1
136 1 2 -1.1794 11.371710607000576 9.249102148146807 2.90707215440895 7 -6 1
554 1 1 0.5897 10.82499715579341 11.905428590587302 1.2940797385555127 -5 -5 3
537 1 1 0.5897 9.88896800809842 14.357135702173945 1.1033649282639937 5 5 3
33 1 1 0.5897 9.397164718330282 11.869338301195263 5.840059391722418 3 6 1
859 1 2 -1.1794 7.30825569712817 9.848324793169532 5.400409036137389 -1 -2 0
860 1 1 0.5897 6.490920670973022 10.27322489289841 5.140297513997091 -1 -2 0
724 1 2 -1.1794 11.034424467488167 10.64350380017567 5.615350752541916 0 -5 3
230 1 1 0.5897 9.88270236092589 13.739846392386898 4.5721097523355185 1 3 2
725 1 1 0.5897 11.83720638421005 11.160316748122515 5.54696208183848 0 -5 3
231 1 1 0.5897 11.240860120763156 13.929658858924679 3.9307966873343894 1 3 2
229 1 2 -1.1794 10.523103726611678 14.412528671043475 4.3405500767207785 1 3 2
422 1 1 0.5897 10.162346274635713 10.339111694675006 7.274756857570585 -4 1 4
861 1 1 0.5897 7.048298968569602 9.22015301095523 6.074246961084753 -1 -2 0
535 1 2 -1.1794 9.80156626156701 14.962916386326803 0.36741030995565693 5 5 3
614 1 1 0.5897 15.71185148457997 8.582842633851572 2.7581831184506407 -6 1 4
778 1 2 -1.1794 17.34583168978774 8.6731068091396 1.192886386584416 -2 1 0
644 1 1 0.5897 17.916640584336957 14.777546670566705 5.1769561754327285 2 -2 -1
68 1 1 0.5897 17.35522066192057 10.415905554179165 4.633320689512632 4 -2 -3
779 1 1 0.5897 16.876562245528913 9.455313029436768 0.9027603266063203 -2 1 0
67 1 2 -1.1794 17.129703373791326 9.643935353624677 5.152401251316687 4 -2 -3
115 1 2 -1.1794 16.534587849911723 12.520791104099315 3.686432535870193 -3 -3 4
117 1 1 0.5897 16.89611164595965 13.104972813969061 4.35296800820386 -3 -3 4
66 1 1 0.5897 13.246732891233645 11.301209797158682 1.3777537658920072 3 1 -2
69 1 1 0.5897 16.55692468374475 9.130575596740044 4.582640183176301 4 -2 -3
65 1 1 0.5897 13.598922914554741 10.705276983633842 2.724134362547646 3 1 -2
64 1 2 -1.1794 13.79804401265508 11.442759760921119 2.1473365445009547 3 1 -2
302 1 1 0.5897 13.439316571207925 12.816328064676043 5.282995955969454 -3 1 7
483 1 1 0.5897 17.090212211586504 14.46531757032159 1.470078207021596 -1 2 -1
481 1 2 -1.1794 16.203015564965874 14.120722860917565 1.368215236708466 -1 2 -1
482 1 1 0.5897 16.084722279112 14.038375102340273 0.4219247713745824 -1 2 -1
116 1 1 0.5897 16.308046057472293 13.098929626374424 2.957958087020406 -3 -3 4
503 1 1 0.5897 16.61334584500173 11.640786202905314 0.4435162178786419 -4 2 4
562 1 2 -1.1794 13.243005409148607 13.549631474654657 3.53266208385141 1 1 4
301 1 2 -1.1794 13.368509113562617 12.55979191276788 6.202460161447968 -3 1 7
303 1 1 0.5897 13.221060442141248 13.38176224242755 6.670282451230968 -3 1 7
563 1 1 0.5897 13.54545160286436 14.339947319167857 3.0852615535177064 1 1 4
643 1 2 -1.1794 17.172601593180744 14.383589967120528 5.632414562862698 2 -2 -1
645 1 1 0.5897 16.541363738212137 15.097429575371443 5.723038611449516 2 -2 -1
564 1 1 0.5897 13.491779601068652 12.833168633171283 2.948681853872109 1 1 4
681 1 1 0.5897 17.417428098655314 13.429344905973117 7.315196228352119 -7 -5 0
504 1 1 0.5897 15.373343310445648 11.14693337134731 1.1579502905292454 -4 2 4
502 1 2 -1.1794 15.97053448957778 10.931542979431166 0.4415647239972971 -4 2 4
104 1 1 0.5897 15.025409368433175 15.250002937401844 2.0629592080304318 2 0 5
348 1 1 0.5897 17.50652420585365 9.825703075606164 6.8966621586329016 -4 3 -4
514 1 2 -1.1794 2.1703265967917766 15.451380757561799 4.680801962557116 -4 -4 0
561 1 1 0.5897 2.5509967859489917 16.053826411215937 7.321154802793246 4 0 2
309 1 1 0.5897 5.760658979261946 15.98564052591915 1.634840211295072 2 4 -1
516 1 1 0.5897 2.9286423664806938 15.994521178933251 4.46588593002071 -4 -4 0
222 1 1 0.5897 5.132731771425225 17.236680507457315 4.940357118851944 3 -3 3
623 1 1 0.5897 4.4229574657379045 20.486853079334264 4.479776514717996 5 -2 2
622 1 2 -1.1794 3.6788093812818694 20.011043339257043 4.110874413461126 5 -2 2
566 1 1 0.5897 1.0387747008564947 15.860989461442912 1.8974416411957467 0 5 -6
825 1 1 0.5897 2.2970195514365273 18.13035219622804 1.3378116342590507 -1 3 2
408 1 1 0.5897 2.2997441920495225 21.150298395410942 3.3196835796321986 -6 -2 4
406 1 2 -1.1794 1.4306269601263293 21.462467305967824 3.067837400779196 -6 -2 4
624 1 1 0.5897 3.9753802242543603 19.73738453632177 3.2428904748181666 5 -2 2
314 1 1 0.5897 5.036742747724451 18.357702758007353 6.838224664731905 -1 -1 -1
39 1 1 0.5897 4.37017863579368 17.812959376171676 1.6739753146708836 0 2 -2
37 1 2 -1.1794 4.135898869646229 18.736171007017216 1.7689857708701493 0 2 -2
38 1 1 0.5897 4.363242557814443 19.129390290614214 0.926415948550606 0 2 -2
823 1 2 -1.1794 1.4692758545933409 17.690918560461718 1.532668303238995 -1 3 2
824 1 1 0.5897 0.8187600786868803 18.162997289969404 1.0128543587282683 -1 3 2
273 1 1 0.5897 1.0981868004933584 18.393026642278993 5.428281260767091 -1 2 4
809 1 1 0.5897 0.6481234385080233 18.39979484193132 3.1503136216322334 3 0 -1
220 1 2 -1.1794 4.705218279220759 16.432077905377643 4.646967357007753 3 -3 3
810 1 1 0.5897 0.8828892534954895 19.770372266842905 3.748901647987676 3 0 -1
808 1 2 -1.1794 0.31532869595584945 19.00245734632509 3.8153569733917823 3 0 -1
307 1 2 -1.1794 4.831195363747305 16.02758888326307 1.8597221757378701 2 4 -1
246 1 1 0.5897 1.879983715329529 21.116621663914987 1.3334228182813455 -3 2 0
308 1 1 0.5897 4.818528025180811 16.112242950099034 2.8130908428060333 2 4 -1
313 1 2 -1.1794 4.163180306695254 18.533352490777606 7.187901446788123 -1 -1 -1
272 1 1 0.5897 2.357029616262537 18.495781325971866 6.262935750530976 -1 2 4
271 1 2 -1.1794 1.4214245489797013 18.30327632038244 6.324769467102193 -1 2 4
221 1 1 0.5897 5.076698762318338 15.746670846708756 5.202358028421566 3 -3 3
639 1 1 0.5897 0.675925047819645 20.032237382789045 6.573308993330308 -6 1 4
638 1 1 0.5897 1.265676640742741 21.204156442051147 7.328759810788498 -6 1 4
637 1 2 -1.1794 0.4890909937869751 20.932491741305096 6.839522329480233 -6 1 4
244 1 2 -1.1794 2.1388388480513263 20.979442840866255 0.4221505556742169 -3 2 0
773 1 1 0.5897 9.064298494734638 21.616391641634987 2.8384740546431217 2 -5 3
694 1 2 -1.1794 11.887399394273846 22.18595369275592 1.103065716642329 1 -2 0
772 1 2 -1.1794 8.893353560112434 21.636450749993177 3.7800760936960964 2 -5 3
791 1 1 0.5897 7.572583991418966 16.36256383258827 3.5515494618747576 2 4 0
458 1 1 0.5897 7.442833800602159 21.86158123918072 0.4039050809306468 -1 0 -2
792 1 1 0.5897 8.699444953346937 17.221455589510718 4.084845544408717 2 4 0
790 1 2 -1.1794 7.792904709867436 17.265435129799148 3.780721836824294 2 4 0
608 1 1 0.5897 6.519308146906494 20.14820361084693 5.121756641418735 4 3 2
459 1 1 0.5897 6.9662562339616505 20.639483482857752 1.1597244546503018 -1 0 -2
609 1 1 0.5897 7.27715682995051 21.217314288288943 4.363742468912774 4 3 2
607 1 2 -1.1794 6.399218513390848 20.978761261820647 4.661329390318829 4 3 2
144 1 1 0.5897 7.045013657679124 17.98648434409706 5.226468771861347 0 4 4
142 1 2 -1.1794 6.418529460917321 18.376813650166834 5.835895093683113 0 4 4
159 1 1 0.5897 8.843622766694589 19.087368089348573 1.4731746313401954 3 1 -1
157 1 2 -1.1794 7.902476027920706 18.930387101105637 1.5495518366019616 3 1 -1
158 1 1 0.5897 7.82055129643599 18.31107200141052 2.274794818858496 3 1 -1
463 1 2 -1.1794 10.613201739249243 19.629578047989916 1.6212969378674873 6 2 -1
143 1 1 0.5897 6.952616636433088 18.66974102871658 6.574259495034906 0 4 4
774 1 1 0.5897 9.652482526964771 21.203924876645235 4.17107641486075 2 -5 3
447 1 1 0.5897 7.813157796855363 17.306783860575432 0.5882002185886468 4 -2 0
464 1 1 0.5897 10.923983461765296 19.12958714111836 0.8665433596297764 6 2 -1
457 1 2 -1.1794 6.788529373339367 21.572379049637398 1.0398984575138268 -1 0 -2
696 1 1 0.5897 11.38678516472263 21.37051732993204 1.1293139086630843 1 -2 0
652 1 2 -1.1794 10.8495827531859 20.136460014188327 4.939337949970069 -2 -1 0
321 1 1 0.5897 11.429144857364344 17.582639464836717 6.063326987522077 1 -2 2
424 1 2 -1.1794 9.467150103431324 21.55406575434993 7.100740296067417 7 -4 1
426 1 1 0.5897 10.013841190725332 21.06587297549883 6.4850876227741034 7 -5 1
319 1 2 -1.1794 11.896823116265965 17.438055580064145 6.885891435573196 1 -2 2
654 1 1 0.5897 10.789574017617921 19.27900391406677 4.51814886810839 -2 -1 0
465 1 1 0.5897 11.237255741152907 19.42548947592414 2.317820936118322 6 2 -1
765 1 1 0.5897 10.53169782466142 16.22749319462585 4.29660644892281 -4 0 -3
763 1 2 -1.1794 10.757566536893416 17.156768118540377 4.337506306323864 -4 0 -3
764 1 1 0.5897 11.32477998393551 17.299452496737395 3.579779584928267 -4 0 -3
653 1 1 0.5897 11.752057483999794 20.41637342598646 4.7862964714227 -2 -1 0
446 1 1 0.5897 8.43792178056204 15.928999421248776 0.6455909328404053 3 -2 0
445 1 2 -1.1794 7.595319421416493 16.375108782092585 0.5604688794627721 3 -2 0
331 1 2 -1.1794 16.42618763911606 22.09043812634573 5.013978825650559 -1 -2 -3
275 1 1 0.5897 13.729421851425798 21.733459442747236 3.902155929747239 -1 2 -3
276 1 1 0.5897 13.33388968863993 21.786894441969583 5.362502883510011 -1 2 -3
789 1 1 0.5897 15.525465192821523 22.03058412676186 0.3972870215573839 2 -1 7
333 1 1 0.5897 17.013242330930993 21.531087097653778 5.522635579080603 -1 -2 -3
320 1 1 0.5897 12.573165451743305 18.11525374381412 6.899658091257957 1 -2 2
787 1 2 -1.1794 16.191288646024848 21.842322762709998 1.0587011998625289 2 -1 7
788 1 1 0.5897 15.78620279686599 22.099416094065614 1.886977322332616 2 -1 7
240 1 1 0.5897 13.121554081803147 15.822568296126528 0.8021323413380294 -4 -5 0
291 1 1 0.5897 14.86496483300298 20.041229916334952 4.200268900324642 -7 -6 -6
289 1 2 -1.1794 15.214822827620514 19.15407239825937 4.282673080581862 -7 -6 -6
290 1 1 0.5897 16.162126255904237 19.260685169173748 4.19626535438039 -7 -6 -6
620 1 1 0.5897 13.343476147184976 18.76122125620711 2.0070192277270538 0 -2 3
621 1 1 0.5897 13.519657838426903 18.6097468182345 3.502991856361498 0 -2 3
619 1 2 -1.1794 12.852376409150814 18.62242498821153 2.8168323564615285 0 -2 3
212 1 1 0.5897 15.585833547949145 17.092901933817338 5.222988072511029 1 1 3
211 1 2 -1.1794 15.624275719235147 16.811167089444222 6.136983711123047 1 1 3
213 1 1 0.5897 14.990665132380862 17.36982586427473 6.58716702820486 1 1 3
103 1 2 -1.1794 14.204781805763002 15.70588213335315 2.249993845766343 2 0 5
105 1 1 0.5897 14.469384027699755 16.603472996410353 2.451375075246232 2 0 5
378 1 1 0.5897 14.577337766912946 19.138351592623266 6.0243520370008286 2 4 3
376 1 2 -1.1794 14.122224882042183 19.119260429365955 6.866222777058136 2 4 3
274 1 2 -1.1794 13.415654268242168 21.1859852787172 4.621921021634746 -1 2 -3
183 1 1 0.5897 12.540811566169442 15.761391278884528 7.392958479034549 -4 1 -2
377 1 1 0.5897 14.715395296853918 19.56643615928353 7.469897550661522 2 4 3
91 1 2 -1.1794 17.160373194557906 19.21009761194076 0.3982779068685792 0 -6 2
92 1 1 0.5897 17.227469685945824 20.134181018237097 0.6387061715889649 0 -6 2
547 1 2 -1.1794 14.350112388656743 19.027656239031383 0.685032306215051 3 -1 5
93 1 1 0.5897 16.23564345707789 18.996344786322744 0.5224618867955965 0 -6 2
548 1 1 0.5897 14.338090320514096 19.9800619370496 0.5900855018964615 3 -1 5
806 1 1 0.5897 3.3867699057327525 3.3178902322454453 7.63969546371198 1 -2 -3
578 1 1 0.5897 1.7359835469007727 5.968143527391071 8.44967201543393 2 2 -1
807 1 1 0.5897 2.0855424512467926 3.476775336072473 8.3969684821077 1 -2 -3
805 1 2 -1.1794 3.020444390701213 3.315358822299455 8.524019455429961 1 -2 -3
592 1 2 -1.1794 1.2525860644447577 5.974160246535939 10.30976529352537 0 -1 -3
577 1 2 -1.1794 1.552815742134565 5.970926033988412 7.510162196243635 2 2 -1
35 1 1 0.5897 3.6639654872211556 3.1575077781996606 10.473759824534726 -5 2 -2
47 1 1 0.5897 4.693923341060296 6.207787270809369 10.573781965076803 3 -2 -2
34 1 2 -1.1794 4.487426827861571 2.929539998759541 10.905230696111706 -5 2 -2
36 1 1 0.5897 5.016124875820302 2.52730698661608 10.216083192814736 -5 2 -2
594 1 1 0.5897 1.2677642448938802 5.219732357564244 10.89869725163174 0 -1 -3
284 1 1 0.5897 1.023479504229445 3.950748993509883 13.132578103790143 4 0 -3
283 1 2 -1.1794 1.59723745050543 3.8139062679841245 12.378710119711354 4 0 -3
285 1 1 0.5897 1.466205727202132 2.896024533888329 12.140878596127209 4 0 -3
10 1 2 -1.1794 5.22439759128951 5.844686617274347 14.169711090587647 -3 0 5
11 1 1 0.5897 4.839650902717817 4.969266953731228 14.12684696193655 -3 0 5
12 1 1 0.5897 5.878752774657989 5.8537217511171695 13.47116091014002 -3 0 5
692 1 1 0.5897 2.649666165659114 6.8132783780811055 10.585832476411747 1 0 3
691 1 2 -1.1794 3.4034483251191654 7.345360655792725 10.840668780812752 1 0 3
593 1 1 0.5897 0.568739139531492 6.542071085759863 10.664830078991466 0 -1 -3
219 1 1 0.5897 3.6714105035914537 7.069362458423223 13.969971185688708 5 0 -2
662 1 1 0.5897 5.289478433260362 2.116158576196808 14.092686416902186 -2 -4 1
512 1 1 0.5897 1.2985208674191164 7.789940047382478 13.907307660538468 -1 1 -4
511 1 2 -1.1794 0.3714855371032143 7.587964524466883 14.033968566217837 -1 1 -4
123 1 1 0.5897 2.621701227244987 1.7339841160496003 8.745348711664786 1 -2 0
437 1 1 0.5897 6.04255970098489 5.808820843452205 8.715204387340833 0 5 0
48 1 1 0.5897 5.028334204482806 4.737158303932645 10.442111103824677 3 -2 -2
46 1 2 -1.1794 5.391374695684033 5.611558307958135 10.301178492655904 3 -2 -2
572 1 1 0.5897 6.1494796343514535 1.7495839639243487 8.273270378397978 1 -2 -3
100 1 2 -1.1794 0.2995862968326305 3.434870629337928 8.487234296899219 5 -5 -1
693 1 1 0.5897 3.3337634359874095 7.419985206498634 11.79241271709816 1 0 3
217 1 2 -1.1794 3.0941251614336687 7.811910302641101 13.792205446198295 5 0 -2
571 1 2 -1.1794 5.928690749528091 1.4999067157912502 9.170573976929944 1 -2 -3
218 1 1 0.5897 3.1115288131970518 8.327783123699366 14.598312174221858 5 0 -2
727 1 2 -1.1794 10.933882220130023 6.304859570242534 8.047041449534877 -1 2 0
729 1 1 0.5897 10.408105761938579 5.692885744854752 8.562098757339037 -1 2 0
436 1 2 -1.1794 6.227061170797768 5.896157116272251 7.780020362744639 0 5 0
651 1 1 0.5897 7.24391271440801 5.974821473588643 11.556164408550814 1 -1 0
508 1 2 -1.1794 8.606029627562656 4.610951320793548 8.146755221147593 4 0 3
510 1 1 0.5897 7.835208052069946 5.08408520821436 7.833369256666981 4 0 3
509 1 1 0.5897 8.284846719924465 4.089356950906177 8.882294928207578 4 0 3
728 1 1 0.5897 11.272583414175681 6.929243783285982 8.688651974560852 -1 2 0
16 1 2 -1.1794 8.410500980891868 2.627464684854326 10.024200769604036 -2 3 3
18 1 1 0.5897 8.208537324531335 2.763526268450474 10.949903589731568 -2 3 3
17 1 1 0.5897 7.596017713699463 2.294648140588734 9.647282832396938 -2 3 3
139 1 2 -1.1794 10.774318419939165 5.1364437566547 10.697308638254738 -1 -2 0
140 1 1 0.5897 11.700336200723022 5.378018773496676 10.716635509203142 -1 -2 0
141 1 1 0.5897 10.776667753206967 4.180600625148937 10.646335167601721 -1 -2 0
658 1 2 -1.1794 12.048715136943063 7.8346015692776705 10.048099923132567 1 0 2
649 1 2 -1.1794 7.358843333143683 6.238839165656448 12.469023544596208 1 -1 0
650 1 1 0.5897 8.30563153320564 6.332113649794739 12.574495076385464 1 -1 0
821 1 1 0.5897 7.43799204142229 3.4293634644755477 13.103654826235891 2 3 4
387 1 1 0.5897 9.992693346951526 2.775621811642926 13.4124594479929 -5 1 1
526 1 2 -1.1794 10.250324868779469 6.752960143403365 12.726730272996386 -3 -5 1
528 1 1 0.5897 10.467042921457892 6.397763062756803 11.864706525066659 -3 -5 1
820 1 2 -1.1794 8.16298340326573 2.8439077936710015 12.884908971242421 2 3 4
527 1 1 0.5897 10.336981955294792 7.700731831555278 12.624476499854177 -3 -5 1
705 1 1 0.5897 10.701454526824545 5.919203860487369 14.1988063194308 2 -2 -1
386 1 1 0.5897 11.363220556049725 2.866459311495313 12.775813632786452 -5 1 1
385 1 2 -1.1794 10.924799217263653 2.8207962923828367 13.625482766454924 -5 1 1
822 1 1 0.5897 7.84132332828346 1.9701883060500636 13.107140625772075 2 3 4
659 1 1 0.5897 11.942108491125367 8.263284051003883 10.897279447488804 1 0 2
704 1 1 0.5897 10.979667331585077 4.4653740695955975 14.516405398239032 2 -2 -1
197 1 1 0.5897 6.834273800822788 8.101324078923366 12.441833892619433 -2 -2 0
440 1 1 0.5897 13.614324003551063 4.974251511611792 7.6983798118069195 0 0 0
215 1 1 0.5897 17.925914883990703 5.874266125506867 14.67773971819696 -1 1 2
758 1 1 0.5897 16.827716429856363 8.204356734273585 8.419402411476476 0 1 2
282 1 1 0.5897 13.954572400348113 5.411152151452336 10.720007617723697 -3 0 1
757 1 2 -1.1794 16.720210912938434 7.2532317341229735 8.425908255397893 0 1 2
759 1 1 0.5897 17.61348980154761 6.910541615269815 8.396656923865644 0 1 2
674 1 1 0.5897 15.576289192505534 5.861013115131499 9.023677930181595 -4 -1 -1
102 1 1 0.5897 17.439295396785433 3.222485527961021 7.753291484160966 4 -5 -1
280 1 2 -1.1794 13.468043030330623 5.2343593576304555 11.525162198710309 -3 0 1
101 1 1 0.5897 17.467621137145326 3.321735386028545 9.263670702547223 4 -5 -1
718 1 2 -1.1794 16.063609615095544 3.0448177793436297 10.46642277140591 4 5 0
720 1 1 0.5897 15.46950110045676 2.2996837518476196 10.556148782693107 4 5 0
281 1 1 0.5897 13.596912390002126 6.017469440845384 12.060293925246237 -3 0 1
675 1 1 0.5897 15.426635144181548 4.387146103635135 9.335474584081684 -4 -1 -1
673 1 2 -1.1794 14.91886851410501 5.176098864752474 9.145847124439053 -4 -1 -1
114 1 1 0.5897 13.603530559470881 1.4797520638735016 8.657588801624591 -2 -2 2
840 1 1 0.5897 17.6594802234886 7.730527422879142 12.307687419790955 -2 -1 -4
838 1 2 -1.1794 17.54296797807415 8.009634041346729 11.399527710386483 -2 -1 -4
54 1 1 0.5897 12.877712325975908 3.4842164881565894 11.296916738137737 -5 -1 4
52 1 2 -1.1794 12.45735990103249 2.6248463469692944 11.328820919506619 -5 -1 4
719 1 1 0.5897 16.07424805936866 3.4490945434054914 11.333997720865638 4 5 0
839 1 1 0.5897 16.613658661372376 8.229264107660224 11.333310709574583 -2 -1 -4