LAMMPS data file via write_data, version 30 Jul 2021, timestep = 30000000

972 atoms
2 atom types
648 bonds
1 bond types
324 angles
1 angle types

0.09181130580750185 19.908189694197223 xlo xhi
0.22384903431288627 19.776151965699256 ylo yhi
-0.020078409444611367 20.72007640944709 zlo zhi

Masses

1 1.008
2 15.999

Pair Coeffs # lj/cut/tip4p/long/omp

1 0 0
2 0.21084 3.1668

Bond Coeffs # harmonic/omp

1 450 0.9572

Angle Coeffs # harmonic/omp

1 55 104.52

Atoms # full

33 11 1 0.5897 1.398323147706517 2.405943578801354 1.5509330559961465 0 0 0
11 4 1 0.5897 1.0514842084131706 3.4976955533195446 3.4113838942542425 0 0 0
46 16 2 -1.1794 7.906645960969865 4.293294238355591 3.6220939403557963 0 0 0
31 11 2 -1.1794 0.7126446619598379 2.2756038153099696 2.2059616329222402 0 0 0
12 4 1 0.5897 2.1597642969241795 4.455657005765821 3.793172549661092 0 0 0
16 6 2 -1.1794 3.9888776239669665 3.940791472629495 3.593268074928061 0 0 0
10 4 2 -1.1794 1.2279296115130822 4.2837810989968546 3.928278248618909 0 0 0
9 3 1 0.5897 5.116120259446648 4.735833400526249 4.819160026352764 0 0 0
36 12 1 0.5897 5.304724283139224 3.56744047452777 0.2809137321112104 0 0 0
3 1 1 0.5897 3.5334200920539853 2.5729688123995684 0.5230992746805477 0 0 0
18 6 1 0.5897 4.250929128765838 3.022943908966054 3.6646248725828223 0 0 0
4 2 2 -1.1794 4.468398932142755 1.3171817311848142 3.6222302020540624 0 0 0
6 2 1 0.5897 5.187862633390653 0.9162696418422074 4.109887587089598 0 0 0
68 23 1 0.5897 8.373843979158602 2.1149310715268816 1.843536699115373 0 0 0
24 8 1 0.5897 2.914336649041598 1.0162523165317352 4.609857525538619 0 0 0
53 18 1 0.5897 9.974178397122575 4.364476541900359 3.7284474105064174 0 0 0
5 2 1 0.5897 4.339611330518038 0.7418702378589924 2.8681566471233704 0 0 0
47 16 1 0.5897 7.789430134168657 3.4143376765957734 3.2617168844425626 0 0 0
48 16 1 0.5897 7.21741174608078 4.376463619569975 4.2810476878536825 0 0 0
67 23 2 -1.1794 7.573159905414039 1.9777882195043328 2.3497244021462578 0 0 0
69 23 1 0.5897 6.880596576955535 2.361416275233373 1.8118481289629422 0 0 0
236 79 1 0.5897 0.5759808668224893 0.6335781879299671 2.108141273750895 0 1 0
1 1 2 -1.1794 2.6158044823051014 2.70608492036254 0.2856526294967655 0 0 0
273 91 1 0.5897 6.918161595832176 0.2910136474156086 1.7425837993666484 0 1 0
34 12 2 -1.1794 5.445204579486122 2.736123542265848 0.7341196915849647 0 0 0
37 13 2 -1.1794 9.49242487562778 2.252242120342521 0.41073516318205 0 0 0
17 6 1 0.5897 4.36021646092093 4.232374680694876 2.7605975575013217 0 0 0
35 12 1 0.5897 5.833661156800776 2.164447137928999 0.07191743979077432 0 0 0
2 1 1 0.5897 2.5205372069255243 3.656172468192204 0.21894903034469593 0 0 0
325 109 2 -1.1794 2.78041919140154 2.3823396579334304 7.517455852016719 0 0 0
326 109 1 0.5897 2.6348686167419215 1.9892802939894396 6.656881831902986 0 0 0
327 109 1 0.5897 3.729964620339325 2.3573116793644724 7.635201399202677 0 0 0
356 119 1 0.5897 1.7070059633922339 2.0586696647562843 8.838502024811518 0 0 0
355 119 2 -1.1794 0.9156160707904231 1.8243908095536827 9.323227379851806 0 0 0
8 3 1 0.5897 5.835360717987332 4.47355605318656 6.125244484791743 0 0 0
391 131 2 -1.1794 7.52004991986284 2.0218477686302787 8.85146168510248 0 0 0
29 10 1 0.5897 7.3851260621337245 0.7254298404202288 5.49308435067689 0 0 0
23 8 1 0.5897 2.0725636975070785 0.407425495850807 5.711015844524968 0 0 0
58 20 2 -1.1794 9.189772644266638 0.5678071935361193 5.399088384303139 0 0 0
361 121 2 -1.1794 9.797869176738098 2.7646579802943743 7.206231410030258 0 0 0
59 20 1 0.5897 9.323251590391306 1.0781356545589083 6.19777568772219 0 0 0
359 120 1 0.5897 6.1733030333871515 2.653699593419447 7.791628087972643 0 0 0
360 120 1 0.5897 5.80957254692285 2.094524417300855 6.432588829966619 0 0 0
358 120 2 -1.1794 5.502347435276918 2.6966287503365693 7.110314402814487 0 0 0
362 121 1 0.5897 9.47547134165055 3.624566538510439 6.936350488823969 0 0 0
392 131 1 0.5897 8.247430892323498 2.218778864816324 8.26128971506197 0 0 0
393 131 1 0.5897 7.442405084608687 1.0681315514679077 8.826721863390922 0 0 0
357 119 1 0.5897 0.19677321525468994 2.1419624142828635 8.776794004670485 0 0 0
27 9 1 0.5897 2.326719968171503 3.998678760474464 7.02739716875685 0 0 0
7 3 2 -1.1794 5.831611587639704 5.058109267921471 5.367250842305312 0 0 0
328 110 2 -1.1794 3.953589803333569 1.5850917469456642 10.098159774366279 0 0 0
381 127 1 0.5897 7.361589528036346 4.93666059674276 9.56407800659338 0 0 0
28 10 2 -1.1794 6.436253572472263 0.8297104771571944 5.562754552947223 0 0 0
342 114 1 0.5897 4.054718179282212 4.817198702476699 9.797924724170066 0 0 0
25 9 2 -1.1794 2.3352902625217715 4.950079613752002 6.922684862600366 0 0 0
371 124 1 0.5897 7.527130526984601 3.0783470984576846 10.341768314699674 0 0 0
102 34 1 0.5897 0.18267954130481584 1.606443258744903 5.362386309511749 1 0 0
22 8 2 -1.1794 2.17366346562569 1.202020284472366 5.1869795409042085 0 0 0
649 217 2 -1.1794 2.930696195544864 2.6178347867156906 14.319787029395487 0 0 0
650 217 1 0.5897 2.855893476755693 2.138518159222962 13.49461169329233 0 0 0
334 112 2 -1.1794 1.1201799380711808 4.132632287232265 10.993383580875786 0 0 0
347 116 1 0.5897 1.1128613438997745 1.1276904476288403 12.078197278338386 0 0 0
651 217 1 0.5897 2.076202201486269 2.5111427427881763 14.737638364430513 0 0 0
336 112 1 0.5897 2.0271395476563088 4.350869383043352 11.20763096868633 0 0 0
377 126 1 0.5897 9.545189084275284 4.39127031101778 10.578364026896221 0 0 0
683 228 1 0.5897 4.748702977207496 2.52861753821141 14.414262045220308 0 0 0
685 229 2 -1.1794 9.599381233565687 2.528785938118735 14.046501225387711 0 0 0
346 116 2 -1.1794 2.055156076496205 0.9850915784346229 11.989411356913683 0 0 0
684 228 1 0.5897 5.754584586097117 3.508483976534612 13.848694444769803 0 0 0
370 124 2 -1.1794 7.77222469206131 3.846712411290186 10.857296527090217 0 0 0
382 128 2 -1.1794 8.750758446062568 0.9655864945914497 11.656474122697677 0 0 0
682 228 2 -1.1794 5.67919934979777 2.626359080516461 14.212511396078085 0 0 0
329 110 1 0.5897 3.120795480646254 1.4361124532138243 10.545821410214604 0 0 0
353 118 1 0.5897 7.0078171893597885 1.011102711892095 11.828963672264434 0 0 0
351 117 1 0.5897 2.9430480659571803 4.378297116665579 13.599657901106202 0 0 0
354 118 1 0.5897 5.945604016858404 1.632039895990128 12.710989446961296 0 0 0
386 129 1 0.5897 9.080825983448966 4.304926429942481 13.937910700754017 0 0 0
352 118 2 -1.1794 6.059441956854231 1.0723287227265774 11.942852644460817 0 0 0
383 128 1 0.5897 9.035469636883677 1.6476751280744637 12.264700458894492 0 0 0
372 124 1 0.5897 7.056889500967871 3.953265583917944 11.484285572589084 0 0 0
686 229 1 0.5897 9.349886131097104 2.3892921362138284 14.960048093893624 0 0 0
332 111 1 0.5897 5.216194725220165 4.648194505866846 12.070463182375015 0 0 0
340 114 2 -1.1794 3.9599748608732797 4.356467947784488 10.631582879010335 0 0 0
384 128 1 0.5897 9.0941602399724 1.242818469402693 10.807072670957284 0 0 0
341 114 1 0.5897 3.950825981464055 3.429374011411647 10.393670949057475 0 0 0
330 110 1 0.5897 4.618235792937121 1.4219355735303478 10.767368866397472 0 0 0
331 111 2 -1.1794 5.981306836679848 4.831294486238833 12.615664405374352 0 0 0
335 112 1 0.5897 1.175113986179783 3.2851732756966188 10.551808082142943 0 0 0
671 224 1 0.5897 2.201738007106305 1.7819865230649488 19.46157029553497 0 0 0
653 218 1 0.5897 3.409375522454535 1.277861084074595 17.627295327197555 0 0 0
652 218 2 -1.1794 4.218628427500685 1.6185601405544578 17.24628559360287 0 0 0
664 222 2 -1.1794 3.9585891954859087 4.186798324918925 17.432921232433657 0 0 0
670 224 2 -1.1794 2.0697521572554 1.1761452348428525 18.732344167062607 0 0 0
665 222 1 0.5897 3.014888227122655 4.339024360414909 17.38523439482516 0 0 0
654 218 1 0.5897 4.346834490259498 1.09999166503834 16.45198634302573 0 0 0
696 232 1 0.5897 7.4915125097535595 4.806318580762394 17.386791745799552 0 0 0
694 232 2 -1.1794 7.756361836176177 4.241929138138434 18.113134926721326 0 0 0
38 13 1 0.5897 9.414624305475002 1.6589272046221786 20.40377588682308 0 0 -1
708 236 1 0.5897 7.9125723588379335 0.8992102940105183 18.857049253007784 0 0 0
716 239 1 0.5897 7.493714850354697 1.0977878888751307 16.08717338413202 0 0 0
666 222 1 0.5897 4.068198098193733 3.27390860320275 17.166783231978158 0 0 0
695 232 1 0.5897 7.580348408384943 3.3535512405125774 17.803254733055297 0 0 0
676 226 2 -1.1794 6.140992943805569 1.1423957920127965 19.280994286214 0 0 0
672 224 1 0.5897 1.1378730577354876 1.248191100869145 18.526189006685346 0 0 0
657 219 1 0.5897 6.440373539841784 4.46121535680677 19.143060436105692 0 0 0
658 220 2 -1.1794 1.333393660543206 4.408781365826176 17.516066613751285 0 0 0
678 226 1 0.5897 5.956963968571938 0.2638010982083969 19.613295408694622 0 0 0
656 219 1 0.5897 4.966517497569333 4.452106140601924 18.797611247396468 0 0 0
655 219 2 -1.1794 5.590895539551964 4.785555452905877 19.441952971108527 0 0 0
660 220 1 0.5897 1.0655134761962868 4.863362527938272 16.717418081113955 0 0 0
679 227 2 -1.1794 0.7708212091735325 1.954965617686764 15.749868261724542 0 0 0
706 236 2 -1.1794 8.839307076881967 0.6636661979922996 18.814632165096462 0 0 0
681 227 1 0.5897 0.9560166862271104 2.4782434597962992 16.529688493954893 0 0 0
702 234 1 0.5897 9.484835971377588 4.146086436142808 18.072768675715196 0 0 0
715 239 2 -1.1794 7.321605816271384 2.0191257332450347 16.281351908208492 0 0 0
659 220 1 0.5897 0.6443985237120593 4.60990112218416 18.149335905281358 0 0 0
677 226 1 0.5897 5.4501755434588794 1.305716684256399 18.638886408415267 0 0 0
689 230 1 0.5897 9.601749857207084 1.2269279146683945 17.23791760382586 0 0 0
711 237 1 0.5897 8.92993658250593 4.220904293940514 20.65086254005792 0 0 0
717 239 1 0.5897 6.7208108081357 2.30154580531823 15.591783565582142 0 0 0
885 295 1 0.5897 0.7621350692893736 0.235324906616583 15.790626802431118 0 1 0
674 225 1 0.5897 1.5271807901367707 5.675026505673942 0.6203469123569976 0 0 1
140 47 1 0.5897 0.7589812923535887 9.344278055332582 3.0970973893449742 0 0 0
130 44 2 -1.1794 2.4361853273790643 7.116300148390247 4.936464760974388 0 0 0
710 237 1 0.5897 8.32281126395972 5.353224010472797 0.7114101795203361 0 0 1
15 5 1 0.5897 4.429896071371606 6.751913797466992 1.9174805441077958 0 0 0
14 5 1 0.5897 3.96779198778138 5.929746000935137 0.7332342852289373 0 0 0
111 37 1 0.5897 3.0890260951851927 8.661366239532441 1.140335638222267 0 0 0
139 47 2 -1.1794 0.9877369789919744 8.96536187245205 2.2483703796306647 0 0 0
114 38 1 0.5897 5.037660339731458 7.933806179856635 3.5326152768998553 0 0 0
141 47 1 0.5897 0.8841584920709119 8.02173774077708 2.3711055360231033 0 0 0
110 37 1 0.5897 4.224770280445446 8.99519090490362 0.19671402166404225 0 0 0
13 5 2 -1.1794 4.608913561842655 5.939555003082873 1.4439279514140033 0 0 0
113 38 1 0.5897 3.559878231926175 7.639878612101841 3.6788536317252563 0 0 0
112 38 2 -1.1794 4.188653349006891 8.100544331124276 3.1233186170734193 0 0 0
19 7 2 -1.1794 0.7247952724669721 6.3054326112154415 2.1519651095841907 0 0 0
142 48 2 -1.1794 5.958595647106179 9.45234260062369 0.2593439886722861 0 0 0
175 59 2 -1.1794 7.903600106969371 8.875879164542765 1.9620078362374054 0 0 0
138 46 1 0.5897 7.257077262524964 7.521254068648936 4.709564319192086 0 0 0
177 59 1 0.5897 8.584272928481607 8.931595624676872 1.2913416576671468 0 0 0
176 59 1 0.5897 7.756689671115642 7.937095148709096 2.077418969659581 0 0 0
144 48 1 0.5897 6.5578523783234255 9.250375092311696 0.9778911555149781 0 0 0
55 19 2 -1.1794 7.251042745075795 6.052808426020384 1.8381765885589454 0 0 0
56 19 1 0.5897 6.325483081579932 5.89899318481763 1.6489293014595847 0 0 0
57 19 1 0.5897 7.450721545279035 5.4566245278966905 2.5599360636035526 0 0 0
109 37 2 -1.1794 3.271199831935333 9.024933263997227 0.27379191311932577 0 0 0
20 7 1 0.5897 0.8668330570543425 5.581773391293037 2.762207808657403 0 0 0
166 56 2 -1.1794 9.165135254326406 7.329572134187026 4.916261866037369 0 0 0
132 44 1 0.5897 1.505465797052766 7.062770618260522 4.719587526074003 0 0 0
137 46 1 0.5897 5.981523577351509 6.779833628088121 5.0486012652486405 0 0 0
126 42 1 0.5897 3.7364657202564286 9.851776224751713 3.550868173871305 0 0 0
136 46 2 -1.1794 6.3164966390139305 7.649840869188698 4.8315796941714355 0 0 0
673 225 2 -1.1794 2.232442681366201 5.392529090225406 0.0381115343097278 0 0 1
338 113 1 0.5897 5.2664161039145085 5.934473595042447 8.21791489201931 0 0 0
469 157 2 -1.1794 9.234534512824894 9.173018168059649 6.845188066213727 0 0 0
501 167 1 0.5897 6.962872779965279 8.304368034334047 8.461101237764899 0 0 0
345 115 1 0.5897 0.6439378024358182 7.270995804042302 8.83898047190211 0 0 0
438 146 1 0.5897 4.637792853397517 9.172766921427622 9.901822384997905 0 0 0
437 146 1 0.5897 4.530464346206398 7.8278883375651915 9.215089516981239 0 0 0
470 157 1 0.5897 8.748281568141143 9.03903955910781 7.658731962372146 0 0 0
337 113 2 -1.1794 4.346230161904832 6.188792805213841 8.286623488511417 0 0 0
464 155 1 0.5897 1.7538513667661582 8.966667727392933 8.4195527549471 0 0 0
435 145 1 0.5897 2.6846916334976534 8.326103955194153 6.340500011134811 0 0 0
344 115 1 0.5897 0.6085906943319253 5.980348627993001 9.629492985757496 0 0 0
433 145 2 -1.1794 2.911598213104232 8.888329468637963 7.081223752315433 0 0 0
343 115 2 -1.1794 0.5051946305300146 6.328690217181303 8.743914614206101 0 0 0
379 127 2 -1.1794 7.151890973374453 5.52682435126369 8.840216585606962 0 0 0
380 127 1 0.5897 7.439052691340372 6.388518660117442 9.142260794936993 0 0 0
436 146 2 -1.1794 4.733007730458607 8.233270192534805 10.058226260052466 0 0 0
465 155 1 0.5897 0.2762444161950112 9.295267344547959 8.40181378857895 0 0 0
499 167 2 -1.1794 7.717255516821123 8.27094885771937 9.049269458143225 0 0 0
63 21 1 0.5897 9.684739098225508 5.915275599542781 7.199399508822465 0 0 0
500 167 1 0.5897 7.587145295415984 9.005965792468592 9.648468839529883 0 0 0
468 156 1 0.5897 4.683029133791066 9.046398351273561 7.094772878136578 0 0 0
467 156 1 0.5897 5.720901121790937 8.347563134958362 6.24257293427972 0 0 0
463 155 2 -1.1794 0.9556073642595214 8.89237534227111 8.942485965365263 0 0 0
466 156 2 -1.1794 5.618558480405822 8.848810556136472 7.051612264156859 0 0 0
62 21 1 0.5897 8.196986425446017 5.681912110727226 7.353544558862782 0 0 0
131 44 1 0.5897 2.6270009652147217 6.290156489550953 5.380659756107181 0 0 0
339 113 1 0.5897 3.883675687772597 5.571306723263651 7.720081340472458 0 0 0
26 9 1 0.5897 1.8462531277907366 5.278923224629778 7.676963164951908 0 0 0
168 56 1 0.5897 9.20701148199594 8.149683444336837 5.408091440212342 0 0 0
434 145 1 0.5897 2.7431921864847526 9.777107285302302 6.768305443155898 0 0 0
61 21 2 -1.1794 8.915992255897146 5.594735117282708 6.727748668680024 0 0 0
167 56 1 0.5897 9.033150731036924 6.656074522838851 5.5834680340375975 0 0 0
454 152 2 -1.1794 2.815952693543061 7.561015178941029 11.84916641850135 0 0 0
793 265 2 -1.1794 9.397787478935639 8.746216025711382 13.982064394598716 0 0 0
456 152 1 0.5897 3.137398237191209 6.725747949825587 12.18860308319601 0 0 0
461 154 1 0.5897 6.280583726452166 8.019528342259033 12.891010908688584 0 0 0
792 264 1 0.5897 4.901278705142499 8.934557039898896 14.532411864838279 0 0 0
661 221 2 -1.1794 4.549321819980559 6.128142083485443 15.396258765063251 0 0 0
455 152 1 0.5897 3.433849568733246 7.792010509228217 11.155584148125008 0 0 0
758 253 1 0.5897 2.840030663369475 8.766059152881418 13.30952170194037 0 0 0
791 264 1 0.5897 6.305487345729057 8.880565590670553 15.0953946305866 0 0 0
705 235 1 0.5897 7.731694131346204 5.538262451680995 15.438433227784135 0 0 0
794 265 1 0.5897 9.305801345498582 8.174265125310672 13.220043168449996 0 0 0
668 223 1 0.5897 1.366036380361296 5.431314647456466 14.38647210001118 0 0 0
462 154 1 0.5897 5.938995410890913 7.820553038609943 11.429621805987825 0 0 0
533 178 1 0.5897 0.7093514025027832 7.985911822045595 11.979667480175232 1 0 0
350 117 1 0.5897 3.5839791620329304 5.657508841641381 14.094288695613558 0 0 0
460 154 2 -1.1794 6.371000517703703 7.395749730369933 12.170600351173825 0 0 0
490 164 2 -1.1794 9.110172513663999 6.975647290818796 12.035181288370966 0 0 0
387 129 1 0.5897 8.952653980585284 5.6785425599679105 13.314482096848534 0 0 0
492 164 1 0.5897 8.192261548080584 7.239148899342738 11.97086337792743 0 0 0
491 164 1 0.5897 9.511060789315053 7.3040937444146845 11.230404234771004 0 0 0
333 111 1 0.5897 6.054680334470618 5.785671351520169 12.613503223013536 0 0 0
757 253 2 -1.1794 3.005542867976636 9.182828664015373 14.155208006594528 0 0 0
790 264 2 -1.1794 5.813586290301512 9.119805065228038 14.309882932794197 0 0 0
795 265 1 0.5897 9.346003782393463 9.632593700219886 13.624458472035082 0 0 0
349 117 2 -1.1794 2.9601272785884922 5.323516620340105 13.449732100876547 0 0 0
443 148 1 0.5897 1.377744129201778 9.819533611443852 10.364439230569177 0 0 0
669 223 1 0.5897 0.8256840881019689 6.6516192911483305 15.101095972612635 0 0 0
667 223 2 -1.1794 0.7544226027904122 5.697504251182726 15.072963576146556 0 0 0
789 263 1 0.5897 1.801182746915381 8.662351826228646 15.256678929429027 0 0 0
385 129 2 -1.1794 8.955326323972404 5.227764915711785 14.158918392836133 0 0 0
824 275 1 0.5897 8.480256329251722 8.412773011693268 15.521801369866184 0 0 0
761 254 1 0.5897 4.539728867466023 8.968612017086198 17.349913135208066 0 0 0
804 268 1 0.5897 7.7785087450370805 9.938766344839967 17.260001000104182 0 0 0
825 275 1 0.5897 7.570087889515379 7.490556698132698 16.304685046731585 0 0 0
788 263 1 0.5897 0.9869182792013863 9.133906658495386 16.442645489203976 0 0 0
760 254 2 -1.1794 4.656023808156586 8.02903839855237 17.208881578308116 0 0 0
704 235 1 0.5897 6.244743750473982 5.765107189360133 15.609183869027339 0 0 0
780 260 1 0.5897 2.681249070733217 7.9872362494858455 19.58536114701385 0 0 0
779 260 1 0.5897 2.9872843861887795 7.435120881937191 18.20930537914156 0 0 0
778 260 2 -1.1794 2.336665245016738 7.402250534094386 18.910606366854076 0 0 0
823 275 2 -1.1794 7.772640025471156 8.415781695563227 16.166364613552492 0 0 0
784 262 2 -1.1794 6.25048825556386 7.366303150805594 19.33796954294308 0 0 0
675 225 1 0.5897 2.1860909153095953 5.994472992900255 20.035449017042435 0 0 0
816 272 1 0.5897 9.15680369263891 8.063473403979497 19.5807852357817 0 0 0
762 254 1 0.5897 5.272205878573552 7.7586465356722085 17.889621559847814 0 0 0
814 272 2 -1.1794 8.91757108361209 7.351253664955997 18.98772028843487 0 0 0
785 262 1 0.5897 5.889338389120078 6.508104999854575 19.559904684728227 0 0 0
815 272 1 0.5897 9.07157380521612 6.55443083624304 19.49524633505797 0 0 0
786 262 1 0.5897 7.19897062697788 7.2387816356467125 19.353340436479 0 0 0
858 286 1 0.5897 0.4717960288461179 7.673010208881204 18.927688698026895 1 0 0
787 263 2 -1.1794 0.9982135541690468 8.479269133535674 15.744377334797369 0 0 0
143 48 1 0.5897 5.985010435676793 8.676386559412443 20.439643150187393 0 0 -1
709 237 2 -1.1794 8.903613461887685 5.175799505156517 20.71168541673564 0 0 0
703 235 2 -1.1794 7.067404209344344 5.7387588349024945 16.097754281428422 0 0 0
797 266 1 0.5897 9.890688101506393 8.134037261837088 17.102053916164518 0 0 0
663 221 1 0.5897 4.539346984868021 6.884980688937811 15.98216017150487 0 0 0
662 221 1 0.5897 4.316986338865091 5.38774888712767 15.956690321735707 0 0 0
145 49 2 -1.1794 9.58661822927649 9.270572245322366 20.654693954556485 0 0 -1
274 92 2 -1.1794 8.913062940915061 13.87230958485963 4.777470202145691 0 0 0
118 40 2 -1.1794 1.1327267249557738 11.284866800264163 3.849908588756027 0 0 0
240 80 1 0.5897 1.968375444263247 14.226766073036739 3.748678277668014 0 0 0
122 41 1 0.5897 3.55981127404431 12.221937558901637 1.0611825665380745 0 0 0
129 43 1 0.5897 0.880662807435676 13.473812836860654 1.637052440783977 0 0 0
222 74 1 0.5897 4.184116606682048 14.18842798480822 2.9162093534818716 0 0 0
120 40 1 0.5897 1.104633757305442 11.661654047825577 2.9704348077956406 0 0 0
123 41 1 0.5897 4.056179229406931 11.984182676083735 2.4714663854432355 0 0 0
275 92 1 0.5897 8.934838635800428 14.06805753679419 3.8407190895915013 0 0 0
783 261 1 0.5897 1.8808834605137446 11.870006406895975 0.36420329399988655 0 0 1
156 52 1 0.5897 8.733611139533583 11.24036762789452 3.6949054254975984 0 0 0
245 82 1 0.5897 5.624464618396037 14.158224791454911 4.768609143030666 0 0 0
154 52 2 -1.1794 7.8337937681717875 11.05767730303403 3.4245408536795567 0 0 0
283 95 2 -1.1794 8.410198517040875 14.849881468981165 2.1814856700909497 0 0 0
119 40 1 0.5897 2.0489272680707815 11.03837464079747 3.9762193936371557 0 0 0
819 273 1 0.5897 8.081162086344072 11.96437015566179 0.00028475438275806994 0 0 1
285 95 1 0.5897 7.787470795784022 14.203977864573314 1.8480614888251579 0 0 0
121 41 2 -1.1794 4.080858577323768 12.621418437077336 1.757639961455716 0 0 0
124 42 2 -1.1794 3.8021772453081493 10.78236569227898 3.765063059512052 0 0 0
164 55 1 0.5897 7.066269752497749 12.21362587471099 2.18464747181917 0 0 0
165 55 1 0.5897 5.906246588710544 12.783902898605591 1.396665166318383 0 0 0
163 55 2 -1.1794 6.860351233137569 12.707863366982906 1.3911778923308606 0 0 0
125 42 1 0.5897 4.459641385734754 10.82295927275007 4.459515004810666 0 0 0
127 43 2 -1.1794 0.637652032969409 12.573480488631157 1.4213330698477544 0 0 0
220 74 2 -1.1794 4.913851380652875 14.67596447908965 3.2982729500465444 0 0 0
238 80 2 -1.1794 2.2173284330334475 14.04931960081164 4.655770154984105 0 0 0
116 39 1 0.5897 6.780003648793859 11.004961972390769 5.030721734475542 0 0 0
155 52 1 0.5897 7.886089348433971 10.217825929069697 2.9683040542875525 0 0 0
239 80 1 0.5897 2.2560384317144098 13.09454984767979 4.711628092879013 0 0 0
276 92 1 0.5897 7.98575597108216 13.91662823173981 5.010411948150249 0 0 0
317 106 1 0.5897 0.31273027700420897 14.346835571908514 5.111258654107175 1 0 0
133 45 2 -1.1794 2.22013616440617 11.565383767200665 6.748245172644355 0 0 0
134 45 1 0.5897 1.6545784988175702 11.666001997874313 7.513921890564266 0 0 0
135 45 1 0.5897 3.1038965497510254 11.722463566354518 7.080460688606615 0 0 0
117 39 1 0.5897 6.05290662523268 10.558632355561455 6.281314617690819 0 0 0
246 82 1 0.5897 6.105049437162074 12.944395708565652 5.534966006251635 0 0 0
453 151 1 0.5897 0.7875014320905561 11.73325651720547 9.773462885454578 0 0 0
571 191 2 -1.1794 1.0414155758926944 14.6198139719205 8.937602286050215 0 0 0
451 151 2 -1.1794 0.6108803980858551 12.01021780901969 8.874372158942235 0 0 0
446 149 1 0.5897 4.282574118420444 13.390925168610634 9.06403302152127 0 0 0
171 57 1 0.5897 9.135839377947354 12.138713536444152 5.961642543040706 0 0 0
244 82 2 -1.1794 6.169729213665696 13.8990752749904 5.511378571719297 0 0 0
445 149 2 -1.1794 4.2493696160588 12.762604985529688 8.34266474534882 0 0 0
488 163 1 0.5897 7.663408510180044 12.415459803331933 8.037583909360816 0 0 0
447 149 1 0.5897 5.150917278151336 12.714205726732756 8.024853501363552 0 0 0
115 39 2 -1.1794 6.019250224863557 11.204959635924501 5.576079831134074 0 0 0
487 163 2 -1.1794 7.079178115567754 12.508005600670078 8.790125714591362 0 0 0
489 163 1 0.5897 7.2038731902982205 13.411333021064369 9.081096108635279 0 0 0
170 57 1 0.5897 9.243307394832614 10.87593734056206 6.789761078031875 0 0 0
573 191 1 0.5897 0.7820152646513561 13.701041903852444 9.006038035248874 0 0 0
169 57 2 -1.1794 8.943530608957591 11.784090864511738 6.829705462459258 0 0 0
450 150 1 0.5897 4.419187235528674 11.722087806068286 9.882404131259452 0 0 0
480 160 1 0.5897 7.449017789763985 11.217103809594054 10.193380144119729 0 0 0
572 191 1 0.5897 1.5418328777193093 14.667863828904746 8.12305237577565 0 0 0
544 182 2 -1.1794 4.46879114825945 14.623423898508905 10.338885901890052 0 0 0
579 193 1 0.5897 9.10062747953233 14.636317585071703 6.667900483275068 0 0 0
457 153 2 -1.1794 2.9931467665658076 11.898946967558334 13.742288057685734 0 0 0
458 153 1 0.5897 2.150932569679377 12.149708656786652 14.121705617339513 0 0 0
459 153 1 0.5897 3.631010557529223 12.0816818391071 14.432182650179367 0 0 0
563 188 1 0.5897 2.5757069614760146 12.992421307980115 12.473334412658518 0 0 0
562 188 2 -1.1794 2.292065911597584 13.691208308886374 11.88385702556206 0 0 0
493 165 2 -1.1794 9.379932504473869 11.748526268529941 13.443634055677594 0 0 0
570 190 1 0.5897 6.8260544993319145 14.015562503549067 11.775613514108162 0 0 0
449 150 1 0.5897 4.5262975464098085 11.154724583076806 11.281922519894866 0 0 0
494 165 1 0.5897 8.743785643167156 11.847751707560974 14.151937002400938 0 0 0
569 190 1 0.5897 5.9158665677124205 13.071494089501643 12.532002593607663 0 0 0
545 182 1 0.5897 3.6184850269445907 14.336248130735095 10.671434447317237 0 0 0
444 148 1 0.5897 2.362031788015149 10.783623572573775 10.991713765856657 0 0 0
448 150 2 -1.1794 4.204039442852568 10.949088089704336 10.404347879995266 0 0 0
564 188 1 0.5897 2.3568709092294604 14.48901892196804 12.40877852869746 0 0 0
598 200 2 -1.1794 8.707874233126509 13.87687958479891 12.001736415494179 0 0 0
440 147 1 0.5897 6.704240968249195 10.981879797863222 12.16298817057694 0 0 0
759 253 1 0.5897 2.8692044411930606 10.116355996188597 13.993453563160639 0 0 0
439 147 2 -1.1794 5.976788908064001 11.370037065599401 12.649132194762554 0 0 0
568 190 2 -1.1794 6.024892725134005 13.993429673406647 12.298877791304804 0 0 0
599 200 1 0.5897 8.920935003745404 13.049662147845364 12.433649126555046 0 0 0
442 148 2 -1.1794 1.4648738507176489 10.459634350287658 11.070796789861586 0 0 0
441 147 1 0.5897 5.727154788232245 10.698697748375272 13.28413302794349 0 0 0
641 214 1 0.5897 0.5203544872829846 13.624414036238292 11.50497089122698 1 0 0
770 257 1 0.5897 5.869770146649443 12.125036600825634 15.326999811956549 0 0 0
479 160 1 0.5897 8.703336139871386 10.630027233402911 10.804628820771471 0 0 0
478 160 2 -1.1794 7.764572041663122 10.472259680445296 10.705072639393277 0 0 0
600 200 1 0.5897 8.890993772247802 14.546055780358756 12.661226986802408 0 0 0
546 182 1 0.5897 5.0899533197265185 14.377992588299968 11.02445312634776 0 0 0
811 271 2 -1.1794 7.743955883748868 12.37436070607962 15.428349389879626 0 0 0
812 271 1 0.5897 7.850462088505511 13.321166843659125 15.520068126245512 0 0 0
775 259 2 -1.1794 0.855518784510886 12.51025219554162 15.486752507741448 0 0 0
888 296 1 0.5897 2.2791573770881106 12.881283268436857 18.96711473576889 0 0 0
764 255 1 0.5897 5.779524599683537 10.927446315936361 19.850697631500207 0 0 0
768 256 1 0.5897 0.9285163932752533 11.275516535449022 16.84645704648952 0 0 0
892 298 2 -1.1794 6.216080255739021 14.2631355360445 19.372943932184484 0 0 0
817 273 2 -1.1794 9.016564825535225 11.831019912591628 20.587624420365923 0 0 0
870 290 1 0.5897 4.943871657760497 14.583021515386804 17.52666268223476 0 0 0
766 256 2 -1.1794 0.9421312191506923 10.598578458952497 17.523079007934903 0 0 0
802 268 2 -1.1794 7.917685399907822 10.732567855573732 17.776450333701597 0 0 0
886 296 2 -1.1794 2.1068836614689723 13.689860643329187 18.484667468936635 0 0 0
965 322 1 0.5897 0.42911052595597243 14.336734641180252 18.862681826140864 1 0 0
774 258 1 0.5897 3.820583562033852 10.804569251423427 16.536634326513337 0 0 0
773 258 1 0.5897 2.9794802876759547 10.468063230437094 17.749572134029744 0 0 0
763 255 2 -1.1794 5.8258462498844725 11.5879637550421 19.15944867783889 0 0 0
893 298 1 0.5897 7.115077833418385 14.502056867856787 19.14752962287872 0 0 0
765 255 1 0.5897 5.0765309636399945 11.397715765833714 18.595082176436634 0 0 0
868 290 2 -1.1794 4.174267294977979 14.587918635302861 16.957565634351354 0 0 0
767 256 1 0.5897 0.35650580795331493 10.928538689842727 18.204543278042905 0 0 0
923 308 1 0.5897 9.226454405765264 14.709429197856235 19.32447522569139 0 0 0
813 271 1 0.5897 8.045800711877774 12.016896064628948 16.263425811913212 0 0 0
924 308 1 0.5897 9.522496071018843 14.226937403750206 17.920349709115303 0 0 0
803 268 1 0.5897 7.144273226059002 10.792915431758576 18.33706522513307 0 0 0
146 49 1 0.5897 9.272588659915655 10.1536643564538 20.460425149226975 0 0 -1
777 259 1 0.5897 1.1046447380907862 13.36001861378762 15.850081259672613 0 0 0
818 273 1 0.5897 9.189447393978378 12.27338888016474 19.75654863377744 0 0 0
922 308 2 -1.1794 8.89600082414432 14.130453335023049 18.63757358993076 0 0 0
894 298 1 0.5897 6.221173757795055 13.30629573751406 19.398091167006033 0 0 0
772 258 2 -1.1794 3.88708911346981 10.542935929364816 17.455007298178476 0 0 0
869 290 1 0.5897 3.5004081314613105 14.131560689331359 17.4613923404762 0 0 0
810 270 1 0.5897 9.690239033076685 11.044026306926835 17.646017886266364 0 0 0
782 261 1 0.5897 2.829728351160994 10.806270385359383 20.59450703613005 0 0 0
771 257 1 0.5897 4.983975143521789 13.201761304573347 15.916784009127074 0 0 0
781 261 2 -1.1794 2.6196701673299083 11.736352120749928 20.51061959358626 0 0 0
887 296 1 0.5897 2.097576010649473 14.372343335173174 19.15574944018996 0 0 0
769 257 2 -1.1794 4.960862457561902 12.313746172123759 15.560234574247948 0 0 0
234 78 1 0.5897 3.86046740695289 18.18183509704094 2.7855895387126637 0 0 0
251 84 1 0.5897 4.979590682242376 15.36376481183819 1.263537894806799 0 0 0
232 78 2 -1.1794 3.797084560490265 17.69080456654062 3.6048245925438054 0 0 0
247 83 2 -1.1794 1.4728609776109103 15.126715067349663 2.2475769821068887 0 0 0
271 91 2 -1.1794 6.692243793124251 18.97691896915765 1.4041863819847646 0 0 0
230 77 1 0.5897 3.4303778263288254 19.070354575971727 0.6806332819120381 0 0 0
272 91 1 0.5897 6.6534805188492525 18.41857783717944 2.1807122893161037 0 0 0
228 76 1 0.5897 0.43598337489809635 17.547557805036398 4.459520403331561 0 0 0
227 76 1 0.5897 0.7373268430444698 18.111917345597384 3.087406024698996 0 0 0
250 84 2 -1.1794 5.073597645942541 15.794872126389397 0.4140853879406912 0 0 0
890 297 1 0.5897 1.4400829713949765 18.755864251664136 0.4584909841523619 0 0 1
226 76 2 -1.1794 0.9829662870812499 17.407081453220144 3.6866589749363556 0 0 0
233 78 1 0.5897 2.858011349990199 17.6422593793614 3.7834745667858125 0 0 0
263 88 1 0.5897 6.823034076173068 17.24186082123864 4.222519021478991 0 0 0
926 309 1 0.5897 9.330094556029385 17.538378516911038 0.11209689330751862 0 0 1