LAMMPS data file via write_data, version 30 Jul 2021, timestep = 5000000

1920 atoms
2 atom types
1280 bonds
1 bond types
640 angles
1 angle types

-0.027644733807870026 24.757645733796586 xlo xhi
-0.16108932786654862 24.89109032786784 ylo yhi
-0.07770756384207544 22.887707563840276 zlo zhi

Masses

1 1.008
2 15.999

Pair Coeffs # lj/cut/tip4p/long/omp

1 0 0
2 0.21084 3.1668

Bond Coeffs # harmonic/omp

1 450 0.9572

Angle Coeffs # harmonic/omp

1 55 104.52

Atoms # full

1 1 2 -1.1794 4.543309099731842 1.5523986859187051 4.1591142074138086 0 0 0
2 1 1 0.5897 4.692287414900457 2.2720863957589628 4.772330389711739 0 0 0
3 1 1 0.5897 5.304738295531269 1.5695697254035867 3.5794265346882166 0 0 0
4 2 2 -1.1794 3.0280204170399014 1.3095764302122015 2.009241131372925 0 0 0
5 2 1 0.5897 3.409802346656286 1.7801490974529748 2.7501449426651345 0 0 0
6 2 1 0.5897 2.0828752076083905 1.3713018036698443 2.147064367314614 0 0 0
9 3 1 0.5897 4.753250199777635 4.650900331360901 3.5970088139614695 0 0 0
10 4 2 -1.1794 2.934600549207154 4.459511572970691 3.8711781498539755 0 0 0
11 4 1 0.5897 2.5267617646945375 5.250274112172531 4.224124467647011 0 0 0
12 4 1 0.5897 2.5413625723222393 4.352772228472296 3.005105117942736 0 0 0
13 5 2 -1.1794 1.6393849843125499 2.7134233060493798 5.434845328487209 0 0 0
14 5 1 0.5897 2.250545427957442 3.2718010525794954 4.954383776017248 0 0 0
15 5 1 0.5897 1.7561995919081757 1.8441970422046494 5.051427694429034 0 0 0
22 8 2 -1.1794 1.6593661617331235 4.428262703976327 1.3553289034522247 0 0 0
20 7 1 0.5897 3.801696987665287 2.7582008514070453 0.7322529184597989 0 0 0
24 8 1 0.5897 1.408816243005895 5.1210725937190125 0.7442550787279206 0 0 0
19 7 2 -1.1794 4.682424713063038 3.0676139741906114 0.5208327974112721 0 0 0
23 8 1 0.5897 0.8526100869075592 4.220696323646647 1.8266903441081925 0 0 0
21 7 1 0.5897 5.248563068747772 2.6351739436876898 1.1600607392119906 0 0 0
27 9 1 0.5897 4.588460893045826 4.839797692621081 0.6355673632147775 0 0 0
99 33 1 0.5897 0.13073711553089346 3.298473520607858 4.428664964711586 1 0 0
98 33 1 0.5897 0.3067188473468662 4.63801069470541 3.745669183700493 1 0 0
1455 485 1 0.5897 1.6613821029994627 3.091390552797108 -0.06577502990173721 0 0 1
25 9 2 -1.1794 4.626756690071842 5.79218162716552 0.5476049541695465 0 0 0
8 3 1 0.5897 6.068229223538931 5.399879907983814 3.6358495834123117 0 0 0
47 16 1 0.5897 6.0814983115303045 0.8940416686246562 1.8170550000750472 0 0 0
386 129 1 0.5897 5.033976295931988 0.18516014398111535 0.005414278159024857 0 1 0
7 3 2 -1.1794 5.667702297672079 4.5894992047366125 3.321124379204558 0 0 0
16 6 2 -1.1794 0.11547373252660259 1.1972960652246356 2.1943965031081474 0 0 0
387 129 1 0.5897 4.2236928761242245 -0.017117552053198065 1.2679988830561928 0 1 0
867 289 1 0.5897 4.410126166310069 0.21748729851090942 5.383313533445885 0 1 0
150 50 1 0.5897 0.670797659087075 5.845284665272377 5.566364376599389 0 0 0
26 9 1 0.5897 5.309757858032928 6.062605484761234 1.1612118083074423 0 0 0
28 10 2 -1.1794 1.4626860776030681 -0.048124222809068584 4.727228349426533 0 0 0
488 163 1 0.5897 4.903767993935311 4.302185912355896 8.906012549629898 0 0 0
486 162 1 0.5897 3.4206995324389338 0.8896846979573805 7.378088603278714 0 0 0
500 167 1 0.5897 3.7884103415308608 2.8661183976279454 6.866642679997181 0 0 0
505 169 2 -1.1794 4.144288683400681 6.063783039066203 6.25101678551304 0 0 0
492 164 1 0.5897 2.902050197710159 4.142060764593487 9.59054970936576 0 0 0
578 193 1 0.5897 0.2913028407355114 3.8838416794299757 9.825173662572553 1 0 0
527 176 1 0.5897 5.802524496072633 0.6306682341233248 7.387849472769774 0 0 0
526 176 2 -1.1794 6.141402134085665 1.4112900363785577 7.8260139574149665 0 0 0
493 165 2 -1.1794 1.968394787777948 3.09047455213544 10.59383336984326 0 0 0
487 163 2 -1.1794 5.830201763571144 4.53616696010802 8.850475654780828 0 0 0
482 161 1 0.5897 5.529006610426943 1.3744307819986568 9.53628792669417 0 0 0
502 168 2 -1.1794 1.1455413804707935 4.7261454882409915 7.1386802016395805 0 0 0
483 161 1 0.5897 4.9593224243079534 1.900562189394483 10.836390273940625 0 0 0
491 164 1 0.5897 2.5652020702222043 4.9438707439161345 8.35147860293381 0 0 0
484 162 2 -1.1794 3.058683415434364 1.443641465900085 8.069628984121842 0 0 0
494 165 1 0.5897 1.6086177464885651 2.2341970594502594 10.362385691194326 0 0 0
485 162 1 0.5897 3.6606432673697955 1.3330031249080752 8.805502616582702 0 0 0
503 168 1 0.5897 0.6335144267034022 4.584163970065474 7.934794272527643 0 0 0
490 164 2 -1.1794 3.153153057054486 4.928772606180196 9.10658826377299 0 0 0
498 166 1 0.5897 1.2451616543595594 1.4890668878321776 7.869681821880563 0 0 0
504 168 1 0.5897 1.3733224561211104 3.845840907328368 6.839698791771899 0 0 0
501 167 1 0.5897 4.415193877475952 4.184952411880669 6.467092545065421 0 0 0
481 161 2 -1.1794 4.843941271026423 1.2096464968103773 10.184086409029206 0 0 0
499 167 2 -1.1794 4.518335906967413 3.238116634348821 6.371703690184887 0 0 0
508 170 2 -1.1794 1.5689756539102093 0.3076066431180905 10.673221603940824 0 0 0
528 176 1 0.5897 5.843811585008316 2.1402787727334167 7.28177979131591 0 0 0
496 166 2 -1.1794 0.3168145890827189 1.7085428600635684 7.947949196251068 0 0 0
579 193 1 0.5897 0.209243274195461 5.395141303895342 9.858715479966442 1 0 0
865 289 2 -1.1794 4.118427333377066 -0.11610835184463753 6.231693064940093 0 1 0
961 321 2 -1.1794 4.716887349545272 1.4812685381114086 15.679306720437495 0 0 0
962 321 1 0.5897 5.578528448298485 1.5819980052390858 15.27491245614533 0 0 0
963 321 1 0.5897 4.785681086958312 0.6768783912803265 16.193526630395247 0 0 0
964 322 2 -1.1794 3.0305953584662895 1.331348319300162 13.56387615276067 0 0 0
965 322 1 0.5897 3.639898944165432 1.3006610285468976 14.301381656860375 0 0 0
966 322 1 0.5897 2.180845683166277 1.1110275864294294 13.945317806773176 0 0 0
970 324 2 -1.1794 3.1120199748956314 4.488982993662459 14.85753065380037 0 0 0
971 324 1 0.5897 4.065861449337079 4.544070554236964 14.914606048324437 0 0 0
972 324 1 0.5897 2.899888216260054 3.6254594490599445 15.211836355883142 0 0 0
975 325 1 0.5897 0.6308003340225653 3.389790457616881 15.811142665857982 0 0 0
982 328 2 -1.1794 1.1384496188444786 4.2073695773123845 12.99519783818082 0 0 0
984 328 1 0.5897 1.9179729224562634 4.281673445695994 13.545586656240703 0 0 0
981 327 1 0.5897 5.5576550009684285 2.7121991928452696 12.456633287124767 0 0 0
973 325 2 -1.1794 1.0975688362245646 2.8247194120973904 16.426750319144077 0 0 0
990 330 1 0.5897 1.6251974014046306 1.2033907644627102 16.233675031814386 0 0 0
983 328 1 0.5897 1.171983873731627 4.9765942427326335 12.426555558695359 0 0 0
980 327 1 0.5897 4.076710867513551 2.4562333935672624 12.637983671609566 0 0 0
979 327 2 -1.1794 4.695971795029906 3.0326107254835777 12.190254109311306 0 0 0
987 329 1 0.5897 4.663696955565151 4.695915181217123 12.256748452082915 0 0 0
495 165 1 0.5897 1.8763464747094076 3.140239006503075 11.545231089473267 0 0 0
1110 370 1 0.5897 2.2572863437881536 5.997556660231787 15.974237903125271 0 0 0
1058 353 1 0.5897 0.19324903597581056 4.524922117192755 14.297838430165212 1 0 0
988 330 2 -1.1794 1.7530187183315462 0.2566771314672376 16.17353342956259 0 0 0
1460 487 1 0.5897 4.586301943234138 2.7230266851876315 17.103885268232638 0 0 0
1347 449 1 0.5897 4.844523998203457 -0.08264556612641694 11.657424757016873 0 1 0
985 329 2 -1.1794 4.716661778635498 5.646194736158671 12.154824518270063 0 0 0
1109 370 1 0.5897 0.7648211359352683 5.844718192530707 16.176158977736602 0 0 0
976 326 2 -1.1794 0.07035044101271613 1.358791785756549 13.567199270499495 0 0 0
967 323 2 -1.1794 5.899923033394471 4.372012258524271 14.888444566205633 0 0 0
986 329 1 0.5897 3.9233386823417593 5.97729661563931 12.575700572874412 0 0 0
989 330 1 0.5897 1.5682584424004633 -0.06692987689612195 17.055158051265366 0 0 0
509 170 1 0.5897 1.6080462387374646 -0.024914221146264737 11.569895582607476 0 0 0
1487 496 1 0.5897 5.939255701246827 1.4972044081718223 20.006779121460816 0 0 0
1539 513 1 0.5897 0.3051954426608118 5.224244540168607 20.99959513309696 1 0 0
1447 483 2 -1.1794 6.0333822962287185 4.543458191319262 20.923457372359735 0 0 0
1465 489 2 -1.1794 4.450792656941424 5.975994644882403 17.6215480280413 0 0 0
1456 486 2 -1.1794 0.2598781608729157 1.8083042272387326 19.358405652675785 0 0 0
1468 490 2 -1.1794 1.7799682349200685 0.0026767759324195506 22.144499086054907 0 0 0
974 325 1 0.5897 1.1580587556194724 3.3426814374027067 17.229373337454266 0 0 0
1446 482 1 0.5897 3.3401945305225818 2.0904041095212977 18.954356592181817 0 0 0
1538 513 1 0.5897 0.2667746945888398 3.7863468963843387 20.527544504542316 1 0 0
1466 489 1 0.5897 4.680251897277784 5.051556169117522 17.71633463958878 0 0 0
1469 490 1 0.5897 1.696030033894381 0.9540825680179115 22.20781079414279 0 0 0
1463 488 1 0.5897 1.5673684390278837 5.166520620898838 17.875847783977736 0 0 0
1453 485 2 -1.1794 1.6320434511323996 2.6367229335681888 22.057882692499533 0 0 0
1442 481 1 0.5897 4.097294186470696 1.039613406366657 20.887999190708992 0 0 0
1444 482 2 -1.1794 2.973455002043231 1.327396630279033 19.401015863629883 0 0 0
1450 484 2 -1.1794 3.264170667234565 4.400444750521333 20.69022789336286 0 0 0
1452 484 1 0.5897 3.168604212236146 4.5163214210379055 19.74495111475235 0 0 0
1443 481 1 0.5897 4.777057974921743 1.8953248113570713 21.935547479761965 0 0 0
1461 487 1 0.5897 5.332616647293878 2.94401885751737 18.4022541578844 0 0 0
1464 488 1 0.5897 0.9157185100735885 4.717364451455491 19.166288608325853 0 0 0
1441 481 2 -1.1794 4.913265894130475 1.1274828273692454 21.380524763127823 0 0 0
1459 487 2 -1.1794 4.58787451766341 3.2641923881444854 17.89336651328293 0 0 0
1445 482 1 0.5897 2.0256892737662353 1.446873391716761 19.341135838981543 0 0 0
1454 485 1 0.5897 2.258582340852298 3.1078956523754524 21.508712420155852 0 0 0
1451 484 1 0.5897 4.209874990603706 4.40123220678492 20.837695494490816 0 0 0
1462 488 2 -1.1794 1.5421572409587383 4.439597450745672 18.498042967084118 0 0 0
1826 609 1 0.5897 4.174808376447733 -0.13445020070990382 18.28499519060047 0 1 0
1590 530 1 0.5897 2.158530050729792 5.897386216396143 21.510333714729445 0 0 0
121 41 2 -1.1794 4.337470630923352 7.757201383534427 4.193521822384554 0 0 0
122 41 1 0.5897 3.6377479591182507 7.745026915217057 3.540571076736164 0 0 0
124 42 2 -1.1794 2.720802920010752 7.524418577238257 1.9685776035932885 0 0 0
125 42 1 0.5897 3.0331567803995734 6.719663153757265 1.5550636662967399 0 0 0
126 42 1 0.5897 3.196687125297255 8.224326887832538 1.5215503820488694 0 0 0
129 43 1 0.5897 5.107509617259742 10.512322057138553 3.4369323471244497 0 0 0
130 44 2 -1.1794 3.2066109378484513 10.55237554853738 3.456157996425735 0 0 0
132 44 1 0.5897 2.574278419378295 9.905956784002058 3.7699365364662762 0 0 0
133 45 2 -1.1794 1.3716333088312465 9.105950733089744 4.78545037250289 0 0 0
137 46 1 0.5897 0.9341728580642235 7.564924881824762 2.0609714267607715 0 0 0
142 48 2 -1.1794 1.4666239341710674 10.736831256097922 1.2877651768063973 0 0 0
143 48 1 0.5897 2.247837729131294 10.75343667589489 1.8405239258124322 0 0 0
149 50 1 0.5897 0.764502499752648 7.167222124991001 4.834580331603867 0 0 0
139 47 2 -1.1794 4.448166531470161 9.293610959803331 0.6390427845721002 0 0 0
135 45 1 0.5897 0.7666590413927706 9.784863505950769 4.486704688791231 0 0 0
123 41 1 0.5897 5.145111065404937 7.747863283661872 3.679963387269451 0 0 0
131 44 1 0.5897 2.9927922426038966 11.351056060915917 3.9384266928822154 0 0 0
144 48 1 0.5897 1.5874210575947993 11.466041503682002 0.6796164064316129 0 0 0
140 47 1 0.5897 4.590151655903789 10.23985759154372 0.6651060738960184 0 0 0
127 43 2 -1.1794 6.026912660823467 10.662855885452803 3.217501950826153 0 0 0
136 46 2 -1.1794 -0.0033267893606492294 7.750898103076522 2.112289806094565 0 0 0
621 207 1 0.5897 4.202929533804813 9.287260287938006 5.567811510991061 0 0 0
218 73 1 0.5897 0.2639900427481127 10.948700952674194 2.6306911492454117 1 0 0
148 50 2 -1.1794 0.7191746153386948 6.222405595229858 4.687976021632207 0 0 0
270 90 1 0.5897 1.0273089657606271 12.107092002740677 4.401911240667682 0 0 0
145 49 2 -1.1794 4.7420317313115605 11.902092527956452 0.4106176787885922 0 0 0
168 56 1 0.5897 5.866048954347059 8.3173717650802 1.6264516749725488 0 0 0
507 169 1 0.5897 4.288708143530278 6.517363359509566 5.420630652613713 0 0 0
146 49 1 0.5897 5.630200086069465 12.076440405445064 0.7218570114085647 0 0 0
1575 525 1 0.5897 1.3176448727671828 9.609664016194223 0.05177505065071841 0 0 1
607 203 2 -1.1794 6.133530565911674 10.848984873056262 9.005663013690445 0 0 0
648 216 1 0.5897 5.487602699411572 7.002610359320519 7.299600016477317 0 0 0
623 208 1 0.5897 2.070774917136454 11.127294442427319 7.707778675492902 0 0 0
698 233 1 0.5897 0.30528999117799277 11.561086942658429 9.85760093865491 1 0 0
1101 367 1 0.5897 4.785191407135388 8.92542727974164 11.214832533294382 0 0 0
699 233 1 0.5897 0.2665705662695755 10.874360060347255 8.50906127374893 1 0 0
628 210 2 -1.1794 1.3094329935063662 6.45123443246228 10.834524380256596 0 0 0
603 201 1 0.5897 3.809231451190268 7.240588187303955 9.355950098705963 0 0 0
622 208 2 -1.1794 1.4156855402848205 10.96872224669792 7.02820303671312 0 0 0
604 202 2 -1.1794 2.6486325496091507 7.83506522695744 7.723758061117794 0 0 0
605 202 1 0.5897 2.9188580642953585 8.65322203538332 8.140652391837456 0 0 0
624 208 1 0.5897 1.6774197065734655 11.5384877890524 6.304993969381136 0 0 0
601 201 2 -1.1794 4.47253489375749 7.48916837355335 9.999652217417829 0 0 0
615 205 1 0.5897 0.8953845117347878 9.535818124296213 10.10685067867026 0 0 0
602 201 1 0.5897 4.622115134209583 6.693134621773278 10.509696495084954 0 0 0
630 210 1 0.5897 1.3743781052136241 7.405617332169537 10.800310344216392 0 0 0
620 207 1 0.5897 5.075957811855774 8.918288128493806 6.748189685556419 0 0 0
613 205 2 -1.1794 1.5671935942756485 9.128883560820222 10.653847273944322 0 0 0
611 204 1 0.5897 4.232354380830262 10.76472472806604 9.122641468537212 0 0 0
614 205 1 0.5897 2.389134476692075 9.51505902391766 10.351511481979239 0 0 0
134 45 1 0.5897 1.5883390720625898 9.355985561941297 5.683579211944232 0 0 0
612 204 1 0.5897 2.971939911473431 11.471555335107968 9.573634083777096 0 0 0
626 209 1 0.5897 4.462689889871485 11.564020053366468 6.389484849793018 0 0 0
619 207 2 -1.1794 4.697341571605606 9.670063480163952 6.292483313909143 0 0 0
606 202 1 0.5897 1.6930351426237795 7.842608503374429 7.777424271855204 0 0 0
610 204 2 -1.1794 3.2827450875772195 10.657866393767367 9.176765982575814 0 0 0
647 216 1 0.5897 5.854937636200413 7.737032006811853 8.571351194373673 0 0 0
646 216 2 -1.1794 6.085693199284596 7.665173480029808 7.645229975859379 0 0 0
506 169 1 0.5897 3.3652012395448416 6.480152448187627 6.619523591339663 0 0 0
629 210 1 0.5897 2.066276169155039 6.141215459940482 10.337330493271155 0 0 0
750 250 1 0.5897 1.556629208396718 12.316700291734838 11.2738831174084 0 0 0
1081 361 2 -1.1794 4.653826290845227 7.824258735375882 15.609792901885024 0 0 0
1082 361 1 0.5897 4.769915159870791 8.5839631204367 16.18036829105959 0 0 0
1083 361 1 0.5897 4.652358178740559 7.074844101921599 16.20523706090183 0 0 0
1084 362 2 -1.1794 3.0209284559715646 7.477163291858445 13.432179779175275 0 0 0
1086 362 1 0.5897 3.3141447881462294 8.020626535653435 12.700865739708583 0 0 0
1089 363 1 0.5897 5.389235330817713 10.657953035387035 15.106703717599789 0 0 0
1090 364 2 -1.1794 3.334808040605353 10.476416143153969 15.253684515581991 0 0 0
1092 364 1 0.5897 2.895475154553209 9.672512272131348 15.531027480224173 0 0 0
1097 366 1 0.5897 1.2389151730879029 7.634221492438319 13.569192282917 0 0 0
1102 368 2 -1.1794 1.6473258070367354 10.918489471469893 12.806962325317201 0 0 0
1103 368 1 0.5897 1.6953057566871341 10.230097054457584 12.143649090915511 0 0 0
1104 368 1 0.5897 2.1748746933401684 10.58822088642487 13.534103990123834 0 0 0
1099 367 2 -1.1794 4.628224238352515 9.44404421293484 12.003844228842064 0 0 0
1085 362 1 0.5897 3.5469544026317332 7.771335447194394 14.17573757609302 0 0 0
1100 367 1 0.5897 5.313650143131885 9.168469975507449 12.612419968592837 0 0 0
1091 364 1 0.5897 2.6947513969173977 11.168805825123844 15.418316269034152 0 0 0
1093 365 2 -1.1794 1.3767586325077459 8.911117977326589 16.428947480755763 0 0 0
1095 365 1 0.5897 0.5536320608464529 9.100958670134792 15.97891175644672 0 0 0
1094 365 1 0.5897 1.4409848986212317 7.956129772953274 16.419045678121684 0 0 0
1105 369 2 -1.1794 4.624099904285832 12.103614164826105 12.396966342668723 0 0 0
1107 369 1 0.5897 4.721731491068847 11.15274132651212 12.34656667231379 0 0 0
1096 366 2 -1.1794 0.3017122639766116 7.818804980575814 13.508433589047264 0 0 0
1108 370 2 -1.1794 1.5487096047303193 6.218502069308225 16.578566708433552 0 0 0
1178 393 1 0.5897 0.2817500810172514 11.555822946226284 15.237485722076348 1 0 0
1128 376 1 0.5897 6.015891547651375 6.94684812102455 13.039577677081972 0 0 0
1098 366 1 0.5897 -0.012307024048167418 7.765849552946807 14.411039720914474 0 0 0
1179 393 1 0.5897 0.3209439015398088 10.915792594759086 13.866182298011203 1 0 0
1127 376 1 0.5897 5.7616736383996905 7.718279574156717 14.317049483748653 0 0 0
1230 410 1 0.5897 1.3462330786180277 12.27633110317829 16.985809118067632 0 0 0
1588 530 2 -1.1794 1.483727850426241 6.117092745072482 22.152588902992555 0 0 0
1585 529 2 -1.1794 4.732820613339648 12.291954611881554 17.770285893830533 0 0 0
1608 536 1 0.5897 5.8262942486439995 7.342315161802154 19.918327173932646 0 0 0
1709 570 1 0.5897 0.6840837880191416 12.31154124204121 21.245128723877823 0 0 0
1564 522 2 -1.1794 2.950717460409972 7.360217606147946 19.482878771557235 0 0 0
1589 530 1 0.5897 1.4452564757876625 7.073464540437259 22.142663555906495 0 0 0
141 47 1 0.5897 4.65114430847745 9.045228840785231 22.702665032516943 0 0 -1
1710 570 1 0.5897 2.1270774457332275 11.945604589077208 21.519827254450064 0 0 0
1566 522 1 0.5897 3.055889956267654 6.753745193423462 18.74987889710483 0 0 0
1467 489 1 0.5897 5.12678101042639 6.442686502216344 18.112856590815056 0 0 0
1583 528 1 0.5897 0.43567452662015455 10.67080614519859 18.88355488825587 0 0 0
1584 528 1 0.5897 1.2534115168863145 10.08887102024738 17.750273149850177 0 0 0
1563 521 1 0.5897 4.101155949654351 7.380491664265025 20.93106997420912 0 0 0
1561 521 2 -1.1794 4.88345198503405 7.410653547091377 21.481722477950427 0 0 0
1573 525 2 -1.1794 1.2573310933521074 9.083149771083828 22.22014139335638 0 0 0
1581 527 1 0.5897 5.207503862633442 8.868052038732873 18.380394671161607 0 0 0
1572 524 1 0.5897 3.852602913160109 10.599622764601245 20.318990997568726 0 0 0
1570 524 2 -1.1794 2.897197015109107 10.566304726426367 20.36582692405352 0 0 0
1582 528 2 -1.1794 1.0868508286932563 10.904788841719714 18.22223411915788 0 0 0
1565 522 1 0.5897 2.04939811517539 7.673431638549414 19.407787395206128 0 0 0
1580 527 1 0.5897 3.751193931923647 9.26576200912971 18.26815069252308 0 0 0
1587 529 1 0.5897 4.759558901138953 11.336647018611325 17.824158558692023 0 0 0
1562 521 1 0.5897 4.6851758501677585 6.825272563489996 22.21259213253392 0 0 0
1579 527 2 -1.1794 4.623848493478585 9.488891671599564 17.944425276926804 0 0 0
1574 525 1 0.5897 1.9437237988632623 9.430476815381036 21.650625071869406 0 0 0
1571 524 1 0.5897 2.602784877540989 10.961876218942601 19.545478856212217 0 0 0
1576 526 2 -1.1794 0.2762044928483649 7.889906717952561 19.464599403557344 0 0 0
1567 523 2 -1.1794 5.7738098735572265 10.691190813416819 20.55936119761878 0 0 0
1578 526 1 0.5897 0.03472917468746317 7.966563948711849 20.38760287662734 0 0 0
241 81 2 -1.1794 4.570013376269582 14.20331070116925 4.2936258253445105 0 0 0
242 81 1 0.5897 4.439002327144915 13.618236758624281 5.039738797275376 0 0 0
243 81 1 0.5897 3.9958468438238093 13.85479861058114 3.6117143282158186 0 0 0
244 82 2 -1.1794 3.1492260535437486 13.319486712496477 2.0907039327031485 0 0 0
245 82 1 0.5897 2.1947573739745803 13.381214785200891 2.0547887443907404 0 0 0
246 82 1 0.5897 3.4567617877129075 14.167095914050016 1.7694848322709558 0 0 0
250 84 2 -1.1794 3.43537467330918 17.305842012479857 3.86975812475047 0 0 0
251 84 1 0.5897 2.9745507215719194 17.166471382792437 3.042511385964879 0 0 0
252 84 1 0.5897 4.342518083172904 17.06455426195773 3.6827144699415295 0 0 0
253 85 2 -1.1794 1.676318252251979 15.293785418194142 4.741676449756766 0 0 0
255 85 1 0.5897 2.3667057919824916 15.804014494648904 4.318387741798973 0 0 0
259 87 2 -1.1794 4.332405566549977 15.621582351483868 0.9631990092337115 0 0 0
262 88 2 -1.1794 1.7714597486696888 17.03192635694401 1.6204775847309318 0 0 0
263 88 1 0.5897 1.6165576712125198 16.20806087907911 1.1584729068422757 0 0 0
264 88 1 0.5897 1.734487509883571 17.701017404216334 0.9370174430126601 0 0 0
269 90 1 0.5897 1.677070712899938 13.443420784882777 4.691485219255211 0 0 0
254 85 1 0.5897 0.8624470542849468 15.646827075245076 4.382369561677686 0 0 0
260 87 1 0.5897 4.3418181234127635 16.571590656863968 0.8464795850962515 0 0 0
257 86 1 0.5897 0.32216336721145855 14.493136869957953 1.6963263551821344 0 0 0
740 247 1 0.5897 4.510480245632565 15.430735932879234 5.652095181538518 0 0 0
268 90 2 -1.1794 1.7654191229925387 12.505819069022502 4.862713482437545 0 0 0
147 49 1 0.5897 4.18317442560857 12.45246241099499 0.9591761978982234 0 0 0
288 96 1 0.5897 5.965573270102002 14.906782874214997 1.7199753628420884 0 0 0
247 83 2 -1.1794 6.046961086125029 17.080966529166854 3.597418413466984 0 0 0
258 86 1 0.5897 0.026937876905982705 13.009060287780864 1.7436545834566628 0 0 0
265 89 2 -1.1794 4.50486892052897 18.286814610501995 0.8761563350207607 0 0 0
256 86 2 -1.1794 0.43271856480602855 13.716473979073381 2.244740938083221 0 0 0
338 113 1 0.5897 0.5754582714089285 16.858709047501254 2.998994127622895 1 0 0
339 113 1 0.5897 0.030597564958872815 17.736987783554035 4.105098461160834 1 0 0
261 87 1 0.5897 4.506586761761483 15.270745564760988 0.08987377104782013 0 0 0
266 89 1 0.5897 4.750033737989857 18.534353158559398 -0.015327184090466517 0 0 0
768 256 1 0.5897 6.082705582394217 14.48115375395058 7.5243073571274826 0 0 0
748 250 2 -1.1794 1.7798612920001196 12.586725346549668 10.383169575066011 0 0 0
726 242 1 0.5897 3.227693374527502 13.569481645203284 7.560558290613858 0 0 0
723 241 1 0.5897 5.564683549172361 13.829239573429165 9.479360531550514 0 0 0
724 242 2 -1.1794 2.9703266289219354 14.22485678885966 8.20895996571478 0 0 0
735 245 1 0.5897 0.6940776528593121 15.820290133130754 10.345660548693369 0 0 0
736 246 2 -1.1794 0.3244919432840707 13.893023442606314 7.837354515774617 0 0 0
725 242 1 0.5897 3.27228722296508 15.056143587112778 7.842926751792943 0 0 0
727 243 2 -1.1794 5.8812695549519995 16.801832205332772 9.562481348065418 0 0 0
731 244 1 0.5897 2.3969160308261936 17.217828835232773 8.416866380982897 0 0 0
721 241 2 -1.1794 4.868767967470325 13.830059925739825 10.136485792637748 0 0 0
722 241 1 0.5897 4.0618607922020535 13.929278119525524 9.631348554026742 0 0 0
732 244 1 0.5897 2.6295877776044554 16.285989491047697 9.587014795322146 0 0 0
741 247 1 0.5897 4.682667117413039 16.638690732919883 6.548181896531916 0 0 0
869 290 1 0.5897 0.949821934189355 18.533991128712685 10.425797157868963 0 0 0
733 245 2 -1.1794 1.4224566700976413 15.348179763908464 10.749035569561261 0 0 0
749 250 1 0.5897 1.8474621381024905 13.540317804531957 10.431295648329815 0 0 0
743 248 1 0.5897 1.204199876447841 17.82621805241685 6.319029468973946 0 0 0
730 244 2 -1.1794 3.034122574577133 17.002380602097674 9.097794222106332 0 0 0
739 247 2 -1.1794 4.804175217839697 15.689507100586068 6.52554171316787 0 0 0
744 248 1 0.5897 1.579188567162572 16.359564703211017 6.332139740560288 0 0 0
737 246 1 0.5897 1.1994484490648614 14.190954945205316 8.085967640750473 0 0 0
728 243 1 0.5897 4.977825872263726 17.059826613686248 9.379880551481637 0 0 0
742 248 2 -1.1794 1.288798884057568 17.0717312840467 6.901934900137074 0 0 0
870 290 1 0.5897 2.427704458559189 18.211160202020302 10.368798374904479 0 0 0
868 290 2 -1.1794 1.763011181583397 18.619613314931136 10.923302706009993 0 0 0
745 249 2 -1.1794 4.655278921370168 18.557551029488877 6.534459354305417 0 0 0
625 209 2 -1.1794 4.50500103683396 12.52028053938857 6.389827654726072 0 0 0
627 209 1 0.5897 5.347026439661359 12.723093554325809 6.79722075519835 0 0 0
1221 407 1 0.5897 4.953120942542407 15.683520807815555 11.397666779066943 0 0 0
1201 401 2 -1.1794 4.581665149166679 14.113207837658338 15.725901725356684 0 0 0
1203 401 1 0.5897 4.758756290802126 13.361936012184737 16.291952346091723 0 0 0
1204 402 2 -1.1794 2.749332482150044 13.902498944965133 13.478805924007615 0 0 0
1205 402 1 0.5897 2.904630207704541 14.049402391454976 14.411764820681498 0 0 0
1206 402 1 0.5897 3.388453486992906 13.234269946102652 13.231438389540589 0 0 0
1210 404 2 -1.1794 3.2803656151846496 16.98684903059949 15.186209261829536 0 0 0
1212 404 1 0.5897 4.219066817127799 16.970187310116845 14.99999441942413 0 0 0
1213 405 2 -1.1794 1.3770770066023899 15.32750436935338 16.32517593102015 0 0 0
1215 405 1 0.5897 2.293449275356504 15.539543724595404 16.147932804682185 0 0 0
1218 406 1 0.5897 0.8772322634865489 14.273847456173353 13.540693178089652 0 0 0
1222 408 2 -1.1794 1.5041185311064822 16.737107915671654 13.200375988021934 0 0 0
1223 408 1 0.5897 1.540067329104086 17.522519594352165 12.654459309819876 0 0 0
1224 408 1 0.5897 2.0708162843370923 16.93664145680497 13.945460856058999 0 0 0
1229 410 1 0.5897 1.3728096929411642 13.55232720522678 16.171604455174347 0 0 0
1211 404 1 0.5897 3.1530936770802 17.77973344014391 15.70710118493197 0 0 0
1202 401 1 0.5897 5.238595792770824 14.051368485541403 15.032555155076304 0 0 0
1214 405 1 0.5897 0.9203862794070681 16.166441972742017 16.263382305053582 0 0 0
1220 407 1 0.5897 3.945228213030103 15.659161738969772 12.526896882636212 0 0 0
1219 407 2 -1.1794 4.817477895523164 15.97972309730493 12.297660073361563 0 0 0
1227 409 1 0.5897 4.331550244666288 17.827183018896772 12.511538630813684 0 0 0
1106 369 1 0.5897 4.569507603224814 12.387955484095393 11.484666682778313 0 0 0
1247 416 1 0.5897 5.906247038092924 14.600678490515083 13.255847739447395 0 0 0
1228 410 2 -1.1794 1.6047155490968577 12.624474540101868 16.132514193780718 0 0 0
1700 567 1 0.5897 4.5741887982545695 15.344873552686611 17.07188860067013 0 0 0
1298 433 1 0.5897 0.0625438530127127 17.0937787624823 14.311198072674056 1 0 0
1350 450 1 0.5897 0.9818313298784545 18.56773583016335 15.795740571753889 0 0 0
734 245 1 0.5897 1.4053038117765628 15.619381161362176 11.666788770559496 0 0 0
1248 416 1 0.5897 6.0670309532162126 13.106450555473778 13.0733579265202 0 0 0
1207 403 2 -1.1794 6.006117712872946 17.15991115409878 14.924296821897624 0 0 0
1778 593 1 0.5897 0.43119961865096545 17.027287256801614 20.021336946736657 1 0 0
1705 569 2 -1.1794 4.643302224525554 18.59470674770152 17.85700199777968 0 0 0
1586 529 1 0.5897 5.407605783487759 12.585814452403207 18.38219398561213 0 0 0
1779 593 1 0.5897 0.61139804400541 17.890039881324242 21.25213559123884 1 0 0
1687 563 2 -1.1794 6.031876724579406 16.990916268950183 20.914801203480586 0 0 0
1708 570 2 -1.1794 1.411332753038032 12.494643195585434 21.839849916126852 0 0 0
1694 565 1 0.5897 0.5621012660655497 15.37418223281937 22.20123717406703 0 0 0
1686 562 1 0.5897 3.4974477379349866 14.03935433474927 19.918236866788316 0 0 0
1701 567 1 0.5897 3.902461798917215 15.583066848126846 18.407415729923116 0 0 0
1777 593 2 -1.1794 0.09595642189215425 17.160674233726972 20.907865218533424 1 0 0
1696 566 2 -1.1794 0.3698608507197388 13.951197014635966 19.40475188550341 0 0 0
1691 564 1 0.5897 2.618405266396621 16.26589137371009 21.460843188820093 0 0 0
1682 561 1 0.5897 5.356799211480506 13.836615562266973 20.99497083112577 0 0 0
1704 568 1 0.5897 1.8221162265825697 17.67666399438305 17.873998636977323 0 0 0
1693 565 2 -1.1794 1.3240590801557641 15.046459476384381 22.678873764683793 0 0 0
1697 566 1 0.5897 1.313532064574352 13.928233084014556 19.246415548172777 0 0 0
1692 564 1 0.5897 2.8305181934292833 16.736669614964498 20.037823031639675 0 0 0
1703 568 1 0.5897 1.5828798752069653 16.182890622750726 17.931275890826438 0 0 0
1681 561 2 -1.1794 4.5811614133262255 13.898540288199078 21.55234361404139 0 0 0
1684 562 2 -1.1794 2.9875262323452016 14.098232676744997 19.110384391084242 0 0 0
1707 569 1 0.5897 4.854745966218464 17.66220011957351 17.81292765885815 0 0 0
1690 564 2 -1.1794 3.2112407787089414 16.78214962413812 20.91480018814044 0 0 0
1702 568 2 -1.1794 1.6649544026718803 16.95818608225766 18.48658480454912 0 0 0
1689 563 1 0.5897 5.093036467905606 16.83289814130383 20.816216207887802 0 0 0
1695 565 1 0.5897 1.4602402219002562 14.163052146144292 22.336443860216878 0 0 0
1683 561 1 0.5897 4.614420405740016 13.112824239372827 22.098008298398856 0 0 0
1685 562 1 0.5897 3.4229784574385893 13.495866099993114 18.50731753874111 0 0 0
1699 567 2 -1.1794 4.70492408550791 15.768929872375558 17.919953666502952 0 0 0
1698 566 1 0.5897 0.05972899064057202 14.701794868681533 18.898184823086556 0 0 0
361 121 2 -1.1794 4.523200128313817 20.431158620950722 4.391941278323498 0 0 0
362 121 1 0.5897 4.047595692632675 20.34017528636672 3.5663320001755414 0 0 0
364 122 2 -1.1794 2.8467475616996154 19.949315138134622 2.0304537921671 0 0 0
366 122 1 0.5897 3.1439982007554814 20.626331437243667 1.4226244027811292 0 0 0
370 124 2 -1.1794 3.124506387472067 22.901793437765157 3.24009652264031 0 0 0
371 124 1 0.5897 4.059176469774598 23.01318817956066 3.41357566750093 0 0 0
372 124 1 0.5897 2.8187840817255525 22.32059279771242 3.936438445885477 0 0 0
373 125 2 -1.1794 1.5664181655704275 21.677449112115223 5.180312696591181 0 0 0
375 125 1 0.5897 1.0048569381096426 22.133884356565495 4.55384654652659 0 0 0
381 127 1 0.5897 4.854487428503307 21.798113064934537 1.2045884796659725 0 0 0
382 128 2 -1.1794 1.2005823658030539 23.31053067974173 1.1660348531177116 0 0 0
383 128 1 0.5897 1.989395961168396 22.984733999177813 1.599336092856705 0 0 0
390 130 1 0.5897 1.320176974494705 19.944100062041418 4.963252924946943 0 0 0