LAMMPS data file via write_data, version 30 Jul 2021, timestep = 3250000

1296 atoms
2 atom types
864 bonds
1 bond types
432 angles
1 angle types

-10.473461497763346 12.453461497763346 xlo xhi
-9.122795072260606 12.112793072260606 ylo yhi
0.24364418116706688 21.616354818841508 zlo zhi
-9.110606705129756 1.6809224458233771 2.7791897447103033 xy xz yz

Masses

1 1.008
2 15.999

Pair Coeffs # lj/cut/tip4p/long/omp

1 0 0
2 0.21084 3.1668

Bond Coeffs # harmonic/omp

1 450 0.9572

Angle Coeffs # harmonic/omp

1 55 104.52

Atoms # full

282 94 1 0.5897 -10.42113543667527 -4.093091229998868 1.7080624843439889 1 1 0
280 94 2 -1.1794 -9.540947683576821 -4.468894012352237 1.6930579944662112 1 1 0
299 100 1 0.5897 -6.458008714094806 -7.937650167431912 4.2034657434625435 1 1 0
163 55 2 -1.1794 -7.161962989024458 -7.9548514546282405 1.0253296074458322 1 1 0
164 55 1 0.5897 -6.325923302204126 -8.266399259071992 1.3719999236568072 1 1 0
270 90 1 0.5897 -8.352421265886466 -7.272932392315639 2.2155066377981774 1 1 0
269 90 1 0.5897 -9.135797872703519 -5.996738992946372 2.4381739070791983 1 1 0
268 90 2 -1.1794 -8.95136573685879 -6.850048106886948 2.8308086364990235 1 1 0
310 104 2 -1.1794 -3.4684916902687286 -8.379226909686041 4.064304044761892 1 1 0
324 108 1 0.5897 -7.093257281447834 -4.193785416957468 3.7096115118367665 1 1 0
73 25 2 -1.1794 -8.46903590890804 -3.7056319057286924 4.890318896321617 1 0 0
298 100 2 -1.1794 -5.888039755487084 -7.169816191556759 4.2454453701526225 1 1 0
314 105 1 0.5897 -8.783351391013186 -6.710254598830708 4.70858463649182 1 1 0
261 87 1 0.5897 -6.670583781645051 -5.019882156738884 1.4775162610651802 1 1 0
311 104 1 0.5897 -2.7730666873056187 -7.904500815500663 3.6091016104044154 1 1 0
323 108 1 0.5897 -6.24700773285359 -5.440454895369742 3.5625957944966737 1 1 0
316 106 2 -1.1794 -1.7964590499586635 -4.491842697307566 1.575430075183189 1 1 0
317 106 1 0.5897 -1.1692330828307593 -3.7688271368383237 1.5699819155775885 1 1 0
306 102 1 0.5897 -0.8938633593102203 -7.247538250230072 2.386060139781328 1 1 0
243 81 1 0.5897 -0.8902839178274107 -5.3817591179501765 5.548196996940653 0 1 0
201 67 1 0.5897 0.2873104792449528 -8.487160793852434 0.4964336599539988 1 1 0
300 100 1 0.5897 -5.006580847097363 -7.530321191546362 4.3416529258031105 1 1 0
322 108 2 -1.1794 -6.375435368504417 -4.565216362066167 3.196846047036961 1 1 0
281 94 1 0.5897 -8.957114634890843 -3.716338870270076 1.7878968412427414 1 1 0
165 55 1 0.5897 -7.373648934617589 -8.56845216539385 0.3218711205506841 1 1 0
293 98 1 0.5897 -4.897810633033869 -3.825639615049422 2.45326464015945 1 1 0
259 87 2 -1.1794 -6.708473470423105 -5.27653194692099 0.5561755066642732 1 1 0
318 106 1 0.5897 -2.6512966351734146 -4.067337145138331 1.647780640693538 1 1 0
260 87 1 0.5897 -6.866813044956579 -6.22034517277226 0.5763208774348472 1 1 0
305 102 1 0.5897 -1.6402062893515126 -5.947288021367471 2.5964050763938507 1 1 0
304 102 2 -1.1794 -1.5448350352224303 -6.831304308045422 2.950986303872286 1 1 0
242 81 1 0.5897 -1.1233011136271713 -6.575459300392012 4.64677066039481 0 1 0
275 92 1 0.5897 -10.3061704372955 -7.840497042847691 3.4507386948256515 1 1 0
3 1 1 0.5897 -1.534527282220843 -3.3570184787193655 4.64641169293213 0 0 0
75 25 1 0.5897 -9.238852252891022 -3.2914605547320654 4.500355828306075 1 0 0
241 81 2 -1.1794 -1.0645538268226922 -6.322769232758246 5.568113409152144 0 1 0
199 67 2 -1.1794 0.4212504322370929 -7.863133348625716 1.2097434374085418 1 1 0
315 105 1 0.5897 -8.516676614298603 -5.428706561031458 5.469051196438212 1 1 0
420 140 1 0.5897 -9.107825298065602 -6.270172477893439 9.998223193497896 1 0 0
414 138 1 0.5897 -6.688033763506373 -4.919548612815295 7.708818722953045 1 0 0
413 138 1 0.5897 -7.379765054549164 -3.5743034110707566 7.770349612380051 1 0 0
412 138 2 -1.1794 -7.3453189560969765 -4.4282405381740855 8.201525802614789 1 0 0
350 117 1 0.5897 -7.131222522591877 -4.24753957940239 9.931378686087228 0 0 0
429 143 1 0.5897 -6.428147240781223 -7.30437530030902 8.741643955006264 1 0 0
428 143 1 0.5897 -6.539247140378219 -7.071573308790228 10.233366233474193 1 0 0
427 143 2 -1.1794 -5.914164005424011 -7.052308265246682 9.508751361083117 1 0 0
627 209 1 0.5897 -10.214965767172584 -6.703514809731576 6.654604120520169 1 1 0
618 206 1 0.5897 -7.791486728380301 -7.499620334757566 6.6740093401075855 1 1 0
419 140 1 0.5897 -8.844540857414774 -5.299290916625386 8.866818582022685 1 0 0
418 140 2 -1.1794 -9.551818469189207 -5.688772530125996 9.380867976108274 1 0 0
555 185 1 0.5897 -2.562157651569983 -6.690268747393399 6.554557365897814 0 1 0
554 185 1 0.5897 -2.818747968185133 -6.580652543154494 8.042485813644884 0 1 0
544 182 2 -1.1794 0.29363548573388343 -7.960405749545387 7.303083582984251 0 1 0
631 211 2 -1.1794 -5.527256003137742 -5.530655203281199 6.440391480133358 1 1 0
553 185 2 -1.1794 -3.2056019374289413 -6.905830946168026 7.229606821373992 0 1 0
616 206 2 -1.1794 -7.316603734856056 -8.021824498701804 7.320587979907829 1 1 0
404 135 1 0.5897 -5.369322793089344 -3.7992461310145798 5.971747810559329 1 0 0
546 182 1 0.5897 -0.15885995778922357 -7.312601626202968 6.762814060735509 0 1 0
348 116 1 0.5897 -1.614072715872373 -6.40886281963258 9.935101201912135 0 0 0
335 112 1 0.5897 -4.963969209656338 -5.4803315717708845 9.577293647135953 0 0 0
347 116 1 0.5897 -1.2289182922611008 -5.37073571606165 8.902656592061236 0 0 0
336 112 1 0.5897 -3.532661458563939 -4.991845272639048 9.643750315713676 0 0 0
346 116 2 -1.1794 -1.9866055454484126 -5.754697889216494 9.343853652904789 0 0 0
334 112 2 -1.1794 -4.43910479557189 -4.687071992128623 9.68434731097646 0 0 0
356 119 1 0.5897 1.0492638776425345 -7.071347527093746 10.125722585750283 0 0 0
359 120 1 0.5897 -4.794603289314464 -3.0665333975588656 8.906588852075828 0 0 0
632 211 1 0.5897 -4.6902932260672126 -5.887584011316463 6.737550061135669 1 1 0
351 117 1 0.5897 -7.102461904114422 -3.0172846590756297 10.8131071719986 0 0 0
349 117 2 -1.1794 -7.176853973746212 -3.971022819587642 10.846600404036792 0 0 0
357 119 1 0.5897 1.2669591607192991 -7.228916686669845 8.635903610922666 0 0 0
633 211 1 0.5897 -5.779043333193823 -6.089576701542869 5.7052875717352105 1 1 0
313 105 2 -1.1794 -8.732027687039922 -6.352835547195069 5.5950310943182995 1 1 0
652 218 2 -1.1794 -5.677771343915763 -5.6347550726338875 12.65599188232562 0 0 0
788 263 1 0.5897 -4.964367184730916 -4.699788239736966 15.58687144336072 0 0 0
780 260 1 0.5897 -7.41670897243265 -4.163640079952154 15.189293012236885 0 0 0
779 260 1 0.5897 -7.25857418886291 -2.955518268802278 14.290686660488616 0 0 0
778 260 2 -1.1794 -7.920030592158287 -3.5000223193854545 14.717527067405662 0 0 0
768 256 1 0.5897 -9.484921080689563 -2.661731257076214 14.656265932299522 0 0 0
654 218 1 0.5897 -6.174505523349946 -5.041292739687727 12.092663655647959 0 0 0
653 218 1 0.5897 -6.336423511314041 -6.223496166905224 13.024456461675578 0 0 0
766 256 2 -1.1794 -10.343051161528324 -2.23770005622905 14.656317969951436 0 0 0
740 247 1 0.5897 -10.747468192324572 -3.486358219837011 11.933207465700486 1 0 0
729 243 1 0.5897 -8.087805742112954 -7.093680870182017 12.016669799559622 1 0 0
684 228 1 0.5897 -8.432602013861446 -6.6541729630810895 14.40926789923132 0 0 0
682 228 2 -1.1794 -7.732046699527121 -6.980130386303297 13.844350405780592 0 0 0
663 221 1 0.5897 -8.654035520173528 -4.316316797156343 11.750944104777224 0 0 0
662 221 1 0.5897 -8.743141978218487 -4.221103827037762 13.25918594814426 0 0 0
661 221 2 -1.1794 -9.26365575154656 -4.4215532514654 12.4813296073587 0 0 0
767 256 1 0.5897 -10.968553628085475 -2.961992865006078 14.674904973205535 0 0 0
818 273 1 0.5897 -5.50686258210764 -1.854680510864787 15.336144205538254 0 0 0
655 219 2 -1.1794 -0.4972582308011493 -7.503210139040444 11.101729625416374 0 0 0
774 258 1 0.5897 -5.257580800253923 -2.381822132564773 13.042811905829858 0 0 0
789 263 1 0.5897 -4.701625151736697 -4.904096276311148 14.110054481733389 0 0 0
787 263 2 -1.1794 -4.299151309716729 -4.568922556485713 14.911202935755544 0 0 0
678 226 1 0.5897 -4.019112561405996 -6.172185275930991 12.313517644090602 0 0 0
699 233 1 0.5897 -1.0096132538770597 -4.159456474490144 11.965880853906201 0 0 0
697 233 2 -1.1794 -1.6754356645286776 -4.322217359048651 12.633984619998914 0 0 0
677 226 1 0.5897 -2.5341971076844185 -5.966174380455571 12.523886516341609 0 0 0
816 272 1 0.5897 0.25853937651551107 -4.089520061758055 15.402042719578365 0 0 0
814 272 2 -1.1794 -0.19007014880733664 -3.525261650023138 14.772243950686843 0 0 0
804 268 1 0.5897 -1.8864446078107182 -2.657082200567663 15.121628386260259 0 0 0
803 268 1 0.5897 -3.339518191390015 -3.059757603669034 14.987116814437796 0 0 0
802 268 2 -1.1794 -2.773134402021011 -2.2970217799969515 15.103911982132576 0 0 0
795 265 1 0.5897 -2.9109640569816335 -5.706008988014881 15.333202285850337 0 0 0
793 265 2 -1.1794 -2.0411714587429977 -5.968104615188922 15.634786278327754 0 0 0
720 240 1 0.5897 -0.7248519425998747 -6.536914928860384 14.35291357539052 0 0 0
718 240 2 -1.1794 -0.03750445675044034 -6.9181635046946965 13.806692658097464 0 0 0
698 233 1 0.5897 -1.283547368879443 -4.001940474426523 13.446395560707312 0 0 0
667 223 2 -1.1794 -3.9551438114189787 -2.9635053022435827 11.888376409198111 0 0 0
668 223 1 0.5897 -3.151773956716583 -3.4008791953184847 12.170365971873533 0 0 0
657 219 1 0.5897 -0.3969848435169858 -7.199475845542548 12.003873043806466 0 0 0
676 226 2 -1.1794 -3.183074372862569 -6.638268170509656 12.315506692176294 0 0 0
727 243 2 -1.1794 -8.156182949160451 -7.378883109931165 11.105539603101267 1 0 0
689 230 1 0.5897 1.1564973595670587 -5.896402143229417 13.027257598546154 0 0 0
739 247 2 -1.1794 -11.458939958038359 -3.0027663304955983 11.513460713250335 1 0 0
757 253 2 -1.1794 -9.792286294607946 -5.893484818168344 15.455653332786163 0 0 0
669 223 1 0.5897 -4.286144521060424 -3.507224925760605 11.17355522102104 0 0 0
758 253 1 0.5897 -9.40523651448526 -5.336062395042354 16.13066290294858 0 0 0
1089 363 1 0.5897 -6.442370840907272 -4.659444358571065 17.34590997762829 0 0 0
1262 421 1 0.5897 -0.27311474794263546 -2.8403765248498427 21.527054639207645 0 0 0
1123 375 2 -1.1794 1.3304269287494073 -5.001980459386593 16.526863836144905 0 0 0
1152 384 1 0.5897 -7.055382422271922 -4.080609966499864 19.590204689558075 0 0 0
1225 409 2 -1.1794 -8.261775959241636 -3.44654710517219 20.82632405934531 0 0 0
1124 375 1 0.5897 1.120146309253986 -5.929820709311133 16.63250727638964 0 0 0
1227 409 1 0.5897 -9.031055781325376 -3.00021282784221 20.472458897197228 0 0 0
1109 370 1 0.5897 -8.730969661889102 -3.421751155967808 17.595446533846562 0 0 0
1219 407 2 -1.1794 -10.50554203667434 -2.0140383697993514 20.05957185716966 0 0 0
1108 370 2 -1.1794 -9.294804344091167 -4.1941137073575625 17.637381231051997 0 0 0
1129 377 2 -1.1794 -7.740643981008374 -1.876205228859833 17.83902834754779 0 0 0
1151 384 1 0.5897 -6.147488375455088 -5.280543787370649 19.423441109795476 0 0 0
1150 384 2 -1.1794 -6.274854266706362 -4.380240663773625 19.124205322786654 0 0 0
1096 366 2 -1.1794 -9.0133314937225 -6.624525170998405 18.817390346831097 0 0 0
1178 393 1 0.5897 -0.8385467757841347 -6.444006270929167 20.681132578960163 0 0 0
1179 393 1 0.5897 -0.933177571392072 -5.157898372356033 21.474093759181912 0 0 0
1097 366 1 0.5897 -9.151468600531308 -5.737601190996946 18.484829695920226 0 0 0
1121 374 1 0.5897 -4.816719933386001 -3.561781445287453 18.434459965554268 0 0 0
1248 416 1 0.5897 -5.90737298198464 -1.419284257646913 20.82918845733028 0 0 0
1130 377 1 0.5897 -7.337766853120685 -1.829553428346502 18.706040113571618 0 0 0
1133 378 1 0.5897 -1.2538612013291672 -5.8583947783613874 18.45868601096461 0 0 0
1131 377 1 0.5897 -7.00641088495345 -1.8053462470388926 17.229076638278 0 0 0
1144 382 2 -1.1794 -1.589790767210241 -4.2642923265804225 17.737477003673877 0 0 0
1120 374 2 -1.1794 -4.111116072072441 -3.0725878372806994 18.011372350448077 0 0 0
1122 374 1 0.5897 -4.553392779410828 -2.528651105522391 17.359600297916174 0 0 0
1257 419 1 0.5897 -3.3021965856225446 -2.4454602377685184 19.383980688456425 0 0 0
1165 389 2 -1.1794 -0.03838352086841468 -2.031492884722768 17.750871604028738 0 0 0
1125 375 1 0.5897 1.3586702126190975 -4.659138028777345 17.420077023874942 0 0 0
1188 396 1 0.5897 0.803420433513617 -3.933737603077085 19.668511345795242 0 0 0
1255 419 2 -1.1794 -2.8378108158104327 -2.208902161814784 20.186825593155834 0 0 0
1256 419 1 0.5897 -3.509771663680886 -2.230872761740059 20.868108749136205 0 0 0
1261 421 2 -1.1794 -0.506692540884222 -3.4161181155044194 20.798953034486505 0 0 0
1263 421 1 0.5897 -1.341399263120186 -3.073018318427816 20.479971167451257 0 0 0
1146 382 1 0.5897 -2.487612047704766 -3.943420635871921 17.821904357420898 0 0 0
1145 382 1 0.5897 -1.052579038359431 -3.4722602262532014 17.720083015110152 0 0 0
1110 370 1 0.5897 -10.184890625004039 -3.8431550330664397 17.60987101131541 0 0 0
1187 396 1 0.5897 1.6203512814012875 -5.199862192584782 19.52190492989092 0 0 0
1177 393 2 -1.1794 -1.048306362655195 -6.1050274903395465 21.551334742518605 0 0 0
1087 363 2 -1.1794 -6.477298116893573 -5.055435848967663 16.475197720701953 0 0 0
1088 363 1 0.5897 -6.6373786195033215 -5.984609083982066 16.640404638706357 0 0 0
1143 381 1 0.5897 -8.40842871192511 -5.166460661679768 21.38893036350509 0 0 0
1141 381 2 -1.1794 -8.603641811297358 -6.101387227130299 21.452748803421766 0 0 0
1142 381 1 0.5897 -8.737429718995747 -6.380928282516258 20.54713678702736 0 0 0
1226 409 1 0.5897 -7.869486307846193 -2.810659326066107 21.424592928470375 0 0 0
794 265 1 0.5897 -1.810115592620571 -5.316253363941724 16.296499920598666 0 0 0
25 9 2 -1.1794 -4.147014657437214 0.6777496410780355 5.4351195308952 0 0 0
27 9 1 0.5897 -4.046805120534406 1.6218807337372994 5.313233332450121 0 0 0
84 28 1 0.5897 -8.13019725400536 -0.27173821554473676 4.16699431317997 1 0 0
67 23 2 -1.1794 -10.656431149863144 -2.2730437870823277 3.9728988657425055 1 0 0
103 35 2 -1.1794 -3.0337701226813207 -2.4108391455545615 4.2540210469485435 1 0 0
68 23 1 0.5897 -11.349967791620776 -2.443581380945056 4.6101531757113605 1 0 0
69 23 1 0.5897 -11.054922663568135 -2.4716208657968117 3.125579210591203 1 0 0
272 91 1 0.5897 -9.338922052161402 -1.2058218456029328 1.2458749920081045 1 1 0
271 91 2 -1.1794 -10.170439638661518 -0.8396563949847291 0.9446954480088104 1 1 0
258 86 1 0.5897 -12.536829631343702 -2.6457751996957173 1.223958271262174 1 1 0
52 18 2 -1.1794 -12.10429600053514 0.1769137604844797 2.717246566069638 1 0 0
53 18 1 0.5897 -12.228462836840357 1.063641709887273 2.378709824457687 1 0 0
54 18 1 0.5897 -11.46749798997765 -0.21988310420054447 2.12293962605193 1 0 0
82 28 2 -1.1794 -9.037386096174643 0.031317575556366606 4.13032556639471 1 0 0
83 28 1 0.5897 -9.557557393106197 -0.7716414083871772 4.1005493922350595 1 0 0
107 36 1 0.5897 -9.285176326397671 1.5847169795138516 3.2689024241580054 1 0 0
301 101 2 -1.1794 -7.896657113380936 -2.132950790603445 1.8311197024418937 1 1 0
98 33 1 0.5897 -11.846204566040504 0.5856704948419136 4.474835014561831 1 0 0
292 98 2 -1.1794 -4.219754601539488 -3.3470275033867294 1.9764429699571349 1 1 0
97 33 2 -1.1794 -11.817642035549426 0.9592859499660307 5.3556090602449995 1 0 0
105 35 1 0.5897 -3.3781886148537597 -2.620035808766163 3.3858108291479883 1 0 0
302 101 1 0.5897 -7.491700530369297 -1.8984958809108399 2.6661138915979143 1 1 0
303 101 1 0.5897 -7.207634434526565 -1.9911751784390548 1.1820315516146809 1 1 0
88 30 2 -1.1794 -4.355302013549506 -0.07651533540165367 2.68119348020359 1 0 0
26 9 1 0.5897 -4.118118067971213 0.3170101154304579 4.54900431904865 0 0 0
89 30 1 0.5897 -4.482518005327863 0.8328066083483563 2.4105368848086512 1 0 0
94 32 2 -1.1794 -6.484550158079923 -1.1863493803722038 4.048705638010334 1 0 0
44 15 1 0.5897 -9.787325667157033 0.9109374132855077 0.3129316414355485 1 0 0
294 98 1 0.5897 -4.7029273073805244 -2.730015701620344 1.4267814421837821 1 1 0
256 86 2 -1.1794 -12.089191346373697 -3.2313070319151844 1.834739531445293 1 1 0
96 32 1 0.5897 -6.058755474598698 -1.782566036198654 4.6647529005894075 1 0 0
90 30 1 0.5897 -3.6769703296934617 -0.40916064266983554 2.0935117190107535 1 0 0
104 35 1 0.5897 -3.7705360563480728 -2.5594310507849753 4.846692390160439 1 0 0
95 32 1 0.5897 -5.767858228193957 -0.8349988791874754 3.520420328303042 1 0 0
59 20 1 0.5897 -13.405956245903434 -0.7331164175027247 3.4739660888617525 1 0 0
99 33 1 0.5897 -11.548206557237146 1.868055787746524 5.222160403342299 1 0 0
307 103 2 -1.1794 -2.473384386118484 -0.8725122318505516 0.8365374398003518 1 1 0
11 4 1 0.5897 -1.97480204606061 -0.9546846023475464 4.264664243541128 0 0 0
74 25 1 0.5897 -8.16657894527953 -3.0790739011630714 5.547671391918646 1 0 0
1285 429 2 -1.1794 -5.6482948813491545 -1.6934196551201124 0.2632747580747444 0 0 1
425 142 1 0.5897 -7.428042699454208 -1.2174403510935177 6.954246442519859 1 0 0
527 176 1 0.5897 -11.96805792708479 1.580446648690236 8.718112048951802 1 0 0
522 174 1 0.5897 -9.781057721190386 2.1504267247478843 7.508252979273704 1 0 0
426 142 1 0.5897 -8.901262824201066 -1.5469155344361507 7.067120070061885 1 0 0
526 176 2 -1.1794 -12.69204236040645 1.0829782932365397 9.098322384943867 1 0 0
537 179 1 0.5897 -9.497078699471878 0.07913150107757438 8.57548660353232 1 0 0
536 179 1 0.5897 -9.691074723884917 0.017371729676964875 10.075610969152688 1 0 0
535 179 2 -1.1794 -9.026296319817611 0.16949194468280382 9.403971017243167 1 0 0
528 176 1 0.5897 -12.293672767438444 0.5891088493866885 9.815031724371314 1 0 0
435 145 1 0.5897 -7.681816196891681 -0.906181818260956 9.893577976798678 0 0 0
400 134 2 -1.1794 -10.485395569881085 -0.6623649378667675 7.142439452618741 1 0 0
424 142 2 -1.1794 -8.039280013282497 -1.9536281739936472 6.9790517725344055 1 0 0
401 134 1 0.5897 -11.189185967196087 -1.1187513749064184 7.603503063420505 1 0 0
402 134 1 0.5897 -10.936391253384404 -0.09631407731652253 6.515965769684833 1 0 0
411 137 1 0.5897 -13.3876386796702 0.5578102716944944 6.227860317631405 1 0 0
443 148 1 0.5897 -7.961354766128776 1.6004748458076765 9.520350367000761 0 0 0
433 145 2 -1.1794 -6.893080133759662 -1.2885573313161256 10.2781614100409 0 0 0
415 139 2 -1.1794 -8.519487609676496 1.7191707849871083 6.307826537255701 1 0 0
328 110 2 -1.1794 -2.8488566910483186 -0.7925083944687543 7.385279194774422 0 0 0
337 113 2 -1.1794 -6.317582119407206 0.1158734836803994 6.96186220730986 0 0 0
456 152 1 0.5897 -4.563944631505044 0.6391257014480747 9.878165336405324 0 0 0
464 155 1 0.5897 -2.113084134792034 0.00978475713197291 10.21724679911285 0 0 0
455 152 1 0.5897 -4.296429837546192 1.6401116860973168 8.77431652937185 0 0 0
330 110 1 0.5897 -3.1765181968042366 -0.3093896890091088 6.626656046783211 0 0 0
454 152 2 -1.1794 -5.000183018879274 1.1427175570747252 9.190875635468343 0 0 0
444 148 1 0.5897 -6.516602174090439 2.051257726473411 9.486283106736987 0 0 0
329 110 1 0.5897 -3.6133155832066457 -1.2615322318206905 7.719640272261277 0 0 0
442 148 2 -1.1794 -7.411645143335765 2.383267173547166 9.555851075909715 0 0 0
416 139 1 0.5897 -7.773650524494013 1.2470523561786386 6.67805715921712 1 0 0
405 135 1 0.5897 -5.18819668815972 -2.4944389787917087 6.717726778091115 1 0 0
360 120 1 0.5897 -5.57442617059497 -1.774983312680308 9.032009767802414 0 0 0
358 120 2 -1.1794 -4.90405800137283 -2.2059749615561683 8.501899987186055 0 0 0
339 113 1 0.5897 -5.629648468337986 0.2779745383638268 6.316385446015813 0 0 0
338 113 1 0.5897 -5.93034782794336 0.3793190567862137 7.796619029167666 0 0 0
403 135 2 -1.1794 -5.256246808303664 -2.8585884280914273 5.835154620973285 1 0 0
354 118 1 0.5897 -1.307550541887899 -1.6311264246548456 7.065430351879884 0 0 0
417 139 1 0.5897 -8.842260611048914 1.148735915816058 5.610267361314415 1 0 0
465 155 1 0.5897 -1.940434102136983 -0.14873913974359532 8.721637954014506 0 0 0
836 279 1 0.5897 -11.265068254854384 -1.2974453975242985 10.887191257555282 1 0 0
902 301 1 0.5897 -4.900528669383794 1.791884514095722 16.252145600704228 0 0 0
828 276 1 0.5897 -4.130086700944461 0.43296023183200205 14.343064898107976 0 0 0
764 255 1 0.5897 -3.686946030302499 -1.3211431657011783 11.13610095782498 0 0 0
762 254 1 0.5897 -9.238226683110028 2.2919979369201826 11.923659996778795 0 0 0
760 254 2 -1.1794 -8.814692648305613 1.6801108184931675 12.525732849510515 0 0 0
792 264 1 0.5897 -11.450082813571987 0.6033667306081458 14.211141630045256 0 0 0
837 279 1 0.5897 -11.241994369041295 -0.15865503977294182 11.884387622915463 1 0 0
896 299 1 0.5897 -8.027690672475515 2.333536514243656 15.394687522522137 0 0 0
791 264 1 0.5897 -10.701198300830786 -0.6930585262423659 13.986676673591202 0 0 0
790 264 2 -1.1794 -10.820861524517706 0.18463801637940946 13.623853458333334 0 0 0
761 254 1 0.5897 -9.53542001884566 1.1720303443242717 12.898014762538065 0 0 0
769 257 2 -1.1794 -12.298403125607912 2.6167408728988697 12.423197175421599 0 0 0
806 269 1 0.5897 -4.4325903799191035 2.720907096339497 13.28863186157721 0 0 0
807 269 1 0.5897 -4.07318554156155 2.7493283424009274 11.818320442098583 0 0 0
897 299 1 0.5897 -7.902938713220427 2.450117244085014 13.890466323918675 0 0 0
888 296 1 0.5897 -10.460370556756274 3.0751390275425727 15.25686860273131 0 0 0
786 262 1 0.5897 -7.321257527604466 0.8289972113566044 12.295286571004068 0 0 0
819 273 1 0.5897 -5.372731869879244 -0.607674034607685 16.183954687476678 0 0 0
924 308 1 0.5897 -2.9053744049286205 3.019055695426893 15.306262230775792 0 0 0
901 301 2 -1.1794 -5.22545839276243 1.1159950701609862 15.65736181526199 0 0 0
895 299 2 -1.1794 -7.40779730310369 2.561738912592686 14.701984015198681 0 0 0
784 262 2 -1.1794 -6.471184776428618 0.38995168402661307 12.323552784335632 0 0 0
817 273 2 -1.1794 -5.537107460365945 -1.5488467324953383 16.2426273627567 0 0 0
765 255 1 0.5897 -3.625275943821161 -0.10420227656598868 12.034461036950477 0 0 0
785 262 1 0.5897 -5.833353975559119 1.1033021869992474 12.345802389315965 0 0 0
763 255 2 -1.1794 -3.6091110016740835 -0.3673388910600739 11.114312305415375 0 0 0
773 258 1 0.5897 -6.136560772675288 -1.1579569814313606 13.189364504522116 0 0 0
835 279 2 -1.1794 -11.26075210892216 -0.34198963087607126 10.945124838663297 1 0 0
827 276 1 0.5897 -3.1127452052062345 -0.6862782704420471 14.277991088319524 0 0 0
826 276 2 -1.1794 -3.383166378630307 0.11765691583699933 13.83428929181561 0 0 0
903 301 1 0.5897 -6.017144468293776 1.4938311420939279 15.274362153889042 0 0 0
805 269 2 -1.1794 -4.793535288750814 2.5547695484228434 12.41783048386585 0 0 0
797 266 1 0.5897 -1.954162631618157 0.9635042605734245 13.174493488835004 0 0 0
770 257 1 0.5897 -11.88479016778779 2.753042384705209 13.275564942564435 0 0 0
771 257 1 0.5897 -11.605597028886644 2.7988957207074154 11.788366720023003 0 0 0
772 258 2 -1.1794 -5.940922391092359 -2.0024760629321907 13.595354047884001 0 0 0
866 289 1 0.5897 -12.379434299727368 1.8908815597388244 15.951337790766232 0 0 0
865 289 2 -1.1794 -12.6838824733257 1.2325174601751918 15.326808741373654 0 0 0
1101 367 1 0.5897 -10.105173805729535 -1.2217544289590485 16.106556244367106 0 0 0
434 145 1 0.5897 -6.625932276800396 -0.6618982330447647 10.950544349850913 0 0 0
1204 402 2 -1.1794 -11.842226597784641 0.3767727348041685 18.63399121970611 0 0 0
1272 424 1 0.5897 -0.3156160091549882 -0.3079660449334618 20.08027622046755 0 0 0
1217 406 1 0.5897 -11.689699730517503 3.6011669429934923 17.767271801234372 0 0 0
1241 414 1 0.5897 -4.525984947266309 1.144649353501082 18.364173601154032 0 0 0
1252 418 2 -1.1794 -4.766822981615265 2.839867198468509 17.58547847486658 0 0 0
1011 337 1 0.5897 -12.038901143798517 4.120461817318276 20.454821216101724 0 -1 0
1246 416 2 -1.1794 -6.402512058777038 -0.9782528154506878 20.138832631934772 0 0 0
1218 406 1 0.5897 -13.153657248425642 3.2298038135397356 17.66437219102255 0 0 0
1009 337 2 -1.1794 -11.219880002929653 3.725043853766385 20.75326059824413 0 -1 0
1260 420 1 0.5897 -9.927646290937425 3.1163761990023886 19.556553056298426 0 0 0
1259 420 1 0.5897 -9.22928305408884 1.7916439056489484 19.33447436216649 0 0 0
1258 420 2 -1.1794 -9.274042072051682 2.6886726366180493 19.003348670230988 0 0 0
1100 367 1 0.5897 -9.273665422914622 -0.9444245135047122 17.340831231391014 0 0 0
1137 379 1 0.5897 -2.592043063029495 -1.174361969734477 16.427638017648135 0 0 0
1236 412 1 0.5897 -8.02953117324408 -0.3028983666434435 20.146415396588367 0 0 0
1235 412 1 0.5897 -9.52360691709557 -0.5465963031142262 20.150174329128106 0 0 0
1234 412 2 -1.1794 -8.870590845233183 0.15227409572256612 20.18674192317377 0 0 0
1205 402 1 0.5897 -12.01088997200314 1.2134553406601132 18.200598533832583 0 0 0
1197 399 1 0.5897 -9.566607534121443 2.3615232220327353 17.2556623495687 0 0 0
1216 406 2 -1.1794 -12.273751753581234 2.8539949319886038 17.63761650190122 0 0 0
1206 402 1 0.5897 -11.292768662557316 -0.10660680057284644 18.017055184170346 0 0 0
1099 367 2 -1.1794 -10.03285108739214 -0.626197531119109 16.852377739877518 0 0 0
1195 399 2 -1.1794 -9.441623042302943 2.0057002050525323 16.375925649597267 0 0 0
1253 418 1 0.5897 -4.152080966108304 3.5725766101166183 17.623122552424523 0 0 0
1254 418 1 0.5897 -5.622220280386952 3.235528371449613 17.7525844023678 0 0 0
1196 399 1 0.5897 -9.629625785411154 1.0714559808338802 16.46599742186097 0 0 0
1247 416 1 0.5897 -5.737019384288472 -0.5391165517881884 19.609235228901337 0 0 0
1295 432 1 0.5897 -1.4284296677016428 1.7470579555081809 19.540030070443585 0 0 0
1240 414 2 -1.1794 -4.370160452719054 0.336345247518123 18.85272059278408 0 0 0
1296 432 1 0.5897 -2.188055871656859 3.037639772370616 19.76206593350302 0 0 0
1242 414 1 0.5897 -3.640580445107087 -0.08294059503669082 18.396562604564508 0 0 0
1249 417 2 -1.1794 -11.733979007440508 1.1476269719834953 21.339160515211166 0 0 0
1233 411 1 0.5897 -1.8508894161899612 2.4158195653715513 17.492728015648925 0 0 0
1229 410 1 0.5897 -7.9742435904941535 3.6514608644693194 18.301370249714598 0 0 0
1286 429 1 0.5897 -4.104519543593706 0.7173460896827866 20.763274665103253 0 0 0
1047 349 1 0.5897 -4.268512726751497 4.056774930691187 20.456120038774202 0 -1 0
1251 417 1 0.5897 -11.498661707060712 2.064632989405572 21.19775160801306 0 0 0
1271 424 1 0.5897 -1.7858503146372016 -0.6667189048339548 20.11741555646513 0 0 0
1135 379 2 -1.1794 -2.3170437665571537 -0.612101532025255 17.151795240486077 0 0 0
1136 379 1 0.5897 -1.5202107263906797 -1.0238529216455223 17.48606953731268 0 0 0
1045 349 2 -1.1794 -3.4949339195650166 3.6505103774155554 20.8469554726846 0 -1 0
1270 424 2 -1.1794 -1.1890934643043867 0.08166669457722087 20.117828714178298 0 0 0
1250 417 1 0.5897 -11.6969131661528 0.753265980862377 20.46779700503301 0 0 0
1232 411 1 0.5897 -2.1636856609218764 1.2157668417048786 16.624505379807303 0 0 0
1287 429 1 0.5897 -3.8565698954139815 2.0245665796335377 21.485430778144437 0 0 0
309 103 1 0.5897 -1.0804080278529877 1.286909873249348 21.53906665621236 1 1 -1
1231 411 2 -1.1794 -1.9356702710121887 2.144302903594978 16.578798626071045 0 0 0
273 91 1 0.5897 -8.76503550539638 1.3581838351458533 21.608681160887574 1 1 -1
1046 349 1 0.5897 -3.2586057055233146 4.231064594320287 21.570333156564548 0 -1 0
40 14 2 -1.1794 -14.966074564413713 3.8147658646894396 1.886896013707316 1 0 0
177 59 1 0.5897 -13.934011624795296 4.604869111024676 3.312981581251316 1 0 0
42 14 1 0.5897 -15.414230825986307 4.370390552244189 1.2491488169809273 1 0 0
85 29 2 -1.1794 -10.80543832295712 4.978661763842512 1.64706709040297 1 0 0
162 54 1 0.5897 -14.346665687154047 6.842688483446727 2.2411704501737013 1 0 0
55 19 2 -1.1794 -13.164531344956531 6.292025831217522 1.0028778276746242 1 0 0
56 19 1 0.5897 -12.326223943977118 5.995471702453381 1.357133917957501 1 0 0
66 22 1 0.5897 -13.34751658246011 3.0246136178729355 1.7375406048454347 1 0 0
65 22 1 0.5897 -11.880257264086564 3.3913072767995 1.6715458234603726 1 0 0
64 22 2 -1.1794 -12.479203443847819 2.648867523075767 1.5925485074245853 1 0 0
191 64 1 0.5897 -12.491163225339008 6.278595473876507 4.078543128003249 1 0 0
190 64 2 -1.1794 -11.860598264895991 6.9982401906555385 4.1048655291392215 1 0 0
183 61 1 0.5897 -12.00224802466478 3.773474880250925 4.392680100587785 1 0 0
181 61 2 -1.1794 -11.136591498573198 3.449662139597365 4.641645831118295 1 0 0
176 59 1 0.5897 -14.227086728415586 4.712796013863899 4.794278094160216 1 0 0
175 59 2 -1.1794 -13.516005987658339 4.776654229644862 4.156746253809279 1 0 0
108 36 1 0.5897 -9.953692342104116 2.940768285738365 3.3474396492619 1 0 0
101 34 1 0.5897 -4.194312526023306 3.215147293850679 1.6061722138210248 1 0 0
192 64 1 0.5897 -11.00649222751857 6.567646374709344 4.140785529133718 1 0 0
86 29 1 0.5897 -10.265993059358957 5.2987543247573825 2.370048845823185 1 0 0
45 15 1 0.5897 -9.592804638494579 2.1998871586927553 1.0827254562849509 1 0 0
106 36 2 -1.1794 -9.329651217300071 2.4334371677797133 2.8284460064245445 1 0 0
212 71 1 0.5897 -6.521226017153349 4.596027251088962 4.5580497538558795 1 0 0
211 71 2 -1.1794 -5.852186628220041 4.7997830071036525 3.9045625630648226 1 0 0
167 56 1 0.5897 -16.387684087840338 6.2188823324004865 3.4380859231835537 1 0 0
204 68 1 0.5897 -8.959553581048302 5.325593606464318 4.421010913841768 1 0 0
111 37 1 0.5897 -4.43247898049481 3.695718946416786 4.366801961486988 0 0 0
100 34 2 -1.1794 -4.786440657742808 2.4692149141380675 1.701961202319415 1 0 0
76 26 2 -1.1794 -7.224707305712643 3.719932541620791 1.764841311546793 1 0 0
77 26 1 0.5897 -7.968399048087395 3.313167944375664 2.209413837558553 1 0 0
78 26 1 0.5897 -7.6215365732526354 4.313712837376121 1.1274711692556614 1 0 0
203 68 1 0.5897 -8.698817157330573 6.422919085425352 3.4110951824176374 1 0 0
202 68 2 -1.1794 -9.4052091189584 5.9241798139236685 3.8215341794122915 1 0 0
102 34 1 0.5897 -5.660749598732686 2.8581850595865976 1.7236814031898302 1 0 0
87 29 1 0.5897 -10.248860192430463 5.069785098410177 0.8737025033777595 1 0 0
213 71 1 0.5897 -6.253694529996031 4.563715897818781 3.068358835127469 1 0 0