LAMMPS data file via write_data, version 30 Jul 2021, timestep = 25750000

972 atoms
2 atom types
648 bonds
1 bond types
324 angles
1 angle types

0.16712735527627487 19.832873644721708 xlo xhi
0.08301369041588913 19.916987309581955 ylo yhi
0.17958030107710243 20.5204176989349 zlo zhi

Masses

1 1.008
2 15.999

Pair Coeffs # lj/cut/tip4p/long/omp

1 0 0
2 0.21084 3.1668

Bond Coeffs # harmonic/omp

1 450 0.9572

Angle Coeffs # harmonic/omp

1 55 104.52

Atoms # full

4 2 2 -1.1794 3.9917686214225725 1.068704424880894 3.30028060578655 0 0 0
5 2 1 0.5897 4.126374153010927 0.4131016524566231 2.6159769159656823 0 0 0
17 6 1 0.5897 4.527505584775856 4.497204091352417 2.804708607153143 0 0 0
10 4 2 -1.1794 1.6917809723534067 4.22176428017666 3.8277354233231184 0 0 0
11 4 1 0.5897 1.2418386646423336 3.502764075391663 3.3841482657242676 0 0 0
12 4 1 0.5897 2.6223008274049358 4.041904711663621 3.693349368213116 0 0 0
16 6 2 -1.1794 4.402519555711799 3.884639802007998 3.5295199663265557 0 0 0
18 6 1 0.5897 4.447670475998268 3.01936739159078 3.1228245979235014 0 0 0
23 8 1 0.5897 2.3940825165869706 1.0084199668095457 4.283805047221481 0 0 0
31 11 2 -1.1794 0.7285699606430129 2.068251250415668 2.407166694317265 0 0 0
33 11 1 0.5897 1.3811949541618416 2.3871263243095493 1.7837408684602627 0 0 0
3 1 1 0.5897 3.4157815220144405 2.4886439480186686 0.5311381430543738 0 0 0
236 79 1 0.5897 0.8900126629847838 0.23868911276088076 2.374763491632271 0 1 0
6 2 1 0.5897 4.74568415128952 0.9674408087891596 3.8813275385418797 0 0 0
22 8 2 -1.1794 1.7953692743954732 0.8730474669563226 5.018308857959162 0 0 0
1 1 2 -1.1794 2.5036860841876054 2.632019084550543 0.27856182327359846 0 0 0
356 119 1 0.5897 1.627024730337237 2.3547063147261302 8.387231367360501 0 0 0
328 110 2 -1.1794 4.189924343844701 1.5328259089854142 10.025019171260425 0 0 0
325 109 2 -1.1794 2.5877895835567744 2.6184415328411514 6.868456229550245 0 0 0
326 109 1 0.5897 2.430411226350864 2.014087472127868 6.143053828526264 0 0 0
327 109 1 0.5897 3.474915205823937 2.413235162317006 7.163674421783234 0 0 0
330 110 1 0.5897 4.117273152925303 0.7818970890849061 9.43594387914412 0 0 0
355 119 2 -1.1794 0.9213167601858776 2.125360451976189 8.991910760741192 0 0 0
561 187 1 0.5897 1.0605558261245966 0.4061684526921185 9.129298494396338 0 1 0
27 9 1 0.5897 2.7498814558122087 4.431507508172093 6.2965396844251025 0 0 0
342 114 1 0.5897 4.355949921902137 4.770381684577567 9.887123346232794 0 0 0
24 8 1 0.5897 2.1555787147008627 0.11945564981572637 5.485773192022103 0 0 0
335 112 1 0.5897 1.1428124269339412 3.3975033898418068 10.006853220269738 0 0 0
81 27 1 0.5897 0.46621379263602003 4.442174653467411 5.266818838052622 1 0 0
336 112 1 0.5897 2.2723282637548583 4.158163183081358 10.668291020960874 0 0 0
350 117 1 0.5897 2.722856795988839 4.445892921468887 13.565075234709983 0 0 0
346 116 2 -1.1794 2.3279970246411312 0.8586052647379915 11.933908223539126 0 0 0
347 116 1 0.5897 1.4139785566925287 0.9608276965136645 11.668616531240332 0 0 0
348 116 1 0.5897 2.831061481838235 1.0642671546356146 11.145935984732413 0 0 0
334 112 2 -1.1794 1.3207473532999747 4.154787454884996 10.56455742020275 0 0 0
649 217 2 -1.1794 2.649164870204168 2.717373730056535 13.852488715386993 0 0 0
650 217 1 0.5897 2.443052406803867 2.1607607416717585 13.101548155458522 0 0 0
651 217 1 0.5897 1.9538911397927048 2.5348264559278895 14.484590326308883 0 0 0
683 228 1 0.5897 4.414058597680693 2.674082759692235 14.320073167671621 0 0 0
329 110 1 0.5897 4.844505418034417 1.268387001199422 10.67143951958236 0 0 0
340 114 2 -1.1794 4.194623652333594 4.236046461795128 10.664746162385182 0 0 0
341 114 1 0.5897 4.265920980805249 3.3333655974444283 10.35457198072015 0 0 0
652 218 2 -1.1794 4.399156577668485 1.1947098470175193 17.172658573048395 0 0 0
653 218 1 0.5897 3.4997813883702054 1.1525155143253767 17.49766332959714 0 0 0
654 218 1 0.5897 4.443219808709403 0.5155989111061926 16.49955423967156 0 0 0
658 220 2 -1.1794 1.6526609405844688 3.8907759825559314 17.726860351273253 0 0 0
659 220 1 0.5897 1.054635404866528 4.020951342239574 18.462867031056234 0 0 0
664 222 2 -1.1794 4.3128487056660765 4.002887128096289 17.132532850698514 0 0 0
665 222 1 0.5897 3.379626504710426 4.061249620494598 17.33739922617624 0 0 0
666 222 1 0.5897 4.47045258435857 3.068850622179756 16.99523579862101 0 0 0
670 224 2 -1.1794 1.9873542956624368 0.9946462488341444 18.48851932678863 0 0 0
671 224 1 0.5897 2.1430305063944086 1.7872964067942025 19.001976547176984 0 0 0
672 224 1 0.5897 1.0361139691858428 0.8879834014455283 18.494205349180312 0 0 0
681 227 1 0.5897 1.0160863613005595 2.7707619912481376 16.50647140296065 0 0 0
679 227 2 -1.1794 0.8666724404956163 2.071691143648872 15.8699460714472 0 0 0
2 1 1 0.5897 2.465780171193958 3.5556270134288757 20.37115516463586 0 0 -1
660 220 1 0.5897 1.4995435143044737 4.6444231206376205 17.1569958566022 0 0 0
884 295 1 0.5897 0.875571160229273 0.24919178370931688 15.718716162890424 0 1 0
110 37 1 0.5897 2.0121941782822237 9.390442513168473 0.8424952733946909 0 0 0
141 47 1 0.5897 1.1702414101566767 8.080858303136083 2.505330281604527 0 0 0
139 47 2 -1.1794 0.9434154581973624 8.96355963819765 2.2128868082970774 0 0 0
114 38 1 0.5897 3.4479213762526872 7.717426086122569 3.73790574640424 0 0 0
113 38 1 0.5897 4.90936771962491 7.741709466110251 4.132352622958761 0 0 0
14 5 1 0.5897 4.239392027779188 5.664878014847237 0.9577747577117067 0 0 0
20 7 1 0.5897 1.2446956399377591 5.70822241982778 2.827641498352041 0 0 0
19 7 2 -1.1794 1.216757496784691 6.279949484704426 2.0604556418405076 0 0 0
674 225 1 0.5897 2.161521218478508 5.747654601728187 0.7823991480367075 0 0 1
112 38 2 -1.1794 4.327808338315901 7.824957968381643 3.3766366763411573 0 0 0
15 5 1 0.5897 4.709889549873782 6.670621881921948 1.9868302551606036 0 0 0
140 47 1 0.5897 1.1488783718296625 9.524329865375321 2.960919293858022 0 0 0
111 37 1 0.5897 3.4614000175919437 9.3363136340154 0.40791083972826986 0 0 0
13 5 2 -1.1794 4.919979918470684 5.814438459872152 1.6140628421259129 0 0 0
126 42 1 0.5897 4.291398704621915 9.619891874973304 3.6217991447404025 0 0 0
132 44 1 0.5897 1.1939879523039911 7.593728157047366 5.168956482896434 0 0 0
130 44 2 -1.1794 2.141849771446508 7.653429909559317 5.049511756161912 0 0 0
21 7 1 0.5897 0.32539941279753615 6.186935322145609 1.7241394815090694 0 0 0
339 113 1 0.5897 4.291597851866806 5.670982507272115 7.6348879577297355 0 0 0
464 155 1 0.5897 1.4751655742810417 8.861266091300623 8.367592050267671 0 0 0
438 146 1 0.5897 4.3697638687972065 8.892626734126788 9.929151768377846 0 0 0
437 146 1 0.5897 4.332179960925718 7.476314556995007 9.395971901158372 0 0 0
344 115 1 0.5897 1.4969078949549897 5.563017891413979 9.266409652752971 0 0 0
435 145 1 0.5897 2.2943526786023685 9.111761411270056 6.372863296510604 0 0 0
433 145 2 -1.1794 2.425518872044707 9.55453753832928 7.211307350699217 0 0 0
463 155 2 -1.1794 0.7778116605801184 8.579893232913784 8.95986881092684 0 0 0
345 115 1 0.5897 1.0597798911991818 6.904961261476849 8.718942362836458 0 0 0
26 9 1 0.5897 2.188627411371749 5.5682700716563405 7.123911238921815 0 0 0
343 115 2 -1.1794 1.192449106967029 5.991334799471951 8.466372129341 0 0 0
468 156 1 0.5897 4.2730251683312765 9.331453445978852 7.453138850589405 0 0 0
337 113 2 -1.1794 4.698201941906037 5.822800427514252 8.488066597787789 0 0 0
25 9 2 -1.1794 2.82735054107261 5.375010285419808 6.437641520956246 0 0 0
131 44 1 0.5897 2.4904489122526443 6.890980053885533 5.51138029512268 0 0 0
436 146 2 -1.1794 4.134016589501859 7.99780680104711 10.173790931096056 0 0 0
443 148 1 0.5897 1.21672181510236 9.92643335474924 10.130632580605797 0 0 0
757 253 2 -1.1794 2.9408010530550417 9.293690395794894 13.847768140426194 0 0 0
792 264 1 0.5897 4.777275468950051 8.936108638423589 14.343906926848641 0 0 0
668 223 1 0.5897 1.6522237475852106 5.674929587094943 14.819903626961267 0 0 0
759 253 1 0.5897 2.6134912667996346 8.814978021815836 13.086226065065938 0 0 0
351 117 1 0.5897 3.6843478555120117 5.566859277346797 13.897739963457074 0 0 0
454 152 2 -1.1794 2.078994754007026 7.514681308388053 11.902703611397925 0 0 0
455 152 1 0.5897 2.7605913441947627 7.756269499461644 11.27555250264315 0 0 0
456 152 1 0.5897 2.3796450887839655 6.686483363243866 12.276664001745358 0 0 0
661 221 2 -1.1794 4.845556568307635 5.970696813194185 15.194699942302943 0 0 0
349 117 2 -1.1794 2.841904785989527 5.391617978404212 13.478403328531883 0 0 0
533 178 1 0.5897 0.3505528370018234 7.386730086475115 11.848518466411972 1 0 0
789 263 1 0.5897 1.5626581042146448 8.798197297517836 15.055459498373862 0 0 0
788 263 1 0.5897 1.2435426910898781 9.13505386264602 16.49651255713982 0 0 0
858 286 1 0.5897 0.6018078367728645 7.305804569524052 18.63190017813681 1 0 0
787 263 2 -1.1794 1.004752707129087 8.537196442486405 15.788185627656125 0 0 0
779 260 1 0.5897 2.3857940926303955 8.234168404618956 19.270367026775855 0 0 0
780 260 1 0.5897 2.978249365285661 7.691964162899551 17.987012111994034 0 0 0
675 225 1 0.5897 2.7037915328454423 6.166848685674454 19.773338982945962 0 0 0
760 254 2 -1.1794 4.558204613653542 8.1669984405098 16.82662487532215 0 0 0
761 254 1 0.5897 4.582758230568817 9.111704627778947 16.978412650294146 0 0 0
778 260 2 -1.1794 2.33665515398547 7.49151073094761 18.668514086891534 0 0 0
673 225 2 -1.1794 2.7750523674455376 5.481965732604041 20.43820915314054 0 0 0
663 221 1 0.5897 4.701154012025238 6.7981955431737155 15.65352806286208 0 0 0
669 223 1 0.5897 1.382947640517442 6.753453551156328 15.847565715136392 0 0 0
662 221 1 0.5897 4.613190605593363 5.297851365239167 15.834612713427504 0 0 0
109 37 2 -1.1794 2.5900463024128437 9.594184490062238 20.447913020362527 0 0 -1
667 223 2 -1.1794 1.259652821191692 5.819027042396657 15.68095542056404 0 0 0
783 261 1 0.5897 1.9211309410998787 12.511699106312008 0.6865917935955917 0 0 1
118 40 2 -1.1794 1.474211471333341 10.817879493633255 4.259991131594057 0 0 0
119 40 1 0.5897 2.4283121783330635 10.792935492425288 4.333107932700319 0 0 0
120 40 1 0.5897 1.3038106261045472 11.441994183697014 3.554555613282431 0 0 0
123 41 1 0.5897 4.230009834182327 12.330489282815636 1.0122495681212302 0 0 0
220 74 2 -1.1794 3.640646648968276 14.124938190370928 3.3371784247899634 0 0 0
124 42 2 -1.1794 4.285843109327299 10.565220561375657 3.7715546406571674 0 0 0
240 80 1 0.5897 2.3593426421646853 14.178651426513028 4.4604324921628 0 0 0
127 43 2 -1.1794 0.8967081503330966 12.642083954338855 2.297329094101166 0 0 0
129 43 1 0.5897 0.9556989720440642 13.585784393520061 2.4458668612174437 0 0 0
222 74 1 0.5897 4.019972173327777 13.645122982290985 2.600884496574635 0 0 0
122 41 1 0.5897 4.530735465605484 11.730961554973602 2.3694932075085977 0 0 0
238 80 2 -1.1794 1.7408456773944332 14.00823646908871 5.170857771049076 0 0 0
125 42 1 0.5897 4.8574220034448485 10.691601226825659 4.528924118546311 0 0 0
121 41 2 -1.1794 4.865907407905642 12.356582138331325 1.7272580350152003 0 0 0
246 82 1 0.5897 4.860809932817782 13.878396895190086 4.641049159659794 0 0 0
133 45 2 -1.1794 2.85162532643473 12.196685126749566 6.813736553290193 0 0 0
134 45 1 0.5897 2.2344393512649363 12.467056790893047 7.493604784574756 0 0 0
135 45 1 0.5897 3.710691730352021 12.439610446825744 7.1590796172934885 0 0 0
445 149 2 -1.1794 5.0662851485802545 12.73883081687728 8.30299731816227 0 0 0
446 149 1 0.5897 4.842662632240989 13.507390374757904 8.827862656272188 0 0 0
544 182 2 -1.1794 4.354596411943829 14.511504060053909 10.126387049644697 0 0 0
450 150 1 0.5897 4.729304413571142 11.46863353734402 9.728105418706196 0 0 0
451 151 2 -1.1794 1.200075058954561 12.572727194305314 8.952438425035368 0 0 0
453 151 1 0.5897 1.324915973596998 11.94020614598503 9.659929745197243 0 0 0
239 80 1 0.5897 2.156357373504965 13.320459383588691 5.690964339838288 0 0 0
573 191 1 0.5897 1.1188207787073803 14.536681635930377 9.623187573809213 0 0 0
434 145 1 0.5897 2.6690088915573904 10.449403149475973 6.974540213382008 0 0 0
448 150 2 -1.1794 4.43566005383915 10.760730264784543 10.301550856689065 0 0 0
452 151 1 0.5897 0.2602105617604664 12.549161857083755 8.772497378396926 0 0 0
188 63 1 0.5897 0.1839702709178184 11.1485298077499 5.416509255362439 1 0 0
449 150 1 0.5897 4.86762219278222 10.934490830949438 11.137913121084344 0 0 0
769 257 2 -1.1794 4.747636639906063 12.42664145061976 15.073165544107026 0 0 0
457 153 2 -1.1794 2.6028023365152833 12.086566739997934 13.345089121227819 0 0 0
458 153 1 0.5897 1.825267898019524 12.09191316027765 13.903385639182307 0 0 0
459 153 1 0.5897 3.322382947739889 12.314823703233802 13.933604966202214 0 0 0
758 253 1 0.5897 2.8038875188577883 10.21533415367769 13.62880355070252 0 0 0
545 182 1 0.5897 3.557704806890454 14.376584521652374 10.6392650898114 0 0 0
562 188 2 -1.1794 2.0906789602881983 14.133515862571727 11.583417613464192 0 0 0
563 188 1 0.5897 2.256550072819715 13.2901781114089 12.004622944752928 0 0 0
444 148 1 0.5897 2.5080504986074863 10.431117864153919 10.738615777378284 0 0 0
442 148 2 -1.1794 1.5624350830675484 10.579472117304586 10.739097861086016 0 0 0
564 188 1 0.5897 2.2622704561082965 14.781035022063511 12.267139429938 0 0 0
546 182 1 0.5897 5.06743678653045 14.38179674714232 10.751929335344364 0 0 0
642 214 1 0.5897 0.18401080617418622 14.17523424977022 12.062235670160817 1 0 0
512 171 1 0.5897 0.36327299363894383 10.891939221433333 12.13251730056707 1 0 0
775 259 2 -1.1794 0.6334856081205965 12.484117420368367 15.091162448512158 0 0 0
777 259 1 0.5897 0.6883575040690629 13.42721205726328 15.245015118252267 0 0 0
766 256 2 -1.1794 1.4922170679486262 10.74247124069156 17.279789194610085 0 0 0
767 256 1 0.5897 1.0125625891975614 10.881474110447483 18.096424500728297 0 0 0
768 256 1 0.5897 1.133235870066275 11.39342574746609 16.67679727494644 0 0 0
772 258 2 -1.1794 4.275248139135489 10.857611575065379 17.313542957922692 0 0 0
773 258 1 0.5897 3.319572391541163 10.803201891052657 17.314884837093715 0 0 0
774 258 1 0.5897 4.478989794807916 11.484025193560614 16.619066637676426 0 0 0
868 290 2 -1.1794 4.23231175520845 14.373280098277942 16.91075965988558 0 0 0
771 257 1 0.5897 4.643007073041633 13.210975394963112 15.611691896777012 0 0 0
869 290 1 0.5897 3.3989186889402556 14.213812072380804 17.35381690443291 0 0 0
886 296 2 -1.1794 1.999488746185228 14.293995773561203 18.513236710176546 0 0 0
888 296 1 0.5897 2.256464521794232 13.503067023153838 18.987117389391518 0 0 0
965 322 1 0.5897 0.35846430260393847 14.096143632105784 18.819174700619108 1 0 0
870 290 1 0.5897 4.896953761684697 14.162533564649907 17.566592112768497 0 0 0
782 261 1 0.5897 2.581996015353662 11.320132316703466 20.367750796997914 0 0 0
781 261 2 -1.1794 2.549905430948211 12.276460798161205 20.345093079316975 0 0 0
247 83 2 -1.1794 0.723910233590073 15.406155268443607 2.4007977009978734 0 0 0
248 83 1 0.5897 0.9632638025762882 16.055199385887803 3.062348824673367 0 0 0
230 77 1 0.5897 4.199676717555687 18.61507746104712 0.8826672270548276 0 0 0
235 79 2 -1.1794 0.9079479347961843 19.17805837923586 2.0349241575741077 0 0 0
226 76 2 -1.1794 1.3901489037686396 17.431028276819134 4.07958678955171 0 0 0
227 76 1 0.5897 1.3470707135568993 18.132954766166154 3.430252751207339 0 0 0
233 78 1 0.5897 4.293226259305855 17.305244334129565 2.9261552392200683 0 0 0
890 297 1 0.5897 1.7793653868246546 18.926352596172816 0.4432875241619426 0 0 1
249 83 1 0.5897 1.2092619239866882 15.66996317391749 1.6190604114409695 0 0 0
232 78 2 -1.1794 4.129718662410734 16.74736582624754 3.686589312705308 0 0 0
228 76 1 0.5897 0.6719078484097161 17.61864369762766 4.6838952678915655 0 0 0
234 78 1 0.5897 3.2150485829096027 16.91405383738773 3.914330045076697 0 0 0
221 74 1 0.5897 3.8737129200289937 15.038745342653012 3.1736440155772914 0 0 0
229 77 2 -1.1794 4.618421624850244 18.58614284831458 1.742960657435052 0 0 0
219 73 1 0.5897 3.1641711385638307 15.975421944954608 0.5769625259425537 0 0 0
217 73 2 -1.1794 2.254081911422965 16.04491941402018 0.2885593448209701 0 0 0
250 84 2 -1.1794 4.96430484751561 15.524900943860002 0.479432941332172 0 0 0
572 191 1 0.5897 0.9682992459337513 15.974227108004198 10.07310712330423 0 0 0
558 186 1 0.5897 4.304726764681775 17.57869829944912 10.026085495028239 0 0 0
559 187 2 -1.1794 1.118508514981099 19.285038867287696 9.152300806878829 0 0 0
241 81 2 -1.1794 2.4185176286121672 18.67272312463735 6.814161319729529 0 0 0
242 81 1 0.5897 2.362103693240053 17.717333370231476 6.8026158601223585 0 0 0
243 81 1 0.5897 1.8654914007352528 18.936907088409782 7.549445990049652 0 0 0
541 181 2 -1.1794 2.3832011711584893 15.86321887382686 7.0564048884415245 0 0 0
576 192 1 0.5897 4.200328441848457 15.663888798092792 7.481873224765872 0 0 0
553 185 2 -1.1794 4.384733534429104 18.789358513909086 8.629660301956717 0 0 0
555 185 1 0.5897 3.843555333551262 18.742143666795087 7.84150566320849 0 0 0
571 191 2 -1.1794 0.6382521444180504 15.342571933676322 9.434131445856561 0 0 0
542 181 1 0.5897 1.8561929254159166 15.744372127730244 7.846601810807982 0 0 0
543 181 1 0.5897 2.024907821588857 15.232561513404711 6.431828235776477 0 0 0
560 187 1 0.5897 0.24555147402179855 18.985483717109393 8.898427776426395 0 0 0
885 295 1 0.5897 1.6196492826514128 19.01992659973937 14.939172194791787 0 0 0
866 289 1 0.5897 3.478522827438039 15.791409819682205 13.922190745738325 0 0 0
879 293 1 0.5897 4.545830419042533 18.940886974823258 14.559405989837254 0 0 0
867 289 1 0.5897 2.109666216739819 15.672637351089808 14.557913723799782 0 0 0
550 184 2 -1.1794 1.689849563905006 17.343822049660233 10.98420803108702 0 0 0
552 184 1 0.5897 2.6249017423309486 17.195238576843504 11.125191986057466 0 0 0
565 189 2 -1.1794 2.8336854428619302 18.759120677775275 13.708084526782999 0 0 0
566 189 1 0.5897 2.623994748620866 17.864610636849967 13.43975590927903 0 0 0
556 186 2 -1.1794 4.286539828469497 17.04352715808618 10.819488166326208 0 0 0
865 289 2 -1.1794 2.547865657846614 15.930947211664204 13.747029101508025 0 0 0
567 189 1 0.5897 2.651350906894912 19.290959501809226 12.933409087226629 0 0 0
877 293 2 -1.1794 5.04302880452856 18.970422148587165 15.376835471312486 0 0 0
621 207 1 0.5897 0.3386256506422711 17.72327997947448 12.345184085103963 1 0 0
551 184 1 0.5897 1.6529518271309844 18.09085053572734 10.386907674933001 0 0 0
557 186 1 0.5897 4.400082789655035 16.146233858686337 10.506272493133899 0 0 0
881 294 1 0.5897 3.039977093568317 17.329317629804663 17.45582788066188 0 0 0
897 299 1 0.5897 0.8984154534598645 15.823572574672589 16.38983819209523 0 0 0
878 293 1 0.5897 4.619621143689615 18.321546555320054 15.938873549430609 0 0 0
882 294 1 0.5897 4.063949785001063 16.36006810591962 16.904576169729346 0 0 0
880 294 2 -1.1794 3.9569631410242008 17.26795576988419 17.188156276280267 0 0 0
874 292 2 -1.1794 1.222766781547813 17.212741444150264 17.343572655826215 0 0 0
875 292 1 0.5897 0.7752927475903997 17.409453303341245 18.16658508593332 0 0 0
876 292 1 0.5897 1.131351717731322 18.01128609672998 16.82383118767103 0 0 0
891 297 1 0.5897 2.19093028089901 19.367167778568135 19.395492703887825 0 0 0
218 73 1 0.5897 2.14941977650716 16.964309979687346 20.38471758468162 0 0 -1
889 297 2 -1.1794 2.3091491341484707 18.662093292493907 20.031951576748007 0 0 0
873 291 1 0.5897 5.025811117734587 17.67414819067975 18.503168281994306 0 0 0
895 299 2 -1.1794 0.7192398776401808 15.202390612314177 15.683994063929788 0 0 0
883 295 2 -1.1794 0.8709553821905214 19.146463134885654 15.522036541183152 0 0 0
887 296 1 0.5897 1.946134816697757 14.971074749222435 19.187675239703246 0 0 0
69 23 1 0.5897 6.789470471248229 2.337615632185826 1.810134723315111 0 0 0
41 14 1 0.5897 9.678218251240105 1.2447079920262623 3.9847694505658473 0 0 0
68 23 1 0.5897 8.292175370521012 2.2196454281062303 1.668830545779988 0 0 0
67 23 2 -1.1794 7.587468171867106 2.1827637947384697 2.3155920227913187 0 0 0
46 16 2 -1.1794 8.293875049112206 4.25388291657325 3.9133371120244846 0 0 0
47 16 1 0.5897 8.128798065650312 3.421828945919971 3.4699626207157013 0 0 0
48 16 1 0.5897 7.673721365006048 4.264540540699971 4.64238879159318 0 0 0
58 20 2 -1.1794 8.388794134933201 1.0262059601786935 5.250508513429246 0 0 0
34 12 2 -1.1794 5.352186553254548 2.460994780522707 0.7477955158152022 0 0 0
9 3 1 0.5897 5.485943008268987 4.2973319674004005 4.914349700755517 0 0 0
273 91 1 0.5897 7.3611882852159995 0.33296266610566505 2.105056760690235 0 1 0
36 12 1 0.5897 5.50623477651263 3.2170499683625096 0.18137971110442183 0 0 0
35 12 1 0.5897 5.542834405149378 1.7037542071253347 0.19425841216390793 0 0 0
37 13 2 -1.1794 9.363816234635982 2.6499128970488424 0.22215851213111648 0 0 0
8 3 1 0.5897 5.685060221979085 3.923607588794581 6.367844578661793 0 0 0
391 131 2 -1.1794 7.44030078448934 2.142707483085371 9.064812214607864 0 0 0
393 131 1 0.5897 7.391513705027707 1.1880610957184239 9.016029516866492 0 0 0
358 120 2 -1.1794 5.379953166073462 2.351674741601741 7.267291270202144 0 0 0
361 121 2 -1.1794 9.210925801971161 2.958235613367529 7.042631467210816 0 0 0
392 131 1 0.5897 8.047161345339923 2.3879817562061607 8.366357310037207 0 0 0
362 121 1 0.5897 9.139099141411426 3.8720142872368086 6.76699780085492 0 0 0
360 120 1 0.5897 5.506025084621443 1.658223313152312 6.619686990820558 0 0 0
359 120 1 0.5897 6.035570760390241 2.172667900846553 7.941367299965508 0 0 0
59 20 1 0.5897 8.660923666115478 1.7158262041342809 5.855949221976737 0 0 0
7 3 2 -1.1794 6.007226698194175 4.514517137544426 5.6872294807304575 0 0 0
60 20 1 0.5897 8.739790030247317 0.22095711723498462 5.630685628751519 0 0 0
28 10 2 -1.1794 5.7450001957282435 0.5626800506643912 5.368576923379102 0 0 0
371 124 1 0.5897 7.842011287338661 3.4726583573767877 10.135936727518972 0 0 0
377 126 1 0.5897 9.72224592460472 4.3260688313771585 10.236842095444233 0 0 0
29 10 1 0.5897 6.684954823872732 0.7436510985876571 5.365280404969561 0 0 0
352 118 2 -1.1794 5.932269436684623 1.0357832407409608 12.095387510098202 0 0 0
353 118 1 0.5897 6.842199845692997 1.1898833303763474 11.841349384859825 0 0 0
684 228 1 0.5897 5.632696270878356 3.3731691124482257 13.756046416545704 0 0 0
386 129 1 0.5897 9.20344881187153 4.494612277947962 13.56963974325195 0 0 0
372 124 1 0.5897 7.300955389223686 4.251282631398677 11.316157438076079 0 0 0
685 229 2 -1.1794 9.003385855561266 2.644585947813879 13.813831894582789 0 0 0
382 128 2 -1.1794 8.639278908399405 0.8072236421896084 11.854118062610501 0 0 0
383 128 1 0.5897 8.835973996756826 1.3753718340486407 12.598932032369573 0 0 0
384 128 1 0.5897 9.253425110842937 1.0825189079231228 11.173447500714582 0 0 0
370 124 2 -1.1794 7.976354344151221 4.276243909000589 10.638297987834658 0 0 0
686 229 1 0.5897 8.531671508446633 2.5316253422995714 14.639061621675328 0 0 0
354 118 1 0.5897 5.826379334080991 1.520066306686983 12.914231788899434 0 0 0
331 111 2 -1.1794 5.987862634582837 4.670721739872998 12.51269043119659 0 0 0
332 111 1 0.5897 5.278415013059613 4.533737689231844 11.884854115541996 0 0 0
682 228 2 -1.1794 5.370672050964679 2.6404803162887416 14.313441941740123 0 0 0
687 229 1 0.5897 9.916663913558647 2.4586070299130562 14.032030687027257 0 0 0
657 219 1 0.5897 6.676457867221471 4.348388841841366 18.759861165095348 0 0 0
655 219 2 -1.1794 5.8794357940104 4.486481892484756 19.271672904797054 0 0 0
676 226 2 -1.1794 6.163497128304654 0.6135704551227621 19.16861458608777 0 0 0
696 232 1 0.5897 7.895077010220166 4.842515334390963 17.048582817665693 0 0 0
716 239 1 0.5897 7.586232886621661 1.131115781076456 16.15584202386716 0 0 0
38 13 1 0.5897 9.12928641523757 1.9785544643726862 19.922313597501795 0 0 -1
694 232 2 -1.1794 8.071897629757427 4.107426986229465 17.635578318677418 0 0 0
695 232 1 0.5897 7.885369886705674 3.32997115195326 17.109336492358725 0 0 0
702 234 1 0.5897 9.855100321709843 3.8395956233433632 17.633045008219945 0 0 0
706 236 2 -1.1794 8.787371884171415 0.71360720769943 18.783063212552076 0 0 0
708 236 1 0.5897 7.833623218187669 0.7407362441563671 18.859904864649288 0 0 0
715 239 2 -1.1794 7.507266068814609 2.080564971693178 16.064077859959824 0 0 0
677 226 1 0.5897 5.531013055871473 0.8673205810574102 18.49641981262818 0 0 0
689 230 1 0.5897 9.885961402771724 0.9142920447877857 17.107301819359776 0 0 0
710 237 1 0.5897 9.25220595168099 4.338999651697118 20.12039971999394 0 0 0
656 219 1 0.5897 5.1678948706485 4.38848905002016 18.6389061519133 0 0 0
717 239 1 0.5897 6.679359687953582 2.208890370620346 15.601061704400694 0 0 0
143 48 1 0.5897 5.902731357167057 8.834304296696148 1.2680973123566843 0 0 0
176 59 1 0.5897 7.482970276042212 7.972284758906474 2.182170139299204 0 0 0
142 48 2 -1.1794 5.243634834121467 9.00226877577781 0.5945553785317617 0 0 0
57 19 1 0.5897 7.836469495391501 5.49831298130174 2.7124077303879712 0 0 0
175 59 2 -1.1794 7.489082901625101 8.928164011441277 2.133862232180257 0 0 0
55 19 2 -1.1794 7.658409887931678 6.108092957759776 1.9963889360474372 0 0 0
56 19 1 0.5897 6.779566637193229 5.875958204552072 1.6963656888945822 0 0 0
177 59 1 0.5897 8.23038255071209 9.134962213330356 1.5646654134797555 0 0 0
711 237 1 0.5897 8.777544225441124 5.548505607809971 0.5564282344587335 0 0 1
166 56 2 -1.1794 8.666679621938192 7.784213430821519 4.915876842729645 0 0 0
167 56 1 0.5897 8.987974068406599 6.917799698693866 5.165343941802582 0 0 0
145 49 2 -1.1794 9.43125902859658 9.462501875339672 0.2693727308293141 0 0 0
467 156 1 0.5897 5.350850677490277 8.374032316581722 6.991097178716383 0 0 0
501 167 1 0.5897 6.608964932634423 9.184681088604524 8.764562790692759 0 0 0
380 127 1 0.5897 7.5772017376411425 6.896017206772848 8.944444500808723 0 0 0
62 21 1 0.5897 8.416765543121585 5.784390981930998 7.087810261074668 0 0 0
499 167 2 -1.1794 7.456814186162521 8.866289319103906 9.074449244885606 0 0 0
168 56 1 0.5897 8.887536909762572 8.345212673888089 5.6593294392955045 0 0 0
466 156 2 -1.1794 5.213667731201317 9.164509167442228 7.513105825218283 0 0 0
469 157 2 -1.1794 9.098576255247533 9.504789998123078 7.012500154469428 0 0 0
500 167 1 0.5897 7.617789445794251 9.35745433658476 9.880109992382321 0 0 0
470 157 1 0.5897 8.593537802310655 9.337469155321104 7.808239966094427 0 0 0
379 127 2 -1.1794 7.432201386515788 6.025783013229237 8.57325420947401 0 0 0
63 21 1 0.5897 9.926473826978556 5.839160574871604 7.186748315127278 0 0 0
61 21 2 -1.1794 9.214299754615531 5.649058055241103 6.576057007988257 0 0 0
338 113 1 0.5897 5.635169154699219 5.879725760296116 8.300656309449684 0 0 0
381 127 1 0.5897 7.662585268316213 5.422264433656373 9.279575452509285 0 0 0
137 46 1 0.5897 5.933230361384661 6.389441035743472 5.592351550142251 0 0 0
136 46 2 -1.1794 5.924880677856844 7.345032024151735 5.538677262291435 0 0 0
138 46 1 0.5897 6.845375748345175 7.5878210855384225 5.438743890864055 0 0 0
824 275 1 0.5897 8.240127952216351 8.82850130958798 15.388798227537361 0 0 0
794 265 1 0.5897 9.034571987271727 8.563114463267077 13.249836402667047 0 0 0
333 111 1 0.5897 6.103678095965237 5.6204157353453 12.5404590740719 0 0 0
491 164 1 0.5897 9.193583940519288 7.935445581757633 11.004123354297075 0 0 0
791 264 1 0.5897 6.2099808563403425 8.737564538186346 14.791056916195652 0 0 0
793 265 2 -1.1794 9.234653268878576 9.16571777356111 13.966114346152224 0 0 0
790 264 2 -1.1794 5.671133987387029 8.86144600159382 14.009657826373829 0 0 0
387 129 1 0.5897 9.28460078376475 5.890329404903952 12.989096298910294 0 0 0
460 154 2 -1.1794 6.190747629731941 7.269470711477444 11.932694572610654 0 0 0
461 154 1 0.5897 5.984945796339661 7.829877832605087 12.680903721092296 0 0 0
492 164 1 0.5897 7.930089030333776 7.390179369400467 11.635152583657387 0 0 0
490 164 2 -1.1794 8.870682765393216 7.485660295459438 11.784933022184825 0 0 0
462 154 1 0.5897 5.441850297380483 7.3692389872425075 11.344922745758947 0 0 0
705 235 1 0.5897 8.111383616225027 5.652418234026047 14.99057909790707 0 0 0
385 129 2 -1.1794 9.334491343461446 5.410256802473324 13.815703585914907 0 0 0
704 235 1 0.5897 6.665972913514719 5.971866063566724 15.307979754247018 0 0 0
814 272 2 -1.1794 8.789942120422058 7.391580739359362 18.657160524119238 0 0 0
786 262 1 0.5897 6.99677610478043 7.349501967458363 18.66572851197255 0 0 0
815 272 1 0.5897 9.051286490783484 6.570929890423823 19.074736421418756 0 0 0
825 275 1 0.5897 7.458140315603152 7.8526705994764985 16.242078090253308 0 0 0
785 262 1 0.5897 5.983521004303367 6.2771177165967 19.005002560666725 0 0 0
823 275 2 -1.1794 7.5425158292188215 8.785026485098427 16.04281129651155 0 0 0
816 272 1 0.5897 8.898654931170071 8.053468342624122 19.33999964166149 0 0 0
784 262 2 -1.1794 6.064863745148657 7.216248275520336 18.83909479647017 0 0 0
703 235 2 -1.1794 7.534831314066053 5.919955565145076 15.706319834737064 0 0 0
762 254 1 0.5897 5.08525907767416 7.796446431732951 17.5345380443438 0 0 0
144 48 1 0.5897 5.499201169763202 8.440133391267425 20.20401577122887 0 0 -1
709 237 2 -1.1794 9.349453219497494 5.289633743443231 20.174649312345807 0 0 0
154 52 2 -1.1794 8.047623439191744 10.946589349662137 4.041575069829355 0 0 0
819 273 1 0.5897 8.593577300588118 12.498271826443801 0.6919250610248685 0 0 1
156 52 1 0.5897 8.987691352730867 10.76919969798823 4.00878323051362 0 0 0
163 55 2 -1.1794 7.569388943908547 12.842202466430853 2.065275772030664 0 0 0
164 55 1 0.5897 6.631102786043636 12.740467853464004 1.9054314478994385 0 0 0
165 55 1 0.5897 7.765667674950133 12.20750332655355 2.754348042574048 0 0 0
276 92 1 0.5897 8.890515964602264 14.095518044703715 4.510175761507485 0 0 0
275 92 1 0.5897 7.438592189472443 14.038778513200665 4.935235789029394 0 0 0
285 95 1 0.5897 7.463560345659896 14.616649655481407 2.006255288490519 0 0 0
155 52 1 0.5897 7.643778044345531 10.175091421069684 3.644246578436488 0 0 0
117 39 1 0.5897 5.988907275401911 10.537239739142327 6.480983479563108 0 0 0
115 39 2 -1.1794 5.975498491527486 11.180164563731902 5.772013377114809 0 0 0
171 57 1 0.5897 9.28281707085057 11.343439108532197 6.608759694524938 0 0 0
169 57 2 -1.1794 9.546312830738545 12.242596743605004 6.804218487348117 0 0 0