LAMMPS data file via write_data, version 30 Jul 2021, timestep = 2250000

864 atoms
2 atom types
576 bonds
1 bond types
288 angles
1 angle types

0.6295506913110316 17.57802170868975 xlo xhi
1.8330588275351865 21.796118972466967 ylo yhi
0.768050372938557 21.445145427053326 zlo zhi

Masses

1 1.00794
2 15.9994

Pair Coeffs # lj/cut/tip4p/long/omp

1 0 0
2 0.21084 3.1668

Bond Coeffs # harmonic/omp

1 450 0.9572

Angle Coeffs # harmonic/omp

1 55 104.52

Atoms # full

521 1 1 0.5897 3.6167577491078537 5.422223311244574 3.4064750580543057 -1 0 -1
819 1 1 0.5897 1.553594450625414 5.235041224570136 1.93879602718745 4 0 2
262 1 2 -1.1794 6.730626703314504 3.0262981540711005 3.2204494926734233 2 -3 6
644 1 1 0.5897 2.867991133395514 2.538163650802038 3.3543007119648345 5 -3 -2
40 1 2 -1.1794 6.2605884676177626 6.1586898565372445 5.37024424826936 -1 1 6
401 1 1 0.5897 4.829209595903209 4.49898719802781 2.1584004822376492 -2 -3 2
724 1 2 -1.1794 8.234814329967003 5.498028809563031 3.1999590434055847 2 -4 5
705 1 1 0.5897 1.1565944694706558 3.4909094234851423 5.137556275840236 3 -2 -1
703 1 2 -1.1794 1.397585847827088 3.8961351245993945 4.3045108587014465 3 -2 -1
400 1 2 -1.1794 5.0932124834212935 4.372181221151958 1.2470946362193285 -2 -3 2
263 1 1 0.5897 6.937186889044859 2.3738456753430626 3.889710771510449 2 -3 6
520 1 2 -1.1794 4.416239437875425 4.939787659798931 3.6170433784395297 -1 0 -1
627 1 1 0.5897 4.1189510519203845 3.9038656003781274 5.200997855453613 -6 -3 3
264 1 1 0.5897 6.034876997699902 3.5566444654433713 3.6089586463261045 2 -3 6
726 1 1 0.5897 8.178499538186 5.847870052398581 2.3107497410171662 2 -4 5
645 1 1 0.5897 4.088665084979281 2.1073553578021404 2.5692093556685 5 -3 -2
725 1 1 0.5897 7.903867460281134 4.6028148024013085 3.1270567349144986 2 -4 5
522 1 1 0.5897 4.945827733415749 5.559982972050689 4.118199123141595 -1 0 -1
704 1 1 0.5897 1.1285656436825369 4.810237659420368 4.395581644654185 3 -2 -1
817 1 2 -1.1794 1.346836942146285 4.701366649155858 1.1715272584232252 4 1 2
806 1 1 0.5897 8.984164195321805 2.549990052389538 5.34272240207443 3 -1 -1
319 1 2 -1.1794 2.106942938788196 6.519032453313305 3.177407638670557 3 0 1
41 1 1 0.5897 7.096357141956102 6.253302421637475 4.913304242637731 -1 1 6
405 1 1 0.5897 8.248590312045309 1.86147782483353 2.0265309644385097 7 -2 0
403 1 2 -1.1794 8.929851527215305 1.9801644066544697 1.3646789097853 7 -2 0
807 1 1 0.5897 9.007954861790015 4.012350113998507 5.733734458045295 3 -1 -1
404 1 1 0.5897 8.697537902566754 2.798147912655077 0.9251507090967956 7 -2 0
643 1 2 -1.1794 3.6404512956902675 1.9750993312189173 3.4046465825821355 5 -3 -2
805 1 2 -1.1794 8.541767362048464 3.1925116272236647 5.897435654095563 3 -1 -1
402 1 1 0.5897 4.810930222779932 5.171245414525748 0.8020507904534355 -2 -3 2
803 1 1 0.5897 6.800575678243924 5.0542355272762105 8.664149500205806 6 3 -2
42 1 1 0.5897 6.5015454981884915 5.904523135898987 6.261080013609228 -1 1 6
253 1 2 -1.1794 3.924071693413968 4.958978432942546 9.727758503631977 0 7 -8
462 1 1 0.5897 2.594877696283228 2.4056505524405036 6.675641573521674 4 6 -1
244 1 2 -1.1794 8.008504014449812 3.929899998411244 9.352010196442999 -5 4 -2
828 1 1 0.5897 1.982829203847879 2.4375842289630114 8.72181749934619 0 3 1
254 1 1 0.5897 4.155141299439558 5.243330436453129 10.612071675940957 0 7 -8
827 1 1 0.5897 2.368463343313513 1.8655367401502565 10.069409813297622 0 3 1
826 1 2 -1.1794 2.013815169092315 2.6517480081503595 9.65425439332133 0 3 1
626 1 1 0.5897 4.708019851551406 3.1322790324227663 6.3627273137407565 -6 -3 3
847 1 2 -1.1794 3.372000789888897 6.2614019918130595 7.375762484266223 2 1 6
255 1 1 0.5897 3.2248597437362583 4.318111450686345 9.856760579799793 0 7 -8
618 1 1 0.5897 8.088402425825027 1.8777591390837263 9.47109749075498 -1 2 0
649 1 2 -1.1794 6.062095856277562 2.059780137718975 6.8488762936623715 2 1 0
848 1 1 0.5897 3.2643111624664582 6.073663702872847 8.308193150193347 2 1 6
804 1 1 0.5897 5.42883436027527 5.366427448666435 8.104851287928408 6 3 -2
246 1 1 0.5897 8.892399144572146 4.267351314006695 9.206648809100702 -5 4 -2
802 1 2 -1.1794 6.352916994333342 5.60052080416369 8.018065544804251 6 3 -2
849 1 1 0.5897 3.389014815259029 5.4003208316730085 6.958004581775252 2 1 6
245 1 1 0.5897 7.8982097810823255 3.947547908379674 10.30269290284923 -5 4 -2
208 1 2 -1.1794 5.392049495542293 2.529565322294953 9.579910537013337 1 -1 2
625 1 2 -1.1794 3.925463627458432 3.612465863934619 6.092012722572063 -6 -3 3
210 1 1 0.5897 5.019067477807426 3.375983851864466 9.333452108129382 1 -1 2
651 1 1 0.5897 6.881244002694362 2.4750284810292853 6.579029077233287 2 1 0
650 1 1 0.5897 6.069898480646358 2.1122561970219493 7.804622940082373 2 1 0
460 1 2 -1.1794 1.7912211366738238 1.9265313159676165 6.877741508097635 4 6 -1
209 1 1 0.5897 4.639045698069095 1.940645888654128 9.629008695547943 1 -1 2
588 1 1 0.5897 2.028755015010762 6.745000789452283 6.472190389296268 1 2 5
307 1 2 -1.1794 8.017446834010668 4.53767545876674 11.934173947083512 1 5 1
654 1 1 0.5897 6.80527169834246 5.409389800766671 14.936817707565943 -1 1 -1
240 1 1 0.5897 5.922988389217249 2.5614446230733114 11.431218960538004 -5 -2 -1
99 1 1 0.5897 5.247759487881542 5.446336081942506 12.986998162664484 1 -6 6
653 1 1 0.5897 5.43463974221032 4.83853001887529 15.232498514719655 -1 1 -1
552 1 1 0.5897 8.69387459407415 3.321550822300961 15.54727981149081 -3 8 -5
116 1 1 0.5897 1.6258714137411165 6.538414484749602 13.611436701488028 -3 -4 3
168 1 1 0.5897 7.723545047125981 6.423350804653527 11.756501588467371 -1 1 3
634 1 2 -1.1794 2.114308485525429 5.055490466052607 12.756693326154805 -8 1 2
652 1 2 -1.1794 6.267641147807296 4.627517134981852 14.810798298100854 -1 1 -1
548 1 1 0.5897 0.7050609378796353 4.432337619175806 12.044699437092168 6 1 5
134 1 1 0.5897 3.199508380661555 2.6962376401826393 14.338435460190773 1 -6 -1
97 1 2 -1.1794 4.815829904290292 5.9693951764822195 12.311650159799967 1 -6 6
636 1 1 0.5897 2.9503628898618635 5.452033099796259 12.511597056311148 -8 1 2
239 1 1 0.5897 5.23080741492842 2.629379164522065 12.775924648109312 -5 -2 -1
123 1 1 0.5897 1.4587750068981933 5.34209724890572 15.11559438324373 2 -2 -2
635 1 1 0.5897 2.353521631178964 4.220058988305069 13.158094199674919 -8 1 2
308 1 1 0.5897 7.365778983710602 3.97100488166888 12.347047830566305 1 5 1
133 1 2 -1.1794 3.467526360297348 2.7081213875550234 13.419588357144937 1 -6 -1
743 1 1 0.5897 6.151017533816262 2.7055570535592333 15.539537395173232 0 -1 0
238 1 2 -1.1794 6.097425264584495 2.635816319266913 12.369456794324272 -5 -2 -1
135 1 1 0.5897 2.957813147708287 2.007929055763729 13.011866856501308 1 -6 -1
98 1 1 0.5897 5.507897050748294 6.532572791374694 11.965060866656808 1 -6 6
742 1 2 -1.1794 5.7577942100740325 2.01635636484514 16.074928535134255 0 -1 0
64 1 2 -1.1794 3.9518942228221436 5.398794035686105 15.778713163541418 2 -1 -4
122 1 1 0.5897 1.2966508475992549 4.052776787473681 15.89234128989024 2 -2 -2
7 1 2 -1.1794 2.210824009323786 2.4185355542519145 15.993638698474795 3 -1 -2
5 1 1 0.5897 7.418316519007281 2.2216647569212173 13.42904625443732 3 1 1
4 1 2 -1.1794 7.816874480967378 2.0820387457553853 14.288064649479951 3 1 1
121 1 2 -1.1794 0.7952216298316044 4.7480065526886595 15.466325940941893 2 -2 -2
309 1 1 0.5897 8.834067554850606 4.0408521982738685 11.984809834059119 1 5 1
66 1 1 0.5897 4.187101833514387 6.2143514179928525 16.221294111589586 2 -1 -4
517 1 2 -1.1794 7.02012308577869 5.609317679606818 18.40261195332412 -1 -2 -3
757 1 2 -1.1794 2.27996756699359 4.446479100501266 18.16573655698985 2 2 1
207 1 1 0.5897 7.461266473794828 4.82887412947207 20.096927404263138 -4 2 -4
494 1 1 0.5897 5.676554908286841 4.258340309548187 18.2695740013346 -3 -1 -1
346 1 2 -1.1794 2.889425159544853 2.768100158219173 20.848829961660023 -4 4 -5
758 1 1 0.5897 3.1269989267712384 4.05556031936632 18.38014055117146 2 2 1
205 1 2 -1.1794 7.565390248178803 4.2918943660354145 20.882460663576033 -4 2 -4
759 1 1 0.5897 1.636984808599051 3.857493329776718 18.560602305195488 2 2 1
374 1 1 0.5897 2.3067840213788804 6.316149967120593 18.372267503654637 4 4 0
65 1 1 0.5897 3.6343317326562143 4.828711496100232 16.47902253796043 2 -1 -4
495 1 1 0.5897 5.310447246917557 3.0374734251073576 17.452636225816548 -3 -1 -1
493 1 2 -1.1794 5.098843612044735 3.4951311952958526 18.266284012371994 -3 -1 -1
534 1 1 0.5897 2.72185626857381 1.926268752500956 19.24054791195998 -6 -2 -4
518 1 1 0.5897 7.92552192462196 5.358246221143514 18.219556330401698 -1 -2 -3
560 1 1 0.5897 6.107306950333813 2.1740706780439893 19.14893929441504 2 0 2
519 1 1 0.5897 7.0550149297739235 6.557392463572772 18.529861810232138 -1 -2 -3
151 1 2 -1.1794 4.2394004948757535 6.76280926339029 20.828211655938837 2 0 -2
561 1 1 0.5897 7.537323802753858 2.19707425736569 19.645392789075842 2 0 2
206 1 1 0.5897 6.751338058232483 4.419024715114945 21.369704939897506 -4 2 -4
347 1 1 0.5897 2.3980340566095637 3.4716918438977777 21.272790638091106 -4 4 -5
348 1 1 0.5897 3.8054058526507073 2.960471278088964 21.04939810904906 -4 4 -5
9 1 1 0.5897 2.435188314779726 2.3473009478849396 16.921479571588765 3 -1 -2
739 1 2 -1.1794 9.056727743530358 2.3058816746448225 18.398527027650513 -1 1 3
152 1 1 0.5897 3.5811515685070727 6.809944638367639 20.134830182183823 2 0 -3
89 1 1 0.5897 6.536991415449281 7.3848556029790995 1.764877165351006 7 -1 5
216 1 1 0.5897 1.0790784120753831 11.01777485109512 3.312897697631922 1 3 1
684 1 1 0.5897 3.663123499685547 11.33153156951382 2.0234277032617918 5 -1 -3
683 1 1 0.5897 5.09395077432457 10.869165592932255 2.1992784599309356 5 -1 -3
723 1 1 0.5897 6.604246729392947 10.623806873072342 4.315749312402904 1 1 -1
265 1 2 -1.1794 5.152813379909462 7.745093494659927 2.9923490770775563 0 -2 -1
88 1 2 -1.1794 7.396241080380144 7.622788992006373 1.4165571343350145 7 -1 5
500 1 1 0.5897 8.355351552141535 10.077839724896036 3.053881419767223 -1 -1 -1
267 1 1 0.5897 5.782639465345978 8.409995121601737 3.2706899334619948 0 -2 -1
158 1 1 0.5897 3.853962063305792 9.234307427231863 4.869120326644791 1 2 -2
320 1 1 0.5897 2.038085827872183 7.284186773639225 2.6063950641153157 3 0 1
157 1 2 -1.1794 3.2579646795576767 9.534966528418156 4.183070608348424 1 2 -2
721 1 2 -1.1794 6.871577844305978 9.754464412417834 4.017326374722723 1 1 -1
219 1 1 0.5897 1.779846063713151 9.375325389446555 1.6354531740105414 6 0 -1
266 1 1 0.5897 4.31501385553594 8.045860080061932 3.3443192415172396 0 -2 -1
90 1 1 0.5897 7.3313951497987535 8.560947558960669 1.2379285330140766 7 -1 5
682 1 2 -1.1794 4.397931962093772 11.360003192639573 2.6362056206700397 5 -1 -3
217 1 2 -1.1794 2.323404322254552 8.631535407444813 1.375477655257947 6 0 -1
159 1 1 0.5897 3.7614538369167607 10.188082746545689 3.6970458763775538 1 2 -2
717 1 1 0.5897 2.2750396894860625 9.972338266279872 5.50404736731681 3 -8 -4
722 1 1 0.5897 7.108811755646888 9.28801489880264 4.818842811691684 1 1 -1
586 1 2 -1.1794 1.3461021800878488 6.957789704998419 5.835817168574813 1 2 5
395 1 1 0.5897 5.175778707259581 7.7852566361178726 5.624407614619909 2 1 6
52 1 2 -1.1794 6.335974033106846 10.429633787477517 0.8348308970268884 -5 -3 3
21 1 1 0.5897 3.2788832385761326 11.692629431210097 5.890932797715835 -2 -4 1
321 1 1 0.5897 1.7890612464449842 6.824307995661471 4.027125016555545 3 0 1
747 1 1 0.5897 8.91443098645385 11.228028669144528 1.3911674352948276 3 4 -7
587 1 1 0.5897 1.28984950154197 7.91316867423992 5.85460886410416 1 2 5
153 1 1 0.5897 3.869901259118498 7.278062108527745 0.8682300134430818 2 0 -1
469 1 2 -1.1794 2.9473543129723945 9.805829258872365 8.537941299591207 1 -3 2
470 1 1 0.5897 3.8152276895314055 10.207444062401477 8.579877125590244 1 -3 2
801 1 1 0.5897 6.683969318468942 7.5114205826610725 8.723643211725982 0 -1 2
791 1 1 0.5897 5.858553814453594 9.166353965065653 10.452526823335385 2 6 -1
829 1 2 -1.1794 0.7243286542296434 7.2328761216035025 10.321738922518568 4 4 4
799 1 2 -1.1794 6.73407525399378 8.465379467509647 8.784661190213049 0 -1 2
74 1 1 0.5897 2.2913691404401817 7.860617118805704 10.748931069822216 3 0 2
204 1 1 0.5897 7.719224946799963 10.628583250904603 7.024331828578537 -5 2 2
716 1 1 0.5897 1.9166257952515457 10.259490907110617 6.94664982171757 3 -8 -4
582 1 1 0.5897 6.54238624429696 11.425580555776378 10.85452234679182 -2 -3 -1
396 1 1 0.5897 4.171946908972595 7.811738363230023 6.7573535776461915 2 1 5
394 1 2 -1.1794 4.68219544523454 8.384301164563068 6.184576608787375 2 1 6
471 1 1 0.5897 3.0000984891346287 9.057777295216518 9.132862834184818 1 -3 2
809 1 1 0.5897 8.726192738315763 8.930142042069466 6.44063971327933 4 -1 -3
75 1 1 0.5897 3.370503922201067 8.895677429384332 10.985715758247222 3 0 2
800 1 1 0.5897 5.9883646421809775 8.778102578931545 8.272423183240758 0 -1 2
808 1 2 -1.1794 7.772678951108146 8.98711856450625 6.378641840299207 4 -1 -3
213 1 1 0.5897 1.7750261587305969 11.410096298231423 8.882899498614055 5 2 2
73 1 2 -1.1794 3.234573508423595 8.002765064887729 10.66872550074195 3 0 2
202 1 2 -1.1794 7.908497315832427 11.433590895173635 7.5064278404496125 -5 2 2
810 1 1 0.5897 7.456422591735292 8.62915490458337 7.208177147117852 4 -1 -3
211 1 2 -1.1794 0.8744143584878309 11.617944358852286 9.131805800236394 5 2 2
715 1 2 -1.1794 1.5402989502953948 9.9641266267678 6.117541677151232 3 -8 -4
508 1 2 -1.1794 5.240397348862929 11.440849899257506 8.455489566341729 4 -3 1
212 1 1 0.5897 0.8143830941205437 11.361169688055321 10.051988130502352 5 2 2
606 1 1 0.5897 8.731682820700037 8.561968217180603 9.250811489014646 -4 3 -1
509 1 1 0.5897 6.130123052611236 11.790398821513907 8.405790610153428 4 -3 1
203 1 1 0.5897 8.806258098879345 11.320813324644915 7.818801471718425 -5 2 2
790 1 2 -1.1794 5.516366263385919 9.833624135498498 11.047428531609997 2 6 -1
656 1 1 0.5897 4.7935655270346205 8.713513824444524 13.82058071269471 -2 2 -1
166 1 2 -1.1794 7.440813945912334 7.32566043527736 11.90549913194181 -1 1 3
115 1 2 -1.1794 1.6162185844724735 7.27162834161618 14.22672217859197 -3 -4 3
35 1 1 0.5897 3.9708781805406876 10.608604444401237 14.112810180161018 -7 2 -3
277 1 2 -1.1794 7.06749295587629 7.221765757932784 14.693290300789656 1 2 1
269 1 1 0.5897 1.1948231843956023 8.038345728739632 15.83588667442659 0 5 6
792 1 1 0.5897 5.829926508196047 9.567955915959068 11.911928117322104 2 6 -1
642 1 1 0.5897 6.752049681808079 9.410783658460547 14.594702334937416 6 1 -4
655 1 2 -1.1794 3.8681194398807452 8.60442081123864 13.60166431122199 -2 2 -1
167 1 1 0.5897 8.249514951023912 7.8373116403052725 11.8834886662027 -1 1 3
364 1 2 -1.1794 8.400465810577204 9.766024108449724 15.798395711268533 2 5 3
36 1 1 0.5897 2.6076595294146308 11.18223264228733 14.436115293959954 -7 2 -3
657 1 1 0.5897 3.8711515078458687 8.080448160280765 12.800587571980763 -1 2 -1
117 1 1 0.5897 2.486917334585529 7.661638259065906 14.148977682591992 -3 -4 3
641 1 1 0.5897 6.3086131185125565 10.813679623505765 14.238048484110958 6 1 -4
126 1 1 0.5897 5.8624895125113445 7.7087365019482705 16.10622437671115 0 -2 3
101 1 1 0.5897 0.7313356059692899 10.231087842837818 15.307050197838015 5 -4 -3
50 1 1 0.5897 2.8154781523452925 10.347985711656982 12.449570166279035 5 -2 -2
640 1 2 -1.1794 6.218823501571165 9.899767585768998 13.967948613813656 6 1 -4
100 1 2 -1.1794 0.8549412772813425 10.806704636460445 14.552292592044438 5 -4 -3
279 1 1 0.5897 7.069308963329081 7.204626619895907 13.736226307500345 1 2 1
49 1 2 -1.1794 2.5573044912864455 10.53320374278343 11.546600963953624 5 -2 -2
55 1 2 -1.1794 8.624779031549544 11.51554972052593 13.263038966030543 -4 -2 -1
366 1 1 0.5897 8.449481191303256 10.32464749198247 15.022643259153366 2 5 3
278 1 1 0.5897 7.946866880174216 6.93536047943332 14.9401178524447 1 2 1
102 1 1 0.5897 0.7485397395654942 10.233332810815257 13.793216790078148 5 -4 -3
34 1 2 -1.1794 3.5247756841643314 11.430077120276808 14.318886062470787 -7 2 -3
51 1 1 0.5897 3.211486601392451 11.157814707376929 11.233271698242936 5 -2 -2
695 1 1 0.5897 3.935738074292608 9.97477589144516 18.829658023432714 2 -2 0
107 1 1 0.5897 8.763324426380233 7.431295812350641 21.03389351911916 -1 1 4
125 1 1 0.5897 5.63973915655897 8.136344069249628 17.54131475589048 0 -2 3
476 1 1 0.5897 3.9709827167733933 9.336703429687436 16.933672702854402 5 -4 -1
591 1 1 0.5897 5.855379507017106 8.142938273295155 19.803693940716126 2 5 1
696 1 1 0.5897 3.4438110291228923 10.25964262586734 20.23281352674092 2 -2 0
284 1 1 0.5897 8.404099615505258 10.642348662930454 18.88764697135387 6 1 -4
54 1 1 0.5897 5.764773973169437 10.396468975992903 20.744540034277904 -5 -3 2
268 1 2 -1.1794 0.8863821946958584 8.65340641663291 16.501331118567094 0 5 6
694 1 2 -1.1794 4.24048308513013 10.091383933606261 19.72954901376295 2 -2 0
285 1 1 0.5897 7.59519918236557 10.560849474017516 17.61053496019024 6 1 -4
477 1 1 0.5897 2.476833090760862 9.493951176896095 17.12010324133587 5 -4 -1
373 1 2 -1.1794 2.488863546665919 7.237836071108673 18.55555457252294 4 4 0
782 1 1 0.5897 0.8528524432779274 11.717968026452874 18.640001170375932 -2 0 0
283 1 2 -1.1794 7.515316701900693 10.743176941694838 18.54683966748941 6 1 -4
53 1 1 0.5897 7.112825985988109 10.902047399364935 21.212612922593813 -5 -3 2
554 1 1 0.5897 1.8805499417304508 11.747803473254843 20.591009610824067 -6 -7 2
590 1 1 0.5897 6.811295459031196 9.15346657596131 19.206187943872266 2 5 1
475 1 2 -1.1794 3.2958189815589174 9.989456996583105 17.118954611227146 5 -4 -1
375 1 1 0.5897 1.7699813379876363 7.712166716373868 18.137836821634952 4 4 0
589 1 2 -1.1794 6.528963190003446 8.241950165597556 19.13083217377734 2 5 1
124 1 2 -1.1794 5.1765457266566015 7.971311426735525 16.720053510308517 0 -2 3
781 1 2 -1.1794 0.8542643280684782 11.149863118317212 19.410437184307586 -2 0 0
218 1 1 0.5897 1.883006944206814 8.269627342606777 21.28358348757557 6 0 -2
718 1 2 -1.1794 6.469692786584891 12.476304985102638 4.479625440344279 3 3 0
305 1 1 0.5897 1.4133546713274714 13.248204884199572 4.666790396818476 6 -1 -6
421 1 2 -1.1794 8.36581546797745 13.775778945750325 5.918353117544686 -2 0 4
622 1 2 -1.1794 6.3482406220896825 15.268268957016526 3.836305704322581 5 0 1
786 1 1 0.5897 6.344975116752316 15.542520023203705 1.300205010365103 4 4 4
423 1 1 0.5897 7.696103506914007 13.688168248042352 5.240049548295611 -2 0 4
304 1 2 -1.1794 1.9092420595039201 12.605763438801771 4.159215035689865 6 -1 -6
624 1 1 0.5897 5.496941473992538 15.258708473346614 3.3987522423525904 5 0 1
719 1 1 0.5897 5.7114682141288835 12.43985885648515 5.0627347076870395 3 3 0
856 1 2 -1.1794 3.683103247146304 14.599838805227815 3.228876214945288 2 0 -2
537 1 1 0.5897 4.738167142299171 13.298555186983656 1.5528557873871147 6 5 2
306 1 1 0.5897 2.699048686391485 13.073000522611464 3.8868884623867843 6 -1 -6
720 1 1 0.5897 6.095481220138605 12.468604979574389 3.5985933648902693 3 3 0
236 1 1 0.5897 1.0724703866422165 13.58315784137725 1.1456507184104643 1 -1 -5
535 1 2 -1.1794 5.5878365070009455 13.579693244053498 1.2133237921844913 6 5 2
857 1 1 0.5897 3.19955691077895 15.088435135968638 2.5627610293283323 2 0 -2
858 1 1 0.5897 3.3867766031233506 14.970036581240784 4.060385900312821 2 0 -2
623 1 1 0.5897 6.142017564729305 15.415721787676018 4.759343863386556 5 0 1
247 1 2 -1.1794 0.6909359519528875 15.699206502734485 3.414982233796229 -1 0 -3
410 1 1 0.5897 7.597911499776933 14.486806515543499 2.9840494087695 2 2 -4
409 1 2 -1.1794 8.362969321090677 14.125976744121076 2.536009627084627 2 2 -4
286 1 2 -1.1794 2.8813158016397225 16.267506411099944 1.1450103704451364 2 1 0
746 1 1 0.5897 8.684128455030715 12.724290637790002 1.4039426965021202 3 4 -7
411 1 1 0.5897 8.688147954247727 14.847452067254942 1.9975058928329295 2 2 -4
447 1 1 0.5897 9.02355366019309 12.287860898701902 4.974225041750343 4 -2 0
745 1 2 -1.1794 8.808065028669654 11.982508898617098 0.8117580400079341 3 4 -7
487 1 2 -1.1794 5.851803828465944 15.481364027611377 6.744770741782374 -1 -5 2
543 1 1 0.5897 2.694261039663099 15.386568713762578 6.593748866576478 -5 3 2
488 1 1 0.5897 5.541130580271673 16.324703553479054 7.074224476554364 -1 -5 2
563 1 1 0.5897 1.0156620227495006 14.710824563460864 8.630478973514478 3 2 6
691 1 2 -1.1794 3.477151467852108 12.797685362726682 10.257875608630336 2 -1 3
422 1 1 0.5897 8.16485927915106 13.080788910648446 6.545153996133441 -2 0 4
692 1 1 0.5897 2.986130764391731 13.478744107641232 9.7981451589803 2 -1 3
562 1 2 -1.1794 1.921792842778288 14.765584071316166 8.934099261349367 3 2 6
564 1 1 0.5897 1.8504954528290591 14.901254553321953 9.878972242719358 3 2 6
523 1 2 -1.1794 6.46242316051576 14.258384755431829 9.141912290468932 1 0 2
17 1 1 0.5897 9.059590335607126 11.8246470620802 10.716202559407705 -1 4 2
498 1 1 0.5897 8.58695971262118 15.686123742814171 6.16423978507544 1 -3 1
489 1 1 0.5897 6.370485016259294 15.1193515203332 7.463243808376258 -1 -5 2
525 1 1 0.5897 6.3608831706542235 15.199424117104083 9.284685204827415 1 0 2
496 1 2 -1.1794 8.843386461681975 16.60735127503436 6.207368656373563 1 -3 2
32 1 1 0.5897 3.2565968247958446 16.144332147849973 8.906440795222434 4 6 -1
524 1 1 0.5897 7.409244970547649 14.121044255461912 9.11155412729272 1 0 2
581 1 1 0.5897 6.892649574374847 12.776428515988192 10.26758006934214 -2 -3 -1
20 1 1 0.5897 3.6211895057025223 13.128725177202384 6.226209368215989 -2 -4 0
542 1 1 0.5897 4.145665133889366 15.058449628559378 6.314997255770744 -5 3 2
693 1 1 0.5897 4.118360875340029 12.490164369627626 9.61713419461294 2 -1 3
541 1 2 -1.1794 3.2544232732900187 14.840325088854843 6.042309453595084 -5 3 2
19 1 2 -1.1794 4.009906984541175 12.258255155347769 6.139871969196181 -2 -4 1
31 1 2 -1.1794 3.9301747796008155 16.699329770239817 9.299531639411532 4 6 -1
516 1 1 0.5897 9.0753833643852 15.023014784241518 9.79672581294799 -4 -4 0
580 1 2 -1.1794 7.227850309609889 12.093688213477254 10.848759698081508 -2 -3 -1
510 1 1 0.5897 4.789846217933097 11.82339184302188 7.702547349817934 4 -3 1
361 1 2 -1.1794 3.8817472516510194 15.917420343296534 13.38094387619532 4 -2 -3
633 1 1 0.5897 1.6203985246948327 12.109016028608146 12.045138351950882 6 4 5
369 1 1 0.5897 2.527463016348213 15.469847954514348 12.211113816165922 6 5 -2
699 1 1 0.5897 1.569997541362499 14.59445285807499 14.927375301409171 -1 2 -6
565 1 2 -1.1794 8.456097426106004 15.57455726163118 11.504242758181567 0 6 -6
659 1 1 0.5897 6.140665246760573 14.175994217600145 13.265427309107208 0 -2 2
567 1 1 0.5897 8.763449125931762 16.453419891222318 11.726485876686658 0 6 -6
362 1 1 0.5897 4.124270352857971 14.993362264935786 13.321198492384955 4 -2 -3
56 1 1 0.5897 7.915865254736436 11.853683874419756 12.715903883341234 -4 -2 -1
313 1 2 -1.1794 6.269661747711124 12.20146816366147 15.439459738404832 -1 -2 -2
658 1 2 -1.1794 6.851418100226752 14.22664878021623 13.90457834535399 0 -2 2
631 1 2 -1.1794 1.0188722625622315 12.84445156165979 12.16157382211359 6 4 5
363 1 1 0.5897 3.5766328232052786 16.027736057350033 14.281503641862301 4 -2 -3
371 1 1 0.5897 4.477520702690862 13.403151142718592 11.671248445014644 4 7 -1
370 1 2 -1.1794 4.641888024813223 13.524833400930646 12.60636898518645 4 7 -1
566 1 1 0.5897 8.519151745846337 15.083890487939998 12.32371064850556 0 6 -6
372 1 1 0.5897 4.258745720555893 12.751290516818234 13.020039298288902 4 7 -1
660 1 1 0.5897 6.515447105173358 14.801802547699314 14.592017284630847 0 -2 2
29 1 1 0.5897 6.817742507620631 16.272088388280615 12.584421738539419 -9 -2 4
229 1 2 -1.1794 8.966931881688682 15.372431428455931 15.822982177068901 3 6 -1
368 1 1 0.5897 1.454396961422403 14.475025604943344 11.822716275145934 6 5 -1
697 1 2 -1.1794 0.7491635661190086 14.244171068272271 14.581276364201448 -1 2 -6
546 1 1 0.5897 7.144062705209316 15.72396324312212 16.064669670528534 -4 5 3
315 1 1 0.5897 6.558565443653465 12.93985537197424 14.903176300317192 -1 -2 -2
544 1 2 -1.1794 6.192530432955383 15.654514553276654 16.14224609164475 -4 5 3
698 1 1 0.5897 1.0049416416366896 13.771759604299389 13.7890274196229 -1 2 -6
367 1 2 -1.1794 1.8232448154551613 15.324138620376639 11.579362858997087 6 5 -1
545 1 1 0.5897 5.8854307727837885 16.561103584785833 16.14827985920661 -4 5 3
57 1 1 0.5897 9.064682879420472 12.297664697689271 13.59628055117594 -4 -2 -1
314 1 1 0.5897 5.452891235213937 12.500310379955803 15.839285261798452 -1 -2 -2
323 1 1 0.5897 8.065663136006414 12.728970108748323 16.21588992045797 4 1 -4
30 1 1 0.5897 5.332769006467171 16.553704415027752 12.67095348015697 -9 -2 4
70 1 2 -1.1794 3.0498503692768115 14.895287194149137 15.994483022216082 6 2 -5
443 1 1 0.5897 0.7460078308457945 16.71401448367733 12.508698993004657 7 4 -2
506 1 1 0.5897 6.704539431821435 13.623576436575757 19.485583726581208 4 1 -5
859 1 2 -1.1794 4.04872807603447 12.807063324876923 17.28674594144643 -2 -3 0
322 1 2 -1.1794 9.007802622759712 12.718894099610836 16.384831190119915 4 1 -4
584 1 1 0.5897 4.144383089937403 14.536869830954505 19.324428055458327 2 -4 2
71 1 1 0.5897 3.3320372288567772 14.167229748376322 16.548156761916538 6 2 -5
507 1 1 0.5897 6.50232800397988 12.180547118807684 19.074828999122673 4 1 -5
72 1 1 0.5897 3.06739174523309 15.657630079537526 16.573091278333468 6 2 -5
835 1 2 -1.1794 0.9499088217635822 14.948529750001036 18.805545111745495 0 1 -1
578 1 1 0.5897 8.957881613156282 14.333790180926599 18.95124639581776 1 2 -3
860 1 1 0.5897 4.681647442548127 12.866896167778414 18.002346882371814 -2 -3 0
536 1 1 0.5897 5.539098858258714 13.408143867942744 20.949917056640015 6 5 1
415 1 2 -1.1794 5.302438089538044 16.07423148046079 18.665650500047228 -2 -3 -1
555 1 1 0.5897 3.0356011036275117 12.68852637656684 20.86089677251886 -6 -7 2
505 1 2 -1.1794 6.0254466863521525 12.992297540001937 19.247740083280316 4 1 -5
23 1 1 0.5897 1.9207545740056102 16.157679454694453 17.987327261763504 -4 1 1
785 1 1 0.5897 6.053102127962603 16.040875179790675 20.577872841482925 4 4 3
577 1 2 -1.1794 8.191603259658931 14.768473160836987 19.325580077260085 1 2 -3
417 1 1 0.5897 4.378578551680288 16.31952555509894 18.61482760540182 -2 -3 -1
583 1 2 -1.1794 3.396620642807528 14.32576522018228 19.883479786633238 2 -4 2
585 1 1 0.5897 2.6339187396603063 14.435060647381844 19.315490180053732 2 -4 2
416 1 1 0.5897 5.546306000989213 15.869183754059135 17.76302029439158 -2 -3 -1
836 1 1 0.5897 0.8215074426683597 14.350167014623457 18.06952216272623 0 1 -1
861 1 1 0.5897 3.8817742094918275 11.869320606349994 17.191799203904377 -2 -3 0
579 1 1 0.5897 8.06213538626977 15.541693675049622 18.77637586260633 1 2 -3
784 1 2 -1.1794 6.430828667955138 16.312061538962766 21.41455121160365 4 4 3
288 1 1 0.5897 3.0216735071089857 15.652670775917498 21.10199908925525 2 1 -1
553 1 2 -1.1794 2.4559128693403265 12.059049140723069 21.289831328599913 -6 -7 2
176 1 1 0.5897 0.7057926585923516 13.177328001742582 16.321908419814072 -2 -5 5
82 1 2 -1.1794 4.8063586069983515 20.03134678001574 5.213586323313456 -3 -3 -5
83 1 1 0.5897 5.469426253611468 20.576273463416637 5.637498688109596 -3 -3 -5
614 1 1 0.5897 5.296477235954394 18.516510576756403 4.174074715990496 -4 1 4
192 1 1 0.5897 1.9604975588171736 17.106050814535415 3.801062429297935 5 3 -7
191 1 1 0.5897 3.323778408587503 17.76436061319344 3.7899021590034514 5 3 -7
846 1 1 0.5897 7.80124147616832 19.394619531013063 3.4837894927609736 -1 0 5
558 1 1 0.5897 2.1460143827966434 19.1264117245033 2.610311622542943 3 1 2
845 1 1 0.5897 7.933309544061592 19.896493740663058 4.905988596589334 -1 0 5
615 1 1 0.5897 5.91477576867288 17.307724876405977 3.5043288232686978 -4 1 5
84 1 1 0.5897 4.37845170667191 20.616638845134773 4.588622178813516 -3 -3 -5
171 1 1 0.5897 5.9914795389514355 21.795894796332494 2.1503334878121305 -4 3 -1
190 1 2 -1.1794 2.4424389887734392 17.854795359011842 4.15233499640681 5 3 -7
844 1 2 -1.1794 7.840069080203879 20.198254192493643 4.00237088442071 -1 0 5
398 1 1 0.5897 1.3127171532973938 19.349212116692048 4.777003082038031 5 1 -6
557 1 1 0.5897 2.637333472233664 20.544526768568097 2.4115489670167394 3 1 2
556 1 2 -1.1794 2.101565502138879 19.864760335331976 2.002744378719645 3 1 2
165 1 1 0.5897 7.620354480504318 17.249031024173085 1.7811442414841274 -7 -1 0
397 1 2 -1.1794 0.8601332424869655 20.1615469872677 5.004087491497409 5 1 -6
613 1 2 -1.1794 5.176711593139789 17.91389037047091 3.440070722102853 -4 1 5
169 1 2 -1.1794 5.636542721404204 21.23628868377332 1.4595835564026007 -4 3 -1
486 1 1 0.5897 1.7470257037931454 16.93895292412399 5.90787956002748 0 2 1
163 1 2 -1.1794 7.902215777846587 17.932847040447985 2.388772817213887 -7 -1 0
299 1 1 0.5897 0.9396751475215881 20.732472050978867 0.9059393426922389 -3 -2 1
251 1 1 0.5897 3.762368618988623 18.885866433198874 1.045045027217506 6 -4 3
164 1 1 0.5897 8.824252053360352 17.7388007353017 2.557526985342383 -7 -1 0
287 1 1 0.5897 3.3209743887025915 17.070142378817962 0.864394845502097 2 1 0
252 1 1 0.5897 4.959770838237996 17.973242523520007 1.2044361255885363 6 -4 3
243 1 1 0.5897 1.085215198851889 17.315170091767982 0.8838026614030134 -1 -4 3
461 1 1 0.5897 1.633067905605294 21.34897209754456 6.1038030633571605 4 5 -1
677 1 1 0.5897 4.678065085139351 19.831611736644494 9.239460539046869 1 -2 -3
327 1 1 0.5897 2.9883748781515 17.39733558311177 11.028176192709017 1 -2 0
639 1 1 0.5897 4.668945527904705 18.57996771884011 6.300025855221797 -6 0 2
484 1 2 -1.1794 1.6258676912103591 17.143780388731074 6.835038556242259 0 2 1
272 1 1 0.5897 2.295204001820494 19.43929159166492 9.197561976393942 1 3 3
271 1 2 -1.1794 1.4031464064304708 19.33277556778146 8.867142525007571 1 3 3
637 1 2 -1.1794 4.33128639112399 17.852511050854954 6.822565091656923 -6 0 2
33 1 1 0.5897 4.030153584918054 17.426805121607092 8.68550062965771 4 6 -1
638 1 1 0.5897 3.4069716043411087 17.792342684215445 6.581143379099573 -6 0 2
273 1 1 0.5897 1.509692071131202 18.8819616379814 8.029467439279859 1 3 3
181 1 2 -1.1794 6.368868225230211 19.54540190350038 8.425230470108723 -4 3 -2
616 1 2 -1.1794 8.362277112245675 20.924737621219737 9.425240721409521 -1 1 0
78 1 1 0.5897 7.49673461946291 19.521616998402735 6.927191277369231 -5 -4 -4