LAMMPS data file via write_data, version 30 Jul 2021, timestep = 18750000

972 atoms
2 atom types
648 bonds
1 bond types
324 angles
1 angle types

0.12541205852767412 19.87458894147641 xlo xhi
0.09701458726032008 19.902986412736773 ylo yhi
0.08111098272066464 20.618887017290028 zlo zhi

Masses

1 1.008
2 15.999

Pair Coeffs # lj/cut/tip4p/long/omp

1 0 0
2 0.21084 3.1668

Bond Coeffs # harmonic/omp

1 450 0.9572

Angle Coeffs # harmonic/omp

1 55 104.52

Atoms # full

4 2 2 -1.1794 4.146958045781146 1.2819950477547573 3.289856633264957 0 0 0
3 1 1 0.5897 3.49011160759127 2.696259633558994 0.47821274444403905 0 0 0
5 2 1 0.5897 4.47353250501517 0.632111926421091 2.667660894226952 0 0 0
10 4 2 -1.1794 1.383617148882803 4.276547683279624 3.9841400386257133 0 0 0
11 4 1 0.5897 1.199388504679487 3.537135733562779 3.404958446068181 0 0 0
12 4 1 0.5897 2.335454366523122 4.271035379207246 4.085004788994907 0 0 0
16 6 2 -1.1794 4.216302712438537 4.101041152897253 3.7677835810467344 0 0 0
18 6 1 0.5897 4.23006484593703 3.2145993492663694 3.406938514386307 0 0 0
23 8 1 0.5897 2.6447273466498467 0.8312432208859459 4.4011251634812485 0 0 0
31 11 2 -1.1794 0.8020945132702874 2.312124229512608 2.252578150142309 0 0 0
33 11 1 0.5897 1.345545007851836 2.5692703136685373 1.5078373940525078 0 0 0
236 79 1 0.5897 1.0125432246511592 0.46206954277686635 2.0499463189566614 0 1 0
6 2 1 0.5897 4.732104065934339 1.2076871477150126 4.043634261449036 0 0 0
22 8 2 -1.1794 2.0424303358606775 0.6203049116894832 5.114463962980107 0 0 0
17 6 1 0.5897 4.376436862153389 4.66936852498304 3.0144865187303562 0 0 0
1 1 2 -1.1794 2.577823235912265 2.8268889185310058 0.21965576180821397 0 0 0
356 119 1 0.5897 1.4999821351066132 2.1265676072137443 8.372246261056167 0 0 0
340 114 2 -1.1794 4.07510466649944 4.248498430424561 10.321628792571222 0 0 0
325 109 2 -1.1794 2.624670977365431 2.668220171821909 6.923926073635096 0 0 0
326 109 1 0.5897 2.407887457126797 2.0027999853558933 6.270982441990276 0 0 0
327 109 1 0.5897 3.550804432532627 2.522396253353503 7.1168331839679935 0 0 0
330 110 1 0.5897 4.291549349881757 0.8100759350128001 9.355475921087757 0 0 0
355 119 2 -1.1794 0.8998423655963569 1.8790673997276948 9.075584151337896 0 0 0
27 9 1 0.5897 2.62614375339795 4.409827561019247 6.613488347650037 0 0 0
342 114 1 0.5897 4.379141629471601 4.739615697290924 9.558444463568087 0 0 0
328 110 2 -1.1794 4.1255900645190895 1.5429079599942996 9.948373536258492 0 0 0
341 114 1 0.5897 4.086935886791288 3.3340928123242906 10.038949856835144 0 0 0
335 112 1 0.5897 1.1164507395859138 3.291590103382055 10.188277066833413 0 0 0
102 34 1 0.5897 0.164594757380911 0.7117265624130844 5.3972022773118615 1 0 0
683 228 1 0.5897 4.3630301993689065 2.635504533814258 14.280112712220474 0 0 0
336 112 1 0.5897 2.2367043121968275 4.159749967048794 10.720368453550337 0 0 0
346 116 2 -1.1794 1.9327949247892948 0.5880241061635104 11.691690175411221 0 0 0
347 116 1 0.5897 1.0495872228977703 0.9498165764763606 11.619140302164961 0 0 0
348 116 1 0.5897 2.3787226692180345 0.8824310135622547 10.897619676873205 0 0 0
350 117 1 0.5897 2.710871547136015 4.074528768161599 13.43914870360424 0 0 0
649 217 2 -1.1794 2.6872573959884307 2.3278742532072423 13.667923200148397 0 0 0
650 217 1 0.5897 2.4871277261114146 1.72196979743809 12.954541887204904 0 0 0
651 217 1 0.5897 1.9809414513657142 2.195704738398936 14.300204889630416 0 0 0
334 112 2 -1.1794 1.2835071321474063 4.072511141703247 10.715916497221848 0 0 0
329 110 1 0.5897 4.652265457908837 1.3484005252982976 10.723524518185188 0 0 0
349 117 2 -1.1794 2.684202907098613 5.028438078868937 13.513616811062935 0 0 0
652 218 2 -1.1794 4.315830505564837 1.4379233017474826 17.14582741493338 0 0 0
653 218 1 0.5897 3.450997410851176 1.2942568473754317 17.53000094870051 0 0 0
654 218 1 0.5897 4.3759438740584224 0.7921957116791886 16.441901358736196 0 0 0
658 220 2 -1.1794 1.3559367541799165 4.124996813763138 17.414421952548523 0 0 0
2 1 1 0.5897 2.5200781077355794 3.7579940689473994 20.543185807625264 0 0 -1
664 222 2 -1.1794 4.259948933422189 4.1592615370787955 17.32368001875006 0 0 0
665 222 1 0.5897 3.319175252809749 4.334059302294482 17.348291814889997 0 0 0
666 222 1 0.5897 4.325110754017043 3.2203924664180312 17.149116811343944 0 0 0
670 224 2 -1.1794 2.0814252470815457 1.1404884338487082 18.75391796415721 0 0 0
671 224 1 0.5897 2.14723779265125 1.8470741548762764 19.396195100407425 0 0 0
672 224 1 0.5897 1.1468006855643633 1.082811082864429 18.555528339547045 0 0 0
681 227 1 0.5897 1.0513493372939253 2.693080180043149 16.37637816524648 0 0 0
659 220 1 0.5897 0.7663009396359078 4.343196206255075 18.136100024560065 0 0 0
679 227 2 -1.1794 0.76185105990507 1.9856827410343112 15.800256473546357 0 0 0
660 220 1 0.5897 1.1263553835450053 4.744079504889301 16.721503381899375 0 0 0
884 295 1 0.5897 0.815305831548386 0.22649326050359972 15.653845950621175 0 1 0
110 37 1 0.5897 2.288850790126081 9.166635266039838 0.7284543132116389 0 0 0
141 47 1 0.5897 1.1012333434019204 7.8446321201621805 2.3311393766467736 0 0 0
139 47 2 -1.1794 0.9959141935333292 8.771771128391208 2.1177945314614104 0 0 0
114 38 1 0.5897 3.3725508555232246 7.6316377010339 3.9699632668486835 0 0 0
13 5 2 -1.1794 4.752982645236274 5.906804782211888 1.6680503360729861 0 0 0
14 5 1 0.5897 4.152891044151755 5.8359020412554115 0.9257833104189437 0 0 0
126 42 1 0.5897 4.448819049022837 9.791970293238426 3.5262624085343 0 0 0
19 7 2 -1.1794 0.9373675301162222 6.1056141977353215 1.9670518017738234 0 0 0
140 47 1 0.5897 1.148659613863199 9.22738578745587 2.945518905735917 0 0 0
112 38 2 -1.1794 4.17794967022044 7.855230978541848 3.5035825846928548 0 0 0
674 225 1 0.5897 2.1456063901847786 5.920373035178138 0.6130464637515158 0 0 1
15 5 1 0.5897 4.513086539048924 6.73038543176593 2.092708183724429 0 0 0
130 44 2 -1.1794 1.7972961495049142 7.420876098038511 4.992799239049228 0 0 0
20 7 1 0.5897 1.0540399824196922 5.595854292150738 2.7686819076045146 0 0 0
113 38 1 0.5897 4.8799605851041 7.61720056077689 4.109099813874651 0 0 0
111 37 1 0.5897 3.740159248901066 9.137604212796308 0.2987285701883281 0 0 0
132 44 1 0.5897 0.8467688432891757 7.401909115645641 5.10394605249961 0 0 0
26 9 1 0.5897 2.072496657294353 5.708437778164334 7.160168432567238 0 0 0
464 155 1 0.5897 1.525743319772862 8.697015202460266 8.27204275146152 0 0 0
131 44 1 0.5897 2.099277089866778 6.593408201674915 5.367323958898666 0 0 0
437 146 1 0.5897 4.280942794479192 7.337959593438855 9.742560814633059 0 0 0
339 113 1 0.5897 4.2261685141123015 5.6925781848106345 7.723146496333509 0 0 0
435 145 1 0.5897 2.57474495802918 8.594131392071516 6.232394182222189 0 0 0
433 145 2 -1.1794 2.7628121188649173 9.110797335349494 7.015800997122167 0 0 0
463 155 2 -1.1794 0.8274152991089123 8.476345686771529 8.888302249991598 0 0 0
345 115 1 0.5897 1.0000284434733322 6.61309246069241 8.79002747118561 0 0 0
468 156 1 0.5897 4.553952117600826 9.019667373840434 7.364632874597456 0 0 0
343 115 2 -1.1794 0.7531522685505608 5.7413704019199345 8.481280398848858 0 0 0
344 115 1 0.5897 0.9571084132163806 5.160494984948674 9.214134940058116 0 0 0
337 113 2 -1.1794 4.749707782327211 6.102850062844005 8.411356823590387 0 0 0
25 9 2 -1.1794 2.7214734236131317 5.360063363982398 6.548938701044439 0 0 0
438 146 1 0.5897 4.030344505058212 8.776200365886925 10.143128532209309 0 0 0
443 148 1 0.5897 1.3747814614129472 9.711780927425634 10.211986957609867 0 0 0
757 253 2 -1.1794 2.8033277817438753 9.183402491496574 14.215601589745765 0 0 0
668 223 1 0.5897 1.4617400253423714 5.652504670272759 14.639274708497513 0 0 0
792 264 1 0.5897 4.571639049624025 9.308251291553729 14.509931013330315 0 0 0
759 253 1 0.5897 2.6441109950730337 8.51415564018195 13.550130947392974 0 0 0
351 117 1 0.5897 3.487630654263457 5.255142598763188 13.981888746814649 0 0 0
454 152 2 -1.1794 2.133487451564187 7.4343106030026815 12.313335044972336 0 0 0
455 152 1 0.5897 2.7349902595116573 7.550240982536907 11.577905131601854 0 0 0
456 152 1 0.5897 2.3533762090057246 6.573635044807036 12.669769510869727 0 0 0
667 223 2 -1.1794 0.7585590951902211 5.815030465063337 15.267950355905237 0 0 0
533 178 1 0.5897 0.31917712966237693 7.312209634920602 12.094359144222217 1 0 0
789 263 1 0.5897 1.4121490160567245 8.840556377539967 15.146679932601625 0 0 0
661 221 2 -1.1794 4.687547703628057 5.817868050031057 15.27847835298743 0 0 0
436 146 2 -1.1794 4.034207845256731 7.883757959028809 10.489093672348233 0 0 0
787 263 2 -1.1794 0.7167442745695541 8.554082794136427 15.738683395928296 0 0 0
788 263 1 0.5897 0.7428233521423747 9.181668136855448 16.460868386211793 0 0 0
663 221 1 0.5897 4.616543639120087 6.662077064893412 15.723936827087826 0 0 0
779 260 1 0.5897 2.193378255482848 8.280651967668458 19.13062783275943 0 0 0
780 260 1 0.5897 2.841983391154622 7.813521351900251 17.845099875304747 0 0 0
675 225 1 0.5897 2.484531811399202 6.235964899390394 19.709668020841555 0 0 0
760 254 2 -1.1794 4.297055493349805 8.030916020745872 16.816171452714656 0 0 0
761 254 1 0.5897 4.126725563175423 8.972503491573649 16.840732137385274 0 0 0
778 260 2 -1.1794 2.0765526634441653 7.67124243337228 18.401882027089123 0 0 0
669 223 1 0.5897 0.8556618437917776 6.737706996912176 15.50338318226729 0 0 0
109 37 2 -1.1794 2.853253031326522 9.263696787886763 20.499341045241977 0 0 -1
858 286 1 0.5897 0.401316413990644 7.243662962501271 18.57958952190983 1 0 0
673 225 2 -1.1794 2.7234938491726863 5.658153447368003 20.434306765444923 0 0 0
662 221 1 0.5897 4.658701636360797 5.171226427497458 15.983551837921327 0 0 0
762 254 1 0.5897 5.036758808580791 7.905257788277812 17.410465932664685 0 0 0
222 74 1 0.5897 4.365966002927754 13.941684882163967 2.6343358590782735 0 0 0
118 40 2 -1.1794 1.4925233402627105 10.833548702502323 3.8979373405233293 0 0 0
119 40 1 0.5897 2.438652159239039 10.911721015524062 4.020168292252368 0 0 0
120 40 1 0.5897 1.2745600278018465 11.519621749147287 3.2671290747052026 0 0 0
783 261 1 0.5897 2.1479818537724573 12.208839230789533 0.5738106008000561 0 0 1
220 74 2 -1.1794 4.110453106836312 14.4236691752707 3.42077319142352 0 0 0
124 42 2 -1.1794 4.316703956086381 10.715179637204693 3.7417187474020004 0 0 0
240 80 1 0.5897 2.5608256830031206 14.10419253840262 4.2553047917837175 0 0 0
127 43 2 -1.1794 1.0499398279498813 12.671811865989863 1.8105550693052161 0 0 0
129 43 1 0.5897 1.0978019682944509 13.59580899867825 2.055711944713997 0 0 0
123 41 1 0.5897 4.376791561939488 12.19441285030144 0.9130475144366379 0 0 0
122 41 1 0.5897 4.740153816908819 11.83540181013424 2.338008591089558 0 0 0
125 42 1 0.5897 4.916105160806904 10.879883729163247 4.469519524891307 0 0 0
121 41 2 -1.1794 4.936710141209542 12.462035120023065 1.6417271073784 0 0 0
238 80 2 -1.1794 1.815357132628919 13.918043937190735 4.82605385289606 0 0 0
128 43 1 0.5897 0.14283701061936682 12.54382649137939 1.5330956491928265 0 0 0
239 80 1 0.5897 1.9296451589127621 13.001995115489263 5.078975838924677 0 0 0
133 45 2 -1.1794 2.5930419755468987 11.837569268104179 6.6231875068556425 0 0 0
134 45 1 0.5897 1.9800615697326542 11.992615917724633 7.341731510158158 0 0 0
135 45 1 0.5897 3.4121624252201883 12.236881504229377 6.91606213579688 0 0 0
445 149 2 -1.1794 4.823624676053391 12.542277325924863 8.101439490663337 0 0 0
544 182 2 -1.1794 4.231432209610738 14.359472567242545 10.1104557259238 0 0 0
446 149 1 0.5897 4.680209081701872 13.254350723901641 8.724746706736102 0 0 0
450 150 1 0.5897 4.418469622858283 11.104564309539954 9.190696401427696 0 0 0
451 151 2 -1.1794 0.9486748694217849 12.421639313383723 8.786568257703056 0 0 0
453 151 1 0.5897 1.105119078957785 11.799942706478399 9.497289301701977 0 0 0
573 191 1 0.5897 1.0218085920838447 14.371321541343008 9.30510646041898 0 0 0
543 181 1 0.5897 2.3032090908957894 14.927241685963644 6.2565517554045975 0 0 0
448 150 2 -1.1794 4.294121236430048 10.535208549443556 9.94993816790154 0 0 0
434 145 1 0.5897 2.628738690817325 10.018320490715611 6.742699628141233 0 0 0
449 150 1 0.5897 4.7626194860763285 10.9753153774612 10.659096102494514 0 0 0
442 148 2 -1.1794 1.5583810138890763 10.502704832928208 10.71882050971806 0 0 0
457 153 2 -1.1794 2.6095898989517754 11.867666264031001 13.319725225691831 0 0 0
458 153 1 0.5897 1.860689204611964 11.997612159963039 13.901455847393885 0 0 0
459 153 1 0.5897 3.360097971014635 12.189537195733 13.819022580769474 0 0 0
545 182 1 0.5897 3.51093309398637 14.275347332958562 10.73490768897593 0 0 0
444 148 1 0.5897 2.4947971164478977 10.656233500973089 10.5932679663056 0 0 0
562 188 2 -1.1794 2.206003572038386 14.007937106664825 11.815410351508433 0 0 0
563 188 1 0.5897 2.428207981285042 13.19088765853823 12.2617021441732 0 0 0
775 259 2 -1.1794 1.0048597429495265 12.665384435697169 15.324992756598226 0 0 0
769 257 2 -1.1794 4.523888033684123 12.582494931314496 15.17373729334176 0 0 0
642 214 1 0.5897 0.4127562813420491 14.186785928411172 12.07940674688414 1 0 0
564 188 1 0.5897 2.404714635140717 14.692241281058585 12.45443459736619 0 0 0
512 171 1 0.5897 0.28939947533739957 10.869382346845901 12.224616868756625 1 0 0
758 253 1 0.5897 2.706854177186697 10.013575888880812 13.749068555783015 0 0 0
546 182 1 0.5897 5.020488039567526 14.354457144735774 10.652229248631144 0 0 0
766 256 2 -1.1794 1.2046569718303533 10.802184991400386 17.40110997426636 0 0 0
965 322 1 0.5897 0.6254288979385947 14.24058859774781 18.846727602328222 1 0 0
768 256 1 0.5897 1.1302158021304973 11.542726644075058 16.79929230020248 0 0 0
772 258 2 -1.1794 3.973567820640444 10.715903574409612 17.252009738277934 0 0 0
773 258 1 0.5897 3.0217235544680268 10.793566105081373 17.316631136977307 0 0 0
774 258 1 0.5897 4.212022771527929 11.287792798259401 16.52251177026853 0 0 0
868 290 2 -1.1794 4.232055419967331 14.805444463342946 16.7368811159291 0 0 0
767 256 1 0.5897 0.6346843874844548 11.031308394468994 18.13509708395827 0 0 0
869 290 1 0.5897 3.4924026390303045 14.637763717134968 17.320776370665342 0 0 0
886 296 2 -1.1794 2.3437666354483175 14.160403444741796 18.621213665470464 0 0 0
888 296 1 0.5897 2.4565657786784687 13.39282029271191 19.181744981599657 0 0 0
781 261 2 -1.1794 2.7661428130424115 12.022335679719411 20.405044112189287 0 0 0
777 259 1 0.5897 1.188189978978541 13.573218192467944 15.566692165139681 0 0 0
771 257 1 0.5897 4.336521255049152 13.403657417805205 15.628431812113101 0 0 0
782 261 1 0.5897 2.6396367444083655 11.092860382660229 20.214625160321248 0 0 0
870 290 1 0.5897 4.995619734764488 14.48950044190472 17.219892783038866 0 0 0
887 296 1 0.5897 2.452943928277741 14.906402156837933 19.210852129017475 0 0 0
890 297 1 0.5897 2.154751242222139 18.969383000340542 0.7126801092812082 0 0 1
248 83 1 0.5897 1.2963171550647363 16.009564545575437 2.9193293454720126 0 0 0
249 83 1 0.5897 1.6550995248730165 15.710148643537977 1.4795311128231867 0 0 0
235 79 2 -1.1794 0.9103080350721912 19.352242967144768 1.7910418741276442 0 0 0
226 76 2 -1.1794 1.5811071008435673 17.516754524307096 3.9514200635410432 0 0 0
227 76 1 0.5897 1.4121728439477133 18.25249194013272 3.3629635839954406 0 0 0
228 76 1 0.5897 0.882957409170479 17.566515294724667 4.604283444095121 0 0 0
247 83 2 -1.1794 1.1311954962008646 15.38615101165195 2.2120957896374347 0 0 0
230 77 1 0.5897 4.702924312342049 18.974702170524125 0.7056999653852737 0 0 0
232 78 2 -1.1794 4.3577001232122745 17.163970365632657 3.568956236778613 0 0 0
233 78 1 0.5897 4.588636334395311 17.819467325507745 2.910845309104293 0 0 0
234 78 1 0.5897 3.4510688619648637 17.36547535388746 3.8005148257251595 0 0 0
221 74 1 0.5897 4.231814589577741 15.34419090058735 3.188176558099589 0 0 0
219 73 1 0.5897 3.4155312133286095 15.898806716662211 0.154236764337958 0 0 0
576 192 1 0.5897 4.468848306068227 15.498511753231867 7.251478785878588 0 0 0
558 186 1 0.5897 4.273721514397923 17.538855553782177 9.758984777164054 0 0 0
559 187 2 -1.1794 0.8066066666702393 18.940653223775513 8.583436355494795 0 0 0
241 81 2 -1.1794 2.7732080926098615 18.329063452627437 6.767766689865342 0 0 0
242 81 1 0.5897 2.7545348949310005 17.374151190452928 6.704669267539445 0 0 0
243 81 1 0.5897 2.0468661674510873 18.54518746987739 7.352449508974141 0 0 0
541 181 2 -1.1794 2.7113836965449702 15.499386548203095 6.906277770774397 0 0 0
542 181 1 0.5897 2.1930285391816717 15.368876573860298 7.700227814441014 0 0 0
553 185 2 -1.1794 4.753649731998154 18.99301764873178 8.694975613813076 0 0 0
571 191 2 -1.1794 0.9476464835670964 15.290958704814377 9.050257820611296 0 0 0
555 185 1 0.5897 4.348062216726168 18.80427800674643 7.848842977642226 0 0 0
572 191 1 0.5897 1.0932519283078472 15.777365048111282 9.86160502900968 0 0 0
24 8 1 0.5897 2.3340080059475263 19.57081188104349 5.429643860754161 0 -1 0
551 184 1 0.5897 1.336919198685396 17.8897599607887 10.087302690862838 0 0 0
561 187 1 0.5897 0.8487911465419398 19.88228666986654 8.749985132070735 0 0 0
557 186 1 0.5897 4.237075940729073 16.12505326927088 10.298947968632254 0 0 0
885 295 1 0.5897 1.1803692257858036 18.80932155194011 14.839997689350204 0 0 0
866 289 1 0.5897 3.862759467910158 15.97477673280704 13.907245083470531 0 0 0
879 293 1 0.5897 3.989308019681126 19.007434657428625 14.848029471978384 0 0 0
867 289 1 0.5897 2.4477805951104563 15.75517084726093 14.398581252475584 0 0 0
550 184 2 -1.1794 1.5253215028393987 17.308708756122044 10.824174220123892 0 0 0
552 184 1 0.5897 2.4707032266713154 17.38417769573919 10.953680735633645 0 0 0
565 189 2 -1.1794 2.4677520446031447 18.65196122074719 13.728955660407562 0 0 0
566 189 1 0.5897 2.606723204514181 17.737547054270493 13.482538864221226 0 0 0
567 189 1 0.5897 2.300926269331948 19.101139933379905 12.90041752108794 0 0 0
865 289 2 -1.1794 2.9596182796330317 15.891320148259183 13.601359366235364 0 0 0
556 186 2 -1.1794 4.297001576354022 17.039534403251132 10.575196086976147 0 0 0
896 299 1 0.5897 0.45890047770989945 15.55899942683102 15.268960507824797 0 0 0
621 207 1 0.5897 0.15547245486842803 17.76515273145685 11.964108591197892 1 0 0
881 294 1 0.5897 3.078471906665976 17.586666259922417 17.643996450129293 0 0 0
897 299 1 0.5897 1.2198159899147336 16.002378837385017 16.500196802591113 0 0 0
218 73 1 0.5897 2.5272544696759485 17.022777848863647 20.202710986309555 0 0 -1
882 294 1 0.5897 4.065944758259352 16.60961572011938 17.042302073473955 0 0 0
880 294 2 -1.1794 4.002126566975058 17.490131345196737 17.412159870870553 0 0 0
874 292 2 -1.1794 1.233249405165915 17.3983119956252 17.488434978410787 0 0 0
875 292 1 0.5897 0.7538009559585953 17.556684296199023 18.301530488410023 0 0 0
876 292 1 0.5897 0.8881689522384202 18.04793536243512 16.876034644745857 0 0 0
878 293 1 0.5897 4.485253318618034 18.572467950241546 16.210492616130885 0 0 0
891 297 1 0.5897 2.403940895625451 19.609758152629112 19.901644684453885 0 0 0
895 299 2 -1.1794 1.2967555276589935 15.453848162873213 15.719645334989362 0 0 0
889 297 2 -1.1794 2.684258348665947 18.88297566843506 20.457839847880514 0 0 0
217 73 2 -1.1794 2.5125159042946477 16.09656030168554 20.443713362877148 0 0 -1
883 295 2 -1.1794 0.6005982101888989 19.106500466424173 15.541186325261677 0 0 0
877 293 2 -1.1794 4.657362017106382 19.197704970325738 15.506534489503618 0 0 0
69 23 1 0.5897 6.698160875640066 2.212192652574098 1.8152155821130158 0 0 0
273 91 1 0.5897 7.963841344603336 0.2964106530665549 1.885140154439633 0 1 0
68 23 1 0.5897 8.191970108164488 2.202858144825444 1.5697319296835213 0 0 0
67 23 2 -1.1794 7.531688418251827 1.9861909352420142 2.2279155152160115 0 0 0
46 16 2 -1.1794 8.129534511367977 4.249016364327044 3.889772283672882 0 0 0
47 16 1 0.5897 7.8112659444137 3.578609449630887 3.28529772832219 0 0 0
48 16 1 0.5897 7.4444964664064 4.317171140886676 4.554754209276196 0 0 0
9 3 1 0.5897 5.337988460761321 4.493428247039787 5.021569536286064 0 0 0
34 12 2 -1.1794 5.445237496893389 2.6959764080384896 0.7040000048540227 0 0 0
53 18 1 0.5897 9.954654356685635 4.159749388825883 4.024385426412477 0 0 0
37 13 2 -1.1794 9.197239980663293 2.740666616518073 0.164078130298134 0 0 0
58 20 2 -1.1794 8.600397556863484 0.8433016893224312 5.065862562000423 0 0 0
41 14 1 0.5897 9.841427151698635 1.1784292248224557 3.755040049860263 0 0 0
36 12 1 0.5897 5.59891038425991 3.546494032340395 0.29270448131970994 0 0 0
8 3 1 0.5897 5.81211121759972 4.030659984680058 6.3826354232380345 0 0 0
391 131 2 -1.1794 7.61591109517682 2.375492859042698 9.173852151481018 0 0 0
393 131 1 0.5897 7.560987103043069 1.425467958402032 9.070745535228712 0 0 0
360 120 1 0.5897 5.592681989556764 1.839691442970006 6.770621673596688 0 0 0
361 121 2 -1.1794 9.182943420860092 2.7875016293797494 6.978194845430192 0 0 0
392 131 1 0.5897 8.098150532884343 2.6731322476817527 8.402525569055394 0 0 0
362 121 1 0.5897 9.216465740598371 3.720635320460326 6.767730575681454 0 0 0
358 120 2 -1.1794 5.4962623152567405 2.5849646126180477 7.363407472782358 0 0 0
359 120 1 0.5897 6.145449006717314 2.4311818353489425 8.049721366147464 0 0 0
59 20 1 0.5897 8.860664088021485 1.5052807858243926 5.70629511358137 0 0 0
7 3 2 -1.1794 6.007849248039451 4.656579492864025 5.685489548747942 0 0 0
28 10 2 -1.1794 5.825223951599764 0.7200460166671014 5.337204881740942 0 0 0
29 10 1 0.5897 6.769887137991424 0.8398633041234983 5.23991019352409 0 0 0
352 118 2 -1.1794 5.801129675606947 1.0934706983402922 12.064256343641814 0 0 0
353 118 1 0.5897 6.749259010709586 1.1109528887219235 11.934081616570232 0 0 0
331 111 2 -1.1794 5.70476188114924 4.84489843697203 12.512095328009014 0 0 0
370 124 2 -1.1794 7.813610209067974 4.542337241078362 10.774454672197518 0 0 0
372 124 1 0.5897 7.224457288693683 4.545597603645543 11.52876625695548 0 0 0
685 229 2 -1.1794 8.99857318168687 2.9608621316106993 13.790807881582705 0 0 0
382 128 2 -1.1794 8.544302297042771 0.8956305906209499 11.847080151151056 0 0 0
383 128 1 0.5897 8.744666936049827 1.6310382833695438 12.426014576130664 0 0 0
384 128 1 0.5897 9.216684634181942 0.9355172458704921 11.167056938391747 0 0 0
354 118 1 0.5897 5.663757302655318 1.556681027202382 12.890471246934537 0 0 0
686 229 1 0.5897 8.521473448719238 2.651733641330247 14.56081023723953 0 0 0
682 228 2 -1.1794 5.303536394254551 2.798382421393227 14.351727148387479 0 0 0
684 228 1 0.5897 5.443012054497322 3.614517649510702 13.871494784885456 0 0 0
386 129 1 0.5897 9.002050507611937 4.884569570552854 13.526475067815449 0 0 0
687 229 1 0.5897 9.915778774888603 2.765080353739222 13.98214525486697 0 0 0
377 126 1 0.5897 9.520062118665006 4.1976578737754116 10.700713732159697 0 0 0
332 111 1 0.5897 5.135900852080473 4.704351758497958 11.755306520441406 0 0 0
371 124 1 0.5897 7.6587371017236014 3.69717129650176 10.35269805487536 0 0 0
657 219 1 0.5897 6.70848285592121 4.4054721031716815 18.932691288675684 0 0 0
38 13 1 0.5897 8.987966596569304 2.244806075611695 19.910397516826492 0 0 -1
677 226 1 0.5897 5.365155223318231 1.1378165642709697 18.454619475457484 0 0 0
689 230 1 0.5897 9.947409368206424 1.2931464031329687 17.26488588904688 0 0 0
676 226 2 -1.1794 5.87266605824644 0.94110013097559 19.241907441414583 0 0 0
715 239 2 -1.1794 7.42390067313317 1.9593932068441937 15.912523086590019 0 0 0
694 232 2 -1.1794 7.915226788975276 4.064033230575097 17.665366624027 0 0 0
695 232 1 0.5897 7.753336648532457 3.2228837990075436 17.23825391467477 0 0 0
716 239 1 0.5897 7.498078992789691 1.0051179437419633 15.904744184846072 0 0 0
706 236 2 -1.1794 8.67811697660783 1.0445512502936498 18.709968344839957 0 0 0
708 236 1 0.5897 7.7290779501732825 0.920199948816635 18.718724160060532 0 0 0
656 219 1 0.5897 5.218047676419806 4.661450359664865 19.00269446234939 0 0 0
35 12 1 0.5897 5.627571048944859 2.0589021184825005 20.55112602768351 0 0 -1
655 219 2 -1.1794 6.03190357053544 4.790398413392806 19.489668956971514 0 0 0
710 237 1 0.5897 9.311846733156276 4.502511926816297 20.459817239287823 0 0 0
702 234 1 0.5897 9.715644501450283 4.174196697368816 17.412985308227576 0 0 0
696 232 1 0.5897 7.73584436479772 4.715782691418352 16.987754266810576 0 0 0
707 236 1 0.5897 9.028897205991832 0.24188636768565852 19.095787899938976 0 0 0
717 239 1 0.5897 6.553279596206817 2.135342552458193 15.555797265844873 0 0 0
143 48 1 0.5897 6.1932631377615595 9.19614753329084 1.1697649037001154 0 0 0
176 59 1 0.5897 7.598045159962698 7.840581246111054 2.1642279483843945 0 0 0
711 237 1 0.5897 8.902540577548375 5.766073968855365 0.6483643356600564 0 0 1
166 56 2 -1.1794 8.84105500134012 7.577971827567406 4.882077559525436 0 0 0
175 59 2 -1.1794 7.638976055255206 8.795706233113647 2.2117328661044255 0 0 0
55 19 2 -1.1794 7.640846411506012 6.074478764781701 1.882550497079369 0 0 0
56 19 1 0.5897 6.7633397800682475 5.867852604101743 1.560865026109451 0 0 0
177 59 1 0.5897 8.220889261698884 9.046949196279249 1.4945427272676048 0 0 0
57 19 1 0.5897 7.7791907774123175 5.467128073032207 2.609244170896207 0 0 0
142 48 2 -1.1794 5.594621733011862 9.343028605785259 0.4375384153423709 0 0 0
138 46 1 0.5897 7.112340110610608 7.496029108919527 4.99006462222132 0 0 0
155 52 1 0.5897 8.161276869295953 9.970134523476807 3.366105945894538 0 0 0
136 46 2 -1.1794 6.189124171136739 7.349183337840122 5.195765927011436 0 0 0
381 127 1 0.5897 7.6900239001566995 5.633484755601179 9.276155755685584 0 0 0
501 167 1 0.5897 6.639488961488835 9.101683645155205 8.907534272360238 0 0 0
380 127 1 0.5897 7.7528079602544535 7.084898983484372 8.850512501730787 0 0 0
467 156 1 0.5897 5.70682457854451 8.339058206139418 6.657971472777364 0 0 0
499 167 2 -1.1794 7.477285601477299 8.878285713047237 9.31295576297394 0 0 0
137 46 1 0.5897 6.12814733309913 6.409624096140147 5.368051599462061 0 0 0
338 113 1 0.5897 5.642842241371073 6.100594311218815 8.06713509995296 0 0 0
469 157 2 -1.1794 8.90444536978977 9.403953857107782 6.966632719672974 0 0 0
500 167 1 0.5897 7.690425967434417 9.636527432784327 9.85681931345653 0 0 0
470 157 1 0.5897 8.369874130825028 9.242699083302046 7.744012484904273 0 0 0
466 156 2 -1.1794 5.507344429195297 9.037429574984936 7.281352988972473 0 0 0
62 21 1 0.5897 8.596910788418006 5.717267815195548 7.089117328204135 0 0 0
379 127 2 -1.1794 7.559745521987169 6.207179518909105 8.521175580692406 0 0 0
61 21 2 -1.1794 9.342459311440878 5.469221494427937 6.542507804267582 0 0 0
471 157 1 0.5897 9.806345696922302 9.29862385682209 7.2694220108993814 0 0 0
167 56 1 0.5897 9.027954399513817 6.787411323478321 5.38827478364827 0 0 0
168 56 1 0.5897 8.835739467102954 8.282318837070179 5.530142162672935 0 0 0
790 264 2 -1.1794 5.493541859043967 9.438505054010573 14.287819059848818 0 0 0
794 265 1 0.5897 8.99264433820608 8.960147204431207 13.655656865732192 0 0 0
385 129 2 -1.1794 9.154482535901987 5.775553805645781 13.841253927352092 0 0 0
791 264 1 0.5897 5.973075564728905 9.08823352076971 15.038426881733844 0 0 0
333 111 1 0.5897 5.789011993102383 5.796249049132247 12.57560632538237 0 0 0
793 265 2 -1.1794 9.224866803304216 9.435664645125915 14.453175602334221 0 0 0
491 164 1 0.5897 9.275661178244778 8.131640170347193 11.411325659944852 0 0 0
387 129 1 0.5897 8.953988664973794 6.3332544667244575 13.089680591708891 0 0 0
460 154 2 -1.1794 6.006142962696931 7.5046448239266175 12.310807654575342 0 0 0
461 154 1 0.5897 5.9142814442311105 8.166835555477125 12.995768636399783 0 0 0
492 164 1 0.5897 7.848355878644684 7.958126145007412 11.88513780908926 0 0 0
490 164 2 -1.1794 8.745102178778264 8.058218777827438 12.204546203059827 0 0 0
462 154 1 0.5897 5.3672884886142445 7.758244771667524 11.644719952484147 0 0 0
705 235 1 0.5897 7.998705242353299 5.926342205584209 15.175235210161343 0 0 0
704 235 1 0.5897 6.49477488713296 5.9372417926488845 15.348216645847339 0 0 0
814 272 2 -1.1794 8.889964039198093 7.447593245116623 18.761782578876485 0 0 0
786 262 1 0.5897 7.042359673360705 7.598075863644663 18.61070077491876 0 0 0
815 272 1 0.5897 9.063289510580642 6.6767590123694935 19.30206543968545 0 0 0
825 275 1 0.5897 7.356561003858287 7.7346504391731825 16.124410196610548 0 0 0
785 262 1 0.5897 5.95993389895201 6.680088399290026 19.137430482411695 0 0 0
823 275 2 -1.1794 7.309686315015744 8.690460552951315 16.144661037470215 0 0 0
816 272 1 0.5897 9.066295970695753 8.190170921656357 19.339355346970287 0 0 0
703 235 2 -1.1794 7.313562514393937 6.019914403988983 15.837010777943233 0 0 0
784 262 2 -1.1794 6.121545824982898 7.585340772562221 18.871742219043455 0 0 0
709 237 2 -1.1794 9.530372917897143 5.430383572403197 20.546428295080766 0 0 0
824 275 1 0.5897 7.990549413386624 8.97706932981802 15.536048243720103 0 0 0
144 48 1 0.5897 5.841519403111056 8.683115186187049 20.32750636284868 0 0 -1
145 49 2 -1.1794 9.103383148455583 9.598859049071773 20.557838164194475 0 0 -1
154 52 2 -1.1794 8.328121642648151 10.685101855040676 3.980187541835106 0 0 0
276 92 1 0.5897 9.473768410800368 13.909749865024486 4.380582555009859 0 0 0
156 52 1 0.5897 9.282381325301287 10.739783491695263 4.031301032001524 0 0 0
163 55 2 -1.1794 7.6636592075492205 12.741593375107568 2.214817980516031 0 0 0
164 55 1 0.5897 6.764202759022881 12.651856784096097 1.8999806556188512 0 0 0
165 55 1 0.5897 7.77580335217492 12.017280355651895 2.8303852257122255 0 0 0
819 273 1 0.5897 8.63742201061564 12.475920009059772 0.7219907350274206 0 0 1
285 95 1 0.5897 7.632763206917005 14.548298323573565 2.1867912532328604 0 0 0
275 92 1 0.5897 7.981235485143167 13.88244921936936 4.632397158844586 0 0 0
274 92 2 -1.1794 8.82535022263204 13.798242892767485 5.075723101042699 0 0 0
246 82 1 0.5897 5.4753202706712365 14.26194252959974 4.52823370472791 0 0 0
244 82 2 -1.1794 6.106920215058191 14.031316538893789 5.209397644765004 0 0 0
115 39 2 -1.1794 6.164303810002669 11.213940055197558 5.7395228025428136 0 0 0
170 57 1 0.5897 9.317636806785242 12.540527477742387 6.288934701882674 0 0 0
171 57 1 0.5897 9.274493205104669 11.185188662013278 6.961938129489704 0 0 0
169 57 2 -1.1794 9.531579460087194 12.095427018636668 7.1088028725376375 0 0 0
488 163 1 0.5897 8.175545023173669 12.508180639390595 8.113337754492129 0 0 0