LAMMPS data file via write_data, version 30 Jul 2021, timestep = 19750000

1008 atoms
2 atom types
672 bonds
1 bond types
336 angles
1 angle types

-3.0834074937100873 14.693406493264117 xlo xhi
-0.2741879786350374 22.85418697865864 ylo yhi
-0.0404269426866648 19.270424942685423 zlo zhi
-0.0816816284483291 -6.519715469237636 0.12285647908162117 xy xz yz

Masses

1 1.008
2 15.999

Pair Coeffs # lj/cut/tip4p/long/omp

1 0 0
2 0.21084 3.1668

Bond Coeffs # harmonic/omp

1 450 0.9572

Angle Coeffs # harmonic/omp

1 55 104.52

Atoms # full

57 19 1 0.5897 -0.27668297856293833 4.203096075987253 2.8094668013073782 0 0 0
55 19 2 -1.1794 -0.973170775598839 4.024568648310677 3.4413487455256346 0 0 0
56 19 1 0.5897 -1.5377784795014955 3.3880194931467718 3.0028884154245494 0 0 0
122 41 1 0.5897 -2.3506317110444686 1.6590765713415219 1.6141624746232548 1 0 0
86 29 1 0.5897 -2.3482996923403663 0.8673790816270155 4.129866946037035 1 0 0
602 201 1 0.5897 -0.45529048000116035 5.349626381797874 0.3506790727962688 1 0 1
121 41 2 -1.1794 -2.469516992754219 2.099248429511344 2.455714682605652 1 0 0
123 41 1 0.5897 -3.341481281909337 2.4904169000013443 2.400931193125449 1 0 0
158 53 1 0.5897 -4.2311972530699915 4.052674299382693 4.216320516780125 1 0 0
21 7 1 0.5897 0.7876354981431111 2.032548997532698 0.8676846290413373 0 0 0
19 7 2 -1.1794 0.5913588181447142 2.380706058432881 -0.002065971300388922 0 0 0
90 30 1 0.5897 -4.485979008584611 0.7606864453586957 4.703492623253158 1 0 0
163 55 2 -1.1794 -1.9756604665319197 0.9919776032647629 0.01238862657085786 1 0 0
87 29 1 0.5897 -2.140356822523467 1.4433307017120705 5.514262968966377 1 0 0
133 45 2 -1.1794 -1.9724993423343529 3.0636121428301424 6.569759648256494 1 0 0
159 53 1 0.5897 -3.14342787429782 4.059807192521644 5.269212600872727 1 0 0
134 45 1 0.5897 -2.5312359590555924 3.13287565266264 7.343842174555102 1 0 0
98 33 1 0.5897 -4.246138720706861 5.043147948923486 8.639356272413334 1 0 0
69 23 1 0.5897 -2.1961068176438228 0.871657621405499 8.810594418196574 0 0 0
135 45 1 0.5897 -1.2512139812812548 3.6696794086075735 6.739259622902797 1 0 0
669 223 1 0.5897 -5.333703583186966 1.7656111972233868 8.701291341981127 1 0 0
68 23 1 0.5897 -2.8341633830297446 -0.18547411412283676 7.934730806395624 0 0 0
124 42 2 -1.1794 -4.839777907527832 2.5063970045690427 7.128530205935504 1 0 0
67 23 2 -1.1794 -1.991975475057865 0.09050252068649106 8.296455551393693 0 0 0
126 42 1 0.5897 -5.3453792782571625 3.3143044241732595 7.038969482104814 1 0 0
125 42 1 0.5897 -5.090707101134322 1.9808264464023262 6.368973511797566 1 0 0
667 223 2 -1.1794 -5.6087090228394265 1.2090155040910024 9.42989447382334 1 0 0
85 29 2 -1.1794 -2.5137697005591426 0.6905595456359421 5.055888762062386 1 0 0
606 202 1 0.5897 -6.137663749639508 4.608156487781563 9.38149279418636 1 0 0
97 33 2 -1.1794 -4.297982853961297 4.671615876780146 9.51997434087457 1 0 0
157 53 2 -1.1794 -3.7350442337554077 4.638446399423421 4.788057099892566 1 0 0
559 187 2 -1.1794 -4.1270292134499105 4.316530890359704 13.304612211669147 0 0 0
626 209 1 0.5897 -5.342677340015625 1.956818776219997 12.395707072666232 1 0 0
662 221 1 0.5897 -7.520575757183305 4.383630737290787 14.187447435677045 1 0 0
561 187 1 0.5897 -4.684018597231079 3.836861256443382 12.691536273856514 0 0 0
625 209 2 -1.1794 -5.570107050299421 2.632422114837213 11.75685261565542 1 0 0
668 223 1 0.5897 -5.675859475918204 1.8055389159523663 10.175389464375467 1 0 0
627 209 1 0.5897 -6.484954901416357 2.8422997421330725 11.944848286337118 1 0 0
523 175 2 -1.1794 -2.5701317758269258 2.4233566109798392 9.952700480057016 0 0 0
560 187 1 0.5897 -3.606549513388094 3.6390609419866706 13.736456630344476 0 0 0
524 175 1 0.5897 -3.233266503059553 3.113355986417143 9.975255223613448 0 0 0
589 197 2 -1.1794 -5.210046598900973 1.0962220453838674 14.121027707937694 1 0 0
99 33 1 0.5897 -4.067574475124081 5.3970775860388365 10.100308882714188 1 0 0
593 198 1 0.5897 -7.1991025995413995 0.7338524690892454 14.399522203699783 1 0 0
987 329 1 0.5897 -3.2415860277211785 -0.18004470220476582 11.51278999907773 1 1 0
986 329 1 0.5897 -4.431224389480116 0.3711236238877723 10.755768206340317 1 1 0
601 201 2 -1.1794 -7.02993633218138 5.020720243236866 18.81952139806286 1 0 0
661 221 2 -1.1794 -7.064137781240984 5.167466544112041 14.493174235074079 1 0 0
637 213 2 -1.1794 -5.532219045453806 3.283354702977951 15.940417348206207 1 0 0
20 7 1 0.5897 -5.918049037751555 1.7370154113811935 18.73566382678369 0 0 -1
638 213 1 0.5897 -5.630075707022703 4.135794005259374 15.515998084965883 1 0 0
639 213 1 0.5897 -6.384044535187284 3.1171472754606664 16.344281203216305 1 0 0
164 55 1 0.5897 -8.379626324568472 1.8008643867928766 18.665754793976948 1 0 -1
165 55 1 0.5897 -9.132459496962472 0.5151765914930934 18.934937460370367 1 0 -1
628 210 2 -1.1794 -8.07466942560442 2.64182691802456 17.059664782638283 1 0 0
629 210 1 0.5897 -8.706994001901567 3.305317555560551 16.783412272673935 1 0 0
630 210 1 0.5897 -8.207283645449866 1.9155152071483759 16.450542442828343 1 0 0
571 191 2 -1.1794 -5.465357939701648 0.33309072558869524 17.665336866786134 0 0 0
590 197 1 0.5897 -5.2789556027361115 1.8610582169086531 14.692394048399297 1 0 0
592 198 2 -1.1794 -8.009022001838524 1.042372315583854 14.805874227406495 1 0 0
101 34 1 0.5897 -8.909114893332042 5.041210523055044 18.94519356070005 1 0 -1
603 201 1 0.5897 -6.7659339564278405 4.120984251378419 19.012211322176675 1 0 0
591 197 1 0.5897 -4.652408413784908 0.48567374011695164 14.603328500720677 1 0 0
146 49 1 0.5897 -1.5614232563106962 6.058607150317749 2.018203284013558 1 0 0
290 97 1 0.5897 -1.981544781269041 10.835215270784659 2.627964621361198 1 0 0
332 111 1 0.5897 -1.779081694347778 9.24346835924714 0.7074487477219024 1 0 0
112 38 2 -1.1794 -3.4829497430306224 6.007732518746882 2.2695833560721277 1 0 0
145 49 2 -1.1794 -0.8270313100208879 6.542044712199393 1.6396400137061604 1 0 0
289 97 2 -1.1794 -2.251212300394717 9.958558592742284 2.3540679196108134 1 0 0
147 49 1 0.5897 -1.2176735248144122 7.058869067007557 0.9349723139096151 1 0 0
291 97 1 0.5897 -3.2079634183244097 9.989100009260312 2.3595763757147523 1 0 0
255 85 1 0.5897 -2.181728090065538 9.018789689968312 4.114017105602218 1 0 0
200 67 1 0.5897 0.3449356041120728 7.5336269547976125 2.6441445127816654 0 0 0
187 63 2 -1.1794 0.649092669788288 10.358510043740973 0.961073410552822 0 0 0
113 38 1 0.5897 -3.5905490559837903 5.535553871637295 3.095245453884908 1 0 0
188 63 1 0.5897 0.48073513325543793 9.980091783506147 1.8240216327372922 0 0 0
331 111 2 -1.1794 -1.7138045062306093 8.615984997030239 -0.012364697747358069 1 0 0
306 102 1 0.5897 -4.35724172318465 11.272764151409099 3.7884566115810823 1 0 0
9 3 1 0.5897 -0.9211782490058495 5.566643090463948 4.572184021363621 0 0 0
294 98 1 0.5897 -4.940160470222345 9.65275940939908 7.85679237727242 1 0 0
237 79 1 0.5897 -1.710853425987334 7.127090834581128 8.899783493223675 0 0 0
292 98 2 -1.1794 -4.8879136815719315 10.042839097116532 6.984250900922661 1 0 0
111 37 1 0.5897 -5.133669499848275 6.409034941587634 7.238558451080053 1 0 0
302 101 1 0.5897 -1.9971068359472288 9.900892693278127 5.814038189460101 1 0 0
236 79 1 0.5897 -2.6899130683919905 7.236348422173318 7.750316574033915 0 0 0
109 37 2 -1.1794 -4.314644194473042 5.939139221651182 7.0813268298631105 1 0 0
692 231 1 0.5897 -2.0437084677471486 9.2246003155438 9.249279280834484 0 0 0
235 79 2 -1.1794 -2.1000452812825445 7.758166108292189 8.294328519003704 0 0 0
301 101 2 -1.1794 -2.1446672515906458 10.748855571169656 6.232859696417684 1 0 0
293 98 1 0.5897 -3.976301613655398 10.322712594125761 6.9006322819833334 1 0 0
7 3 2 -1.1794 -0.6521237641540898 6.321283207039583 5.095922014086112 0 0 0
837 279 1 0.5897 -5.566704273065587 8.023205475693244 8.880666467896164 1 0 0
303 101 1 0.5897 -1.2768196294827376 11.025282677210836 6.527286647845342 1 0 0
254 85 1 0.5897 -1.5456564297141084 7.865012185628645 4.859926770177605 1 0 0
835 279 2 -1.1794 -5.060097263614599 8.564311172909205 9.48625039030392 1 0 0
257 86 1 0.5897 -4.371706308086688 7.738651474339015 4.905109995148346 1 0 0
253 85 2 -1.1794 -2.3079764875249698 8.4439249218831 4.868910275046212 1 0 0
110 37 1 0.5897 -4.392316867710134 5.615271603795571 6.18403668681662 1 0 0
793 265 2 -1.1794 -5.700527687632665 10.0627209280183 11.691536917384111 1 0 0
616 206 2 -1.1794 -6.443550020831026 6.26915825808733 12.047586251254982 1 0 0
650 217 1 0.5897 -3.1761398513056456 7.273326163875193 11.77201336389947 1 0 0
794 265 1 0.5897 -5.1091521037022165 10.796600468727414 11.85880917659213 1 0 0
649 217 2 -1.1794 -3.816833892939641 6.846054081143742 11.203585984922933 1 0 0
759 253 1 0.5897 -5.0543764762118935 9.270354940174753 13.23391714464074 1 0 0
651 217 1 0.5897 -4.506752432049631 6.551566899378215 11.798225985868712 1 0 0
795 265 1 0.5897 -5.370938239101294 9.668249408808881 10.884134608343778 1 0 0
618 206 1 0.5897 -6.649818604441845 5.7517156506175215 11.269275106119247 1 0 0
663 221 1 0.5897 -6.898063981540162 5.674065793463284 13.69816406546482 1 0 0
836 279 1 0.5897 -4.5697402906540106 7.93611965051098 10.016594217592756 1 0 0
757 253 2 -1.1794 -4.9558858700927875 8.88290430906394 14.103620351246882 1 0 0
617 206 1 0.5897 -7.126316537613098 6.939418188730246 12.078067980402265 1 0 0
809 270 1 0.5897 -7.4497470076895524 11.08749458132389 12.913958939947898 1 0 0
333 111 1 0.5897 -8.060015468513257 9.277003040486047 18.52611735385962 1 0 -1
739 247 2 -1.1794 -5.5669155324242805 8.315594584361302 18.259823847894893 0 0 0
614 205 1 0.5897 -7.170382292279431 6.113058377768038 17.49577730361454 1 0 0
615 205 1 0.5897 -7.365913870946219 6.208337796192533 15.997692108948929 1 0 0
758 253 1 0.5897 -4.999755099559055 9.627019884518484 14.704048673609748 1 0 0
741 247 1 0.5897 -5.99174354888846 9.000512691414006 18.776084020561477 0 0 0
797 266 1 0.5897 -7.129520717474533 10.592209592403874 16.771144529266408 1 0 0
740 247 1 0.5897 -6.284186191241407 7.888626330035271 17.79141279309605 0 0 0
796 266 2 -1.1794 -7.990889887730187 10.319999149683824 17.087794729080418 1 0 0
613 205 2 -1.1794 -7.409774414547288 6.726626558949238 16.801147059039135 1 0 0
805 269 2 -1.1794 -5.39531262640592 11.018423066935163 15.844653600019207 1 0 0
798 266 1 0.5897 -8.29844744022741 9.690468256648671 16.435693589050477 1 0 0
512 171 1 0.5897 -4.139017861030043 7.387552738045398 14.70245838986628 0 0 0
762 254 1 0.5897 -7.598814781179181 8.534236792318405 14.658876158148004 1 0 0
513 171 1 0.5897 -3.989454768121317 5.882523464614816 14.634175090068352 0 0 0
314 105 1 0.5897 -0.10488249640773484 15.48396604395756 1.6094394197096666 1 0 0
315 105 1 0.5897 -0.4351517200047157 14.2077042211371 0.865184698366664 1 0 0
223 75 2 -1.1794 -0.7010324395405583 12.007632200154118 3.4797996588348856 0 0 0
423 141 1 0.5897 -2.3172631388558225 16.216681590472856 4.120932887628022 1 0 0
225 75 1 0.5897 -1.003939345205132 12.680343626515022 4.089614243434896 0 0 0
282 94 1 0.5897 -2.3968480555234066 14.290067445170472 2.4783124067739237 1 0 0
313 105 2 -1.1794 -0.8228973559721999 14.87725612230452 1.4287110372844123 1 0 0
280 94 2 -1.1794 -3.2788204132346266 13.930363395036297 2.573653723231298 1 0 0
281 94 1 0.5897 -3.258104564526631 13.461972717074712 3.4081629945911778 1 0 0
500 167 1 0.5897 -1.824474735472941 15.862744979685552 0.41496532802846975 1 0 0
269 90 1 0.5897 -3.4562454511206915 12.973150889681076 1.093596108406368 1 0 0
224 75 1 0.5897 -0.2274311260581019 11.382101577329932 4.0281970902383755 0 0 0
771 257 1 0.5897 -0.05966070088172737 11.920296161771745 0.21500874739100218 1 0 1
499 167 2 -1.1794 -2.3388409155159193 16.572257783955802 0.029765563090212138 1 0 0
325 109 2 -1.1794 -3.5048336421016026 12.584475136908704 4.790168757331944 1 0 0
774 258 1 0.5897 -5.388123796923503 11.967134340412468 9.460188433929973 1 0 0
327 109 1 0.5897 -3.798370464924549 13.123647415771474 5.524522470970909 1 0 0
326 109 1 0.5897 -2.9366829499830662 11.92502258175031 5.18849762235222 1 0 0
277 93 2 -1.1794 -3.8542791087465065 13.807903008211579 7.320105059429307 1 0 0
278 93 1 0.5897 -3.2317147823847243 14.466963246146731 7.6271889039410325 1 0 0
403 135 2 -1.1794 -2.0439963780688903 15.827264493216607 8.269071625045413 0 0 0
421 141 2 -1.1794 -2.302714382895247 15.858671861397763 5.008516043828748 1 0 0
267 89 1 0.5897 -3.5849535450684327 12.656706308613122 8.554268602267962 1 0 0
279 93 1 0.5897 -4.714233495071294 14.194540349801127 7.485386479465639 1 0 0
405 135 1 0.5897 -2.1553342038624486 16.624978571329248 8.78623458541241 0 0 0
175 59 2 -1.1794 -0.8091577610803311 13.842448159678623 5.590134449651298 0 0 0
422 141 1 0.5897 -2.216206104152937 16.625352757628892 5.574986658130851 1 0 0
425 142 1 0.5897 -4.068988745435891 15.799603911400975 5.175346624219396 1 0 0
176 59 1 0.5897 -1.3609252826359732 14.616143432634603 5.4747302464637855 0 0 0
1004 335 1 0.5897 -4.8346025958992245 16.91569239829187 8.959781396578357 1 0 0
265 89 2 -1.1794 -3.5643402726271596 12.279763650297973 9.433870257773405 1 0 0
266 89 1 0.5897 -2.8231861158061777 11.67415941110682 9.418238831766068 1 0 0
784 262 2 -1.1794 -6.1998913758334595 13.720312767137301 11.887130039820592 1 0 0
728 243 1 0.5897 -2.984832520492712 12.050123459566073 12.536526868372864 0 0 0
729 243 1 0.5897 -3.9677872290601846 12.449663949146402 13.616323170311405 0 0 0
785 262 1 0.5897 -6.847106242785689 14.412664102423408 11.752465134445334 1 0 0
819 273 1 0.5897 -3.497381224902134 13.926779058856829 10.317320641210907 1 0 0
786 262 1 0.5897 -6.123064807554219 13.64526507200186 12.838230170159557 1 0 0
818 273 1 0.5897 -4.420710816892699 14.374043739353928 11.430507883960077 1 0 0
925 309 2 -1.1794 -5.450692946687578 16.044980726943976 13.86826819685539 1 0 0
817 273 2 -1.1794 -3.6209842899457882 14.620099203497325 10.965519418855504 1 0 0
773 258 1 0.5897 -6.0988252467372135 12.776451286561537 10.523956500066618 1 0 0
1003 335 2 -1.1794 -5.193195871041141 16.35785034104889 9.650089989526952 1 0 0
831 277 1 0.5897 -7.600564166144437 12.773072587169374 14.157099699802982 1 0 0
1005 335 1 0.5897 -4.443344311596695 15.85222771058967 9.963808266652372 1 0 0
930 310 1 0.5897 -7.300063823744399 15.94722888626518 14.365086089188019 1 0 0
727 243 2 -1.1794 -3.831216186957127 11.812449659412179 12.915312175386076 0 0 0
926 309 1 0.5897 -4.829920542480441 15.316562206180782 13.848219982630116 1 0 0
829 277 2 -1.1794 -6.745968243849921 13.097788551573235 14.440875489845807 1 0 0
772 258 2 -1.1794 -6.239141429477385 12.3458251641149 9.68078251984471 1 0 0
806 269 1 0.5897 -5.732221020953053 11.769510186245448 15.35606728611176 1 0 0
965 322 1 0.5897 -8.17018681332415 17.151868389717723 15.985386153125337 1 0 0
907 303 2 -1.1794 -5.55861904581946 15.615451832215431 17.997222334789686 0 0 0
908 303 1 0.5897 -6.280141292674279 15.282593128908081 17.4635331045216 0 0 0
781 261 2 -1.1794 -7.571202804470107 14.165507530389556 16.836433176076458 1 0 0
782 261 1 0.5897 -7.3590739361647755 13.502613047583916 17.493597549589563 1 0 0
830 277 1 0.5897 -6.923461606363721 13.552650622497387 15.264107239599694 1 0 0
783 261 1 0.5897 -8.51394151411276 14.302963858430946 16.929769676340158 1 0 0
909 303 1 0.5897 -4.838145030457733 15.736053363754639 17.378649019426394 0 0 0
927 309 1 0.5897 -5.220444607463737 16.53480086251833 14.657676068916185 1 0 0
501 167 1 0.5897 -8.269904793731516 17.099659580586238 18.703332489341918 1 0 -1
769 257 2 -1.1794 -7.070072099325049 12.782076505496102 19.165902597571215 1 0 0
807 269 1 0.5897 -4.822227608330527 11.401615459564711 16.508663931130148 1 0 0
770 257 1 0.5897 -7.984904637392875 12.502391032532476 19.200595598028507 1 0 0
393 131 1 0.5897 -1.0816572912312488 20.26097152709056 3.6762624275019857 0 0 0
391 131 2 -1.1794 -1.0509276224767996 19.3840648585947 3.2937859904919 0 0 0
437 146 1 0.5897 -2.9020449628152654 19.360415385829054 0.2824795630499965 1 0 0
457 153 2 -1.1794 -3.0159491500908358 17.43000662053191 2.5826530313553686 1 0 0
450 150 1 0.5897 -3.5340247759470005 22.328638612703866 2.22411009559297 1 0 0
459 153 1 0.5897 -2.5685865741328557 18.25623433204765 2.7656911122141454 1 0 0
483 161 1 0.5897 -0.9733030516588572 22.016953188988943 2.263831799019715 1 0 0
495 165 1 0.5897 -3.4495619671438984 20.73830043685842 4.328151171167745 1 0 0
481 161 2 -1.1794 -0.32267576272660925 22.17491430699895 1.5797459752475118 1 0 0
938 313 1 0.5897 -0.4960971968949921 20.47496088103152 0.6551605208478917 1 0 1
392 131 1 0.5897 -0.22817888918728713 19.364247487847667 2.80497569232788 0 0 0
448 150 2 -1.1794 -3.0272713593096934 21.60207727702902 2.5869828409456117 1 0 0
482 161 1 0.5897 -0.7788756893611084 22.71571862102528 0.9350076303454204 1 0 0
458 153 1 0.5897 -2.8480306522283803 17.26676903879895 1.65460957752994 1 0 0
449 150 1 0.5897 -3.0619344638357493 20.92445166129069 1.9118779971246416 1 0 0
937 313 2 -1.1794 -0.7310763235553517 19.655177293004922 0.22051539943188742 1 0 1
471 157 1 0.5897 -3.1075921141335234 18.24739741708815 6.808401550084432 1 0 0
469 157 2 -1.1794 -2.3929945885348265 18.288303399487983 6.1728330461730385 1 0 0
447 149 1 0.5897 -5.015148471704467 21.72005716752038 7.330012003600011 1 0 0
494 165 1 0.5897 -4.078355014605294 20.564143423391705 5.694198405689446 1 0 0
445 149 2 -1.1794 -4.091572331502196 21.475591818428097 7.389907517660182 1 0 0
446 149 1 0.5897 -4.022943627034569 20.99750283184778 8.216322134222322 1 0 0
460 154 2 -1.1794 -4.717548404955323 17.875361923133184 7.560141250565555 1 0 0
470 157 1 0.5897 -2.7179346961193556 18.86743839524619 5.48340324443688 1 0 0
461 154 1 0.5897 -5.406084522605987 18.5176682203808 7.387738452837798 1 0 0
343 115 2 -1.1794 -1.0381588007146476 21.580736958522756 5.136489068153828 0 0 0
344 115 1 0.5897 -1.1112145762431216 21.255772103873003 6.033851811933581 0 0 0
462 154 1 0.5897 -4.909609283866903 17.151709295284636 6.963818468466935 1 0 0
493 165 2 -1.1794 -3.961729805267263 20.12292218597182 4.852875804954074 1 0 0
345 115 1 0.5897 -1.5481795090273143 22.390802094725437 5.1322280555869595 0 0 0
380 127 1 0.5897 -1.1177802005730855 19.376169365450274 7.025345274129385 0 0 0
897 299 1 0.5897 -3.5276878543758743 19.04074747291218 13.550424791523973 0 0 0
952 318 2 -1.1794 -6.527831844913348 21.739162852829992 12.331658900402289 1 0 0
954 318 1 0.5897 -5.707372067136749 21.91624437376046 11.871446080545853 1 0 0
998 333 1 0.5897 -6.932271234447246 20.874044047144924 13.898160107815764 1 0 0
953 318 1 0.5897 -7.1030187113318215 22.46318339405842 12.084026218025336 1 0 0
896 299 1 0.5897 -4.6330402088829965 19.087912592566344 12.517048647694534 0 0 0
895 299 2 -1.1794 -4.05101105174478 19.649493107073052 13.028985489230374 0 0 0
985 329 2 -1.1794 -4.173481362794 22.696884874851 11.15195649795648 1 0 0
434 145 1 0.5897 -3.794988416328252 21.04551191963423 10.336294782397376 1 0 0
961 321 2 -1.1794 -5.6585914011845135 17.91340152516606 11.747154616744147 1 0 0
859 287 2 -1.1794 -2.3151074238163023 18.03016975038946 9.762419479561636 0 0 0
963 321 1 0.5897 -5.45404657386857 17.369327248155834 10.98672104944121 1 0 0
860 287 1 0.5897 -2.7511914971961775 18.877332872000924 9.854544158632157 0 0 0
433 145 2 -1.1794 -3.9138202126100343 20.196905255040672 9.909735306550926 1 0 0
435 145 1 0.5897 -4.839020186655367 19.989550783480585 10.041429099722789 1 0 0
962 321 1 0.5897 -5.585185813207146 17.31916460840535 12.49399588174878 1 0 0
848 283 1 0.5897 -3.9293952244209267 21.493129494040794 14.289259773247222 0 0 0
997 333 2 -1.1794 -7.184871316629556 20.243024980083604 14.572193492564065 1 0 0
974 325 1 0.5897 -6.312567004150379 18.20707580665775 16.38060634291452 1 0 0
573 191 1 0.5897 -5.063979209295768 22.92235948566414 18.291694317415097 0 -1 0
357 119 1 0.5897 -5.073013600458283 17.35708085641998 18.613185501431836 0 0 -1
973 325 2 -1.1794 -5.569042936559811 18.064496480478354 15.794867588857919 1 0 0
949 317 2 -1.1794 -7.452760138074215 21.201268195072817 17.153738501793296 1 0 0
950 317 1 0.5897 -7.235843774304905 20.854269577686026 16.288503871073434 1 0 0
951 317 1 0.5897 -7.370649406944713 20.44986219528756 17.741092487658804 1 0 0
964 322 2 -1.1794 -8.12547352536662 17.74428157741773 16.735821917731496 1 0 0
975 325 1 0.5897 -4.840805484241366 18.52155740029538 16.215580757462536 1 0 0
572 191 1 0.5897 -6.23349381172426 22.884112367505857 17.331127991641434 0 -1 0
999 333 1 0.5897 -6.426945506195879 19.66421616832596 14.655238422235279 1 0 0
939 313 1 0.5897 -6.417697102720981 19.424307696149416 19.21968112645151 1 0 0
528 176 1 0.5897 2.5085758614858635 2.675357592392877 0.218306792373339 0 0 1
54 18 1 0.5897 3.376983089752592 3.721428894108136 3.0205292899844043 0 0 0
52 18 2 -1.1794 3.921714092271066 3.093261201452751 3.4948895785251777 0 0 0
70 24 2 -1.1794 3.992740404188398 0.12556825673249172 1.491246117285072 0 0 0
53 18 1 0.5897 4.585491736679948 2.8236720962367508 2.8600965404064205 0 0 0
71 24 1 0.5897 3.314726796204881 0.32843658266432807 2.1357453711177814 0 0 0
32 11 1 0.5897 1.5651170171444404 1.8185658082679157 3.089915537011335 0 0 0
46 16 2 -1.1794 1.611100964624888 4.564415068091699 2.5175490258727904 0 0 0
6 2 1 0.5897 3.7088318696681926 1.6146317233319833 4.601499980592295 0 0 0
78 26 1 0.5897 -0.0696647252504059 2.773933343158944 4.76779841766215 0 0 0
31 11 2 -1.1794 1.6373920698418303 1.3100031723890093 2.282315118084978 0 0 0
526 176 2 -1.1794 3.451779653090095 2.5815982582608057 0.352178120596507 0 0 1
5 2 1 0.5897 3.2139576042519113 0.18381208712251662 4.601411147528841 0 0 0
47 16 1 0.5897 1.8522267287468264 5.0168556948007295 1.7092217045081963 0 0 0
18 6 1 0.5897 4.544253290919114 3.9632743971296147 0.35887405514417264 0 0 0
48 16 1 0.5897 1.8301268220123177 5.183792812315429 3.213616606876979 0 0 0
527 176 1 0.5897 3.544141350496405 1.767730069604882 0.8475701938763948 0 0 1
16 6 2 -1.1794 5.180156837882771 4.678258020590972 0.3315093241133256 0 0 0
33 11 1 0.5897 1.039616811644195 0.5730713306833807 2.408469106252294 0 0 0
59 20 1 0.5897 1.622964263456086 3.383499429886192 5.906357006336844 0 0 0
45 15 1 0.5897 0.48528610092268565 4.788482637889442 7.214979065265751 0 0 0
58 20 2 -1.1794 1.899133147099354 4.0036047854050985 6.581144280525479 0 0 0
34 12 2 -1.1794 0.35994984911577 0.843453508953437 7.253731334705711 0 0 0
35 12 1 0.5897 0.4989939004744133 1.5048945842561563 7.931442279170519 0 0 0
522 174 1 0.5897 2.3628612309068817 5.1872100925595825 9.100711794510355 0 0 0
60 20 1 0.5897 2.6407536529973665 3.5767500177594864 7.010240991252113 0 0 0
22 8 2 -1.1794 0.2880923579465966 2.6267094275685876 9.350592749743058 0 0 0
77 26 1 0.5897 0.40434403935994556 1.6175912243962633 5.62241613243984 0 0 0
36 12 1 0.5897 -0.49956229146582 0.47229367439615677 7.453323218204276 0 0 0
43 15 2 -1.1794 -0.39643093448851285 5.0856495741537175 7.43993224649267 0 0 0
44 15 1 0.5897 -0.35367050449738 5.276135707593957 8.376919640551785 0 0 0
24 8 1 0.5897 1.018381913368275 3.244723138646535 9.318007368254213 0 0 0
4 2 2 -1.1794 3.591156854335985 0.8542582975975235 5.170973737137956 0 0 0
76 26 2 -1.1794 0.68438762181 2.204095265726556 4.919641787233709 0 0 0
535 179 2 -1.1794 -1.887267718665866 1.0999927449506413 12.213330228433959 0 0 0
536 179 1 0.5897 -2.1343489408359018 1.6820014691609562 12.93190818318766 0 0 0
574 192 2 -1.1794 0.5730932428012516 0.3376595451074774 11.012519783214813 0 0 0
556 186 2 -1.1794 0.49566858239659606 3.2621761041183817 13.031418101106382 0 0 0
557 186 1 0.5897 0.23445881848121797 2.4225577991535325 13.409797945759081 0 0 0
552 184 1 0.5897 -2.4529068768479823 4.550523850856908 12.592525629933036 0 0 0
576 192 1 0.5897 -0.2607149222298588 0.47298096617700225 11.462795533600978 0 0 0
550 184 2 -1.1794 -1.5511241292194518 4.8466200041549765 12.468132376844748 0 0 0
537 179 1 0.5897 -2.117787635934226 1.5855586380061908 11.42127955503465 0 0 0
558 186 1 0.5897 -0.328291135934208 3.7286352058341095 12.890465289321599 0 0 0
525 175 1 0.5897 -1.7594799062826332 2.877030989680813 9.721660761317468 0 0 0
520 174 2 -1.1794 2.179246766579814 4.52163835712236 9.763744836152778 0 0 0
23 8 1 0.5897 0.5812049834651276 1.9401140249130608 9.949718012303066 0 0 0
551 184 1 0.5897 -1.4413300242245795 5.554718746536135 13.1027173316282 0 0 0
588 196 1 0.5897 -1.2254486117746164 5.466845625202024 10.78828800533434 0 0 0
564 188 1 0.5897 -1.7291741654686268 4.471551053557138 16.930749215333133 0 0 0
508 170 2 -1.1794 0.8384117410751886 1.0628355652286559 14.592117911712096 0 0 0
581 194 1 0.5897 -2.9180273902593665 2.107431141715934 15.15492529910703 0 0 0
549 183 1 0.5897 -4.1595224376691995 4.251662516189722 16.964976888460683 0 0 0
562 188 2 -1.1794 -0.9741321064660413 4.227165161942861 16.395571449348527 0 0 0
538 180 2 -1.1794 -3.1619665098193064 1.5487746240884481 17.064318724379852 0 0 0
539 180 1 0.5897 -3.0046124228636373 2.029122679551321 17.877079183494946 0 0 0
547 183 2 -1.1794 -3.4821025201572127 4.882138512394183 17.209637349359873 0 0 0
582 194 1 0.5897 -1.8634437653271219 3.1916496023775656 15.221595160216124 0 0 0
563 188 1 0.5897 -0.8648208461736573 4.957870702429571 15.786924564095388 0 0 0
540 180 1 0.5897 -4.09805529310238 1.3493343026671323 17.080752898083777 0 0 0
580 194 2 -1.1794 -2.3685402295765945 2.6640271022274113 14.603022057834824 0 0 0
905 302 1 0.5897 -2.035901628920702 0.1498218425309807 17.366722363626234 0 1 0
239 80 1 0.5897 3.721066230952842 8.63266100196982 1.3468164834632246 0 0 0
694 232 2 -1.1794 3.391495077808238 10.121353837898438 0.08457115229757302 0 0 1
240 80 1 0.5897 3.3191881076167604 7.184764234432957 1.5316901670381553 0 0 0
238 80 2 -1.1794 3.6651537750823646 7.940770189851952 2.0059458423106897 0 0 0
201 67 1 0.5897 1.7342323193300775 8.130580726204382 2.5688182993318356 0 0 0
222 74 1 0.5897 4.536258965859959 10.524023045732626 3.212560085996798 0 0 0
245 82 1 0.5897 1.1025166911458255 9.47441819588761 4.375277319397951 0 0 0
220 74 2 -1.1794 3.6497551148403895 10.642927507648501 3.5535449471243887 0 0 0
82 28 2 -1.1794 2.4044657789990485 6.259256153831365 0.15982218036683218 0 0 0
696 232 1 0.5897 4.024778208340273 10.839188878375511 0.08601202937177471 0 0 1
189 63 1 0.5897 1.598478784910407 10.477643151696917 0.9322834611737404 0 0 0
221 74 1 0.5897 3.194269791949198 11.136170233995694 2.8712508869905164 0 0 0
199 67 2 -1.1794 0.8913552031019556 8.228179016188419 3.0119244448401488 0 0 0
174 58 1 0.5897 3.473263580167689 9.082906195622792 4.78476029131003 0 0 0
12 4 1 0.5897 1.2199375605736957 6.5505196209369005 4.645181546717145 0 0 0
10 4 2 -1.1794 2.1238185278161588 6.2510574524023825 4.743589044192396 0 0 0
66 22 1 0.5897 3.194784143052731 7.107929950737115 7.540903477293007 0 0 0
64 22 2 -1.1794 2.410617772842473 7.04149952921976 8.08584371525924 0 0 0
191 64 1 0.5897 0.69657288961371 10.166682951960855 8.91238943257665 0 0 0
204 68 1 0.5897 1.0000794501483448 8.194197763017144 7.674296053417612 0 0 0
203 68 1 0.5897 -0.5021177201338332 8.37754856061352 7.719107995896267 0 0 0
246 82 1 0.5897 0.7395236275482286 9.84298446009999 5.797920079325198 0 0 0
202 68 2 -1.1794 0.31163231721691087 8.841780618762217 7.5224902901078154 0 0 0
8 3 1 0.5897 -0.5649227325566164 5.977428640849093 5.984928796110571 0 0 0
65 22 1 0.5897 2.6111339898654116 7.56752713047939 8.859916790351425 0 0 0
244 82 2 -1.1794 0.8145607676711522 10.209269743545306 4.916778797070291 0 0 0
172 58 2 -1.1794 3.5462800211037244 8.42428760108068 5.4755565256803065 0 0 0
173 58 1 0.5897 3.034068759042925 7.6820275922456736 5.154711540092615 0 0 0
11 4 1 0.5897 2.0864450459362516 5.6018989144839875 5.446086683849865 0 0 0
744 248 1 0.5897 -0.22671931543064971 8.29217382239301 11.961956443745803 0 0 0
743 248 1 0.5897 0.7020953873800084 8.816969426457852 10.887767562764974 0 0 0
724 242 2 -1.1794 0.9026867728852555 10.841499472774945 13.18702121665442 0 0 0
190 64 2 -1.1794 0.7036112399739642 10.442858784802262 9.828770886079447 0 0 0
678 226 1 0.5897 0.5388248581752144 9.396365176255115 14.25974891720983 0 0 0
742 248 2 -1.1794 0.5204127238476373 8.041424131462307 11.41866891289201 0 0 0
705 235 1 0.5897 -1.9931323603953457 9.088996660782941 13.189970927794377 0 0 0
704 235 1 0.5897 -1.704032408301368 8.993451791078005 11.70710015566747 0 0 0
587 196 1 0.5897 -0.22699155595212206 6.551200422816454 10.44265969750255 0 0 0
703 235 2 -1.1794 -1.9561659175883594 8.465502298402726 12.464700644256816 0 0 0
693 231 1 0.5897 -1.0677473310234031 10.206061615889174 9.86257827198104 0 0 0
586 196 2 -1.1794 -0.8611049261366164 5.952423000561757 10.048192630036084 0 0 0
192 64 1 0.5897 1.3014781800195045 11.19014281518704 9.849572579966733 0 0 0
691 231 2 -1.1794 -1.9491650488381205 9.84818343518031 9.96922545563035 0 0 0
750 250 1 0.5897 -3.07547130174916 10.740810606253051 13.967951767511984 0 0 0
725 242 1 0.5897 0.14190871927792426 11.214069280605797 12.741220506802161 0 0 0
748 250 2 -1.1794 -2.294604461237107 10.336855201869012 14.346638123223062 0 0 0
695 232 1 0.5897 -3.0285508777784385 9.838063733281937 18.534499422088334 0 0 0
706 236 2 -1.1794 -3.015352606270027 9.096077042987407 16.80387579846725 0 0 0
708 236 1 0.5897 -2.293174307789469 8.540894399647083 17.09809601952312 0 0 0
569 190 1 0.5897 -1.5871661983476724 6.334201871146898 18.389513997592466 0 0 0
84 28 1 0.5897 -4.063736024383842 5.862951787737234 18.668233811009745 0 0 -1
749 250 1 0.5897 -2.6184762945334388 9.85639787369688 15.10853749341599 0 0 0
568 190 2 -1.1794 -1.2311796196719635 7.154400930822652 18.047601223254766 0 0 0
707 236 1 0.5897 -3.804556963614914 8.626195491128012 17.073543781197085 0 0 0
515 172 1 0.5897 -1.7463779567612026 6.830683417237458 15.067590319592473 0 0 0
511 171 2 -1.1794 -3.687001528266755 6.652143492105729 15.116243809179561 0 0 0
83 28 1 0.5897 -4.698054681196585 7.108611369656287 19.249572056645007 0 0 -1
516 172 1 0.5897 -0.29106072145905415 7.1255192984163145 14.772129805560603 0 0 0