LAMMPS data file via write_data, version 30 Jul 2021, timestep = 36250000

864 atoms
2 atom types
576 bonds
1 bond types
288 angles
1 angle types

0.16376735057732716 18.043805049415617 xlo xhi
0.14643170281215845 23.48274609720493 ylo yhi
0.17177089009847535 22.04142490989255 zlo zhi

Masses

1 1.00794
2 15.9994

Atoms # full

707 1 1 0.5897 3.223255200306569 2.0531682760514434 4.0979394739387125 0 0 0
706 1 2 -1.1794 3.3689225352028944 2.1248051080778074 3.154614033464013 0 0 0
30 1 1 0.5897 5.508070213791241 4.082048343283045 2.0628140096031693 0 0 0
708 1 1 0.5897 2.5519749726018377 2.4878116462579003 2.8125263839947006 0 0 0
29 1 1 0.5897 4.702665179758231 2.827725244855507 2.3264649985972325 0 0 0
28 1 2 -1.1794 5.4245261054807346 3.1664375962264053 1.7969266695118482 0 0 0
3 1 1 0.5897 0.996060590944976 3.95279681241932 2.4744264471583968 0 0 0
595 1 2 -1.1794 0.9900704149832127 5.588110944837501 3.1532615479812827 0 0 0
495 1 1 0.5897 8.36289579786427 2.3830183817902832 2.745948096168864 0 0 0
494 1 1 0.5897 6.850213852013811 2.408940485665789 2.690626184633416 0 0 0
493 1 2 -1.1794 7.5856036806160345 1.9299517932701098 3.072663713661112 0 0 0
1 1 2 -1.1794 1.051254386059969 3.061473905492107 2.130145920938154 0 0 0
846 1 1 0.5897 7.405848191552323 1.9513833393605249 4.82281319052135 0 0 0
136 1 2 -1.1794 5.4787046355707325 5.7017674465261345 2.841374859212102 0 0 0
20 1 1 0.5897 0.9801949220184837 2.939925274854117 0.328790528997978 0 0 0
597 1 1 0.5897 0.9729960509912151 5.615508574118395 4.109907401602899 0 0 0
137 1 1 0.5897 5.396296977038358 5.67557759729793 3.7946569497626026 0 0 0
188 1 1 0.5897 3.1187857269148993 0.4817476008757631 2.600881045399579 0 1 0
2 1 1 0.5897 0.25294886506033976 2.6344185644328513 2.4408276619919813 0 0 0
685 1 2 -1.1794 5.174158417377176 5.673050686998779 5.567978060592415 0 0 0
83 1 1 0.5897 4.5482364725500775 2.7511748242377334 6.446578612175705 0 0 0
183 1 1 0.5897 0.7379956759349005 4.831123413144891 6.2146587133747975 0 0 0
82 1 2 -1.1794 5.276121515621214 3.278268682408933 6.776010616186921 0 0 0
785 1 1 0.5897 0.6633592766845853 3.048999353255384 7.561913439379611 0 0 0
674 1 1 0.5897 3.7458790238259594 2.3261588043764054 10.168647773648766 0 0 0
356 1 1 0.5897 7.62123438152657 1.1000503543124012 9.984676619059288 0 0 0
176 1 1 0.5897 9.057172986720989 2.8622955831574424 9.945077782543697 0 0 0
845 1 1 0.5897 7.376663743988234 1.0026523887155605 6.0020938224798215 0 0 0
488 1 1 0.5897 2.3409589890685014 2.183841882607688 6.193275117016341 0 0 0
673 1 2 -1.1794 2.9148115122354143 1.9289846511726791 10.428983222760989 0 0 0
34 1 2 -1.1794 0.6826376805082441 3.207576997372766 9.446636613728957 0 0 0
274 1 2 -1.1794 5.25257990229366 3.2274182817368664 9.570857384979181 0 0 0
678 1 1 0.5897 5.177426216583007 4.898564364494127 10.231631672777612 0 0 0
35 1 1 0.5897 0.7952130405673938 4.118819066879053 9.716804520026441 0 0 0
36 1 1 0.5897 1.4395201252328567 2.7526225997372125 9.81586738615181 0 0 0
355 1 2 -1.1794 7.528367925999925 2.0153677808722263 10.24847980381514 0 0 0
419 1 1 0.5897 9.00311006161029 2.623242284785359 6.431785674846315 0 0 0
84 1 1 0.5897 6.059840414324149 2.8344842131718275 6.451937426956576 0 0 0
276 1 1 0.5897 6.0674698112057 2.7863528820701724 9.810873884247409 0 0 0
675 1 1 0.5897 2.9815696642524343 1.0199001346633696 10.137201621167554 0 0 0
275 1 1 0.5897 5.2424776271789995 3.208803689457966 8.613898515864216 0 0 0
686 1 1 0.5897 5.204576767458306 4.807136216949683 5.974557274314042 0 0 0
784 1 2 -1.1794 0.6862959673856878 3.0191527534309555 6.605463226016582 0 0 0
489 1 1 0.5897 3.13308720282261 0.9003149523262683 6.064512978810635 0 0 0
181 1 2 -1.1794 0.7720199669440342 5.745633484393349 5.93441291086589 0 0 0
844 1 2 -1.1794 7.439796208074255 1.9312763378209021 5.779190815697602 0 0 0
676 1 2 -1.1794 5.232495823773818 5.800141696672077 10.548105584074163 0 0 0
112 1 2 -1.1794 0.6919560862435736 5.840835138810683 10.14146100170609 0 0 0
487 1 2 -1.1794 3.1537273472116305 1.8288261848398009 5.833308540514843 0 0 0
113 1 1 0.5897 0.6755568008686847 5.919592159432174 11.095265778093978 0 0 0
166 1 2 -1.1794 3.0281539179519545 1.9644086574000603 13.223563187599822 0 0 0
167 1 1 0.5897 3.0015503372005896 2.0087888481834497 12.267771915884108 0 0 0
457 1 2 -1.1794 5.319369215233612 3.2076198183580034 14.093892753055481 0 0 0
458 1 1 0.5897 6.017211244515844 2.8057902026592445 13.576457110208615 0 0 0
459 1 1 0.5897 4.521206030732351 2.765275802126908 13.80501072559708 0 0 0
762 1 1 0.5897 4.993019469673321 4.889868510782569 13.491049067337546 0 0 0
594 1 1 0.5897 8.371800967488234 2.3596134574365233 13.27726115976693 0 0 0
168 1 1 0.5897 2.307452750671423 2.5253808380435006 13.510012610440866 0 0 0
468 1 1 0.5897 0.6425143151955173 3.373203242032957 14.820015450408649 0 0 0
466 1 2 -1.1794 0.8035902605940801 3.429467121822364 13.87815371477208 0 0 0
593 1 1 0.5897 7.634738305988126 1.0406780863043714 13.370090193700703 0 0 0
592 1 2 -1.1794 7.583415470712949 1.9100437965963895 12.973089227700175 0 0 0
365 1 1 0.5897 0.7078139441074885 5.043211095503791 13.279903949648121 0 0 0
71 1 1 0.5897 5.509572073924129 3.2843945208950975 15.877014290371921 0 0 0
760 1 2 -1.1794 5.02002403696635 5.813017859370112 13.239878390933512 0 0 0
761 1 1 0.5897 5.09873970717294 5.800029992515582 12.286017232728662 0 0 0
364 1 2 -1.1794 0.5897362655499991 5.931349761408798 12.943305129128955 0 0 0
737 1 1 0.5897 3.0025185898093754 0.15414546799506137 13.732345332836294 0 1 0
357 1 1 0.5897 7.661007282325532 2.0065943944176174 11.196396372947405 0 0 0
133 1 2 -1.1794 0.6746264995718783 3.1981675622145644 16.539977940646594 0 0 0
754 1 2 -1.1794 7.8558971258204 1.9220119973109795 17.72406197964792 0 0 0
21 1 1 0.5897 0.7267945567224805 3.970573864666708 21.119012882419256 0 0 0
646 1 2 -1.1794 0.6378235088849948 5.708707921621457 20.491031468141827 0 0 0
755 1 1 0.5897 7.7937869859711135 1.8999746610431183 18.678980931100845 0 0 0
290 1 1 0.5897 2.9750188975098495 1.1636790366540972 17.202435178212504 0 0 0
42 1 1 0.5897 7.546327987440978 0.9235819361228861 20.81205265541822 0 0 0
289 1 2 -1.1794 3.111137099931365 2.0779707083540426 17.450582286864805 0 0 0
41 1 1 0.5897 6.825231090671962 2.248531758680042 20.68556331274979 0 0 0
143 1 1 0.5897 5.2048101704843 4.873021949467958 20.58719001670411 0 0 0
569 1 1 0.5897 2.2632482270978285 2.293826797233948 20.518459523943775 0 0 0
291 1 1 0.5897 2.394603121130437 2.550693938856162 17.02715714286961 0 0 0
570 1 1 0.5897 2.974493459406569 1.8941364379109065 19.24323255564369 0 0 0
40 1 2 -1.1794 7.640171008054835 1.8048346999599558 20.450626788903026 0 0 0
142 1 2 -1.1794 5.0931511869984885 5.784768385811713 20.318343195341942 0 0 0
667 1 2 -1.1794 5.212791854126128 3.117770549822426 20.972901385690808 0 0 0
134 1 1 0.5897 0.6693149338369069 4.032971443353723 17.008093064296805 0 0 0
568 1 2 -1.1794 3.0111862053399023 1.7921718676349419 20.194267965954648 0 0 0
756 1 1 0.5897 7.070256595281982 2.3911442660313065 17.443237401245348 0 0 0
669 1 1 0.5897 4.415309022559587 2.6576696028724163 20.71115936626578 0 0 0
278 1 1 0.5897 5.512428866090363 4.930414518721571 17.337638405236085 0 0 0
19 1 2 -1.1794 0.883063202240601 3.0355976505725972 21.251014355255503 0 0 0
323 1 1 0.5897 7.642723133483041 0.20923866728977236 17.084374393727952 0 1 0
72 1 1 0.5897 4.6982896498981646 2.8221595208861716 17.068647441686156 0 0 0
571 1 2 -1.1794 0.7181029083731707 5.624231323713908 17.74601314224132 0 0 0
648 1 1 0.5897 0.6804434012733488 5.6837345899587115 19.535114111124557 0 0 0
277 1 2 -1.1794 5.526454341199121 5.851321550006814 17.597927210243412 0 0 0
81 1 1 0.5897 3.0872317347970886 0.296554522471516 21.02309069658278 0 1 0
70 1 2 -1.1794 5.541174107038667 3.2083201988177135 16.83065345225876 0 0 0
144 1 1 0.5897 5.245509161024172 5.776732941406784 19.373388529048285 0 0 0
668 1 1 0.5897 5.233464160946944 3.0386858010161015 21.9265943316655 0 0 -1
253 1 2 -1.1794 3.0269142685339006 6.96942904197808 2.0767821848718127 0 0 0
123 1 1 0.5897 3.1627467499228934 8.671726954987628 2.758607681003528 0 0 0
121 1 2 -1.1794 3.081423516739858 9.596781709029825 2.9903021437154775 0 0 0
122 1 1 0.5897 3.107399436508189 9.607748234656881 3.947080074918528 0 0 0
44 1 1 0.5897 1.4754196712363281 10.08551457416146 2.470871784569305 0 0 0
218 1 1 0.5897 6.059100723090157 10.492096351426612 2.2667284426085685 0 0 0
255 1 1 0.5897 2.2994047444457073 6.435977515043738 2.3966628718255074 0 0 0
219 1 1 0.5897 4.552084053538583 10.585727952218955 2.3764972032030003 0 0 0
43 1 2 -1.1794 0.7026912008709623 10.575942775575717 2.190600364428256 0 0 0
415 1 2 -1.1794 7.586960230060069 7.206355832563411 1.9161124322660872 0 0 0
417 1 1 0.5897 8.360796921297123 6.75887216278756 2.2583393864471724 0 0 0
254 1 1 0.5897 2.953101472219952 6.928965036625253 1.1232992659052274 0 0 0
217 1 2 -1.1794 5.310551484331092 11.016430352423592 1.9822754040997572 0 0 0
66 1 1 0.5897 7.355942382699648 9.618234256540537 3.7809516769217635 0 0 0
65 1 1 0.5897 7.59729420266778 8.79432102243816 2.534112477306827 0 0 0
64 1 2 -1.1794 7.438442831104761 9.690538717590254 2.830067727772314 0 0 0
416 1 1 0.5897 6.852817560666604 6.651226600320931 2.178833747511006 0 0 0
138 1 1 0.5897 4.715753632587065 6.199864160344946 2.548148164281464 0 0 0
45 1 1 0.5897 0.8239347576086816 11.448706223487934 2.5642626134680837 0 0 0
396 1 1 0.5897 0.5877016244513351 10.780856550295818 0.3907106712316279 0 0 0
712 1 2 -1.1794 7.272543042683889 9.849931881111706 5.6079538069628025 0 0 0
773 1 1 0.5897 8.976138002572096 10.5558638360941 2.3257694353749057 0 0 0
256 1 2 -1.1794 2.970097908038901 9.582556635200039 10.376840234528556 0 0 0
12 1 1 0.5897 2.98432460739409 7.916625476253449 6.381463896216759 0 0 0
10 1 2 -1.1794 3.0056358929491496 7.002178847623952 6.663176139435098 0 0 0
794 1 1 0.5897 2.3134726954244242 10.065557282449065 5.948993056683999 0 0 0
526 1 2 -1.1794 7.42144174491928 6.984906274338795 9.241155715708185 0 0 0
577 1 2 -1.1794 5.079659197103267 10.93814139710553 6.918402085493053 0 0 0
145 1 2 -1.1794 7.377305589999041 7.145798469655299 6.338476705014359 0 0 0
551 1 1 0.5897 0.7608193160956367 10.975146528340655 7.595117545997689 0 0 0
713 1 1 0.5897 8.091684191771737 10.221535073538211 5.935253909778047 0 0 0
580 1 2 -1.1794 5.1843208107738254 10.96694795262728 9.643169838554172 0 0 0
650 1 1 0.5897 3.1253165003564254 6.8921532247085215 8.481657679308814 0 0 0
822 1 1 0.5897 8.339723725657556 9.974204792226423 9.986205700237758 0 0 0
527 1 1 0.5897 7.403122059004149 7.889685241335185 9.552713785612141 0 0 0
15 1 1 0.5897 1.4472557399857195 10.534665179185014 9.72294760312818 0 0 0
582 1 1 0.5897 5.1040832898870985 10.992112351658154 8.689670358746637 0 0 0
820 1 2 -1.1794 7.520446558271434 9.558274888115577 10.254506812926197 0 0 0
581 1 1 0.5897 5.995377246869758 10.484468327055938 9.80310584643508 0 0 0
147 1 1 0.5897 7.2758002544254605 7.093549675761871 7.28883670240974 0 0 0
649 1 2 -1.1794 3.0765272357061813 7.009471769947113 9.43039113905129 0 0 0
528 1 1 0.5897 8.28165184448871 6.657869576625125 9.504392960722107 0 0 0
13 1 2 -1.1794 0.6926950128788253 11.02561663263419 9.397713796165299 0 0 0
258 1 1 0.5897 3.7961275850927696 9.987516578907952 10.112491262145436 0 0 0
714 1 1 0.5897 7.2584150039073325 8.957884710857602 5.954486951560195 0 0 0
257 1 1 0.5897 2.9902855393855927 8.713262849421685 9.976891301441759 0 0 0
146 1 1 0.5897 6.64050526717493 6.643626535394643 5.990457900352721 0 0 0
578 1 1 0.5897 5.869524864300776 10.54245754566923 6.549965375180389 0 0 0
550 1 2 -1.1794 0.8005860861447451 10.907289139624597 6.641163991673564 0 0 0
687 1 1 0.5897 4.432537869467874 6.109159979175004 5.987494655797339 0 0 0
651 1 1 0.5897 3.836066495357957 6.536316185599062 9.770104281740847 0 0 0
11 1 1 0.5897 2.1499839378288286 6.653928956267504 6.412590294428151 0 0 0
795 1 1 0.5897 3.8201291259359986 9.947712122212462 6.0385528107717406 0 0 0
793 1 2 -1.1794 3.046846693065423 9.512713152877938 5.679382488097891 0 0 0
114 1 1 0.5897 1.545614632708446 6.190724566631925 9.886402581281747 0 0 0
552 1 1 0.5897 0.6625089032957652 11.802121790893576 6.330943081852467 0 0 0
165 1 1 0.5897 8.860849546802456 6.19230136999674 5.969630569818558 0 0 0
677 1 1 0.5897 6.028138618634864 6.14769281413086 10.145163260271852 0 0 0
826 1 2 -1.1794 7.393984601834446 6.985422536150993 13.886452446663267 0 0 0
827 1 1 0.5897 6.577029275760779 6.507873955306389 13.742526864366209 0 0 0
332 1 1 0.5897 2.788666431923592 7.9415508305768 13.758183722562167 0 0 0
797 1 1 0.5897 2.967543701480939 9.626540496436743 12.245809093129925 0 0 0
796 1 2 -1.1794 2.9939790881668586 9.618099819023303 13.2025990973086 0 0 0
798 1 1 0.5897 2.218238860858531 10.11178470161634 13.468468381099758 0 0 0
722 1 1 0.5897 4.555460439728377 10.510905920980779 13.647450691709249 0 0 0
261 1 1 0.5897 0.7211593869620414 10.995502113233412 14.931407601132259 0 0 0
723 1 1 0.5897 5.403246997908997 10.992672892326734 14.805454806636199 0 0 0
828 1 1 0.5897 7.4937294481190255 7.0089839317720966 14.838143056779591 0 0 0
259 1 2 -1.1794 0.7740279904649585 10.914751806877565 13.979087575661321 0 0 0
331 1 2 -1.1794 2.73088600112929 7.068286351118045 14.14562328782493 0 0 0
225 1 1 0.5897 2.866237631767465 6.839287346829424 15.897048996848937 0 0 0
721 1 2 -1.1794 5.365726713592173 10.978868213517591 13.849099082318936 0 0 0
475 1 2 -1.1794 7.599311843066536 9.655380230549332 13.047024507796198 0 0 0
476 1 1 0.5897 6.880045553758949 10.184580107240425 13.3916566349754 0 0 0
477 1 1 0.5897 7.4192465570692745 8.770402946240894 13.363930247747751 0 0 0
333 1 1 0.5897 3.5614565476857387 6.649898351732593 13.919139505110978 0 0 0
366 1 1 0.5897 1.2950652701471983 6.436766645212577 13.347331104369768 0 0 0
104 1 1 0.5897 8.98631852620928 10.589533227444829 13.630718660288114 0 0 0
851 1 1 0.5897 8.994172465035376 6.119353131070023 13.259565740105199 0 0 0
821 1 1 0.5897 7.538503516272491 9.587477269667502 11.211081790962222 0 0 0
445 1 2 -1.1794 0.8747248289989019 10.976312140550267 16.771573538434808 0 0 0
141 1 1 0.5897 7.428687448519027 8.756769228455912 20.555241232570655 0 0 0
361 1 2 -1.1794 5.185889539618482 10.900755895692853 21.052007303220915 0 0 0
9 1 1 0.5897 6.732829925310703 10.150107767220677 17.324098010689497 0 0 0
4 1 2 -1.1794 2.878025084269511 7.030799990402345 21.202056710861918 0 0 0
627 1 1 0.5897 2.256571816464438 10.082769488468937 17.21187648065225 0 0 0
394 1 2 -1.1794 0.6296832277512208 10.739876539102532 21.304973317821386 0 0 0
520 1 2 -1.1794 7.809973085791868 7.203038125070821 16.678115539222187 0 0 0
140 1 1 0.5897 6.789731078342422 10.126548664778953 20.638191390341184 0 0 0
161 1 1 0.5897 6.572636890952569 6.666746928687271 20.813703739239497 0 0 0
690 1 1 0.5897 2.1659222493364667 10.026411389260533 20.614865658440564 0 0 0
625 1 2 -1.1794 2.993137830834444 9.540255629793151 17.49352780259283 0 0 0
688 1 2 -1.1794 2.9334222036847555 9.565995366652707 20.275524109764888 0 0 0
647 1 1 0.5897 1.4547268876087205 6.130927008148139 20.75672674488549 0 0 0
224 1 1 0.5897 3.123476865363524 7.777557135159342 17.05685260251777 0 0 0
689 1 1 0.5897 3.6767264637918315 10.101262912731299 20.553283816412193 0 0 0
246 1 1 0.5897 9.092605148027213 10.45303192995388 16.904789001550014 0 0 0
626 1 1 0.5897 2.9877771694330932 9.605310924712509 18.44849015482817 0 0 0
139 1 2 -1.1794 7.59635562059216 9.682118329851134 20.37737040369977 0 0 0
6 1 1 0.5897 2.9733604952553683 7.9222482958323255 20.867001663510347 0 0 0
521 1 1 0.5897 7.02859531081892 6.765112877701262 17.015539323727474 0 0 0
8 1 1 0.5897 7.52707683311985 9.764260222590927 18.55378444012771 0 0 0
7 1 2 -1.1794 7.571228531464121 9.778053362579985 17.597709929612407 0 0 0
160 1 2 -1.1794 7.411520768527182 7.065188183538588 21.045480301562115 0 0 0
5 1 1 0.5897 3.6386486770233213 6.5625601217498195 20.857982324819133 0 0 0
522 1 1 0.5897 7.770519107225111 8.084141886752793 17.04978214990512 0 0 0
279 1 1 0.5897 4.716806134600882 6.214448765681101 17.239026703268504 0 0 0
680 1 1 0.5897 4.421201251479205 10.513421022226897 16.862644557057926 0 0 0
679 1 2 -1.1794 5.266172301212354 10.923970137062442 16.679147789505766 0 0 0
223 1 2 -1.1794 3.0462840971692695 6.849239599430605 16.83710439093041 0 0 0
287 1 1 0.5897 9.004479319751145 10.464285471665786 20.888969821414435 0 0 0
572 1 1 0.5897 1.4777243359244732 6.05801223008643 17.357417875405922 0 0 0
462 1 1 0.5897 8.855909360458282 6.138443829806135 20.512901545880094 0 0 0
162 1 1 0.5897 7.4234093120691105 7.059930436412676 22.002584695095308 0 0 0
363 1 1 0.5897 5.277879629577273 10.906549949531321 22.004750097963903 0 0 0
200 1 1 0.5897 5.1497641565532115 13.535820381470973 5.067310311480694 0 0 0
173 1 1 0.5897 4.518217236592145 13.862484115351085 2.9097769288760125 0 0 0
172 1 2 -1.1794 5.315537678743781 13.437840363309569 3.226244593520301 0 0 0
374 1 1 0.5897 0.8160352070322011 13.360745045416003 3.9603453567512616 0 0 0
558 1 1 0.5897 3.115608474098863 14.717653643271841 1.35868021633441 0 0 0
556 1 2 -1.1794 3.09382915252627 14.843296504408764 2.3073441966318553 0 0 0
557 1 1 0.5897 2.333400881333234 14.340251065222796 2.59866583465819 0 0 0
478 1 2 -1.1794 7.342597905927505 14.938512565772605 2.1179174014646556 0 0 0
174 1 1 0.5897 5.323724612365318 12.586530925328322 2.788919710045565 0 0 0
293 1 1 0.5897 3.039844286022437 16.477251993105476 2.9083404920542435 0 0 0
479 1 1 0.5897 8.156508405066198 14.585225842187386 2.4769998248582197 0 0 0
449 1 1 0.5897 7.264765371747139 16.609375453221347 2.838676752340172 0 0 0
480 1 1 0.5897 6.652443513108774 14.423057029564896 2.535237958994987 0 0 0
373 1 2 -1.1794 1.0285095786865923 13.205563874528375 3.040028877673753 0 0 0
308 1 1 0.5897 7.407638001357679 17.56034533808817 4.851530275595648 0 0 0
317 1 1 0.5897 7.405204111496819 14.84758165017855 0.3242238008048741 0 0 0
294 1 1 0.5897 2.999393761699372 17.366587157578415 4.132731340066973 0 0 0
448 1 2 -1.1794 7.391099644517287 17.53209556073085 3.059235228670333 0 0 0
292 1 2 -1.1794 2.9169265024951248 17.386920118782164 3.1793139771390577 0 0 0
375 1 1 0.5897 0.29649846429853 13.588802938483076 2.5567943145428136 0 0 0
384 1 1 0.5897 2.8541915093790173 16.600951089747557 10.229012395322382 0 0 0
656 1 1 0.5897 1.3047682313346767 13.9676892696236 6.281141262195045 0 0 0
454 1 2 -1.1794 5.320540913531893 13.603028486012137 10.378400492272771 0 0 0
307 1 2 -1.1794 7.44279608145159 17.449603411222313 5.801644892393993 0 0 0
811 1 2 -1.1794 3.0095976165026124 14.948842816646472 9.616861641096891 0 0 0
456 1 1 0.5897 5.348393220487652 12.686773831319481 10.103228261922611 0 0 0
813 1 1 0.5897 2.3014660956631063 14.356940487207863 9.870584616234012 0 0 0
17 1 1 0.5897 2.837827310029196 14.952814236887447 7.857048391060225 0 0 0
766 1 2 -1.1794 0.8894676877780247 13.52769194828366 10.42902319744653 0 0 0
239 1 1 0.5897 2.8861173065069816 16.481352085561912 6.196056060023813 0 0 0
377 1 1 0.5897 6.761574497953573 14.415529227531701 9.766585331357021 0 0 0
14 1 1 0.5897 0.7446894921036291 11.86988743486124 9.845542918131466 0 0 0
519 1 1 0.5897 8.065456825929227 14.544922741789645 6.451549838545385 0 0 0
812 1 1 0.5897 3.8105981347379454 14.470015156160906 9.829702330632884 0 0 0
18 1 1 0.5897 3.5960198261097442 14.493555560515343 6.62983026938529 0 0 0
376 1 2 -1.1794 7.45730780823622 14.98609787041702 9.440148120557634 0 0 0
16 1 2 -1.1794 2.77413766904153 14.900830256337086 6.903389662222441 0 0 0
517 1 2 -1.1794 7.248995154341296 14.902940564769596 6.7999966940866665 0 0 0
186 1 1 0.5897 7.328808372128514 16.55072439714535 10.328160013214292 0 0 0
378 1 1 0.5897 7.382179317876796 14.935150367142748 8.48726875450215 0 0 0
518 1 1 0.5897 7.2563106456630395 15.821746812775874 6.532118653387441 0 0 0
201 1 1 0.5897 5.79336133249708 13.996247368716713 6.35789198335964 0 0 0
199 1 2 -1.1794 5.019212100630763 13.549458021370187 6.015458763184088 0 0 0
184 1 2 -1.1794 7.32442473633744 17.463666714769808 10.615484952320706 0 0 0
382 1 2 -1.1794 2.7814656568895004 17.501209157886446 10.545682206501573 0 0 0
59 1 1 0.5897 8.974571444764198 14.18380944712703 9.939105696589575 0 0 0
238 1 2 -1.1794 2.990981003827762 17.38532278217828 5.8996270966050055 0 0 0
655 1 2 -1.1794 0.5909110613751467 13.560028497843888 5.790824734757632 0 0 0
579 1 1 0.5897 5.067957604673423 11.826519982686424 6.562477676666903 0 0 0
296 1 1 0.5897 7.467983653351959 14.769865842959707 15.025708329893659 0 0 0
232 1 2 -1.1794 2.9310820980198162 14.861571239142531 14.081300274812211 0 0 0
234 1 1 0.5897 2.9870754109158777 14.973851538829754 15.030237456171934 0 0 0
606 1 1 0.5897 3.0657495527170266 16.55266519768023 13.522041812719246 0 0 0
427 1 2 -1.1794 5.203167676944038 13.573745915939108 13.175452259969488 0 0 0
233 1 1 0.5897 3.7390007150809335 14.405635884409172 13.845531379132101 0 0 0
639 1 1 0.5897 1.49269570262309 13.925934132564896 13.486860402075985 0 0 0
429 1 1 0.5897 6.002632847525198 13.972329168163991 13.519227413709926 0 0 0
428 1 1 0.5897 5.271497048174534 12.650651989725961 13.418857571891282 0 0 0
637 1 2 -1.1794 0.6384866321775525 13.62618562773401 13.175909844185385 0 0 0
638 1 1 0.5897 0.6467238455765736 12.68096527329309 13.325938071142103 0 0 0
295 1 2 -1.1794 7.465184219301172 14.901548565706106 14.077624167859431 0 0 0
270 1 1 0.5897 7.566334257841714 16.58831745946318 13.658307445226562 0 0 0
297 1 1 0.5897 8.283267434713224 14.505215698821052 13.777854112367761 0 0 0
604 1 2 -1.1794 3.0383606851537004 17.459896426295305 13.218386901895899 0 0 0
605 1 1 0.5897 3.0286113103304317 17.393236187992006 12.26356979249936 0 0 0
269 1 1 0.5897 7.3957206805399665 17.357272665216506 12.365512092479696 0 0 0
767 1 1 0.5897 0.7547120677841207 13.627854340135276 11.371378928086044 0 0 0
268 1 2 -1.1794 7.443702083167209 17.473057964486962 13.314460200364024 0 0 0
455 1 1 0.5897 5.213355067911162 13.565055238182767 11.328812492615764 0 0 0
824 1 1 0.5897 3.7189314832664424 14.664372266504243 17.06563494716998 0 0 0
664 1 2 -1.1794 3.0454954011752515 14.712910593540288 21.473929729126596 0 0 0
50 1 1 0.5897 7.439633257733131 15.649741741974648 17.129473795243637 0 0 0
610 1 2 -1.1794 7.3682698041832655 17.358886279084697 17.748023890497716 0 0 0
51 1 1 0.5897 8.254448825081965 14.375041199655708 17.181539204089813 0 0 0
452 1 1 0.5897 0.6899152852910968 12.446532868087067 20.721771994798683 0 0 0
125 1 1 0.5897 5.042461264833736 13.428837084071816 18.45592855223491 0 0 0
124 1 2 -1.1794 5.068143476218255 13.551528951058309 17.50698306204362 0 0 0
684 1 1 0.5897 4.398908661678116 14.001220212549313 20.649043038420924 0 0 0
823 1 2 -1.1794 2.9269651135754113 15.135182308346739 16.806203122140143 0 0 0
666 1 1 0.5897 3.0186701888749137 15.60389160537055 21.12540884828985 0 0 0
316 1 2 -1.1794 7.428667418236757 14.801984893120567 21.238051564747987 0 0 0
52 1 2 -1.1794 0.8815044995656867 13.522637204153632 17.632815010370315 0 0 0
318 1 1 0.5897 7.253869301520046 15.698035589858836 20.950679258836722 0 0 0
665 1 1 0.5897 2.34800021412666 14.251916358232377 21.00792464462066 0 0 0
584 1 1 0.5897 2.897868188650111 16.723926791616123 17.450677816233 0 0 0
683 1 1 0.5897 5.906418490949258 13.988749221747014 20.510571262719463 0 0 0
126 1 1 0.5897 5.9075081776001825 13.981459831646356 17.343229002706195 0 0 0
682 1 2 -1.1794 5.117508102090778 13.51908808035968 20.239971616318446 0 0 0
157 1 2 -1.1794 7.213348612988976 17.47961074477172 20.460594742631805 0 0 0
53 1 1 0.5897 0.8613523432856276 13.487142887084048 18.589139019975097 0 0 0
451 1 2 -1.1794 0.8837206586778514 13.33700063222817 20.429297235509623 0 0 0
825 1 1 0.5897 2.2081110110922793 14.592686224847558 17.130410585172264 0 0 0
715 1 2 -1.1794 3.0277700025598158 17.384751957492327 20.59242131309555 0 0 0
117 1 1 0.5897 8.934536067438348 13.928509545053355 20.64004623803279 0 0 0
159 1 1 0.5897 7.2280583028791305 17.37338258340169 19.509431832444985 0 0 0
49 1 2 -1.1794 7.454649235054022 14.747533148048392 16.810367425938622 0 0 0
716 1 1 0.5897 2.997263987009466 17.367762288177296 19.635864303637195 0 0 0
583 1 2 -1.1794 2.963681830545167 17.590543580207534 17.85153365521924 0 0 0
446 1 1 0.5897 0.8531174622355129 11.900420124590708 17.019720929618412 0 0 0
362 1 1 0.5897 5.212553195991125 11.82441990246788 20.802709964673518 0 0 0
681 1 1 0.5897 5.134809586505707 11.8481275550251 16.890560925336406 0 0 0
267 1 1 0.5897 5.875708381750062 21.628115269979812 2.9061286484025235 0 0 0
696 1 1 0.5897 1.439890594689637 22.033594681541658 2.9117491736331886 0 0 0
266 1 1 0.5897 4.376108896523146 21.83519880129146 2.8912845709723674 0 0 0
265 1 2 -1.1794 5.052465492683975 21.219659619855584 3.1737616384301637 0 0 0
344 1 1 0.5897 1.557186916508051 18.498559811078 2.599328817838213 0 0 0
228 1 1 0.5897 5.089913888694136 19.629219171313274 2.4956268328372353 0 0 0
343 1 2 -1.1794 0.8363571102216867 19.008459037312708 2.2297684461565987 0 0 0
817 1 2 -1.1794 7.354553785082857 22.502773523215897 2.223205169039181 0 0 0
249 1 1 0.5897 5.123735066144042 21.115212915773785 4.970786424100604 0 0 0
226 1 2 -1.1794 5.083511106106471 18.743732506552497 2.1324411530149066 0 0 0
187 1 2 -1.1794 2.9849067698729446 22.909888733186662 2.3301008996027517 0 0 0
695 1 1 0.5897 0.7713728183910472 20.685061857069257 2.750562536337817 0 0 0
694 1 2 -1.1794 0.6375055997995607 21.55644521775158 3.1231348727996266 0 0 0
818 1 1 0.5897 8.149199647367826 22.091228989244712 2.562856613545812 0 0 0
602 1 1 0.5897 5.207240481087132 18.919710317550916 0.3490379542722023 0 0 0
189 1 1 0.5897 3.091247333646712 22.924863358840785 1.378953273499406 0 0 0
413 1 1 0.5897 0.682972960665302 21.30967676251151 4.907938232125814 0 0 0
227 1 1 0.5897 4.289941052309354 18.344121015629717 2.4884682358178676 0 0 0
345 1 1 0.5897 0.8835301031337981 18.84321615237003 1.2881327536221105 0 0 0
321 1 1 0.5897 8.869982321822176 18.3169192409886 2.414378667890259 0 0 0
450 1 1 0.5897 6.592903383542394 17.9632106904976 2.7539183838098866 0 0 0
498 1 1 0.5897 7.6228474253722 22.486386979384545 0.4993490790227351 0 0 0
819 1 1 0.5897 7.4293434059715455 23.42054567502808 2.4842030099145727 0 -1 0
555 1 1 0.5897 5.367058581425909 20.48277087974686 10.055539128200756 0 0 0
342 1 1 0.5897 0.7481167284573137 18.580312320328847 7.527331183581215 0 0 0
87 1 1 0.5897 8.14692152998165 22.154070198931926 9.708675792936464 0 0 0
37 1 2 -1.1794 3.088325566608815 22.751085540382814 9.411771903304775 0 0 0
86 1 1 0.5897 7.44784318817985 22.640397818773035 8.457044278425878 0 0 0
414 1 1 0.5897 0.6225992967282526 20.408813331596114 6.1230404771562466 0 0 0
32 1 1 0.5897 8.288364503372167 22.196890774537433 6.396181922961257 0 0 0
404 1 1 0.5897 1.4336473663265485 18.407568175245522 9.6430506887436 0 0 0
39 1 1 0.5897 3.8518587755259333 22.269115835619374 9.729426787295917 0 0 0
553 1 2 -1.1794 5.316110407657473 21.372202386155347 10.405319526277669 0 0 0
701 1 1 0.5897 3.016724748822858 22.692912889285186 7.683260751423126 0 0 0
309 1 1 0.5897 8.255454667835075 17.882116878907265 6.063778748545611 0 0 0
387 1 1 0.5897 5.281800305131773 19.557319291584214 6.62262986559527 0 0 0
102 1 1 0.5897 5.131585849746652 18.708521571669706 8.693964420069078 0 0 0
700 1 2 -1.1794 3.0406080130781445 22.527140351388535 6.7408404070863535 0 0 0
385 1 2 -1.1794 5.247007280999491 18.651578895392255 6.9299660351836305 0 0 0
702 1 1 0.5897 2.1800197618523662 22.159379599013807 6.539990370854929 0 0 0
38 1 1 0.5897 2.3387582320500675 22.28130198443922 9.777330485472634 0 0 0
101 1 1 0.5897 5.907502519614612 18.280041207977458 9.921232377443905 0 0 0
341 1 1 0.5897 1.4768240498681042 18.211888312073004 6.252540954398373 0 0 0
33 1 1 0.5897 6.780268043802658 22.07337990785709 6.444248158264682 0 0 0
383 1 1 0.5897 3.5323536356774783 17.952539838302588 10.160126395798272 0 0 0
85 1 2 -1.1794 7.4270669039640005 22.710500042519683 9.411437887486793 0 0 0
554 1 1 0.5897 6.082049010257843 21.816961205834904 10.042401251259218 0 0 0
340 1 2 -1.1794 0.6752587093433369 18.624666883306393 6.573942585419315 0 0 0
386 1 1 0.5897 6.0354907408610705 18.24559043190579 6.569882808119663 0 0 0
31 1 2 -1.1794 7.500481374958493 22.65352161665106 6.690991299805089 0 0 0
100 1 2 -1.1794 5.10797053692567 18.731356546998946 9.650593009039095 0 0 0
248 1 1 0.5897 4.476830913366143 21.606738160708858 6.248175583045177 0 0 0
403 1 2 -1.1794 0.6559238390936553 18.884853543171157 9.354044833964283 0 0 0
94 1 2 -1.1794 0.8964151250714397 21.393175478528057 10.435883586396256 0 0 0
405 1 1 0.5897 0.7095787737017458 19.726921561062156 9.805810648270116 0 0 0
247 1 2 -1.1794 5.246088317400628 21.141369658312644 5.919764765150099 0 0 0
412 1 2 -1.1794 0.622427263729827 21.329900422497456 5.863000434356064 0 0 0
240 1 1 0.5897 3.8254944348749005 17.66576715421538 6.275328280234171 0 0 0
185 1 1 0.5897 8.078876745326323 17.856855314305104 10.17684969872479 0 0 0
380 1 1 0.5897 0.6436754607672134 20.581558144780498 13.482231236609001 0 0 0
88 1 2 -1.1794 5.383679372427047 21.48290697221738 13.189442867337082 0 0 0
381 1 1 0.5897 1.5058504372083075 21.825788759899076 13.489556711457531 0 0 0
90 1 1 0.5897 5.270193566474335 20.596502477823474 13.532138177468644 0 0 0
763 1 2 -1.1794 5.209170250592231 18.985340381067225 14.148204754511058 0 0 0
738 1 1 0.5897 3.8080021007695275 22.211684078439056 13.818505855722059 0 0 0
89 1 1 0.5897 5.314991609110777 21.383758430117457 12.239878146109211 0 0 0
764 1 1 0.5897 4.4801790088619695 18.457176128471858 13.82295772650056 0 0 0
474 1 1 0.5897 5.33728350403826 18.891763993659247 15.982963104333583 0 0 0
765 1 1 0.5897 5.989553175008852 18.47208747291295 13.939047673229235 0 0 0
350 1 1 0.5897 2.760689778774901 22.545216523715776 15.91517175453752 0 0 0
736 1 2 -1.1794 2.9903816299538657 22.61258386192913 14.113425034242775 0 0 0