LAMMPS data file via write_data, version 30 Jul 2021, timestep = 39250000

1008 atoms
2 atom types
672 bonds
1 bond types
336 angles
1 angle types

-3.119448164020058 14.729447163574266 xlo xhi
-0.0941703730956327 22.674169373082457 ylo yhi
0.09254828058798914 19.137449719412345 zlo zhi
-0.41144442081759003 -6.632169122338355 0.22237917224831222 xy xz yz

Masses

1 1.008
2 15.999

Pair Coeffs # lj/cut/tip4p/long/omp

1 0 0
2 0.21084 3.1668

Bond Coeffs # harmonic/omp

1 450 0.9572

Angle Coeffs # harmonic/omp

1 55 104.52

Atoms # full

21 7 1 0.5897 1.2344303985374419 2.5275684958789277 0.7204192006540987 0 0 0
55 19 2 -1.1794 -0.6308124938827859 4.279984785827013 3.4263592080555494 0 0 0
56 19 1 0.5897 -1.3055497227664383 3.7531174502753286 2.9980816043386502 0 0 0
57 19 1 0.5897 0.1058287538876157 4.269315648988958 2.815203996636145 0 0 0
121 41 2 -1.1794 -2.4656688821271215 2.3882179811255355 2.5389449577123893 1 0 0
122 41 1 0.5897 -2.395433987414568 2.01165893476027 1.6616769427351936 1 0 0
86 29 1 0.5897 -2.292683925060384 1.293876582111698 4.086645848777083 1 0 0
31 11 2 -1.1794 1.2467702200457405 1.298730266915847 2.2315343075188503 0 0 0
32 11 1 0.5897 1.0712629162155762 1.6035111904312385 3.121830719617264 0 0 0
123 41 1 0.5897 -3.3574499447206128 2.7335311126010047 2.5812763448661813 1 0 0
46 16 2 -1.1794 1.9082065127303967 4.63157077242405 2.3161855548189374 0 0 0
33 11 1 0.5897 0.5680699671056959 0.645004346670973 2.0634255833279678 0 0 0
71 24 1 0.5897 3.0516594205143397 0.7842937347012595 2.0051810980063474 0 0 0
158 53 1 0.5897 -4.258021165914452 4.501673468796875 4.2722746837274 1 0 0
6 2 1 0.5897 3.7631159429408862 1.7917081102713324 4.707412613405864 0 0 0
47 16 1 0.5897 2.026742054569432 5.116356035950992 1.499420503230796 0 0 0
16 6 2 -1.1794 5.466056941786588 4.784001236435094 0.25905028806754615 0 0 0
53 18 1 0.5897 4.640217806072334 2.919431311910924 3.1196019709492515 0 0 0
527 176 1 0.5897 4.189393972708133 1.8655028513459986 0.23089507017831482 0 0 1
52 18 2 -1.1794 3.829293635945059 3.126316275800499 3.5842695074626283 0 0 0
78 26 1 0.5897 0.04644468951627356 2.9018899410398644 4.542381865544189 0 0 0
54 18 1 0.5897 3.239168713379348 3.4511747862671585 2.904226693089043 0 0 0
602 201 1 0.5897 -0.5979053953286404 5.2701357972244915 0.5152795693282906 1 0 1
70 24 2 -1.1794 3.8030881579205245 0.5162733435784609 1.4761743565291436 0 0 0
482 161 1 0.5897 -1.18271488831933 0.06304355895006472 1.0139127957834568 1 1 0
48 16 1 0.5897 2.1233525803022726 5.262521330052934 3.0031802672539434 0 0 0
101 34 1 0.5897 -2.670793785605751 4.514099270541949 0.2780360721911412 1 0 0
72 24 1 0.5897 4.324844026241002 -0.03302244787261899 2.061225966542631 0 0 0
76 26 2 -1.1794 0.704620791761573 2.2580316768358704 4.804197593243952 0 0 0
157 53 2 -1.1794 -3.7148264991155013 5.078241464987569 4.809688190310077 1 0 0
163 55 2 -1.1794 -2.2068203440003744 1.1435285996507276 0.10626642506552823 1 0 0
134 45 1 0.5897 -2.340748094557682 2.4996026862963503 6.036703962580024 1 0 0
135 45 1 0.5897 -1.6879416505544937 3.6546990995090307 6.765893599143696 1 0 0
60 20 1 0.5897 2.792512464530886 3.719047952240955 6.763541600019221 0 0 0
34 12 2 -1.1794 0.0828835844175071 1.3913319683702177 7.274190616005483 0 0 0
35 12 1 0.5897 0.14245578413639226 2.0486653044055076 7.96754018710414 0 0 0
36 12 1 0.5897 -0.7563713563157131 0.9570449088505613 7.426708468858029 0 0 0
159 53 1 0.5897 -3.186467315056337 4.483101385950329 5.341560914875808 1 0 0
669 223 1 0.5897 -5.158547738890161 1.6363397734321259 9.106387521623118 1 0 0
124 42 2 -1.1794 -4.878464726191737 2.4826502872178264 7.561012179296406 1 0 0
58 20 2 -1.1794 2.149088341993899 4.187057646436925 6.231358502955307 0 0 0
59 20 1 0.5897 1.8091723087246265 3.5254127409193203 5.6288548220507835 0 0 0
4 2 2 -1.1794 3.8493939249955753 1.040464038646905 5.294258996606548 0 0 0
43 15 2 -1.1794 -0.3417760274921404 4.821105031382638 7.2102015103766135 0 0 0
126 42 1 0.5897 -4.009210250629566 2.7998889927373942 7.31610958392756 1 0 0
45 15 1 0.5897 0.5771464799804753 4.649684408742677 7.004047601959225 0 0 0
133 45 2 -1.1794 -2.5418275902276846 3.3109030037585 6.503346620301926 1 0 0
125 42 1 0.5897 -5.47511315588354 3.176578738155461 7.280370427012252 1 0 0
401 134 1 0.5897 2.451203506118736 0.25058818121366344 9.032465477624763 0 1 0
68 23 1 0.5897 -3.0798159311183144 0.12955706181474227 7.828502122297277 0 0 0
98 33 1 0.5897 -3.9872436528889663 5.2701870698728746 8.647662833691328 1 0 0
77 26 1 0.5897 0.3783115750849122 1.9041936354403888 5.631545322030087 0 0 0
69 23 1 0.5897 -2.5397214086050166 1.1764231679240222 8.779572034844271 0 0 0
67 23 2 -1.1794 -2.2726171173188536 0.42544814909800455 8.249387330013972 0 0 0
44 15 1 0.5897 -0.3319680334989088 5.120819059868698 8.119254736066825 0 0 0
87 29 1 0.5897 -3.3948084079567353 0.8136805286907632 5.006734857133211 1 0 0
97 33 2 -1.1794 -3.9865151087843063 4.899078167304494 9.529970656698332 1 0 0
522 174 1 0.5897 2.1440232873476273 5.472344485784628 9.055571204332269 0 0 0
5 2 1 0.5897 3.156164702722097 0.4403547358082224 5.019383541647217 0 0 0
402 134 1 0.5897 1.4298181726877122 0.2195410401477727 7.9154297824986175 0 1 0
22 8 2 -1.1794 0.3561031056702113 2.894515662804098 9.515691724361785 0 0 0
85 29 2 -1.1794 -2.449404794494521 0.9588617712904277 4.969478178342252 1 0 0
574 192 2 -1.1794 0.7049066386777172 0.5646605745853548 11.0925708473728 0 0 0
575 192 1 0.5897 1.3385031029765546 0.12793867100024942 11.661849063061629 0 0 0
560 187 1 0.5897 -4.7762131290126 3.990371272083907 12.78800622496948 0 0 0
576 192 1 0.5897 -0.09356490545403151 0.617149479546508 11.617892103541713 0 0 0
23 8 1 0.5897 0.689137247126705 2.1605435743800365 10.032014854426684 0 0 0
523 175 2 -1.1794 -2.347603655197342 2.652585912660238 9.91177768274611 0 0 0
627 209 1 0.5897 -6.769676380067001 2.998253950462341 12.311929697453582 1 0 0
24 8 1 0.5897 1.0043025765880191 3.5880421255388084 9.6385885971993 0 0 0
535 179 2 -1.1794 -1.8730320483933474 1.1386945003962614 12.091387443470598 0 0 0
536 179 1 0.5897 -2.0662812601930804 1.6513183306498522 12.876399488702742 0 0 0
537 179 1 0.5897 -2.1503768281386 1.6976409056370352 11.365535906975953 0 0 0
520 174 2 -1.1794 2.3299751501906423 4.812053913535725 9.723129098591881 0 0 0
625 209 2 -1.1794 -5.872653328356779 2.7057151588624135 12.150399787608364 1 0 0
556 186 2 -1.1794 0.44849325738547563 3.518539258028253 12.925794121683188 0 0 0
561 187 1 0.5897 -3.5535724099587993 3.9513990346382917 13.679967730084135 0 0 0
668 223 1 0.5897 -5.718608496814811 1.6718893761889864 10.512457378217986 1 0 0
558 186 1 0.5897 -0.36204241462796993 3.8871345576341323 12.574435502807848 0 0 0
559 187 2 -1.1794 -4.039765510885982 4.52396307827082 13.086651546408966 0 0 0
550 184 2 -1.1794 -1.5680669998479022 5.003367701525122 11.923808225094392 0 0 0
552 184 1 0.5897 -2.4760275075052265 4.765021582934446 12.1109871729301 0 0 0
626 209 1 0.5897 -5.732117296404562 2.001662555144937 12.783455320472273 1 0 0
557 186 1 0.5897 0.1707631763511337 2.7318209655310985 13.394969853110647 0 0 0
662 221 1 0.5897 -7.563691447582956 4.7618433206824395 14.032782315955739 1 0 0
606 202 1 0.5897 -5.922515107806852 4.7948661301809015 9.655341699813501 1 0 0
551 184 1 0.5897 -1.3414343046286907 5.637808443316761 12.603863770938897 0 0 0
589 197 2 -1.1794 -5.670125297054268 0.9273260502246603 14.108976546389455 1 0 0
99 33 1 0.5897 -3.870018607780263 5.653499084872452 10.107592957183659 1 0 0
525 175 1 0.5897 -1.435534527152595 2.902126415364544 9.763128435599821 0 0 0
524 175 1 0.5897 -2.832806646744266 3.476340804228887 9.863315933885156 0 0 0
667 223 2 -1.1794 -5.4514810685754345 1.0684282514411843 9.819011506723722 1 0 0
587 196 1 0.5897 -0.8801332094899896 5.662553907444401 10.418473407050827 0 0 0
580 194 2 -1.1794 -2.3208527550429965 2.602422041161638 14.267147800599899 0 0 0
591 197 1 0.5897 -4.984781999053329 0.2859919038755361 14.296882140493759 1 0 0
593 198 1 0.5897 -7.529850412387712 0.6743251412407645 14.310270173564213 1 0 0
547 183 2 -1.1794 -3.7150230910300905 5.05408637968023 16.781386710683456 0 0 0
581 194 1 0.5897 -2.649325043967038 2.05920600966561 14.983520271629128 0 0 0
603 201 1 0.5897 -6.826487039122556 4.170737309339553 18.941854901775258 1 0 0
630 210 1 0.5897 -8.239998932018782 1.7296328420341784 16.165888675892113 1 0 0
582 194 1 0.5897 -1.7678287569771403 3.255820998789442 14.695555342657045 0 0 0
563 188 1 0.5897 -1.043232756042924 5.3034339362333895 15.349038471990244 0 0 0
639 213 1 0.5897 -5.942862641155839 4.053472225172233 15.177636924270137 1 0 0
20 7 1 0.5897 -5.556197365131914 2.2128092380476616 18.35874042557669 0 0 -1
538 180 2 -1.1794 -3.14454860316539 1.2503941491844532 16.442339576521988 0 0 0
539 180 1 0.5897 -2.8568547090607606 1.8433261552062572 17.136606436790174 0 0 0
165 55 1 0.5897 -9.381843693518757 0.7267576330293242 18.689543866868547 1 0 -1
540 180 1 0.5897 -4.026941783549191 0.9862139024978818 16.702759515752696 0 0 0
638 213 1 0.5897 -6.337670883508482 2.9563342553948515 16.143114431108735 1 0 0
549 183 1 0.5897 -4.350560209247002 4.384327175268582 16.52885039084113 0 0 0
562 188 2 -1.1794 -1.174279199015297 4.524974708372916 15.890348081128707 0 0 0
629 210 1 0.5897 -8.607565135096507 3.1115616687834735 16.663331082913793 1 0 0
564 188 1 0.5897 -2.009838538922083 4.677578682699388 16.331774352080558 0 0 0
637 213 2 -1.1794 -5.596660993030653 3.2876860345343015 15.635851929138791 1 0 0
164 55 1 0.5897 -8.379260203828231 1.8367950425868922 18.456123582949395 1 0 -1
628 210 2 -1.1794 -7.9703375344462115 2.4077373242194127 16.785404162452814 1 0 0
590 197 1 0.5897 -5.473721574561019 1.6648268152941628 14.686800211623535 1 0 0
601 201 2 -1.1794 -7.554536901037377 4.789823044922945 18.99689768867721 1 0 0
571 191 2 -1.1794 -5.512810999403546 0.5109454424040991 17.610892200092728 0 0 0
508 170 2 -1.1794 0.6208380257341553 1.171084707887845 14.508206773558557 0 0 0
19 7 2 -1.1794 -5.349759608280592 3.010745342870575 18.845604639102447 0 0 -1
548 183 1 0.5897 -3.8041624181422407 5.733577420194181 16.113161935305165 0 0 0
661 221 2 -1.1794 -7.0193247431134855 5.4378954132659825 14.436411286498391 1 0 0
528 176 1 0.5897 -3.5511971400075852 2.936863279732388 18.690445734660614 0 0 0
84 28 1 0.5897 -3.9022697559441495 5.759573678040728 18.53534706248417 0 0 -1
526 176 2 -1.1794 -2.6131568082838488 2.760912027169404 18.616862977089866 0 0 0
18 6 1 0.5897 -1.6457860457052256 4.20986312783263 19.076465213021947 0 0 -1
289 97 2 -1.1794 -2.5928123808357313 10.00591488101372 2.649690308541964 1 0 0
255 85 1 0.5897 -2.5472346819586225 8.917355176977805 4.107717198421091 1 0 0
146 49 1 0.5897 -1.2606374510303229 6.607265560088945 2.1460941958070303 1 0 0
147 49 1 0.5897 -0.8978381378396176 7.483306366517717 0.9659994957749743 1 0 0
332 111 1 0.5897 -2.2846954856361466 9.257672338580132 1.0448686546925463 1 0 0
145 49 2 -1.1794 -0.5424055159419661 6.810737137439027 1.5469553655246797 1 0 0
112 38 2 -1.1794 -3.1166979388302396 6.407241349165845 2.5315756468483213 1 0 0
291 97 1 0.5897 -3.476886449771067 10.35312591511315 2.768742725917291 1 0 0
290 97 1 0.5897 -2.0198902412595086 10.764276045790517 2.7633082780929996 1 0 0
188 63 1 0.5897 0.6974459265126511 9.839607226134504 1.2987970264643671 0 0 0
200 67 1 0.5897 0.5281972657816842 7.914600482834366 2.4443602656510395 0 0 0
113 38 1 0.5897 -3.2248303755265564 6.030142865734962 3.4046669873796604 1 0 0
221 74 1 0.5897 4.160799354538124 10.497365749147042 3.0454904928187525 0 0 0
694 232 2 -1.1794 3.611557760942742 10.111446979407107 0.34851192587433566 0 0 1
12 4 1 0.5897 1.0314779566130259 6.50569116079781 4.6285068349255205 0 0 0
199 67 2 -1.1794 1.0665817719401822 8.658561065163916 2.7144495498791237 0 0 0
9 3 1 0.5897 -0.8583510570557467 5.687587462563336 4.428363826517244 0 0 0
220 74 2 -1.1794 3.436660904975004 10.720517578118562 3.6304171378705328 0 0 0
245 82 1 0.5897 0.5892530345464473 9.381497663867975 4.385120235224053 0 0 0
189 63 1 0.5897 1.813235576723688 10.34080359869325 0.4068089321075998 0 0 0
239 80 1 0.5897 3.7708387611105234 8.618233676037994 1.348759126814675 0 0 0
240 80 1 0.5897 3.275119670426629 7.189308678473817 1.2821692980447805 0 0 0
187 63 2 -1.1794 0.8600391995658883 10.271289053018371 0.46011207632870293 0 0 0
238 80 2 -1.1794 3.614450965655033 7.845261571790937 1.8911962892314564 0 0 0
201 67 1 0.5897 1.9676223123167356 8.34954833054776 2.619854579909314 0 0 0
174 58 1 0.5897 3.2542303639647816 9.175888744033177 4.622280848723171 0 0 0
10 4 2 -1.1794 1.9542070878731392 6.286005655036242 4.499623492520437 0 0 0
224 75 1 0.5897 -0.517233724071958 11.256645137670708 4.056171880501518 0 0 0
696 232 1 0.5897 4.1661281533156105 10.888615742650126 0.4171773208769517 0 0 1
331 111 2 -1.1794 -1.9767954575251765 8.775161468231996 0.27756652132509285 1 0 0
114 38 1 0.5897 -3.3488720345468295 5.697202337540783 1.9329972722928455 1 0 0
222 74 1 0.5897 2.830084853396336 11.218449001438914 3.082353366838917 0 0 0
82 28 2 -1.1794 2.325360694647614 6.119114165417034 0.1339561780476963 0 0 0
191 64 1 0.5897 0.5593887246820466 9.845283069375368 8.902751780425186 0 0 0
8 3 1 0.5897 -0.6504837564205599 6.059304242897226 5.881180546182531 0 0 0
109 37 2 -1.1794 -4.178870892867999 6.448514341430565 7.199049886532488 1 0 0
111 37 1 0.5897 -5.100295188755462 6.680223177795922 7.315646938441296 1 0 0
293 98 1 0.5897 -4.1595979614716 10.64516150842554 7.08808298378936 1 0 0
66 22 1 0.5897 3.047473961407679 6.750089701906501 7.543625813496221 0 0 0
292 98 2 -1.1794 -5.08125274740758 10.450970507502044 7.258610678788947 1 0 0
172 58 2 -1.1794 3.479952508020302 8.45031098335107 5.204349026486286 0 0 0
246 82 1 0.5897 0.19589040033160598 9.503942556503752 5.841923071906395 0 0 0
294 98 1 0.5897 -5.078701187650518 9.995227343484363 8.100314193129568 1 0 0
837 279 1 0.5897 -5.987345003519543 8.519680232134185 8.989549337011542 1 0 0
64 22 2 -1.1794 2.1841715292925485 6.880751684554354 7.935959158437453 0 0 0
110 37 1 0.5897 -4.1328996288865 6.08457163946537 6.314875070241223 1 0 0
202 68 2 -1.1794 0.323254086578753 8.74510645879472 7.439644335671468 0 0 0
203 68 1 0.5897 -0.5084320994709253 8.404991077769107 7.769548838104419 0 0 0
204 68 1 0.5897 0.9086689242100574 7.987715413024889 7.438161709560628 0 0 0
588 196 1 0.5897 -1.1202421363846042 6.673877544551272 9.31786050907434 0 0 0
235 79 2 -1.1794 -2.0293337309398383 7.8959627262603 8.317092982073067 0 0 0
236 79 1 0.5897 -2.8261865137127034 7.546888991597627 7.91779584088296 0 0 0
237 79 1 0.5897 -2.3287201879255797 8.640456414316423 8.839101321831821 0 0 0
302 101 1 0.5897 -2.207468050501232 9.971975792867635 6.08148212082373 1 0 0
301 101 2 -1.1794 -2.4750376934086815 10.83695872803875 6.392291351599228 1 0 0
173 58 1 0.5897 2.8874248087455054 7.743628388401114 4.9478604626943765 0 0 0
303 101 1 0.5897 -1.6859868747545064 11.203107734994662 6.791784970900812 1 0 0
65 22 1 0.5897 2.3346076531297904 7.507033826035011 8.644126875834946 0 0 0
253 85 2 -1.1794 -2.618137230753902 8.44647377659533 4.938024439862041 1 0 0
7 3 2 -1.1794 -0.735506067446043 6.440115677776806 5.007140486895536 0 0 0
228 76 1 0.5897 1.6345657044484216 11.085768036561308 5.874757588447769 0 0 0
11 4 1 0.5897 2.159977405509566 5.684571841648935 5.215258337545019 0 0 0
835 279 2 -1.1794 -5.517404903433704 9.122280619012855 9.56604333691786 1 0 0
257 86 1 0.5897 -4.501924646516372 8.635319185555993 5.009677510069558 1 0 0
254 85 1 0.5897 -1.9358345999281528 7.77655855605107 4.8929979942958095 1 0 0
244 82 2 -1.1794 0.3099749410798296 10.018458596423683 5.04290473331371 0 0 0
617 206 1 0.5897 -7.154613105232827 7.289869332539093 11.725412254817222 1 0 0
794 265 1 0.5897 -5.446278338208737 10.784276814654804 12.283695503474583 1 0 0
513 171 1 0.5897 -4.037087764270349 6.100361821345268 14.066869884049861 0 0 0
750 250 1 0.5897 -3.3951470315215726 10.795504644032068 14.110284787455114 0 0 0
742 248 2 -1.1794 0.4758747919260502 8.111716899500806 11.43568087295589 0 0 0
724 242 2 -1.1794 0.5523860061840145 10.961005572971922 12.93250517123452 0 0 0
616 206 2 -1.1794 -6.506193850345602 6.621445156231162 11.946936183413523 1 0 0
693 231 1 0.5897 -2.5370894094353065 9.831409096568665 10.702230941142565 0 0 0
649 217 2 -1.1794 -3.961609748426898 7.237471890969026 10.978888072623228 1 0 0
650 217 1 0.5897 -3.298035306016279 7.528557666424098 11.604337266579577 1 0 0
651 217 1 0.5897 -4.740397514378731 7.078017856508692 11.512087326112106 1 0 0
795 265 1 0.5897 -5.864815851452756 9.880159137317593 11.143707639863246 1 0 0
744 248 1 0.5897 0.28459401480558055 7.428696140912886 10.79283488938228 0 0 0
793 265 2 -1.1794 -6.060104188387765 10.085285546661613 12.058086111500412 1 0 0
618 206 1 0.5897 -6.638016088240146 5.933523121465648 11.294439243821074 1 0 0
759 253 1 0.5897 -5.897299691995395 9.01617680808568 13.532706408241348 1 0 0
703 235 2 -1.1794 -2.108385819478915 8.849660071819525 12.238892865516652 0 0 0
704 235 1 0.5897 -1.2060387109677775 8.534540415975336 12.1861680628198 0 0 0
705 235 1 0.5897 -2.12536652264087 9.39914761262992 13.022563194395815 0 0 0
743 248 1 0.5897 0.47063303822283853 8.924849161817225 10.930711273173559 0 0 0
678 226 1 0.5897 0.2458139732634539 9.66598832958476 14.168892492745686 0 0 0
836 279 1 0.5897 -4.830658015743421 8.58719832938586 9.963964250786328 1 0 0
192 64 1 0.5897 0.8116426218354666 11.072656748637373 9.752541698383396 0 0 0
586 196 2 -1.1794 -0.4412387313769246 6.117761658947019 9.699912665239054 0 0 0
691 231 2 -1.1794 -2.4504258136558215 10.146890348189094 9.80270345043343 0 0 0
663 221 1 0.5897 -6.738375372198206 5.987974083759724 13.70521437187299 1 0 0
514 172 2 -1.1794 -1.1215488225369965 6.6148251889040575 14.130200048296777 0 0 0
515 172 1 0.5897 -2.0131420836298854 6.908073970565936 14.318294119656755 0 0 0
516 172 1 0.5897 -0.5705103245406447 7.366029470893868 14.350036612239776 0 0 0
190 64 2 -1.1794 0.32499307390345633 10.248502391046586 9.738707776244354 0 0 0
692 231 1 0.5897 -1.5222144584014474 10.36257252602784 9.712433189451405 0 0 0
797 266 1 0.5897 -7.240329636238416 10.888890199236336 16.820333606072083 1 0 0
695 232 1 0.5897 -2.987947571173555 10.096713290631302 18.46658319237755 0 0 0
741 247 1 0.5897 -5.8910720337449956 8.99267765066122 18.315939726227924 0 0 0
613 205 2 -1.1794 -7.650187058060243 6.6517506023371205 16.85258587872959 1 0 0
740 247 1 0.5897 -6.3469962281542625 7.813726966662459 17.4826469050139 0 0 0
568 190 2 -1.1794 -1.2902701267917163 7.3632487390525 17.664673311351272 0 0 0
333 111 1 0.5897 -8.442286990511025 9.67310788004457 18.665203037022316 1 0 -1
748 250 2 -1.1794 -2.6844227634684854 10.24918603660763 14.445988572744529 0 0 0
758 253 1 0.5897 -5.705196708222726 9.497700632732869 14.955143325268146 1 0 0
615 205 1 0.5897 -7.418935237699383 6.241931065714091 16.018967925171438 1 0 0
569 190 1 0.5897 -1.5706087234939305 6.6213760261291865 18.20059739983592 0 0 0
749 250 1 0.5897 -3.0326530699088314 9.872254038681149 15.253968569902161 0 0 0
798 266 1 0.5897 -8.375848360049602 9.938322827166962 16.50572837539844 1 0 0
511 171 2 -1.1794 -3.7943515058656105 6.797220882774214 14.676641733685889 0 0 0
796 266 2 -1.1794 -8.111426549808003 10.625702476720274 17.1172367720662 1 0 0
706 236 2 -1.1794 -3.139468995370139 9.256588114401168 16.88324446423971 0 0 0
707 236 1 0.5897 -4.002535976073211 8.859931568466338 17.001565082823177 0 0 0
708 236 1 0.5897 -2.5234365211147125 8.537829269200339 17.025431393935584 0 0 0
739 247 2 -1.1794 -5.560499855841856 8.267240404526174 17.785973118360324 0 0 0
83 28 1 0.5897 -4.743501852783513 7.012719538930028 18.654454791694192 0 0 -1
570 190 1 0.5897 -0.44541618950061324 7.09338826047975 17.304504014797892 0 0 0
805 269 2 -1.1794 -5.653965755705972 10.990986649775246 15.875114051308648 1 0 0
762 254 1 0.5897 -7.699505334001962 8.707861628688237 14.877330571273967 1 0 0
512 171 1 0.5897 -4.546352863478743 7.389536198422985 14.675965324299469 0 0 0
614 205 1 0.5897 -7.6660831501184745 5.928424138463209 17.479268423264784 1 0 0
807 269 1 0.5897 -5.016780891681048 11.441175598264786 16.429728496655514 1 0 0
676 226 2 -1.1794 0.28668221045847897 8.92620010963089 14.774894130406267 0 0 0
757 253 2 -1.1794 -5.8564390411584295 8.706745953724564 14.43756895805637 1 0 0
280 94 2 -1.1794 -3.6024908382492984 13.944930102421415 2.604686636840896 1 0 0
281 94 1 0.5897 -3.6511881710894545 13.599885784834262 3.4961816351166775 1 0 0
282 94 1 0.5897 -2.7479485978473424 14.373843851442683 2.5597452786317105 1 0 0
500 167 1 0.5897 -1.9976940515429267 15.907805624649207 0.6053080610040685 1 0 0
367 123 2 -1.1794 0.9708107006032822 16.611623087619858 2.6328806590324265 0 0 0
770 257 1 0.5897 -1.4850841803339567 12.364133724720274 0.14289478538468792 1 0 1
313 105 2 -1.1794 -1.050885981624782 14.889544775781491 1.7675345574328916 1 0 0
315 105 1 0.5897 -0.7231500876877326 14.149521514437234 1.2563209714875816 1 0 0
180 60 1 0.5897 1.8530967200902708 13.651305040549126 4.084104260629005 0 0 0
223 75 2 -1.1794 -0.8160183545208799 11.898001257028655 3.4114991486045247 0 0 0
225 75 1 0.5897 -1.0782766894795284 12.657344881134634 3.9320828862432755 0 0 0
314 105 1 0.5897 -0.26245338160986575 15.340471607130281 2.069682324757747 1 0 0
369 123 1 0.5897 0.7958342590618543 16.9402407957906 3.514766976436069 0 0 0
423 141 1 0.5897 -2.8561598974683093 16.69191829896542 4.089269473598893 1 0 0
216 72 1 0.5897 0.8466274430025491 12.397531448184173 2.7443688760980063 0 0 0
368 123 1 0.5897 1.9093501223289202 16.42341495268536 2.62868178851501 0 0 0
406 136 2 -1.1794 3.5551362726104223 15.74993994220389 2.1568511798319956 0 0 0
407 136 1 0.5897 4.322114476819659 15.321117432721508 2.5364889716307193 0 0 0
215 72 1 0.5897 1.8136904547202484 12.924766778924177 1.7058039286306215 0 0 0
252 84 1 0.5897 2.8030232616552517 14.572236529016719 1.0043382750192107 0 0 0
408 136 1 0.5897 3.916618075336527 16.38285015907584 1.5364341418924912 0 0 0
214 72 2 -1.1794 1.7796296958126705 12.531984396571863 2.578012543986569 0 0 0
269 90 1 0.5897 -3.519482584816213 12.832314163772194 1.164063281290961 1 0 0
184 62 2 -1.1794 5.1106117882508215 12.4044853226479 0.5561851656815373 0 0 0
771 257 1 0.5897 -0.08760492452415436 11.783244886376812 0.18443076651354606 1 0 1
499 167 2 -1.1794 -2.6785852164099144 16.456617579859845 0.21615359384176958 1 0 0
268 90 2 -1.1794 -3.296578861362914 12.362068861134436 0.3606065161620968 1 0 0
250 84 2 -1.1794 2.3721865703790312 13.9882192941071 0.3801372581222942 0 0 0
404 135 1 0.5897 -1.947515360902992 15.881742335574236 7.831547370261018 0 0 0
326 109 1 0.5897 -3.395955762709181 12.068009779904678 5.467030740494102 1 0 0
265 89 2 -1.1794 -4.039226303989688 12.584488639558218 9.492792507577901 1 0 0
327 109 1 0.5897 -4.286589629084975 13.258009565605304 5.755028865405142 1 0 0
405 135 1 0.5897 -2.9231144510232103 16.432975727875938 8.849650429527566 0 0 0
211 71 2 -1.1794 -0.5585272228458469 12.415837992626114 7.514964863725569 0 0 0
227 76 1 0.5897 1.35015245142466 11.936683503513684 7.094309897175223 0 0 0
213 71 1 0.5897 -0.8010471257180454 13.047214064291959 6.837654995748188 0 0 0
212 71 1 0.5897 -0.8153147055015184 12.834760226832946 8.336499391595648 0 0 0
756 252 1 0.5897 -1.9012686049953027 14.501781980859999 9.244787138348718 0 0 0
232 78 2 -1.1794 1.7064654215182706 14.723259508280291 8.303341681958775 0 0 0
340 114 2 -1.1794 3.105793062078077 16.38665182873576 5.246793992612841 0 0 0
234 78 1 0.5897 1.072211943381749 15.205023594166095 7.772416556661276 0 0 0
370 124 2 -1.1794 -0.33005828383009117 16.29919718821272 7.305684437683778 0 0 0
179 60 1 0.5897 1.903130037434205 13.212942511022595 5.532259083438954 0 0 0
277 93 2 -1.1794 -4.72062210920955 14.062542358911424 7.259578538175025 1 0 0
278 93 1 0.5897 -4.122428802238625 14.733766023079657 7.588054049195422 1 0 0
175 59 2 -1.1794 -1.0406297183978985 13.93382919383712 5.226150255940436 0 0 0
1004 335 1 0.5897 -5.448837055063169 16.76350688549188 9.093090992264637 1 0 0
403 135 2 -1.1794 -2.7717832622716925 15.682169805283497 8.27537779340059 0 0 0
422 141 1 0.5897 -2.621293856950754 16.919480918842243 5.567465576833779 1 0 0
267 89 1 0.5897 -4.12337981989159 12.887602703710366 8.588779940533335 1 0 0
279 93 1 0.5897 -5.570461426140241 14.29448000381046 7.6341379270433425 1 0 0
176 59 1 0.5897 -1.5369562386918632 14.751124716208531 5.181075235049092 0 0 0
226 76 2 -1.1794 2.0544624302364918 11.675649256872065 6.500898723632834 0 0 0
690 230 1 0.5897 1.5745066954391795 13.116347167071881 9.285812773347974 0 0 0
233 78 1 0.5897 2.4577870124195096 14.596790499143138 7.723846334527133 0 0 0
341 114 1 0.5897 2.591822773165971 15.58597577977857 5.14184423429062 0 0 0
178 60 2 -1.1794 1.712941155495928 13.968563394025072 4.976309964973582 0 0 0
177 59 1 0.5897 -0.12893612999439785 14.199744886959722 5.106448656623786 0 0 0
372 124 1 0.5897 -0.10477848574624193 16.762362189009966 6.498904440162868 0 0 0
425 142 1 0.5897 -4.61351095259023 16.074717341359992 4.988263428407036 1 0 0
266 89 1 0.5897 -3.4635083224304 11.821697985535534 9.437504776530785 1 0 0
371 124 1 0.5897 -0.2134497620992284 16.950867794412314 7.9971268208375825 0 0 0
421 141 2 -1.1794 -2.7262689508902658 16.22645116713546 4.915500409059309 1 0 0
462 154 1 0.5897 -5.498901343209575 16.97904141171764 6.735537305827034 1 0 0
325 109 2 -1.1794 -4.019037127058676 12.665026378010147 5.052764286786922 1 0 0
785 262 1 0.5897 -7.296012880169588 14.529160626923813 11.830977387102081 1 0 0
728 243 1 0.5897 -3.3686215746773795 12.069254960768852 12.416117564743502 0 0 0
755 252 1 0.5897 -0.723066388770881 14.590702034080918 10.191309235146042 0 0 0
718 240 2 -1.1794 -1.6080403650840251 12.443721614922014 11.939164902400494 0 0 0
912 304 1 0.5897 0.861987057920353 15.455088898717053 11.590837453096364 0 0 0
720 240 1 0.5897 -1.4675579618853938 13.150845747515408 12.568933797556278 0 0 0
773 258 1 0.5897 -6.789456254969807 12.688240346524143 10.687277734113625 1 0 0
871 291 2 -1.1794 -2.2116562067582333 16.63218264974043 12.205423508291213 0 0 0
831 277 1 0.5897 -7.737433648003708 12.235368761792582 13.963435073680978 1 0 0
784 262 2 -1.1794 -6.639779108810339 13.84840004190062 11.980136915190357 1 0 0
729 243 1 0.5897 -4.3174740268906495 12.67016976088525 13.431386936043568 0 0 0
911 304 1 0.5897 -0.47867600419814593 16.140103835708942 11.750622160665406 0 0 0
910 304 2 -1.1794 0.19984483788302754 15.945785153147728 11.10396647874988 0 0 0
1005 335 1 0.5897 -4.980164601262328 15.887202819976133 10.235134904325646 1 0 0
727 243 2 -1.1794 -4.189689397056762 11.899598893538462 12.877957400210779 0 0 0
719 240 1 0.5897 -1.4965593975285336 12.858496963724257 11.08376376573616 0 0 0
786 262 1 0.5897 -6.790578268318017 13.563119696607965 12.881287467255854 1 0 0
817 273 2 -1.1794 -4.033615008831042 14.725931254514347 11.311069680584028 1 0 0
818 273 1 0.5897 -4.87221200532112 14.524683216285267 11.726383490872307 1 0 0
819 273 1 0.5897 -3.8696387308050637 13.9836532644706 10.729233893477575 1 0 0
873 291 1 0.5897 -2.797021564104618 15.885260570762837 12.08011052355058 0 0 0
682 228 2 -1.1794 -1.187373046718844 14.20300647379439 14.11378999252305 0 0 0
925 309 2 -1.1794 -5.796316004695219 15.961487567574597 14.182538405090428 1 0 0
688 230 2 -1.1794 1.8134327447056968 12.423044423746903 9.900994438847311 0 0 0
1003 335 2 -1.1794 -5.74501573081192 16.362164430698336 9.910025207072032 1 0 0
774 258 1 0.5897 -5.867007679333355 12.14081668711365 9.618826927408742 1 0 0
726 242 1 0.5897 -0.20716128491558017 11.436916339358586 12.59652674908952 0 0 0
962 321 1 0.5897 -6.280048564817421 17.010360718086925 12.724691636045351 1 0 0
829 277 2 -1.1794 -7.073113989294683 12.78734012478637 14.376091930988085 1 0 0
754 252 2 -1.1794 -1.2629768718370613 13.962434204733011 9.711642386857863 0 0 0
737 246 1 0.5897 -1.1830241250343896 15.350768941580636 18.3844967495112 0 0 0
683 228 1 0.5897 -0.9892986893712692 13.52450197148356 14.759237341668003 0 0 0
717 239 1 0.5897 -2.9104522348835236 12.480317013030554 16.97341729066399 0 0 0
783 261 1 0.5897 -8.617699613546826 14.460599102255387 16.865796830643703 1 0 0
185 62 1 0.5897 -1.6577610081244671 13.22051739060035 18.862701832724454 0 0 -1
681 227 1 0.5897 -3.838340171691132 13.770965549757845 15.619272923077169 0 0 0
830 277 1 0.5897 -7.533593318152666 13.220448861519912 15.09493576625903 1 0 0
251 84 1 0.5897 -4.864877403443763 14.776396187192075 18.945207085264805 0 0 -1
715 239 2 -1.1794 -3.8177532073886375 12.697292677419872 17.187954007437277 0 0 0
716 239 1 0.5897 -3.7536589970439698 13.26470629310728 17.956260494650586 0 0 0
874 292 2 -1.1794 -3.495904423470936 16.331649225268077 17.04659316571722 0 0 0
907 303 2 -1.1794 -5.983116271134324 15.882799378399836 17.952826535566643 0 0 0
875 292 1 0.5897 -3.2593988956471636 16.74540468959122 16.216502679665176 0 0 0
876 292 1 0.5897 -2.755554348933539 15.759651785948114 17.24911394717278 0 0 0
736 246 2 -1.1794 -1.4190259495691278 14.704880577453174 17.718551908462914 0 0 0
909 303 1 0.5897 -5.225826569351878 16.02776240639589 17.385613568965255 0 0 0
781 261 2 -1.1794 -7.768476398223129 14.04546710823416 16.714725256854102 1 0 0
782 261 1 0.5897 -7.596324467460728 13.552338167255613 17.516822859763515 1 0 0
730 244 2 -1.1794 -1.4271056857026831 12.09389108174345 15.955471059511673 0 0 0
908 303 1 0.5897 -6.50565825202846 15.226182683310395 17.492275024301534 0 0 0
732 244 1 0.5897 -0.7716666868229369 11.579623966839597 16.426847217482354 0 0 0
501 167 1 0.5897 -8.899757524839 17.05566955367577 18.48299127587675 1 0 -1
927 309 1 0.5897 -5.593973709729989 16.71184411409514 14.74144405592373 1 0 0
738 246 1 0.5897 -0.5945259759818917 14.504890998864877 17.275249310117225 0 0 0
806 269 1 0.5897 -6.011875549266184 11.678794485321518 15.313824694635262 1 0 0
679 227 2 -1.1794 -3.867044397969744 14.058969187273266 14.706900574776109 0 0 0