#include		in.partitions
include		in.temp
variable        temperature equal 116.47
variable	tempDamp equal 100.0
include		in.pressure
variable        pressure equal 6988.3
variable        pressureDamp equal 1000.0 # This is 1 ps
include		in.seed
variable        seed equal 745823

units		real
atom_style	full

read_restart	restart.lmp.${pid}
read_restart	restart.lmp.1
Reading restart file ...
  restart file = 30 Jul 2021, LAMMPS = 30 Jul 2021
  restoring atom style full from restart
  orthogonal box = (0.12727799 0.053803635 0.15377294) to (19.872723 19.946197 20.546225)
  2 by 4 by 4 MPI processor grid
  restoring pair style lj/cut/tip4p/long/omp from restart
  restoring bond style harmonic/omp from restart
  restoring angle style harmonic/omp from restart
  972 atoms
  648 bonds
  324 angles
Finding 1-2 1-3 1-4 neighbors ...
  special bond factors lj:    0        0        0       
  special bond factors coul:  0        0        0       
     2 = max # of 1-2 neighbors
     1 = max # of 1-3 neighbors
     1 = max # of 1-4 neighbors
     2 = max # of special neighbors
  special bonds CPU = 0.002 seconds
  read_restart CPU = 0.008 seconds
include 	in.setup
variable	out_freq equal 1000
variable	out_freq2 equal 10000
variable	out_freq3 equal 1000

timestep	2.0

neigh_modify    delay 7 every 1

include		in.tip4p
# This is TIP4P/Ice

# create groups ###
group ox type 2
324 atoms in group ox
group hy type 1
648 atoms in group hy

# set charges - beside manually ###
set group ox charge -1.1794
Setting atom values ...
  324 settings made for charge
set group hy charge 0.5897
Setting atom values ...
  648 settings made for charge

# ### TIP3P Potential Parameters ###
pair_style lj/cut/tip4p/long/omp 2 1 1 1 0.1577 8.5
pair_coeff 1 1*2 0.000 0.000
pair_coeff 2 2 0.21084 3.1668
bond_style  harmonic
bond_coeff  1 450 0.9572
angle_style harmonic
angle_coeff 1 55 104.52
kspace_style pppm/tip4p/omp 1.0e-5
pair_modify tail yes

thermo          ${out_freq}
thermo          1000
thermo_style    custom step temp pe etotal epair emol press lx ly lz vol pxx pyy pzz pxy pxz pyz enthalpy

restart 	${out_freq3} restart.lmp.${pid} restart2.lmp.${pid}
restart 	1000 restart.lmp.${pid} restart2.lmp.${pid}
restart 	1000 restart.lmp.1 restart2.lmp.${pid}
restart 	1000 restart.lmp.1 restart2.lmp.1


include         in.dump
dump            myDump all atom ${out_freq2} dump.water.${pid}
dump            myDump all atom 10000 dump.water.${pid}
dump            myDump all atom 10000 dump.water.1
dump            myDump2 all dcd ${out_freq2} dump.dcd
dump            myDump2 all dcd 10000 dump.dcd
dump_modify     myDump append yes
dump_modify     myDump2 append yes


variable natoms 	equal  "count(all)"                        # NUMBER ATOMS
variable H      	equal  "enthalpy/v_natoms"                 # ENTHALPY-per-atom
variable Vol      	equal  "vol/v_natoms"                 # volume-per-atom
fix AVG all 		ave/time ${out_freq} 1 ${out_freq} v_Vol v_H file vol_enthalpy.dat
fix AVG all 		ave/time 1000 1 ${out_freq} v_Vol v_H file vol_enthalpy.dat
fix AVG all 		ave/time 1000 1 1000 v_Vol v_H file vol_enthalpy.dat


timer           timeout 02:55:00 every 1000
New timer settings: style=normal  mode=nosync  timeout=02:55:00

fix 		1 all shake 1e-6 200 0 b 1 a 1
       0 = # of size 2 clusters
       0 = # of size 3 clusters
       0 = # of size 4 clusters
     324 = # of frozen angles
  find clusters CPU = 0.000 seconds
fix             2 all nph aniso ${pressure} ${pressure} ${pressureDamp}
fix             2 all nph aniso 6988.3 ${pressure} ${pressureDamp}
fix             2 all nph aniso 6988.3 6988.3 ${pressureDamp}
fix             2 all nph aniso 6988.3 6988.3 1000
fix             3 all temp/csvr ${temperature} ${temperature} ${tempDamp} ${seed}
fix             3 all temp/csvr 116.47 ${temperature} ${tempDamp} ${seed}
fix             3 all temp/csvr 116.47 116.47 ${tempDamp} ${seed}
fix             3 all temp/csvr 116.47 116.47 100 ${seed}
fix             3 all temp/csvr 116.47 116.47 100 745823


run             250000
PPPM initialization ...
  extracting TIP4P info from pair style
  using 12-bit tables for long-range coulomb (../kspace.cpp:340)
  G vector (1/distance) = 0.3722768
  grid = 24 24 24
  stencil order = 5
  estimated absolute RMS force accuracy = 0.0034969483
  estimated relative force accuracy = 1.0530956e-05
  using double precision FFTW3
  3d grid and FFT values/proc = 3211 432
Last active /omp style is kspace_style pppm/tip4p/omp
Neighbor list info ...
  update every 1 steps, delay 7 steps, check yes
  max neighbors/atom: 2000, page size: 100000
  master list distance cutoff = 10.8154
  ghost atom cutoff = 10.8154
  binsize = 5.4077, bins = 4 4 4
  1 neighbor lists, perpetual/occasional/extra = 1 0 0
  (1) pair lj/cut/tip4p/long/omp, perpetual
      attributes: half, newton on, omp
      pair build: half/bin/newton/omp
      stencil: half/bin/3d
      bin: standard
Per MPI rank memory allocation (min/avg/max) = 10.19 | 10.19 | 10.19 Mbytes
Step Temp PotEng TotEng E_pair E_mol Press Lx Ly Lz Volume Pxx Pyy Pzz Pxy Pxz Pyz Enthalpy 
29000000    119.82385   -4989.6833   -4758.5929   -4989.6833            0    7441.1746    19.745445    19.892394    20.392452    8009.8323    8754.5381    7096.6712    6472.3145   -109.56273    1137.0997   -729.76768   -3889.3507 
29001000    116.30968   -5012.0225   -4787.7095   -5012.0225            0      7822.93     19.87628    19.757539    20.374968      8001.38    8541.3398    7078.8383    7848.6117    167.30634    891.30216   -718.23844   -3874.8368 
29002000    120.18061   -5014.6641   -4782.8857   -5014.6641            0    7499.9966    19.731131    19.880864    20.368074    7989.8238     8318.995    6259.7092    7921.2855   -580.02407    -244.4619    182.80001   -3908.9607 
29003000    110.63655   -5006.6256   -4793.2537   -5006.6256            0    5541.7287    19.721125    19.840718    20.577285    8051.5066    5022.8933    6248.7358    5353.5571    -105.3698    693.81993    965.98107   -4142.5275 
29004000    114.95297    -5024.704   -4803.0075    -5024.704            0    6070.6023    19.812975     19.86022    20.362507    8012.4437    6248.1703     6075.381    5888.2557   -11.088149   -452.61476   -337.12687   -4093.6377 
29005000    116.25796   -5013.0626   -4788.8494   -5013.0626            0     6543.379     19.90111    19.854792    20.375379    8050.9723    5993.8114    7379.0308    6257.2947   -39.172391    558.75839   -96.504756   -4020.5574 
29006000    118.43572   -5001.5713    -4773.158   -5001.5713            0    7303.5392    19.893753    19.691109    20.415547    7997.3831    6469.6349     7709.572    7731.4108    -167.9928    252.19325   -181.61011   -3921.3197 
29007000    115.13414   -5006.2278    -4784.182   -5006.2278            0    5967.2721    19.803138    19.799344    20.382185    7991.6332    4782.1791    6485.3014    6634.3358    32.392095    1400.9059   -147.59017   -4088.6978 
29008000    115.18856   -5004.8888    -4782.738   -5004.8888            0    6525.4609    19.661883    19.902119    20.461578    8006.8842    6855.1275     6126.765    6594.4903   -157.69658   -323.41389   -601.96887   -4020.7456 
29009000    122.23625   -5005.4561   -4769.7132   -5005.4561            0    7874.3909    19.754397    19.891765    20.320571    7984.9648    8769.8547    7329.8998    7523.4181   -51.284824   -475.31326    358.31832   -3852.7206 
29010000    114.51466   -5000.1796   -4779.3285   -5000.1796            0    6963.9554    19.735727    19.879612    20.406957    8006.4369     9211.687    6082.6907    5597.4885   -99.007893    681.72339    556.85893   -3966.1776 
29011000    117.41851   -5013.5075   -4787.0561   -5013.5075            0    6659.0549    19.709047    19.803978    20.451246    7982.4798    6047.6857    6787.7855    7141.6935   -405.66756   -167.83952    428.18615   -4011.8337 
29012000    122.79651   -5004.0165   -4767.1931   -5004.0165            0    6395.9711    19.729993    19.914499    20.485412    8048.9833    7253.7417    4262.5521    7671.6197   -618.15279    1092.9834   -305.80355   -4016.3946 
29013000    121.49882   -4999.5282   -4765.2076   -4999.5282            0    7036.9707    19.747597    19.645998    20.580988    7984.6257    7548.4433    7713.7478     5848.721   -149.28923    332.21877   -98.910341   -3945.7694 
29014000    116.61097   -5010.3235   -4785.4295   -5010.3235            0    7609.3778    19.596638    19.855313    20.452731    7958.1041    8742.2745     6842.806    7243.0528    285.55601   -347.07444    398.46391   -3902.2791 
29015000    115.35626   -5003.6604   -4781.1861   -5003.6604            0    8155.8024    19.737068     19.65764     20.43623     7928.934    9403.7508    6990.3174     8073.339    -250.4269    374.37681   -1003.5837   -3838.0869 
29016000    116.18106   -5011.3193   -4787.2543   -5011.3193            0    6227.6724    19.885157    19.812098     20.40828    8040.1825    5586.5829    6649.3613    6447.0729   -368.22269   -223.80096   -268.80866   -4057.0111 
29017000     117.4799   -5007.5321   -4780.9622   -5007.5321            0    7121.1235    19.610059    19.790956    20.491936    7952.9576    6225.8162    8378.3354    6759.2188   -553.21458   -532.35847   -792.12648   -3955.0136 
29018000    113.75128   -5016.5632   -4797.1843   -5016.5632            0    6608.1834    19.750165    19.602923    20.691325    8010.8731    6534.2989    7151.6424     6138.609   -122.38915   -1872.5252    729.99472   -4025.1478 
29019000    115.85906   -5009.0995   -4785.6556   -5009.0995            0     6235.568    19.628168    19.795931    20.556019    7987.2031    5724.4302    6514.2006    6468.0731   -241.36306   -245.29029    57.078077   -4059.3044 
29020000    113.52055    -4999.245    -4780.311    -4999.245            0    7888.2853    19.717319    19.727944    20.429619    7946.7573    7610.3063    8322.6026     7731.947     317.9729    517.91361    596.79116   -3866.0958 
29021000    117.17439   -5022.0937   -4796.1131   -5022.0937            0    7131.4936     19.61922    19.828159    20.511346    7979.1807    8674.2377    6121.5893     6598.654    160.57099   -148.18361    684.66261   -3966.2342 
29022000    119.78183   -5016.9993   -4785.9899   -5016.9993            0    6587.3597    19.814183     19.81365    20.422054    8017.5206    5534.8115    6186.1207    8041.1469    -167.0337   -955.09428    737.02502   -4015.7476 
29023000    118.72225   -5020.3193   -4791.3534   -5020.3193            0    7516.8744    19.763232    19.791687    20.315039    7946.1808      7164.66    8219.8538    7166.1095   -445.76528    169.99416    -296.3231   -3920.2462 
29024000    121.60384   -4996.5505   -4762.0272   -4996.5505            0    6427.5918    19.884292    19.826048    20.328025    8013.8549    5680.6006     6005.664    7596.5108   -7.3298077   -358.80385    609.91669   -4010.8098 
29025000    118.98408   -4999.8401   -4770.3693   -4999.8401            0    7557.5572    19.837806    19.773863    20.349314    7982.4266    7782.4631    7180.6846    7709.5238   -464.26492    439.99488    484.40445   -3890.5524 
29026000    120.88079   -5002.9885   -4769.8597   -5002.9885            0    7342.8156    19.662392    19.770439    20.463453    7954.8426    7313.3465    7324.2481     7390.852    305.45919    511.94338   -1065.2892    -3917.996 
29027000    121.35259   -5007.5805   -4773.5418   -5007.5805            0    5447.7105    19.782925    19.778366     20.62679    8070.7252    5311.4456    4866.6605    6165.0255    54.405974    1469.7909   -319.51762   -4132.3286 
29028000    111.70024   -5011.1333     -4795.71   -5011.1333            0    5942.4439    19.698155     19.78111    20.622408    8035.5495    5927.0682    5890.7054    6009.5579   -167.10374   -368.86719    224.49137   -4099.3135 
29029000    116.60439   -5006.7284    -4781.847   -5006.7284            0    6660.2381    19.872975    19.686171    20.434127    7994.2959    6853.8465    6010.8605    7116.0074   -143.51531   -257.62329   -354.37912   -4005.3391 
29030000    119.12937   -5010.4206   -4780.6696   -5010.4206            0    6406.5418    19.809133    19.835907    20.445314    8033.6205    4741.7545    7810.1681    6667.7029    -529.0385    953.71586   -396.94071   -4030.0656 
29031000    121.09582    -5007.042   -4773.4985    -5007.042            0    7320.1901    19.790439    19.902982    20.333619    8009.1838     7643.996    6474.4995    7842.0748    -504.4439    594.82479    18.851176   -3918.4584 
29032000    116.04576   -5003.1514   -4779.3473   -5003.1514            0    6084.9237    19.711543    19.889875    20.427728    8008.8974    6294.6287     5885.027    6075.1155   -119.87174   -245.42857   -376.89657   -4068.6188 
29033000    119.64139    -5014.443   -4783.7045    -5014.443            0    5710.7775    19.781947    19.807781    20.437027    8007.9724    5457.3044    5930.0279    5745.0002    67.386672      422.086   -855.68816   -4116.7539 
29034000    112.68371   -5008.8539   -4791.5339   -5008.8539            0    7500.0991    19.722742    19.889664    20.343464     7980.308    5894.7491    8872.1946    7733.3536   -311.90515   -1312.0483    114.67382   -3918.6379 
29035000    113.90845   -5019.5136   -4799.8315   -5019.5136            0    8055.6723    19.784046    19.769714    20.325339    7949.7469    7314.0398    8231.9999    8620.9771   -146.62151   -217.19176    43.064584   -3865.8657 
29036000    116.94165   -5022.0993   -4796.5675   -5022.0993            0    7473.5393    19.769287    19.855375    20.385468    8001.8386    8497.1412    7777.8982    6145.5787    25.840034    97.715042   -119.38643   -3924.4158 
29037000     119.1904   -5017.7594   -4787.8907   -5017.7594            0    6328.9693    19.845445    19.846535    20.368228    8022.2979    7712.2599    5359.9334    5914.7145    128.64999   -96.722179    1116.4569   -4047.4203 
29038000    117.57741   -5004.7326   -4777.9747   -5004.7326            0    6963.6286    19.795112    19.911937    20.368837    8028.5612    7799.2211    4569.7172    8521.9473    498.60694    1281.1692   -229.26815   -3962.6151 
29039000    113.52832    -5013.834    -4794.885    -5013.834            0    5915.2255    19.757926    19.981141    20.353227    8035.1672    7177.7841    3897.3161    6670.5763    170.76901   -459.99935    975.05484   -4101.7113 
29040000    113.33056   -5005.5457   -4786.9782   -5005.5457            0    6959.0089    19.795473    19.902692    20.308182    8001.0825    7698.1431    5325.7427    7853.1408   -364.81689   -457.33495   -360.06162   -3974.9483 
29041000    112.89631   -4997.3727   -4779.6426   -4997.3727            0    8453.3263    19.738388    19.869557    20.285778    7955.9406     8703.039    7504.0125    9152.9272   -595.24851   -514.61898   -561.52885   -3798.8097 
29042000    120.24133   -5018.5046   -4786.6091   -5018.5046            0    7143.0865    19.871052    19.819428    20.279977    7986.9217    6112.9217    7344.1176    7972.2201    323.47281   -323.10926   -228.46874   -3954.5748 
29043000    120.01038   -5008.5395   -4777.0894   -5008.5395            0    5666.1481    19.777756    19.869998    20.370836    8005.4122    6003.8247    5600.9242    5393.6953   -432.42547     785.4843   -439.24268   -4115.5625 
29044000     110.3529   -5009.0378    -4796.213   -5009.0378            0    7526.2343    19.819744    19.795834    20.323582    7973.9237    7091.6973    7404.4575    8082.5481    117.20648   -418.72149   -1031.1196   -3920.9759 
29045000     114.4445   -5019.6475   -4798.9316   -5019.6475            0    6891.3983    19.697527    19.862834    20.395309    7979.6384     6413.883    7352.9397    6907.3722   -98.130531    15.425591     456.4061   -3996.9463 
29046000    111.03486   -5008.5359   -4794.3959   -5008.5359            0    6417.6972    19.844029    19.823741    20.350541    8005.5546    6847.8692    5594.6059    6810.6165      154.539   -102.40149    227.70361   -4045.1117 
29047000    117.48553   -5017.7843   -4791.2035   -5017.7843            0    5459.9103    19.833522     19.88928    20.337237    8022.5204    4488.4743    5039.5771    6851.6796   -385.90829    740.86073    126.10564   -4152.3928 
29048000    114.21992   -5016.5879   -4796.3052   -5016.5879            0    7845.1713    19.851256    19.679271    20.380794    7961.9253    7031.8809    7849.2542    8654.3788    217.57251    1862.9222     712.5962   -3885.3512 
29049000    115.57175   -5002.5747   -4779.6849   -5002.5747            0    7207.3976    19.677051    19.845512    20.416789    7972.7796    7440.0298    6811.6701    7370.4929    -51.21446    105.28066   -780.38377   -3941.6461 
29050000    112.29169   -5013.1471   -4796.5831   -5013.1471            0    7239.5899    19.771769    19.964527    20.293224    8010.4259    8287.8693    6042.7932    7388.1073   -214.83473    791.32856   -613.19229   -3950.8264 
29051000    122.67783   -4992.7009   -4756.1064   -4992.7009            0    6466.4957    19.846038    19.752292    20.431835    8009.3757     5831.944    6854.2594    6713.2837   -109.76551    1534.1957    -873.5343   -4000.7645 
29052000    113.99729   -5009.6618   -4789.8084   -5009.6618            0    8425.9728    19.685721    19.767338    20.451729    7958.4691    8829.4805    8271.7838     8176.654   -14.930049    146.44358    1319.0183   -3811.8386 
29053000    113.43665   -5014.6487   -4795.8766   -5014.6487            0     7131.189    19.724123    19.763978    20.480942    7984.0271    6186.0946    7455.1272    7752.3453   -277.14325    547.47542   -105.08587   -3965.5291 
29054000    116.85659   -5001.3609   -4775.9931   -5001.3609            0    6659.2483    19.656251    19.932988    20.519317    8039.6287    7333.0359    6826.0802    5818.6289   -837.20547    550.56747   -116.21135    -3995.198 
29055000     114.6508   -5000.1843   -4779.0706   -5000.1843            0     8020.989    19.801645    19.687315    20.462723    7977.2133     8349.221     8397.509    7316.2371   -368.52179   -426.37823   -522.70598    -3845.913 
29056000    118.12186   -4991.2975   -4763.4896   -4991.2975            0    7635.7523    19.853717    19.631729    20.515036    7995.9976    8629.2606    7949.9564    6328.0398   -255.60164     1513.169    174.23644   -3873.0583 
29057000    112.28088   -5011.6377   -4795.0945   -5011.6377            0     6374.011    19.643088    19.767325    20.496304    7958.5367     5655.282    6996.0332    6470.7176   -284.12711   -186.38568   -429.14189   -4055.2816 
29058000    117.90245   -5015.7917   -4788.4069   -5015.7917            0    7576.8118    19.836181    19.768116    20.446771    8017.6681    8779.1704    6284.8299     7666.435      -188.04   -165.18062    425.61163   -3902.4544 
29059000    117.14241   -5008.6995   -4782.7805   -5008.6995            0    7437.4565    19.693027    19.627985    20.539434    7939.1987    7036.6796    7964.7504    7310.9395     190.5915    144.52753    273.24272   -3921.6341 
29060000    116.10905   -5012.7161   -4788.7901   -5012.7161            0    6572.2478    19.847931    19.729533    20.534432    8041.0865    5396.3952    7556.1451     6764.203    415.76921    318.51175   -335.51268    -4018.056 
29061000    119.13304   -5009.9378   -4780.1797   -5009.9378            0    6840.9115    19.633184    19.846059    20.589995    8022.7128    7570.5607    6645.4921    6306.6818   -256.69709    959.56216    1460.6348   -3979.7723 
29062000    123.29651   -4998.7001   -4760.9125   -4998.7001            0    6896.1966    19.542502    19.835365    20.569013    7973.2211     7417.674    6512.7857    6758.1301    10.708261      1601.64    333.24565   -3959.0141 
29063000    122.87205   -5008.8604   -4771.8913   -5008.8604            0    6742.5956    19.705142    19.845849    20.500431    8017.0066    7412.0391     6206.812    6608.9356   -399.10905    425.71412    408.34411   -3983.5483 
29064000    113.60114   -5005.9533   -4786.8639   -5005.9533            0    7417.6114    19.785411    19.772066    20.435465    7994.3226    7718.5441    6827.3948    7706.8954    15.007981   -1.7148646   -33.299865   -3922.0521 
29065000    121.84235   -5022.5821   -4787.5989   -5022.5821            0    6895.4408    19.758493    19.804632    20.393073    7980.0073     7564.035    5697.4416    7424.8459     6.640879    666.33597    364.02069   -3985.1059 
29066000    120.28789    -4994.782   -4762.7967    -4994.782            0    6849.4876    19.900308    19.712873    20.388634    7998.3032    5868.0486     7584.939    7095.4752    330.85576   -187.73086    472.55485   -3963.8242 
29067000    115.91081   -5015.2908    -4791.747   -5015.2908            0    6719.0592    19.833392    19.646535    20.536073    8002.0336    8031.0281    7416.7748    4709.3748    165.20355    401.92358    24.167577   -4007.6231 
29068000     113.1351   -5006.9639   -4788.7734   -5006.9639            0    6326.0983    19.721478    19.787846    20.516025    8006.2879    7440.3006    5377.9485    6160.0459    198.52198    140.92332    244.41944    -4050.116 
29069000    109.89419   -5009.1292    -4797.189   -5009.1292            0    7133.7578    19.830346    19.643014    20.483334    7978.8274    7111.2306    8630.8847     5659.158   -83.581166    474.81121    416.41962   -3967.0834 
29070000    118.36595   -5005.1748   -4776.8961   -5005.1748            0    5861.8974    19.630564    19.790616    20.604287    8004.7852    6224.4841    5660.4897    5700.7184     252.7773    479.25887     1254.665   -4092.5689 
29071000    118.15365   -5004.8039   -4776.9346   -5004.8039            0    8448.2273    19.797548    19.712162    20.423884    7970.4711    8742.2429    7985.0665    8617.3724   -349.68928   -10.468717   -141.42401    -3794.903 
29072000    126.61939   -4999.0229   -4754.8267   -4999.0229            0    7342.7623    19.735773    19.672596     20.53475     7972.697    7016.4698     8130.341    6881.4761   -595.22017    336.86166   -71.998343   -3901.0573 
29073000    112.59582   -5016.9463   -4799.7958   -5016.9463            0     7583.293     19.71205    19.689133    20.555208    7977.7472    8732.8679    6812.3267    7204.6845   -179.37947    829.68519    149.50686   -3917.5004 
29074000    116.13729   -5015.1239   -4791.1433   -5015.1239            0     7507.323    19.935655     19.61909     20.33626     7953.906    7785.8044     7229.017    7507.1477    74.220313   -345.15932   -218.17705   -3920.2972 
29075000    115.40895   -5005.5051   -4782.9293   -5005.5051            0    8087.2313    19.794254     19.61625    20.402317    7921.9956    8632.3405    7829.1191    7800.2344    328.24082    1184.3358   -1097.0585   -3848.5776 
29076000    116.13332   -5009.9185   -4785.9456   -5009.9185            0    5688.3204      19.9283    19.652685    20.463099    8014.2626    4050.8088    6802.9857    6211.1667   -14.669638    981.73951    118.81939   -4121.0958 
29077000    111.89986   -5017.4048   -4801.5965   -5017.4048            0    7625.0103    19.687166     19.77111    20.445913    7958.3083    7989.2305    7982.7406    6903.0597    49.046098    514.00202     9.196966   -3916.6091 
29078000    121.32039   -5002.5765      -4768.6   -5002.5765            0    8129.6328    19.732344    19.778023    20.497249    7999.3952    7461.2824    9079.0926    7848.5235   -724.59346    155.40637    904.16519   -3820.1728 
29079000    115.90307   -5018.9404   -4795.4116   -5018.9404            0    6861.5251    19.800555    19.606167    20.641576    8013.3284    6718.0768    8001.4755    5865.0231    474.53216   -47.214719   -517.33225   -3993.5314 
29080000    115.09718   -4998.8699   -4776.8953   -4998.8699            0    6633.2333    19.704424    19.860405    20.501488     8023.008    7507.7537    6180.6372    6211.3089    89.899624   -686.92198    1004.2519   -4000.7583 
29081000    122.14038   -5015.9903   -4780.4323   -5015.9903            0    5809.6607    19.829261    19.723371    20.470763     8006.113    6527.9412    5067.4135    5833.6274   -743.98798   -507.00769   -392.17283   -4102.0908 
29082000    111.27741   -5006.9184   -4792.3105   -5006.9184            0    7834.8832    19.736831    19.698936    20.410521    7935.4996    6366.9104    9522.4157    7615.3236   -311.05608   -604.97764    670.72497   -3885.5707 
29083000    115.12678    -4992.743   -4770.7113    -4992.743            0    8422.3608    19.744553    19.692057    20.401753    7932.4234    8581.7674    8282.0309    8403.2842    15.118259    545.08019   -115.34884   -3796.3599 
29084000    115.82249   -4992.2848   -4768.9114   -4992.2848            0    6445.2871     19.81034    19.811643    20.435518    8020.4375    7082.9889    5968.0675    6284.8048   -733.80014    571.00949     -17.6226   -4015.0071 
29085000    114.10563   -5006.0399   -4785.9775   -5006.0399            0    9195.0993    19.759291    19.736371    20.295458    7914.7559    8363.8158    9019.4486    10202.033   -352.07458   -175.12218    276.25441   -3724.6001 
29086000    115.79444   -5017.3385   -4794.0192   -5017.3385            0    7330.8452    19.714607    19.838057    20.492369    8014.5548    8535.4629    5498.1698     7958.903   -227.79536   -91.694179    424.36278   -3937.1602 
29087000    115.60515   -5008.1675   -4785.2132   -5008.1675            0    7575.2006    19.611299    19.752916    20.503784    7942.7628    8723.1991    7894.3137     6108.089    155.78247    399.61209   -502.19137   -3907.7243 
29088000    121.37674   -5016.7615   -4782.6762   -5016.7615            0     7235.248    19.689362    19.737391    20.550478    7986.2576    7290.9731    7797.3729     6617.398   -189.20291    928.22786     363.0154   -3939.9769 
29089000    107.88289   -5019.0067   -4810.9454   -5019.0067            0    6736.5366    19.777042    19.700925    20.633521    8039.3569    6381.6964    7824.5428    6003.3706    182.76765   -132.26759    906.25394    -4021.115 
29090000    111.82476   -5004.2421   -4788.5786   -5004.2421            0    8391.9658    19.819269    19.779962    20.400726     7997.582    9022.1341    7456.2312    8697.5322    227.07001   -117.87783    32.588585   -3809.7689 
29091000    112.72841    -5012.715   -4795.3087    -5012.715            0    6137.2067    19.817299    19.919066    20.368257    8040.2086    6227.0411     4975.142    7209.4372    266.07121    1181.7984   -447.07062    -4075.671 
29092000    110.69187   -5003.9149   -4790.4363   -5003.9149            0     6372.463    19.867005    19.910233    20.255523     8012.208    6831.0969    5273.5754    7012.7166   -84.452735    584.53593    272.42096    -4045.815 
29093000    119.97716   -5000.1392   -4768.7532   -5000.1392            0    6421.9895    19.652392    19.832361    20.423744    7960.2225    7246.3091    5966.3705    6053.2887   -410.95249    269.70233   -370.71227   -4023.2136 
29094000    116.89714   -5011.0257   -4785.5797   -5011.0257            0    6199.8224    19.900973    19.805702    20.319412     8008.952    5411.9347    6624.7611    6562.7714    185.29265     222.2761    474.46013   -4061.4259 
29095000    111.33286   -5024.6444   -4809.9296   -5024.6444            0    5411.2394     19.93846    19.764173     20.40272    8040.0426    5384.7946    5961.8267    4887.0969     -26.6795    441.04848   -65.502493   -4175.4305 
29096000    116.26745   -5000.8926    -4776.661   -5000.8926            0    8433.4222    19.659699    19.878567    20.344221    7950.6569    9909.7103    6633.6579    8756.8983    29.329852   -693.08897   -1054.9129   -3798.7874 
29097000    119.98049   -5017.1847   -4785.7923   -5017.1847            0    8016.4058     19.85722    19.682713    20.388791    7968.8358    7052.2379    9004.6979    7992.2815   -535.35001     1234.195    234.76081   -3854.1472 
29098000    118.10325   -5015.7661   -4787.9941   -5015.7661            0    6161.9869    19.844954    19.789648    20.406731    8014.2262    5228.0486     6988.615    6269.2972    190.34434    175.63198     646.8358   -4067.7856 
29099000    117.39529   -5007.3699   -4780.9633   -5007.3699            0    7637.0203    19.684829    19.607475    20.529997    7923.9588    6918.6596    8461.0489    7531.3525    60.074372   -125.97757    329.52423   -3898.4077 
29100000    112.10816   -5005.4642   -4789.2542   -5005.4642            0    6270.8517    19.798767    19.829621     20.46654    8035.2056    5949.0511    6954.7561     5908.748    140.73951   -523.13267   -408.53254    -4054.403 
29101000    113.25509   -5018.0929   -4799.6709   -5018.0929            0    7998.3625    19.614025    19.753609    20.552832     7963.149    9260.7108    7676.4211    7057.9556    554.53556    362.58827   -995.31059   -3870.7862 
29102000    113.29319   -5004.7064    -4786.211   -5004.7064            0     7223.874     19.72444    19.815457     20.51535    8018.4001    6572.2528    7931.1695    7168.1996    459.39578   -800.95414    800.36421   -3941.4502 
29103000    122.04174   -5016.9028    -4781.535   -5016.9028            0    5852.7798     19.80609    19.829194     20.45608    8033.8961    4463.0516     6880.769    6214.5188   -114.41744    1088.9312    763.89896   -4095.7874 
29104000    118.10623   -5001.4852   -4773.7074   -5001.4852            0    7778.6622    19.745869    19.850185    20.360212    7980.3711    8682.0532    7083.5156    7570.4178   -247.57701     670.2014     45.97495   -3868.3837 
29105000    118.81752   -4990.5008   -4761.3512   -4990.5008            0    7548.2125    19.596705    19.725874    20.599649    7963.0443     7441.906    8645.5848    6557.1468    -44.30886    21.305742   -120.57214   -3884.7559 
29106000    116.65323   -5026.2508   -4801.2753   -5026.2508            0    5821.8822    19.854274     19.68693    20.586152    8046.5034    6130.7336    4950.8505    6384.0625   -388.67457    530.65903   -85.799416   -4118.0774 
29107000    115.07451   -5004.3376   -4782.4068   -5004.3376            0    7232.4648    19.696982    19.817503    20.447816    7981.7029    7418.0883    7486.0218    6793.2844    177.98502   -635.76791   -720.51651   -3940.5121 
29108000    115.36984   -4999.5664    -4777.066   -4999.5664            0    6789.2949    19.617931    19.884342    20.576547     8026.698    8851.9838    5112.5665    6403.3345    123.33173    633.85618   -10.231106   -3982.3033 
29109000    117.03266   -5010.6787   -4784.9714   -5010.6787            0    7374.8718    19.816942    19.722348    20.445152    7990.7139    7273.4143    8055.9738    6795.2272   -44.345647    1205.8326    300.57435   -3925.5306 
29110000    120.68666   -5001.7976   -4769.0432   -5001.7976            0    8087.3041     19.74547    19.751068    20.465247    7981.3261    9178.5985    7743.0284    7340.2855   -390.29698    472.07551   -188.63528   -3827.6854 
29111000    118.75613   -5002.0128   -4772.9817   -5002.0128            0    7342.9356    19.693914    19.926318    20.392758    8002.6729    6676.9033    7192.1969    8159.7066   -114.63824   -405.27332    103.24646    -3915.982 
29112000     117.0283   -5005.8702   -4780.1713   -5005.8702            0    6629.7542     19.87269    19.850806    20.298578     8007.564    7503.3194    5190.9514    7194.9918    296.56774    911.91329   -61.669926   -4005.9346 
29113000    113.27367   -5012.0388    -4793.581   -5012.0388            0    7535.6989    19.725869    19.822437    20.401631    7977.3398    8356.9655    8174.4301     6075.701    362.13597    1023.8382       137.15   -3916.8678 
29114000    115.78359   -5004.4567   -4781.1583   -5004.4567            0    7104.3542    19.941352    19.764019    20.354773    8022.2485    6795.1754    6768.2133    7749.6738   -352.32217    556.45604   -381.29341   -3949.9754 
29115000    115.91611   -5009.6002   -4786.0462   -5009.6002            0    6605.5205    19.905267    19.765797    20.396807    8024.9904    6802.4883    6176.1665    6837.9066    361.64655    36.653747    422.31319   -4012.9608 
29116000    111.60943   -5015.7803   -4800.5322   -5015.7803            0    5834.7499    19.860173    19.860744    20.303828    8008.5973     6674.463     5090.213    5739.5738   -491.90216    246.44034    648.28113   -4119.0499 
29117000    114.59381   -5018.1407   -4797.1369   -5018.1407            0    7287.5121     19.76734    19.736765    20.404537    7960.6944    7092.5261    7422.2399    7347.7702    156.85691    821.46926    208.41968   -3951.0673 
29118000    113.68056   -5011.8483   -4792.6058   -5011.8483            0    7846.9503    19.693215    19.866163    20.428746    7992.3101     7660.219    8179.0761    7701.5557    200.33803   -369.01027    697.75251    -3877.968 
29119000    116.46349   -5021.4133   -4796.8037   -5021.4133            0    7289.1991    19.691239    19.848019    20.450643    7992.7672    6877.4385    7896.7152    7093.4435   -203.66359    1393.0921   -354.40732   -3947.1286 
29120000    117.37776   -5015.6823   -4789.3094   -5015.6823            0    6418.4633    19.706892    19.880403    20.539078    8046.8197     5461.732    7781.9095    6011.7484   -456.71979    1070.2203    384.57367   -4036.0732 
29121000    113.63203   -5018.9056   -4799.7567   -5018.9056            0    7735.2517    19.790884    19.864588     20.37807    8011.3887     8597.106    6633.9359    7974.7133   -306.93646   -123.09272    459.47342   -3895.9862 
29122000    120.62178   -5006.9695   -4774.3402   -5006.9695            0    6449.4913    19.748546     19.70186    20.596864    8013.8913    6901.4185     6286.447    6160.6085    566.48538     -667.479    -208.8006   -4020.5599 
29123000    115.66963    -5011.309   -4788.2304    -5011.309            0     6316.876    19.799549    19.807881    20.499296    8039.5595    7750.5933    5402.4242    5797.6106    478.72095   -245.04444    205.56682   -4047.5847 
29124000    116.65777   -5000.7538   -4775.7695   -5000.7538            0    7756.2749    19.512012    19.723205    20.614108    7933.1215    9118.0981    6706.8736    7443.8529   -655.43385    320.52796    46.560077   -3878.3961 
29125000      124.103   -5015.1555   -4775.8124   -5015.1555            0    6573.0817    19.666014     19.87451    20.502426    8013.4221    7259.5075    6566.8171    5892.9203   -339.07774   -348.02074    927.16183   -4007.6325 
29126000    111.29453   -5010.8412   -4796.2003   -5010.8412            0    7833.9142    19.721018    19.779539    20.399288    7957.2045    8983.2429    6535.3696    7983.1301   -143.97991    31.831142    805.16377   -3887.0928 
29127000    119.24023   -5021.4962   -4791.5314   -5021.4962            0    6846.4749    19.918036    19.701956    20.443373    8022.4756    6501.5763    7147.3139    6890.5347   -743.47092     864.8731    813.81387   -3990.4967 
29128000    112.70407   -5007.5424   -4790.1831   -5007.5424            0    7667.4031    19.919261    19.685284    20.362439    7984.4447    4853.6825    9855.1837    8293.3431    214.14536    370.91754   -697.59259   -3897.3528 
29129000    120.67571   -4994.1044   -4761.3711   -4994.1044            0    7367.2535    19.860493    19.568353    20.489062    7962.8107    7735.0795    7062.2067    7304.4745   -61.501362    971.67441    238.07917   -3905.8162 
29130000    114.15271   -5022.1654   -4802.0123   -5022.1654            0    7148.6962      19.6232    19.880733    20.419967    7966.3112    6866.8118    6403.9283    8175.3485    -82.44574   -317.29487      192.473   -3971.4734 
29131000    112.47123   -5020.4267   -4803.5164   -5020.4267            0    7450.5375    19.775967    19.777878    20.415191    7984.9257    6112.7816    8222.1794    8016.6515    68.355546   -795.56074   -79.756143   -3935.8868 
29132000    120.17786    -5008.492   -4776.7189    -5008.492            0    6433.1734    19.900055    19.769106    20.472266    8053.9184    5854.1125    6731.7629    6713.6447   -320.11892   -649.33873   -451.63073   -4021.0903 
29133000    118.50844   -5001.2984   -4772.7449   -5001.2984            0    7271.7471    19.825012    19.866228    20.327554    8005.9707    7007.7803    6573.8003    8233.6606   -380.99995    1247.3493   -11.293803   -3923.7039 
29134000    111.98914   -5013.5797   -4797.5992   -5013.5797            0    7293.0522    19.883178    19.870057     20.32199    8028.8093    7371.2171    7151.5929    7356.3465    136.14604    851.60355   -464.02212   -3943.6415 
29135000    121.69436   -5023.2394   -4788.5415   -5023.2394            0    6872.5184    19.758347    19.776972    20.483529    8004.1494    6706.3391    7088.6871    6822.5289   -527.50954   -250.67061   -286.62482   -3986.2966 
29136000    118.34858   -5009.8169   -4781.5717   -5009.8169            0    7674.9785    19.718357    19.776216    20.462351    7979.3856    8815.9627    7412.8345    6796.1382   -152.66636    -35.42465    353.47352   -3888.4256 
29137000    115.39112   -5021.9379   -4799.3964   -5021.9379            0    7147.3938      19.8202    19.763812     20.50991    8034.1974    6805.0051    7907.0295    6730.1467    84.728663   -867.97905    41.215203   -3961.9325 
29138000    115.80086   -5015.1913   -4791.8596   -5015.1913            0    7237.5337      19.6653    19.854363    20.520829    8012.1934    7471.5716    6488.9168    7752.1128     -437.413    171.17056   -194.23828   -3946.1565 
29139000    108.23037   -5015.8685   -4807.1371   -5015.8685            0    6107.5505    19.912626    19.737059    20.388118    8012.8707    4839.3164    7334.2947    6149.0405   -208.89302    882.66455    445.51928   -4093.4118 
29140000    117.66583   -5011.5928   -4784.6644   -5011.5928            0    6284.1266    19.807842    19.876286    20.426244    8041.9416    7284.4436    5446.8813    6121.0548    214.88156    137.24148   -245.91667   -4047.6402 
29141000    115.22686   -5012.9776    -4790.753   -5012.9776            0    5718.0704    19.737328    19.839172    20.484272    8021.0723    6121.9608    5043.9016    5988.3487    37.579241     1409.085   -160.20763   -4121.8582 
29142000    112.58547   -5013.7485    -4796.618   -5013.7485            0      5089.52    19.857344    19.839114    20.503153    8077.2606    3646.6072    6005.3772    5616.5756    -304.8928   -784.08516   -1006.2907   -4197.0798 
29143000    117.27805   -5023.0799   -4796.8993   -5023.0799            0    4645.0277    19.711585     19.89557    20.542757    8056.3193    5018.8325    4443.1544    4473.0961    151.65346   -75.248818    603.26963   -4251.1404 
29144000    117.69307    -5010.964    -4783.983    -5010.964            0    6779.8981    19.675974    19.849796    20.446808    7985.7886    8820.1872    4576.3242     6943.183   -97.680223    361.18896    1048.8743   -3994.3653 
29145000       117.75   -5017.8038   -4790.7131   -5017.8038            0    5743.7435    19.669367    19.833547    20.567155    8023.5212    6592.3162    6155.0401    4483.8741    47.206236   -137.33415   -564.59777   -4118.6099 
29146000    115.19161    -5019.421   -4797.2643    -5019.421            0    6525.8027    19.900788    19.791687     20.31304    8000.7005    5824.0755    6598.0376     7155.295   -137.75551    27.722017    494.58337   -4035.8205 
29147000      111.209   -5012.5929    -4798.117   -5012.5929            0    6497.8341    19.828313    19.777624    20.366138    7986.7218    5099.8568     7553.343    6840.3024    104.15775   -457.16141    509.34084   -4041.2613 
29148000    119.44304    -5028.505   -4798.1491    -5028.505            0     5150.661    19.863508    19.846551    20.346522     8021.049     4929.702      5535.93     4986.351    101.94297    1260.2058    489.17966   -4195.6311 
29149000    124.06637   -5007.6266   -4768.3541   -5007.6266            0     8552.777    19.664215    19.737848    20.419133    7925.2638     8426.793    8938.5422    8292.9957   -9.5352491    -1324.872    603.58938   -3779.8084 
29150000    111.96806   -5010.1436   -4794.2038   -5010.1436            0    5379.1411    19.769941    19.862224    20.528633    8061.0813    6054.5024    5096.7183    4986.2025    117.83318   -715.84278     292.6181   -4161.8179 
29151000    117.05034   -4992.2885   -4766.5471   -4992.2885            0    7525.0699    19.835655    19.715241    20.391606    7974.4378    7298.3042    7357.2408    7919.6646   -564.82756    809.64054    600.97976    -3891.389 
29152000    118.53645   -5009.8906   -4781.2831   -5009.8906            0     6655.598    19.826737     19.79625    20.495752    8044.4811    5845.5886     7715.327    6405.8784   -230.04427    822.60089     779.8751   -4000.4449 
29153000    117.31772   -5019.0157   -4792.7586   -5019.0157            0    6297.9917    19.821302    19.843917    20.448089    8042.8934    6242.3819    6258.2837    6393.3094    94.489753    273.17202   -105.04501   -4054.0209 
29154000    115.63498   -5007.6131   -4784.6013   -5007.6131            0    7025.8656    19.767215    19.777473     20.44654    7993.4839    7224.1505    7493.1609    6360.2854    237.11373    413.58202     531.4089   -3965.5486 
29155000    119.21969   -5021.2101   -4791.2849   -5021.2101            0    6357.7613    19.792703    19.715229     20.55232    8019.8786    5443.3771    7638.1693    5991.7374   -294.51891   -79.143125    589.85457   -4047.6703 
29156000    114.56804   -5021.4468   -4800.4927   -5021.4468            0    7080.3149    19.717537    19.741193    20.648699    8037.4586    8112.1332    6608.6087    6520.2027   -128.95431    355.22446    -257.0947   -3970.5517 
29157000    118.28004   -5008.6072   -4780.4942   -5008.6072            0    7413.6832    19.689186    19.721265    20.562338    7984.2664     7627.564    6958.1234     7655.362   -300.61281   -1029.6046     577.9288   -3917.2276 
29158000    112.98024   -5023.0119     -4805.12   -5023.0119            0    6248.7315    19.687883    19.803272     20.54335    8009.5335    8110.2475    4817.2463    5818.7008   -37.654901   -132.64075    1040.8302   -4075.2004 
29159000    112.30104   -5011.8821   -4795.3001   -5011.8821            0    7156.0251    19.755093    19.777665    20.474501    7999.5842    7855.1473    7246.3793    6366.5488   -201.77294    130.24238    318.29354   -3960.4372 
29160000    118.14884   -5011.5887   -4783.7287   -5011.5887            0    6893.5937    19.672493    19.782882    20.508728    7981.5586    7059.0422    6779.7645    6841.9746   -237.19144    402.48073   -357.57297   -3981.2948 
29161000    118.59763   -5024.4687   -4795.7432   -5024.4687            0    6021.0813    19.829935    19.837867    20.325929    7995.8872    5286.8456    5592.5305    7183.8677    433.68176    13.423235    637.20253    -4093.614 
29162000    117.30072   -5010.0792   -4783.8549   -5010.0792            0    7545.1017     19.87798    19.723089    20.383974    7991.6424    6217.7303    8614.7158    7802.8589   -38.585018    605.30114    61.688585    -3904.474 
29163000    122.84594    -5021.614   -4784.6952    -5021.614            0    6821.1516    19.793189     19.79711    20.475083    8023.1191    6052.7647    7896.2557    6514.4346   -331.75722    394.29174    -416.1036   -3986.5593 
29164000    113.75529   -5008.7789   -4789.3922   -5008.7789            0     7505.679    19.638281    19.878695    20.416157    7970.1288    8255.2065    6593.6427    7668.1879    -367.9492    1152.8204    171.78595    -3916.961 
29165000    118.66441     -5012.91   -4784.0557     -5012.91            0    7491.8104    19.947977    19.709753    20.305129    7983.3617    7039.5371    7964.0137    7471.8803    -589.3152    319.19397   -427.57357   -3911.7907 
29166000     114.8315   -5000.8496   -4779.3874   -5000.8496            0    6918.2617    19.920844    19.729616    20.357151    8000.9833    5671.6909    7331.1852    7751.9089   -240.35819   -225.68305    204.01571   -3972.1222 
29167000    117.88356   -5008.2805   -4780.9322   -5008.2805            0    7088.4435    19.804135    19.899384    20.221632    7969.1443    6544.7036    7175.1194    7545.5075    -148.9438   -77.420191    21.312972   -3957.1005 
29168000    120.08873   -4996.7622    -4765.161   -4996.7622            0    7224.9922    19.836904    19.697283    20.374363    7960.9381    6122.4653    8096.5388    7455.9726   -285.83409    504.92147   -185.61735   -3926.3241 
29169000     120.1964   -5007.8603   -4776.0514   -5007.8603            0    4993.2948    19.877313    19.805105    20.439102    8046.3078     3939.648    5912.8597    5127.3767   -235.13171    907.88861     35.66187   -4190.1025 
29170000    115.43151   -4999.8964   -4777.2771   -4999.8964            0    7502.6107     19.91432    19.674864    20.310148    7957.7503    7337.0182    7031.2175    8139.5964   -348.81893    47.958698   -282.32735   -3906.5569 
29171000    114.75552   -4999.1085   -4777.7928   -4999.1085            0     7912.165    19.747581    19.891808    20.361822    7998.4307    6806.8424    8442.3312    8487.3214   -52.223762    631.53757    812.63097   -3854.8474 
29172000    117.20132   -5011.1129   -4785.0803   -5011.1129            0    8375.4242    19.784427     19.62724    20.456765    7943.6417    8690.1633    8414.5508    8021.5584   -380.94032    -245.2167    -1521.483   -3814.7886 
29173000    114.27941   -5014.3356   -4793.9381   -5014.3356            0    7144.5899    19.651567    19.822735    20.473025    7975.2217    7772.3464    6938.6635    6722.7597   -37.334772    145.49346    564.98488   -3962.9478 
29174000     118.8816   -5011.8721   -4782.5989   -5011.8721            0    7897.4567    19.873739    19.637583    20.415518    7967.6087    7159.5409    8566.5867    7966.2426   -655.94978    1536.3998    -65.27529   -3864.9192 
29175000    119.22324   -5022.0449   -4792.1129   -5022.0449            0    5682.5219    19.662445    19.813171    20.569354    8013.3141    5673.2276     5801.646    5572.6922    -708.8492    402.18973    -741.6848   -4128.0195 
29176000    111.49502   -5009.8824   -4794.8549   -5009.8824            0    6714.5217    19.733518    19.716378    20.500619    7976.2475    5909.6654    7244.3583    6989.5414   -116.32055   -191.08208   -480.61283   -4013.7855 
29177000    115.73404   -5011.7445   -4788.5417   -5011.7445            0    7029.5034    19.904794    19.852707     20.37399    8051.0683    5924.4009      7389.26    7774.8492   -435.97384    920.52329   -87.215085   -3963.1615 
29178000    115.45567   -5002.1237   -4779.4577   -5002.1237            0    8447.4276    19.686305    19.738663    20.422851    7935.9389    9407.6863    7816.6235    8117.9728    57.814794    413.01469    11.573076   -3801.7733 
29179000    122.50303   -5002.3381   -4766.0807   -5002.3381            0    9031.6956    19.773762    19.745448    20.351044    7945.8979    8273.7905    9264.8165    9556.4798    446.81497    328.35941   -792.12365   -3719.4628 
29180000    116.01116   -4999.5073     -4775.77   -4999.5073            0    6355.0198    19.746915    19.945833    20.301069    7995.9549    6328.0276    5675.2956    7061.7362   -62.198565     578.4908   -204.28351   -4034.6933 
29181000    113.88545   -5004.3682   -4784.7305   -5004.3682            0    7221.2557    19.840579    19.726298    20.356774    7967.2581    7439.3686    7338.6739    6885.7244     273.1335    908.52587    738.87331   -3945.6619 
29182000    120.65014   -5017.4244   -4784.7405   -5017.4244            0    7352.7913    19.747414    19.698411    20.492486     7971.427    6282.7628    8733.3268    7042.2842    59.944584    361.58624    1576.4234   -3929.9411 
29183000    114.38379    -5022.923   -4802.3242    -5022.923            0    7518.5772    19.828874    19.705741    20.465225    7996.6362      7481.99    8293.8479    6779.8938   -460.60474    740.43058    982.85047   -3925.4872 
29184000    116.80233   -5022.4169   -4797.1537   -5022.4169            0    7805.3012    19.896256    19.799254    20.253964     7978.665    7910.0125    7385.2531    8120.6379   -252.34749   -250.51998    216.51887   -3888.9239 
29185000    117.78757   -4999.4209   -4772.2576   -4999.4209            0    7090.0104    19.665965    19.757223    20.509646    7968.9176    7767.7653     7299.295    6202.9709   -94.385403   -404.88274   -481.10534   -3948.2674 
29186000    114.55595   -4991.9306   -4770.9998   -4991.9306            0    7393.0778    19.673086    19.810691    20.404638    7952.4511    7252.4498      7744.81    7181.9735   -215.31831    58.285149    310.44136   -3913.5629 
29187000    112.92581   -5010.3421   -4792.5552   -5010.3421            0     7112.063    19.855332    19.750823     20.37949    7992.0035    7230.0061     6994.162    7112.0208   -285.24098    1150.1748    669.72468   -3963.6074 
29188000    120.04421   -5006.6986   -4775.1832   -5006.6986            0    8599.0606    19.742005    19.858891    20.292181    7955.6377    9155.6082    8356.3016    8285.2719    32.518846   -5.6916528     -298.166   -3777.4788 
29189000     109.0843   -5012.9398   -4802.5615   -5012.9398            0     5647.408    19.775653    19.849028    20.463077    8032.3202    6273.8676    5058.3267    5610.0296   -399.72145   -763.56564    -247.9483   -4141.0064 
29190000    117.16787   -4997.8936   -4771.9255   -4997.8936            0     6456.954    19.809792      19.8144    20.489699    8042.5989     6317.237    7182.3508    5871.2743   -164.19683    826.55984   -153.62211   -4014.5696 
29191000    117.40705   -5011.7335   -4785.3041   -5011.7335            0     7037.749    19.747188     19.85563      20.3787    7990.3431    7234.5478     6036.728    7841.9711    173.06812    124.92695    1387.0709   -3965.1885 
29192000     121.3868    -5014.147   -4780.0424    -5014.147            0    6766.6135    19.803957    19.869056    20.277751    7979.0098    6227.1743    7041.1018    7031.5643    242.80446    470.40495   -119.72512   -3992.6408 
29193000    117.41897   -5010.4367   -4783.9844   -5010.4367            0    6212.5269    19.771237    19.754272    20.485656    8001.0088    6029.9579    6338.2863    6269.3364    199.58629    1362.0223   -126.63511   -4059.0663 
29194000    123.55511   -5013.8556   -4775.5692   -5013.8556            0    7233.2436    19.766061    19.723279     20.58214    8023.9789    7819.1159    7709.9267    6170.6883    51.953169   -295.12825    285.40401   -3929.1242 
29195000    112.96963   -5001.2991   -4783.4277   -5001.2991            0    6992.8952    19.722214    19.670231    20.562135    7976.8845    6657.6701    6939.2368    7381.7788    175.08106    294.67249    704.26236   -3969.9115 
29196000    113.80273   -5014.1455   -4794.6674   -5014.1455            0    6486.3699    19.846585    19.690771    20.555373    8032.9281    6016.1387    6755.3073    6687.6637   -423.83778   -146.01796   -31.362761   -4034.7761 
29197000    115.53922   -5010.4403   -4787.6132   -5010.4403            0    6191.6166    19.946913    19.676624    20.468303    8033.5614    5646.4153    6350.7905    6577.6439   -40.007856   -43.908825    473.14364   -4062.1957 
29198000    117.06153   -5004.1718   -4778.4088   -5004.1718            0    7542.7706    19.683251    19.787041    20.425278    7955.1005    7705.6936    7165.6808    7756.9376   -42.014835   -350.35783   -651.99059   -3903.3194 
29199000    113.16741   -4993.5863   -4775.3334   -4993.5863            0    6634.1377    19.771939    19.789397    20.486114    8015.6996    7346.4265    4951.6485    7604.3382    41.292286    1091.5435    527.52023   -3999.7977 
29200000    111.94389   -5006.1213   -4790.2281   -5006.1213            0    7702.3999     19.89546    19.538969    20.533453    7982.1083    9081.8788    6787.4632    7237.8576   -76.662703    535.59129    601.75904   -3893.5851 
29201000    113.18888   -5004.4358   -4786.1415   -5004.4358            0     6735.467    19.804676    19.795206    20.391761    7994.3382    6973.7209    6578.4453    6654.2347    133.93702    571.66503   -430.28994   -4000.8586 
29202000    119.78782   -5016.0977   -4785.0768   -5016.0977            0    7437.2943    19.918891    19.780965    20.307575     8001.487    8407.1406    6249.4397    7655.3027   -14.535744    513.90635    170.16854    -3917.193 
29203000     111.8751   -5005.9217   -4790.1611   -5005.9217            0    8297.3752    19.774158    19.853049    20.258547    7953.0461    6691.3086    8529.9195    9670.8974     -35.3925   -765.40382     165.9312   -3827.7733 
29204000    113.20438   -5013.9522   -4795.6281   -5013.9522            0    6995.6001     19.76746    19.806921    20.359754    7971.5055    5772.9758    7264.2421    7949.5825   -313.73092   -448.49651    818.98171    -3982.346 
29205000    112.47004    -5012.497   -4795.5891    -5012.497            0    7272.0546    19.785923    19.859883    20.274486    7966.7807    8416.5292    5845.2056    7554.4289    229.62318   -132.26988   -706.50055   -3950.6685 
29206000    115.81366   -5018.4811   -4795.1247   -5018.4811            0    8634.6087    19.837361    19.689827    20.359462    7952.2876    10098.894    7736.2231    8068.7095    339.86971    369.89777    358.59544   -3793.7177 
29207000    115.03054   -5006.7476   -4784.9015   -5006.7476            0    7469.4146    19.893227    19.730145     20.29656    7966.3238    6633.7044    7109.4103    8665.1293   -490.70091    41.990407    866.04033   -3917.0999 
29208000    112.91985   -4998.3623   -4780.5868   -4998.3623            0    6401.2331    19.673643    19.881462     20.39527    7977.4222    6772.1567    5547.6518    6883.8908    400.20727    100.99782   -176.56392   -4035.8512 
29209000    116.93386   -5011.2775   -4785.7607   -5011.2775            0    6491.2374    19.705361    19.741053      20.5365    7988.7924    5649.7441    7749.9846    6073.9836    48.338334    335.62294    433.38936   -4029.4774 
29210000    123.83947   -5011.6485   -4772.8136   -5011.6485            0    8002.9568     19.68763    19.846275    20.437804    7985.5837    7425.6861    8672.9981    7910.1861   -68.920683   -745.57532   -1595.3293   -3840.7769 
29211000    119.11427   -5011.7647   -4782.0428   -5011.7647            0    7758.3619    19.737285    19.832033     20.38589    7979.6589    8754.0249    5788.7367    8732.3242    542.41879   -425.58292    -1379.353   -3879.1624 
29212000    115.96275   -5013.3154   -4789.6715   -5013.3154            0    5840.8874    19.858548    19.785095    20.420516    8023.2876    6268.9085    5283.1676     5970.586   -591.08276    1191.6579   -653.89124   -4106.2209 
29213000    119.82578   -4999.9517   -4768.8576   -4999.9517            0    7804.3536    19.691395     19.85867    20.328347    7949.2966    7889.8315    8135.3793    7387.8499    122.55685    183.72999   -223.10888   -3864.0806 
29214000    117.89714   -5005.7172   -4778.3427   -5005.7172            0    7120.1336    19.649031    19.790932    20.558781    7994.7475    7238.4172    8221.2185     5900.765   -261.78749   -855.47395    21.639436   -3948.1693 
29215000    108.55491   -5017.0859   -4807.7286   -5017.0859            0    6821.9715    19.736526    19.772501    20.510277    8003.9407    7396.4393    6856.5317    6212.9434   -44.906225    120.20891   -511.89117   -4011.4049 
29216000    112.77482   -5013.1564   -4795.6607   -5013.1564            0    6747.5221    19.823166    19.770135     20.44565    8012.7867    6391.7447    8104.9361    5745.8856    71.430126   -80.247133   -47.828927   -4007.1569 
29217000    115.19355   -5018.9387   -4796.7782   -5018.9387            0    7556.4307    19.646411    19.769444    20.446834    7941.5222     7960.465    7129.9008    7578.9263   -261.58867   -1.0425181   -269.97984   -3921.6003 
29218000    116.85903   -4998.0517   -4772.6792   -4998.0517            0      7523.52     19.76141    19.758673    20.394592    7963.2572    7272.6653    8608.0266    6689.8681   -611.09095    299.04043   -234.57354   -3898.9282 
29219000    115.84017   -5004.2622   -4780.8547   -5004.2622            0    6246.2401    19.748837    19.846017    20.418083    8002.5765    6031.6975    5630.5987    7076.4242   -186.64748   -931.79339    712.33368   -4051.8599 
29220000    117.48244   -5024.6493   -4798.0746   -5024.6493            0    7713.6997    19.836671    19.738298    20.390544    7983.7567    6372.2595    9241.6106    7527.2289    114.99247    130.76175    114.19635   -3899.9307 
29221000    114.23757    -5008.329   -4788.0123    -5008.329            0    7335.0804    19.768323    19.858647     20.34681    7987.5907    7622.3356    7011.7841    7371.1216   -56.701419    600.90866    442.06397   -3933.5427 
29222000    112.09663   -5012.2769   -4796.0891   -5012.2769            0    6856.0057    19.686491    19.859414    20.448388    7994.5463    6771.4791    6921.2229    6875.3152    390.74132    513.93873   -283.60045   -3996.7319 
29223000    114.20087   -5014.8832   -4794.6372   -5014.8832            0    6140.3987    19.720472    19.830694    20.417753    7984.7839    6136.1777     6306.597    5978.4216   -106.90934   -630.00232    234.60337   -4079.5885 
29224000    120.49999   -5011.3412   -4778.9468   -5011.3412            0    7577.3711    19.678338    19.876372    20.237991    7915.7657    8554.8294     6323.369    7853.9148   -640.37658    230.11097    109.01126   -3904.1899 
29225000    115.87257   -5015.2832   -4791.8131   -5015.2832            0    8006.2386    19.648412    19.816034    20.446785    7961.0294    7679.6173    8397.8586      7941.24   -468.82413   -410.77708   -293.36271   -3862.2612 
29226000    114.33006   -5012.9023   -4792.4072   -5012.9023            0     5366.567    19.867984    19.796917    20.460011      8047.43    4843.9637    5941.4561    5314.2812    11.372728   -288.06668   -229.01749   -4162.5681 
29227000    123.45226    -4997.567    -4759.479    -4997.567            0    5386.9599    19.879185    19.797625    20.477383    8059.0921    5150.6954    5172.7504    5837.4339   -111.11976   -142.30137    995.67698   -4126.3302 
29228000    118.63062   -5000.5933   -4771.8041   -5000.5933            0    6402.7287    19.538756    19.938277    20.515713    7992.2881    7103.8072    5945.0765    6159.3022    270.15696    1034.8663    882.68926   -4025.5064 
29229000    118.50924   -5013.2069   -4784.6519   -5013.2069            0    5866.7241    19.866909    19.808511    20.470482    8055.8279    6749.2469    5169.1565     5681.769   -55.029643    614.86895    -680.3935    -4095.394 
29230000    119.99821   -4997.8521   -4766.4254   -4997.8521            0     7580.325     19.79382    19.917284    20.266155    7989.7113    7139.0507    7691.9396    7909.9847   -1111.1185   -234.94086    286.86598   -3883.1527 
29231000    117.02708   -5003.4983   -4777.8017   -5003.4983            0    5832.4481    19.737735    19.850203    20.494563      8029.73    6380.8295    5553.5619    5562.9529    803.13335    795.27459    185.42079   -4094.7907 
29232000    117.27251   -5008.7655   -4782.5956   -5008.7655            0    6409.4225    19.629417    19.913155    20.416422    7980.4447    6562.9873    6312.7391     6352.541    560.29929   -167.43541    382.48255   -4036.6247 
29233000    116.92874   -5017.2645   -4791.7576   -5017.2645            0    6243.7865     19.86073    19.759733    20.391742    8002.5906    5725.2552    6464.1158    6541.9885   -414.61475    782.27191   -344.87421   -4063.0479 
29234000    119.05586   -5008.6834   -4779.0741   -5008.6834            0    5482.5857    19.767712    19.642117    20.669337    8025.4841    4122.7872    6770.8666    5554.1032    90.321026   -201.97069    147.16413   -4137.3734 
29235000    114.07348   -5023.6025   -4803.6022   -5023.6025            0    5727.1887    19.812679    19.863547    20.457298    8050.9713    7052.6847    5076.3695     5052.512    80.623386    93.233098   -111.11638   -4131.1434 
29236000     118.7793   -5029.0738   -4799.9979   -5029.0738            0    6062.5464    19.862719    19.811915    20.461404    8051.9407    5097.1465    6744.5906    6345.9021    160.63879   -1034.0625   -96.033413   -4088.0774 
29237000    118.61577   -5018.0324   -4789.2719   -5018.0324            0    6748.4078    19.861539    19.816827    20.301629    7990.5728    5870.2388    7090.2567    7284.7278    750.45849    164.51847   -572.49919   -4002.8509 
29238000    115.87355   -5004.2078   -4780.7359   -5004.2078            0    6733.6063    19.972024    19.599534    20.456855      8007.68     5394.677    7813.6181    6992.5239    -395.8698    776.34321   -574.06731   -3994.3598 
29239000    112.19645   -5000.6725   -4784.2922   -5000.6725            0    6887.5002    19.813424    19.740411    20.368893    7966.7862    6949.7216    6742.8433    6969.9358    6.4492407    128.92759   -123.63098   -3984.0514 
29240000    116.74968   -5003.6913   -4778.5297   -5003.6913            0    6047.0142    19.753614     19.69826    20.505018    7978.7451    6241.6201     6792.968    5106.4546    44.169242    1022.6602    1974.1802   -4074.8882 
29241000     116.9736   -5018.1463   -4792.5528   -5018.1463            0    7744.4383    19.738065    19.733464    20.457816    7968.3275     8236.544    7954.2456    7042.5253   -178.17154    240.99773    789.34309   -3892.5726 
29242000    114.82002   -5008.8685   -4787.4284   -5008.8685            0     7719.616    19.960584    19.773084    20.255849     7994.625    6528.4401     7638.898    8991.5098   -508.01494    1115.3566   -119.98222   -3887.3721 
29243000    117.71723   -5008.9286    -4781.901   -5008.9286            0    5866.7933     19.98161    19.796816    20.318299    8037.3553    4518.6807    6484.5937    6597.1055    35.510411   -86.335971   -419.79457   -4094.2156 
29244000    116.19045   -4997.6337   -4773.5506   -4997.6337            0    7815.9085     19.89118       19.812    20.214524    7966.2217    7736.3234    6951.5607    8759.8414    90.542406    214.59042    21.900866   -3865.5049 
29245000    122.78644   -5003.4239   -4766.6199   -5003.4239            0    6724.0256    19.834797    19.898121    20.281389    8004.5608    7804.8272    4924.0163    7443.2334   -609.85874    454.92835     831.8106   -3981.6685 
29246000    119.03532   -5009.3014   -4779.7317   -5009.3014            0    5863.7291    19.844505    19.710757    20.544553    8036.0065    5778.4518    6704.6188    5108.1167    62.009583   -48.211017    1229.6942   -4092.5208 
29247000    113.55591   -5008.4451    -4789.443   -5008.4451            0    6424.4819    19.724729    19.915688    20.367824    8001.1237     6565.997    6051.4723    6655.9762    73.080994   -779.13924    204.13419   -4039.7819 
29248000    115.64962   -4998.1548   -4775.1148   -4998.1548            0    6852.0864    19.657538    20.003218    20.327891    7993.2117    6738.3194    5868.5674    7949.3723    279.76511    -245.2279    134.21805    -3976.348 
29249000    111.49206   -5010.9554   -4795.9336   -5010.9554            0     7526.812    19.761893    19.768774    20.474479    7998.7319     7325.093    7471.9103    7783.4326   -187.57863    36.381832   -316.48281   -3917.9061 
29250000    121.61794   -4999.3371   -4764.7867   -4999.3371            0    7445.6494    19.823175    19.718876    20.448406    7993.0923    7412.7246    7431.3945    7492.8289   -93.575922   -639.89364    39.280219   -3896.8395 
Loop time of 337.778 on 64 procs for 250000 steps with 972 atoms

Performance: 127.895 ns/day, 0.188 hours/ns, 740.131 timesteps/s
194.9% CPU use with 32 MPI tasks x 2 OpenMP threads

MPI task timing breakdown:
Section |  min time  |  avg time  |  max time  |%varavg| %total
---------------------------------------------------------------
Pair    | 28.682     | 35.726     | 44.53      |  68.6 | 10.58
Bond    | 0.99462    | 1.1818     | 1.6891     |  11.9 |  0.35
Kspace  | 143.61     | 154.96     | 163.47     |  34.8 | 45.88
Neigh   | 0.69987    | 0.75634    | 0.83254    |   3.9 |  0.22
Comm    | 57.526     | 62.301     | 64.754     |  23.9 | 18.44
Output  | 0.46731    | 0.46768    | 0.46898    |   0.0 |  0.14
Modify  | 67.188     | 68.864     | 71.16      |   9.9 | 20.39
Other   |            | 13.52      |            |       |  4.00

Nlocal:        30.3750 ave          35 max          24 min
Histogram: 2 1 2 7 1 3 2 5 3 6
Nghost:        2731.59 ave        2771 max        2700 min
Histogram: 4 3 2 5 8 2 2 2 3 1
Neighs:        9832.16 ave       12383 max        7329 min
Histogram: 1 2 6 4 5 2 5 2 3 2

Total # of neighbors = 314629
Ave neighs/atom = 323.69239
Ave special neighs/atom = 2.0000000
Neighbor list builds = 2326
Dangerous builds = 0

unfix		3
unfix		2
unfix		1

write_data	data.final.${pid}
write_data	data.final.1
System init for write_data ...
PPPM initialization ...
  extracting TIP4P info from pair style
  using 12-bit tables for long-range coulomb (../kspace.cpp:340)
  G vector (1/distance) = 0.37231485
  grid = 24 24 24
  stencil order = 5
  estimated absolute RMS force accuracy = 0.003493444
  estimated relative force accuracy = 1.0520403e-05
  using double precision FFTW3
  3d grid and FFT values/proc = 3211 432
Last active /omp style is kspace_style pppm/tip4p/omp
WARNING: Not all mixed pair coeffs generated from mixing. Use write_data with 'pair ij' option to store all pair coeffs. (../write_data.cpp:312)

write_restart   restart.lmp.${pid}
write_restart   restart.lmp.1
System init for write_restart ...
PPPM initialization ...
  extracting TIP4P info from pair style
  using 12-bit tables for long-range coulomb (../kspace.cpp:340)
  G vector (1/distance) = 0.37231485
  grid = 24 24 24
  stencil order = 5
  estimated absolute RMS force accuracy = 0.003493444
  estimated relative force accuracy = 1.0520403e-05
  using double precision FFTW3
  3d grid and FFT values/proc = 3211 432
Last active /omp style is kspace_style pppm/tip4p/omp
Total wall time: 0:05:37
