#include		in.partitions
include		in.temp
variable        temperature equal 209.50
variable	tempDamp equal 100.0
include		in.pressure
variable        pressure equal 3341.6
variable        pressureDamp equal 1000.0 # This is 1 ps
include		in.seed
variable        seed equal 745823

units		real
atom_style	full
#include		in.box
read_restart	restart.lmp.${pid}
read_restart	restart.lmp.0
Reading restart file ...
  restart file = 30 Jul 2021, LAMMPS = 30 Jul 2021
  restoring atom style full from restart
  orthogonal box = (0.19259233 0.17545556 0.054570840) to (18.014980 23.453722 22.158625)
  2 by 4 by 4 MPI processor grid
  restoring pair style lj/cut/tip4p/long/omp from restart
  restoring bond style harmonic/omp from restart
  restoring angle style harmonic/omp from restart
  864 atoms
  576 bonds
  288 angles
Finding 1-2 1-3 1-4 neighbors ...
  special bond factors lj:    0        0        0       
  special bond factors coul:  0        0        0       
     2 = max # of 1-2 neighbors
     1 = max # of 1-3 neighbors
     1 = max # of 1-4 neighbors
     2 = max # of special neighbors
  special bonds CPU = 0.002 seconds
  read_restart CPU = 0.009 seconds
include 	in.setup
variable	out_freq equal 1000
variable	out_freq2 equal 10000
variable	out_freq3 equal 1000

timestep	2.0

neigh_modify    delay 7 every 1

include		in.tip4p
# This is TIP4P/Ice

# create groups ###
group ox type 2
288 atoms in group ox
group hy type 1
576 atoms in group hy

# set charges - beside manually ###
set group ox charge -1.1794
Setting atom values ...
  288 settings made for charge
set group hy charge 0.5897
Setting atom values ...
  576 settings made for charge

# ### TIP3P Potential Parameters ###
pair_style lj/cut/tip4p/long/omp 2 1 1 1 0.1577 8.5
pair_coeff 1 1*2 0.000 0.000
pair_coeff 2 2 0.21084 3.1668
bond_style  harmonic
bond_coeff  1 450 0.9572
angle_style harmonic
angle_coeff 1 55 104.52
kspace_style pppm/tip4p/omp 1.0e-5
pair_modify tail yes

thermo          ${out_freq}
thermo          1000
thermo_style    custom step temp pe etotal epair emol press lx ly lz vol pxx pyy pzz pxy pxz pyz enthalpy

restart 	${out_freq3} restart.lmp.${pid} restart2.lmp.${pid}
restart 	1000 restart.lmp.${pid} restart2.lmp.${pid}
restart 	1000 restart.lmp.0 restart2.lmp.${pid}
restart 	1000 restart.lmp.0 restart2.lmp.0


include         in.dump
dump            myDump all atom ${out_freq2} dump.water.${pid}
dump            myDump all atom 10000 dump.water.${pid}
dump            myDump all atom 10000 dump.water.0
dump            myDump2 all dcd ${out_freq2} dump.dcd
dump            myDump2 all dcd 10000 dump.dcd
dump_modify     myDump append yes
dump_modify     myDump2 append yes


variable natoms 	equal  "count(all)"                        # NUMBER ATOMS
variable H      	equal  "enthalpy/v_natoms"                 # ENTHALPY-per-atom
variable Vol      	equal  "vol/v_natoms"                 # volume-per-atom
fix AVG all 		ave/time ${out_freq} 1 ${out_freq} v_Vol v_H file vol_enthalpy.dat
fix AVG all 		ave/time 1000 1 ${out_freq} v_Vol v_H file vol_enthalpy.dat
fix AVG all 		ave/time 1000 1 1000 v_Vol v_H file vol_enthalpy.dat


timer           timeout 23:50:00 every 1000
New timer settings: style=normal  mode=nosync  timeout=23:50:00

fix 		1 all shake 1e-6 200 0 b 1 a 1
       0 = # of size 2 clusters
       0 = # of size 3 clusters
       0 = # of size 4 clusters
     288 = # of frozen angles
  find clusters CPU = 0.001 seconds
fix             2 all nph aniso ${pressure} ${pressure} ${pressureDamp}
fix             2 all nph aniso 3341.6 ${pressure} ${pressureDamp}
fix             2 all nph aniso 3341.6 3341.6 ${pressureDamp}
fix             2 all nph aniso 3341.6 3341.6 1000
fix             3 all temp/csvr ${temperature} ${temperature} ${tempDamp} ${seed}
fix             3 all temp/csvr 209.5 ${temperature} ${tempDamp} ${seed}
fix             3 all temp/csvr 209.5 209.5 ${tempDamp} ${seed}
fix             3 all temp/csvr 209.5 209.5 100 ${seed}
fix             3 all temp/csvr 209.5 209.5 100 745823


run             250000
PPPM initialization ...
  extracting TIP4P info from pair style
  using 12-bit tables for long-range coulomb (../kspace.cpp:340)
  G vector (1/distance) = 0.37184307
  grid = 24 27 25
  stencil order = 5
  estimated absolute RMS force accuracy = 0.0031526691
  estimated relative force accuracy = 9.4941693e-06
  using double precision FFTW3
  3d grid and FFT values/proc = 4410 672
Last active /omp style is kspace_style pppm/tip4p/omp
Neighbor list info ...
  update every 1 steps, delay 7 steps, check yes
  max neighbors/atom: 2000, page size: 100000
  master list distance cutoff = 10.8154
  ghost atom cutoff = 10.8154
  binsize = 5.4077, bins = 4 5 5
  1 neighbor lists, perpetual/occasional/extra = 1 0 0
  (1) pair lj/cut/tip4p/long/omp, perpetual
      attributes: half, newton on, omp
      pair build: half/bin/newton/omp
      stencil: half/bin/3d
      bin: standard
Per MPI rank memory allocation (min/avg/max) = 10.19 | 10.21 | 10.23 Mbytes
Step Temp PotEng TotEng E_pair E_mol Press Lx Ly Lz Volume Pxx Pyy Pzz Pxy Pxz Pyz Enthalpy 
12250000    218.19035   -4323.6759   -3949.7051   -4323.6759            0    2628.0642    17.822388    23.278267    22.104054    9170.4039    2316.9294    3066.1622     2501.101    797.33066   -555.49061   -97.044608   -3598.2253 
12251000    216.46347   -4352.0119   -3981.0009   -4352.0119            0    3355.4755    18.085907    23.353039    21.705744    9167.6573    1906.0765    3349.9463    4810.4037    33.661688    -35.23644    626.44177   -3532.3709 
12252000    210.97892   -4349.9337    -3988.323   -4349.9337            0    3857.5956     17.87275    23.373852    21.943591    9167.0448    3993.3653    3873.2919    3706.1296     -729.818    416.39984     132.4471   -3472.5936 
12253000    206.74763   -4355.2473   -4000.8889   -4355.2473            0    2354.3069    17.900201     23.58728     21.87596    9236.4033    2699.1351    2198.8663    2164.9195    102.81641    -240.3409   -280.54637   -3683.7556 
12254000    193.40664    -4349.491   -4017.9986    -4349.491            0    1931.7125     18.04031    23.202788     22.03276    9222.5932    1479.7553    2673.9904    1641.3917    32.101353     103.0649    192.02023   -3758.1793 
12255000    211.83336   -4334.7369   -3971.6617   -4334.7369            0    3094.2564    18.224146    23.055314    21.798439    9158.9061    1227.0303    4434.7816    3620.9571   -304.02282     8.999304    267.15664   -3558.3518 
12256000    216.06193   -4344.0879   -3973.7652   -4344.0879            0    2616.1993    17.910867    23.505162    21.862426    9204.0337    2166.8075    2960.1605      2721.63    168.18404   -317.37132    287.08098   -3622.5891 
12257000    206.72844   -4334.9602   -3980.6347   -4334.9602            0    3010.3181    17.694112    23.468108    22.085144    9170.7972    3526.8524    2753.4133    2750.6885   -442.36002    767.77775    192.66057   -3578.0147 
12258000    220.22972   -4348.5357   -3971.0695   -4348.5357            0    3878.2392    18.010289     23.29116    21.850055    9165.6721    4037.0801    3292.1513    4305.4861    842.68334    151.62563    55.417889   -3452.6578 
12259000    220.79191   -4337.3045   -3958.8747   -4337.3045            0    3726.1665    18.114484    23.017357    22.044432    9191.3715    3358.6632    5284.0063      2535.83   -312.16079   -614.18448    483.89955   -3459.3943 
12260000    217.24493   -4346.8474   -3974.4971   -4346.8474            0    3993.7128    17.854371    23.533681    21.830438    9172.6933     3587.996    4320.5564    4072.5858   -656.52097   -529.04649   -177.54769   -3440.2408 
12261000    209.13505   -4348.6818   -3990.2315   -4348.6818            0    3825.0442    17.818649    23.469765    21.933684    9172.6558    4163.9665    4196.0682     3115.098    347.73179   -43.620758   -154.34144   -3478.5409 
12262000    220.87941   -4327.6656   -3949.0859   -4327.6656            0    2309.2875    18.101629    23.157455    22.012032    9227.1722      1782.22    2739.6763    2405.9663    118.32106   -460.73645    315.52941   -3638.3277 
12263000    216.73412   -4340.2956   -3968.8207   -4340.2956            0    2699.9703     18.01181    23.259515    22.011713    9221.7185     2542.968     2921.884     2635.059   -296.95205    113.13277    735.95344   -3605.7036 
12264000    204.60459   -4349.2835   -3998.5983   -4349.2835            0    4620.8408    17.836312     23.28555    21.899474    9095.4716     4170.551    4585.4388    5106.5328    341.37279    277.93815    33.088191   -3385.6524 
12265000    207.90607   -4338.8456   -3982.5018   -4338.8456            0    4156.2893    17.961726    23.475478    21.802637    9193.3021    2929.4464    5309.3305     4230.091    -228.8766   -429.48002    311.16563   -3425.2478 
12266000    202.35773   -4331.3935   -3984.5593   -4331.3935            0    4454.7799    17.945168    23.068882    22.111684    9153.6833    4955.7382    4271.0202    4137.5813   -283.65496   -116.86174    -132.6268   -3389.8592 
12267000    213.45448   -4345.2056    -3979.352   -4345.2056            0    3053.5039    18.090659    23.298617    21.809054    9192.2399    1925.1879    3456.6204    3778.7033   -379.70682    440.76425    500.14434   -3570.0011 
12268000     204.5094   -4357.9148   -4007.3926   -4357.9148            0    3821.1975    17.820255    23.255523    22.051217    9138.4508     4352.686    4311.7925    2799.1139   -138.79411   -603.32443    298.63826   -3498.1228 
12269000    212.55524   -4346.0111   -3981.6986   -4346.0111            0    2040.4842    17.892017    23.470064    21.937115    9211.9822    3659.3866    1795.9987    666.06743   -17.443558   -542.84166   -843.51194   -3707.5651 
12270000    204.94497   -4356.9676    -4005.699   -4356.9676            0     1999.722    18.067502    23.167154    22.055063    9231.6452    2839.9806    2179.2764    979.90906   -31.228815    544.68657    51.006452   -3736.4682 
12271000    207.60646   -4357.3172   -4001.4868   -4357.3172            0     3504.628    18.120884    23.096476    21.950025    9186.7123    2618.3559    4446.7283    3448.7998    308.69401    -761.2933    430.54326    -3531.941 
12272000      208.586   -4320.7529   -3963.2436   -4320.7529            0     4665.147    17.780873    23.519727    21.821912    9125.9512    4851.1844     3799.179    5345.0777    149.21024    212.81591    91.948498   -3342.3469 
12273000    211.79032   -4369.4013      -4006.4   -4369.4013            0    3902.6366     17.96713    23.202917    22.020436    9180.0955    3895.3621    4419.5359    3393.0118   -384.58365    259.51299    739.26966   -3483.9061 
12274000    216.65355   -4310.1814   -3938.8446   -4310.1814            0    4048.4919    18.103895    22.997852      21.9991    9159.3408    5445.1245     3814.534    2885.8172    603.16602    310.92462   -421.82623   -3398.0488 
12275000    209.44317   -4336.3412   -3977.3627   -4336.3412            0    2877.9215    17.885751    23.342489    21.971842    9173.1994    2360.9521    3451.3551    2821.4574   -299.30078     52.65313   -308.90957   -3592.3495 
12276000    223.77754   -4346.8018   -3963.2547   -4346.8018            0    2700.4825    17.780512    23.605553    21.960731     9217.332    2975.7499    2264.6691    2861.0285    80.015817   -216.06367    1177.6339   -3600.2415 
12277000    214.48509   -4332.3032   -3964.6831   -4332.3032            0    4561.7055    18.000283    23.319246    21.828061     9162.395    4045.3918    3996.8693    5642.8556    248.72148    1081.0455   -323.02143   -3355.1292 
12278000     202.8623   -4346.2555   -3998.5565   -4346.2555            0    2336.4114    17.864366    23.540525    21.951813    9231.5395    2272.2471    1639.8229    3097.1641    362.61218    242.09265   -419.85116   -3683.9995 
12279000    201.86064   -4359.0429   -4013.0607   -4359.0429            0    3655.8022    17.876414     23.48029     21.78714    9145.0079    3915.5733     3010.052    4041.7813    504.90471   -100.06947   -209.79895   -3525.4843 
12280000    223.18004   -4344.9749   -3962.4519   -4344.9749            0    4552.3603    17.807454    23.135758    22.130018    9117.3232    4862.5346    4249.7002     4544.846   -601.07401    88.708599    -3.370824   -3357.1391 
12281000    218.60794   -4331.7548   -3957.0683   -4331.7548            0    3644.1787    18.039807    23.284479    21.833554      9171.13    2309.2108     4139.771    4483.5542   -455.60001   -620.89077    6.4708259   -3469.6538 
12282000    219.86035   -4339.6132   -3962.7801   -4339.6132            0    4049.6098    17.780306    23.356808    22.011139    9141.0324    5425.5125    2727.0217    3996.2951   -737.67524    234.76874    590.99862   -3422.9161 
12283000    207.79599   -4332.8584   -3976.7032   -4332.8584            0    2333.1866    17.833316    23.625612    21.918813       9234.9     2837.506    3331.1482    830.90569   -603.40298    129.11415   -251.00648    -3662.466 
12284000    198.99747   -4345.7787   -4004.7038   -4345.7787            0      3105.93    18.008475    23.241615    21.984025    9201.3267    3122.4342    4057.8182    2137.5375   -160.39728   -203.22811   -1084.4727   -3587.9131 
12285000    205.98016    -4369.097   -4016.0541    -4369.097            0    3877.9723    18.050062    23.274252    21.788848    9153.5321    3948.5292    3470.9504    4214.4374    75.547421    197.70602    413.93758   -3498.3647 
12286000    199.72173   -4344.1583   -4001.8421   -4344.1583            0    3969.0162    17.761628    23.435049     22.03905    9173.6361    3425.9287    4831.2278     3649.892    283.26806    240.47086    304.18809   -3470.8351 
12287000    218.30036    -4355.459   -3981.2996    -4355.459            0    2623.7623    17.943095    23.454342    21.891671    9212.9675    4040.2528    2151.7745    1679.2597   -35.240583     625.4131    915.64837   -3628.7665 
12288000    209.67822   -4339.2526   -3979.8713   -4339.2526            0    3278.9044    18.293189    22.956541    21.851386    9176.4531    3170.7401    4449.5666    2216.4064   -338.85044    947.24806    419.26051   -3541.0583 
12289000    214.33028   -4343.9606   -3976.6059   -4343.9606            0    2961.5425    17.987108     23.17518    21.952582    9151.0319    2438.5026    2934.9452    3511.1797    262.81026   -75.027934   -292.14159   -3581.3631 
12290000    207.00155   -4339.0771   -3984.2835   -4339.0771            0    3361.2172    17.900474    23.281551    21.848642     9105.439    3065.7667     3897.748    3120.1368   -382.06248    -286.2361    126.51591   -3537.9358 
12291000    211.69595    -4351.577   -3988.7374    -4351.577            0    4000.2608    17.928375    23.432636    21.841775    9175.9281    3305.6099    3303.2795    5391.8932    -334.8369    59.514177    492.46154   -3453.4165 
12292000    204.46885   -4339.8601   -3989.4075   -4339.8601            0    2350.4567    17.948723     23.34766    22.038476    9235.4589    1529.8876    3164.2594    2357.2231   -706.90954   -350.62687   -340.75344   -3672.8252 
12293000    219.95514   -4350.0588   -3973.0632   -4350.0588            0     3549.289    18.091075    23.146848     21.91073    9175.1477    3932.6511    3987.4037    2727.8123    608.10153    437.34293    833.50307   -3498.1324 
12294000    206.03571   -4337.9735   -3984.8354   -4337.9735            0    2838.3348    18.126045     23.21431    21.957823    9239.4921    2571.7055    2557.0933    3386.2056    -389.4808    3.9337325      290.766    -3602.374 
12295000    203.16299   -4373.4007   -4025.1863   -4373.4007            0     4401.961    17.856277    23.341085    21.916751    9134.5707    5694.4802    3093.0432    4418.3596    -908.7844   -126.16561   -398.85747   -3438.7643 
12296000    218.57556   -4343.9174   -3969.2864   -4343.9174            0    4030.2353    17.917216    23.498893    21.698779    9135.9399    4545.5413    3775.8668    3769.2977   -465.19519   -190.34371    732.26903   -3432.3047 
12297000    198.88759   -4332.4653   -3991.5788   -4332.4653            0    4126.9131    17.865546    23.117139    22.095998    9125.6544    3876.8837    5017.8465    3486.0091     224.1304    -250.8131   -60.513827   -3442.3349 
12298000    204.44727   -4328.0721   -3977.6564   -4328.0721            0    4004.6228    18.228245    23.189593    21.664195     9157.576    3445.2236    4806.8594    3761.7853    13.238213     451.9428    845.62573   -3442.8236 
12299000    210.12494   -4333.4426   -3973.2957   -4333.4426            0    3654.5243    17.898997    23.328362     22.00791     9189.497     3760.893     2917.834    4284.8461    811.89998    825.84842    1040.9173   -3483.5185 
12300000     204.9904   -4346.5543   -3995.2077   -4346.5543            0    3581.3475    17.894644     23.40678      21.8535    9153.4695    3936.4453    3385.9685    3421.6288    723.79167    35.624584    80.029469   -3517.1195 
12301000    221.80819   -4346.3984   -3966.2268   -4346.3984            0    2527.6291    17.994412    23.347362    21.952385     9222.681    2742.0812    2576.7759    2264.0301   -1134.7611   -127.24068    119.92612   -3626.2522 
12302000     210.4827   -4351.9273   -3991.1671   -4351.9273            0    3163.2502    17.907623    23.262873    22.107584    9209.6386     2034.968    5394.3848    2060.3979    504.34854   -157.57509     169.4998   -3566.3011 
12303000    206.29499   -4350.2538   -3996.6713   -4350.2538            0    2898.1309     18.13912    23.387763     21.72015     9214.414    2986.8554     2376.378    3331.1592   -329.99636   -84.164452    151.40895   -3607.2124 
12304000    219.49789   -4341.7043   -3965.4924   -4341.7043            0    3639.1143    17.844225    23.226882    22.128976    9171.7019    4917.9226    2777.2039    3222.2163   -339.68806   -592.68858    279.71323    -3478.725 
12305000    210.80281   -4347.2301   -3985.9213   -4347.2301            0    2320.1488    18.005998    23.479275    21.932252    9272.2497    1556.3846    2037.0614    3367.0005  -0.59239653    280.35033    274.32853   -3672.1763 
12306000     215.5073   -4324.6571   -3955.2849   -4324.6571            0    2078.3148    17.986196    23.400338     21.95813    9241.8045    1858.6585    1078.9806    3297.3054   -81.434281     623.5753   -205.65152    -3675.165 
12307000    209.42124   -4343.8094   -3984.8685   -4343.8094            0    3303.3934    17.955203    23.301896    21.869927    9150.1645    3183.5911    3471.5217    3255.0673   -26.606341    633.04454   -286.31592   -3544.0447 
12308000    202.65077   -4332.4619   -3985.1254   -4332.4619            0    1838.6973    18.063678    23.385903    21.917911    9258.9017    1537.0812    2788.4941    1190.5166    204.38102   -300.27562   -446.28142   -3736.8432 
12309000    215.83357   -4349.5101   -3979.5787   -4349.5101            0    2588.4248    17.824361    23.307046     22.17467     9212.094    3853.0334    1784.8704    2127.3705    777.49814   -428.90656    60.527834   -3631.8266 
12310000    210.74392   -4378.4861   -4017.2783   -4378.4861            0    3050.7765    17.990729    23.413502    21.767128    9168.8791    2272.8894    2729.5531     4149.887   -223.51665   -352.28859    201.69034   -3609.3324 
12311000    204.86992   -4340.9565   -3989.8165   -4340.9565            0    2183.6833    18.066533    23.162557    22.063236    9232.7386    2150.4535    2337.5114     2063.085    486.82791    53.795272    401.50583   -3695.7835 
12312000    209.53749   -4326.6012   -3967.4611   -4326.6012            0     2400.842    17.920771    23.284039    22.067144    9207.9113    2121.1634    2878.4129    2202.9496    501.95475   -106.55221   -9.8856642   -3645.0569 
12313000    221.29393   -4322.1089   -3942.8187   -4322.1089            0    4000.3135    18.006797     23.55679    21.512316    9125.1446    3908.8074    3482.8467    4609.2865   -714.01662    192.14783    898.99382   -3410.4535 
12314000    208.16286   -4344.3314   -3987.5473   -4344.3314            0     4086.938    17.714007    23.343285    22.159205    9162.9003    3299.8955    4579.5046    4381.4139    855.64961    526.38538   -1039.7969   -3441.4037 
12315000    205.96553   -4364.1389    -4011.121   -4364.1389            0    2657.7383    18.050924    23.242814    21.911917    9193.2386    2137.3625    2367.4832    3468.3693    131.56029    344.41041    782.17353   -3654.7875 
12316000     225.1164   -4343.6137   -3957.7719   -4343.6137            0    4108.9387    18.066875    23.038313    21.969912    9144.5438    4285.9878    4830.6714    3210.1569     680.4985   -383.68964    215.43098   -3409.7883 
12317000    200.98655   -4364.3811    -4019.897   -4364.3811            0    3258.0029    17.881802    23.499978    21.973107    9233.5818    3753.8207    4672.3947    1347.7934   -26.284905   -289.04349    488.41235   -3581.1668 
12318000    200.57702   -4327.6801   -3983.8979   -4327.6801            0    4573.8005    17.867332    23.421822    21.767209    9109.2609    5861.7597    3402.2378    4457.4041    866.43409   -180.24976    246.10999   -3376.2721 
12319000    201.52401   -4361.8572   -4016.4519   -4361.8572            0    2332.2855    17.872202    23.195951    22.126466    9172.8079    2578.9553      2784.32     1633.581   -534.19108   -364.62403    131.58869   -3704.4481 
12320000    211.01156   -4348.2355   -3986.5689   -4348.2355            0    2843.2443    18.272514    23.147069    21.840795    9237.6767    1192.6114    4562.6582    2774.4634   -237.42988    205.56123    236.52569   -3603.5212 
12321000    208.42904   -4348.2846   -3991.0444   -4348.2846            0    3003.1046    17.920592    23.209619    22.153504    9214.3098    2009.3152    3395.2099    3604.7887    318.44493   -410.74961    367.43785   -3587.4834 
12322000    210.40349   -4297.4379   -3936.8135   -4297.4379            0    2539.1241    17.928632    23.623994    21.818493    9241.1331     1765.459    3547.9353    2303.9781   -1218.6434   -350.81953    -188.1852   -3594.6095 
12323000    204.93617   -4367.4495   -4016.1959   -4367.4495            0    3956.9012    17.858838    23.398757    22.076716    9225.2987    4615.3536    3760.2774    3495.0728    429.73615   -495.41489     464.2651   -3483.8284 
12324000    211.62472   -4358.6293   -3995.9118   -4358.6293            0    3329.1183    18.007667    23.370291    21.865029    9201.7758    3665.9277    3921.5694    2399.8577    114.51753    92.348627    -32.21413   -3549.1492 
12325000    205.20461   -4341.5527   -3989.8391   -4341.5527            0    3682.1109    18.085876    23.030271    22.014082    9169.3635    2104.0954    4254.3031    4687.9343   -313.84548   -17.952264    656.89278    -3497.446 
12326000    204.94299   -4339.3169   -3988.0516   -4339.3169            0    5606.9884    17.879408    23.312944    21.851171    9108.0408    5718.0359    5852.7819    5250.1473   -1185.3805    -895.8665   -338.01014   -3243.2673 
12327000    204.97425   -4354.4593   -4003.1404   -4354.4593            0    4096.4734    17.917218    23.394213    21.892968    9176.6393    3022.7874    3515.4828    5751.1501     580.0186    329.78646    48.864337   -3454.9017 
12328000    214.74276   -4318.7411   -3950.6793   -4318.7411            0    3871.8475    17.853014    23.222557    22.094889    9160.3781    4014.7313    3081.7734    4519.0378    1179.6658    239.82745   -326.84145    -3433.421 
12329000     209.1452   -4351.0401   -3992.5724   -4351.0401            0    3709.5255     18.17962    23.235861    21.750843    9187.9717    1858.0714    4884.6899    4385.8152   -422.68944   -220.46937   -1289.5294   -3495.5066 
12330000    219.32206   -4333.3394   -3957.4289   -4333.3394            0    3523.8463    17.871612    23.261023    22.145459    9206.1323    4585.6303    2929.5738    3056.3348    186.04918    94.656332   -60.513474   -3484.3102 
12331000    210.53744    -4343.016    -3982.162    -4343.016            0    2418.5879    17.893187    23.627916    21.715029    9180.6521    2136.7022     2370.292    2748.7695    72.154304   -73.484351   -378.44238   -3658.3363 
12332000    207.33009   -4359.7297    -4004.373   -4359.7297            0    3790.7332     17.86215    23.374453    21.949006    9164.1048    4649.4119    3429.7843    3293.0034   -1363.8096   -330.99958    340.04384   -3497.7451 
12333000    199.69299   -4344.5907   -4002.3237   -4344.5907            0    2553.7543    17.975851    23.426088     21.84733    9199.9946    2841.1933    2628.2602    2191.8095    999.60523   -631.63061   -45.955914   -3659.6802 
12334000     216.6384   -4322.9601   -3951.6493   -4322.9601            0    3003.3722    17.830715    23.562592    21.827647    9170.6208    3250.3546    1460.4373    4299.3248    -807.2609   -238.57831   -326.71292    -3549.966 
12335000    201.36527   -4333.5591   -3988.4259   -4333.5591            0    4022.7613    17.845534     23.39647    21.967469    9171.9128    5926.6019     3356.259     2785.423   -544.94595   -396.70712   -128.89335   -3450.3296 
12336000    218.33015   -4362.3699   -3988.1595   -4362.3699            0    2340.8511    18.125461    23.306039    21.895728    9249.4716    856.00641    3266.0827    2900.4643    950.22921   -137.60151   -232.10279   -3672.3926 
12337000    209.63459   -4359.7006   -4000.3941   -4359.7006            0    3124.3806    17.968837     22.97119    22.235071    9177.8717    3430.4865    3311.5109    2631.1443    291.41563   -136.01966       714.16   -3582.1963 
12338000    216.87385   -4331.4143   -3959.6999   -4331.4143            0    4083.9319    17.957003    23.331613    21.818074    9141.0279    2726.4583    4045.7451    5479.5924   -199.82876    680.49298    156.79549   -3415.2607 
12339000    200.92135   -4354.1974    -4009.825   -4354.1974            0    2752.2452    17.581641    23.584831    22.139127    9180.2111    4066.2969    1407.4517    2782.9869    726.62383   -118.60033   -453.53038   -3641.3435 
12340000    207.32998   -4339.0749   -3983.7184   -4339.0749            0    3053.3913    17.997549    23.488017    21.732464    9186.8936    2581.1001    3402.5941    3176.4797    660.38266    523.70275    62.675581   -3574.6207 
12341000    202.19313   -4358.2431    -4011.691   -4358.2431            0    3344.1439    18.088954    23.202942    21.918687     9199.644     2533.547    4446.6373    3052.2473   -125.24505     260.4394    223.54361    -3563.016 
12342000    211.19738   -4331.3903   -3969.4052   -4331.3903            0    3536.2169    17.969752     23.33626    21.862775    9168.0848    3613.5327    4130.2448    2864.8732   -867.77553     410.5398    257.17227   -3496.5879 
12343000    206.91138   -4356.2151    -4001.576   -4356.2151            0       5286.2    17.906028    23.127919    21.920756    9078.0244    4821.6789     5350.538     5686.383    1596.9967    636.97906    125.29289   -3301.7166 
12344000    207.07678   -4348.0478   -3993.1253   -4348.0478            0    2822.1844     17.96548    23.259911    22.056333    9216.8003    2900.6278    2403.0377    3162.8879    634.45167   -696.20123   -260.39638   -3613.7741 
12345000    209.68729   -4358.2656   -3998.8688   -4358.2656            0    3279.4751    17.956294    23.418722    21.770744    9154.8907    3415.8024    2464.2412    3958.3816    1182.7306    -167.0831    958.74411   -3561.0107 
12346000    220.65712   -4351.4543   -3973.2556   -4351.4543            0     3368.056    17.885995    23.137579    22.311625    9233.4118    3736.8817    3066.9592    3300.3272   -279.96153   -26.375645    1075.5975   -3519.7137 
12347000    214.61285   -4348.8069   -3980.9678   -4348.8069            0    5126.8001    18.054108    23.301034    21.647776     9106.773    4005.3691    4260.1879    7114.8433   -1860.8057   -652.11819   -78.240243   -3300.0624 
12348000    202.09906   -4355.4428   -4009.0519   -4355.4428            0    3178.7038     17.79716    23.312106    22.205975    9213.0207    4580.5824    2935.2304    2020.2986    269.99325    6.8867909    410.69657   -3581.9535 
12349000    208.66957   -4336.3509   -3978.6984   -4336.3509            0     2624.728    17.873019    23.581653     21.84698    9207.9632     3935.338    2879.4823    1059.3636    -385.1975    13.813304   -26.193783   -3626.2271 
12350000    206.63852   -4357.6122   -4003.4409   -4357.6122            0    3249.4668    17.905473    23.395857    21.923423    9184.0259    3389.0162    3698.1015    2661.2827     322.6689    813.57399    -248.2387   -3568.2086 
12351000    198.24866   -4355.9141   -4016.1227   -4355.9141            0    4252.6704    17.926635    23.202651    21.982087     9143.349    4465.9663    3440.0806    4851.9644     28.95468    479.06158    307.60655   -3449.0445 
12352000    219.43939   -4347.0211   -3970.9095   -4347.0211            0    4084.6988    18.106541    23.152348    21.840755    9155.8398    3372.6856    4702.5699    4178.8407   -709.41566   -6.3518524   -453.13396   -3425.4856 
12353000    209.60226   -4336.1852   -3976.9341   -4336.1852            0    3188.6224     17.88598    23.330885    22.126741    9233.3947     3009.259    4297.3843     2259.224    498.70011   -232.91942   -335.43192   -3547.5555 
12354000    209.36123   -4343.0395   -3984.2015   -4343.0395            0    3215.7106    17.861373    23.633809    21.807352    9205.5874    1489.3299     3356.254    4801.5479     803.6103     951.4591   -519.21281   -3552.4793 
12355000    211.03984   -4332.7083   -3970.9932   -4332.7083            0    3200.3622    17.991476    23.176609    22.130175    9227.8716     5121.134     2844.701    1635.2516   -1071.2899   -442.81377    369.89589   -3540.2916 
12356000    202.30121   -4356.1981   -4009.4607   -4356.1981            0    4295.0339    18.012046    23.244927    21.779486    9118.8241    3553.1585    5080.0768    4251.8663   -547.86765    90.847829    985.85966   -3438.2698 
12357000    209.70816   -4355.8641   -3996.4315   -4355.8641            0    3360.1965    17.874753    23.320978    21.950562    9150.2396      3867.79    4303.3499    1909.4495    561.46483   -30.352613   -404.99993   -3548.0238 
12358000    206.08534   -4332.5307   -3979.3075   -4332.5307            0    3352.2082    17.866849     23.37344    22.025546    9198.0822    5386.3768    1254.2725    3415.9754   -326.82056   -295.24179     769.5594   -3529.6269 
12359000    218.97703   -4365.3727   -3990.0535   -4365.3727            0     3368.584    18.151492    23.179546    21.767444     9158.507    4013.8936    2150.8738    3940.9847    368.28866   -1188.5915   -303.24925   -3540.1204 
12360000     209.1198   -4353.9491    -3995.525   -4353.9491            0    3432.4426    17.927446    23.187021    22.063278    9171.3528     3634.598     4268.022    2394.7076   -111.69088   -255.86522   -105.79788   -3536.4194 
12361000    206.02929   -4331.2479   -3978.1208   -4331.2479            0    3249.7207    17.815619     23.47836      21.9714    9190.2301     3776.329    4024.5952    1948.2378    -610.4193    313.57116   -118.15312   -3542.5605 
12362000    211.14976   -4344.2236   -3982.3202   -4344.2236            0    2720.9594    17.898692     23.55685    21.859299    9216.6848    4417.2489    2139.6669    1605.9623   -592.54618   -409.63262   -386.30464     -3616.58 
12363000    204.91209   -4345.3106   -3994.0983   -4345.3106            0    3849.1253    18.108008    23.042426    21.936124    9152.9007    3167.5633    3735.0156     4644.797    -1303.775    69.409723   -167.95965   -3480.2952 
12364000    221.01942   -4335.8007    -3956.981   -4335.8007            0    3423.6222    18.039209    23.228827    21.929218     9188.993    2594.9512    4974.1716    2701.7437    200.28506    254.63072    1125.5637   -3498.1744 
12365000    213.69647   -4330.3568   -3964.0884   -4330.3568            0    3073.0646    17.872482     23.56853    21.816446     9189.701    4080.4208    2357.8942    2780.8788   -19.513555    43.132799    791.53756    -3552.229 
12366000    203.10207   -4349.3575   -4001.2475   -4349.3575            0    2983.8319    17.853857    23.386574    22.019706    9194.1201    3832.6171    3772.1917     1346.687   -1129.4212    203.02952   -371.98531    -3601.155 
12367000    199.79751   -4350.8429   -4008.3968   -4350.8429            0     5155.029    18.024315    23.338876     21.62665    9097.6237     3574.533     4273.616    7616.9378    527.34924    673.22928    640.18458     -3324.43 
12368000    210.23374   -4366.3957   -4006.0623   -4366.3957            0    3225.7452    17.867511     23.25473    22.132002    9195.9383    3510.9388    3674.5465    2491.7502   -417.18349    163.58931   -223.76806   -3573.4468 
12369000    200.85452   -4321.3778     -3977.12   -4321.3778            0    2614.4174    17.977906    23.601853    21.700879    9207.9413    3747.2334    1738.3171    2357.7015    847.81276    -405.0804   -234.94177   -3626.0342 
12370000    210.75353   -4355.1786   -3993.9542   -4355.1786            0    3605.8131    17.917959    23.262134    21.996531    9168.3732    4535.7482     2717.343    3564.3482   -97.937812   -203.49976    639.55245   -3511.8162 
12371000    209.44049   -4358.8584   -3999.8845   -4358.8584            0    2747.0125     17.98736    23.353621    21.848051    9177.7107    3202.0702    2361.2329    2677.7345    15.117299   -341.47614   -758.74266   -3632.2038 
12372000    221.99139   -4342.5462   -3962.0605   -4342.5462            0    3745.0431    17.794599    23.481088     21.92256    9160.0469    3838.2907     3460.025    3936.8136   -255.85128   -846.22914    609.98012   -3461.7606 
12373000    201.51127     -4360.05   -4014.6665     -4360.05            0    3537.8492    17.746545    23.336258    22.048794    9131.2427    4900.5547    3580.8875    2132.1054   -649.13358   -630.72285    548.89399   -3543.5318 
12374000    208.40791   -4326.5718   -3969.3678   -4326.5718            0    3676.3277    18.092817    23.289654    21.831037     9199.063    3027.9592    3410.5096    4590.5142   -231.55465    102.27094    231.31826   -3476.1557 
12375000    218.37733   -4325.8781   -3951.5869   -4325.8781            0    3165.1302    17.974837     23.25488    22.052914    9218.1769     3474.232    2973.1233    3048.0352    11.664685    799.62867   -74.260621   -3526.0742 
12376000    203.22598   -4339.2407   -3990.9183   -4339.2407            0    3531.4566    17.810836    23.499049     21.96463    9193.0257    2985.8993    3133.4863    4474.9842    326.02884   -165.98751   -3.1885746   -3517.4529 
12377000    211.62919   -4341.3712    -3978.646   -4341.3712            0    4116.0062     17.63836     23.72148    21.828733    9133.3164    5263.9028     2753.705    4330.4106   -1287.0604   -35.463227    477.32491   -3430.3938 
12378000    216.03525   -4351.7378   -3981.4607   -4351.7378            0    3229.3298    17.976081    23.365704     21.88223     9191.057    3061.8369    2973.6069    3652.5456    590.51769    139.02164    387.03188   -3548.5945 
12379000     214.3787   -4326.9738   -3959.5361   -4326.9738            0    3126.8677    18.113279    23.063921    21.890416    9145.0109    2336.3609    3369.7527    3674.4895   -649.88646    102.04096    264.99789   -3542.5038 
12380000    204.75395   -4360.8482   -4009.9069   -4360.8482            0    3641.6516    17.875879    23.340446    21.857871    9119.7814    2996.7221    3915.0497     4013.183    732.07828    382.57336    95.525868   -3525.5576 
12381000    212.66769   -4373.9575   -4009.4523   -4373.9575            0    2467.9068    17.658231    23.848946    21.738756     9154.846    3658.0753    1032.4764    2713.1687    265.60753   -279.18833    24.598091   -3679.9521 
12382000    224.80472   -4342.1347   -3956.8271   -4342.1347            0    3668.6657    17.896149    23.136165     21.95867     9091.949     3984.892    4815.8271     2205.278    277.21434    660.40315   -264.84925    -3470.374 
12383000    203.95794   -4339.7929    -3990.216   -4339.7929            0    4610.0057    18.250613    22.846504    21.826515    9100.8428    4390.3211    5462.6618    3977.0342   -508.66025    14.109661     499.0602   -3378.3462 
12384000     202.5568   -4350.4658   -4003.2904   -4350.4658            0    5219.7343    17.811842    23.255433    21.922624     9080.835    4405.8631    5031.8078    6221.5319   -162.81395    -486.9702   -154.58006   -3312.0166 
12385000     201.6868   -4362.9453    -4017.261   -4362.9453            0    3025.1776    17.903896    23.566454    21.824658    9208.5074    3451.2996    1672.5022    3951.7309    -337.4244    490.16808   -956.36213   -3610.9898 
12386000    209.77342   -4345.8672   -3986.3227   -4345.8672            0    2113.7879    18.043246    23.202215    22.039231    9226.5757     950.0501     2129.998    3261.3155    884.80657    607.16886   -417.37799   -3701.8911 
12387000    212.69074   -4371.0166    -4006.472   -4371.0166            0    3350.6179    17.873133    23.384419    21.922851    9162.7177    3168.5497    4479.7094    2403.5947   -794.95263   -1198.3657   -82.312539   -3558.7328 
12388000    215.61042   -4347.4964   -3977.9475   -4347.4964            0    4637.6408    17.681786    23.604901     21.78282    9091.6438    5474.7993    4429.4723    4008.6509    -356.8854   -764.17287    -70.84944   -3363.0321 
12389000    189.53105     -4353.26   -4028.4103     -4353.26            0    2909.6656    17.985084    23.146793    21.975351    9148.2729    2606.7416    3725.7064    2396.5487   -310.00022   -196.28288    -38.62256    -3640.208 
12390000    211.90828    -4351.807   -3988.6035    -4351.807            0    4836.3185    18.056834    23.063871    21.812332    9083.9742    5649.4861    4463.5073    4395.9621   -488.31846     529.7826   -168.89924   -3347.8858 
12391000    199.48219   -4351.3893   -4009.4836   -4351.3893            0    3386.4737    17.895081    23.292982     21.95628    9152.0318    4933.6781      4630.89    594.85291    98.128446   -82.110787   -85.822275   -3557.4808 
12392000    202.58055   -4352.2942    -4005.078   -4352.2942            0     1912.044     17.84053    23.704399    21.800102    9219.2426    1181.4933    1050.3083    3504.3303   -59.267529   -719.63446    170.82282   -3747.9976 
12393000    205.08734   -4354.6859   -4003.1732   -4354.6859            0    4281.8662    17.965727    23.155647    21.923717    9120.4423    4619.1545    5029.8238    3196.6204   -184.10406    498.35136    203.21092   -3433.6323 
12394000    209.51375   -4353.6735   -3994.5741   -4353.6735            0    3618.0945    17.972726     23.33232    21.844588    9160.4273    3493.2355    4868.4578    2492.5903    1027.1448   -378.28032   -1274.8808   -3511.2132 
12395000    211.75048   -4327.2115   -3964.2784   -4327.2115            0    3250.8753    17.972317    23.328114    21.852716     9161.975    4070.1563    1448.2331    4234.2366    695.07177    92.118115    488.26139   -3529.9029 
12396000    199.66557   -4340.0336   -3997.8136   -4340.0336            0    3443.8508    17.914438    23.136188    22.127968    9171.4187    3959.8596    5058.8003    1312.8924    166.82989    682.13648    591.08132   -3537.1788 
12397000    201.72359   -4359.1003    -4013.353   -4359.1003            0    3750.4911     17.92512    23.361738    21.957906    9195.1359    1862.4574    3619.7588    5769.2573    1009.6717     490.9659    703.32787    -3510.406 
12398000    199.73224   -4361.2998   -4018.9655   -4361.2998            0     2855.844    17.859332    23.520828    21.965981    9227.1678     3716.417    2942.3167    1908.7983   -300.20957    436.48867    107.38509   -3634.6581 
12399000    227.98453   -4350.1919   -3959.4342   -4350.1919            0    2388.0038    18.177251    23.159018    22.033947    9275.5709    3664.6375    2315.4021     1183.972   -390.60849    237.55072    137.01688   -3636.3977 
12400000    208.94135    -4352.878   -3994.7597    -4352.878            0    4139.7264    17.998821    23.162445    21.984139    9165.1151    4745.5757    4996.4181    2677.1854    1243.1052    274.40734     -818.585   -3441.4281 
12401000    217.54831   -4340.3169   -3967.4465   -4340.3169            0     4179.274    17.716653    23.486607    22.003397     9155.703    5461.0558    3200.8567    3875.9095    1408.3523     891.4317    279.97406   -3409.4025 
12402000    210.36127   -4377.9529   -4017.4009   -4377.9529            0    3047.5171     17.89284    23.598159    21.856066    9228.4632    3449.1608    2771.1945     2922.196    553.39349    -578.2949   -447.85773   -3607.2426 
12403000    196.41325   -4319.9842   -3983.3386   -4319.9842            0    2929.6321    18.092517    23.020189    22.139528    9220.9619    3097.8878    3309.0588    2381.9496   -737.10284   -396.01371    475.80003   -3589.3667 
12404000    204.98138   -4365.0479   -4013.7168   -4365.0479            0     2967.503    18.071879    23.317329    21.943804    9246.8546    2109.2914    3252.6265    3540.5909    191.36504    311.46929   -489.28939   -3613.5316 
12405000    206.52678   -4348.4368    -3994.457   -4348.4368            0    3725.5695    17.793584    23.510312     21.95964    9186.4355    3613.0706    1546.7255    6016.9123    560.75466    642.97591    401.05804   -3495.3248 
12406000    195.03224   -4357.9787   -4023.7001   -4357.9787            0    4222.0494    17.755771    23.451766    21.927262    9130.6034    3776.6651    4779.2856    4110.1975    35.550284   -312.53779    613.85495     -3461.49 
12407000    208.67256   -4355.2948   -3997.6371   -4355.2948            0    4301.4866      18.0214      23.2011    21.902333    9157.7221    3605.0656    4322.2944    4977.0997    -241.9471   -215.33666   -285.61213   -3423.1479 
12408000    211.40376   -4364.7924   -4002.4536   -4364.7924            0    3120.8105    18.170155    23.129742    21.863287    9188.5058    2487.3941    3475.6369    3399.4005   -422.26499     173.8334      457.344   -3584.2496 
12409000    209.21262    -4354.511   -3995.9278    -4354.511            0    2857.8909    17.913423    23.488232    21.901232    9215.0448    2984.7117     1981.228    3607.7329   -589.06976    505.77992    419.17773   -3611.8502 
12410000    221.77199   -4338.9494   -3958.8398   -4338.9494            0    3774.8107    17.844609      23.5336    21.810378    9159.2224    2825.9552    2753.7228    5744.7541   -128.67564    675.39643    171.98418   -3454.6086 
12411000      205.996   -4372.1339   -4019.0638   -4372.1339            0     2472.453    18.059379    23.314406    21.832351    9192.3737    3625.3973    1612.4991    2179.4626   -216.70412   -229.46681   -105.14874   -3687.6035 
12412000     200.2007   -4340.3995   -3997.2623   -4340.3995            0    3273.9823    18.074629    23.164543     21.91824     9176.959    2426.4642    1645.8989    5749.5836   -702.07947   -81.526344    30.289855   -3559.0839 
12413000    211.87245   -4347.3137   -3984.1715   -4347.3137            0    3187.0171    17.734542    23.511855    21.905289    9133.8918    2812.4312    3077.2678    3671.3525   -1408.8721   -279.25958    320.75845    -3559.634 
12414000    209.79447   -4360.9507   -4001.3702   -4360.9507            0    3147.0876    17.855337    23.611256    21.810626    9195.0748    4158.9925     1995.118    3287.1522   -982.59584    88.001727    519.85694   -3579.3434 
12415000    209.03802   -4346.4395   -3988.1555   -4346.4395            0    3574.7288    17.985394    23.197865    21.922408    9146.5274    4309.8819    2786.2789    3628.0257   -1366.4849   -338.05089    127.89564   -3511.3127 
12416000    205.96724   -4331.3148    -3978.294   -4331.3148            0    3360.1713    18.151357    23.215294    21.779322    9177.5692    2231.1254    3014.4114    4834.9773    562.08711    718.95314     801.4455   -3528.5504 
12417000    205.51255   -4365.1128   -4012.8713   -4365.1128            0     4594.401    17.711062    23.692522    21.773712    9136.6794    3848.4906    4291.8533    5642.8589   -608.19789    284.88384   -652.19788   -3400.6715 
12418000    218.53092   -4328.2568   -3953.7023   -4328.2568            0    3749.3762    17.790097    23.424478    21.964948    9153.3152    5006.7635     3603.309    2638.0562    154.20965    165.05574    570.95765   -3453.1916 
12419000    221.93451   -4335.2076   -3954.8194   -4335.2076            0    2134.9581    18.372122    23.215949    21.608277    9216.4971    1135.7143    2275.7295    2993.4306   -968.74574    53.415177    452.33452   -3667.8529 
12420000    214.14151    -4353.845   -3986.8138    -4353.845            0    3305.8227    17.971477    23.057994    22.068808    9145.0095    3237.5837    2997.1991    3682.6851    432.67734    256.99706   -124.20583   -3545.9143 
12421000    213.46457   -4363.2543   -3997.3833   -4363.2543            0    2097.0562    17.989385    23.550196    21.801405    9236.2426    3119.4311    2113.7238    1058.0137   -398.74087    627.89948   -59.500523   -3714.9075 
12422000    214.26418   -4352.9308   -3985.6893   -4352.9308            0    4235.0753    17.766141    23.301235    21.982509     9100.166    4748.1544    4007.0458    3950.0256    249.64371   -105.91262    352.32362   -3423.6246 
12423000    200.06487      -4338.3   -3995.3957      -4338.3            0    2581.7634      17.9573      23.3504    22.001394    9225.4075    3107.2355    1216.9244    3421.1301    481.45435   -487.94767    1115.7019   -3648.0372 
12424000    207.85423   -4359.6573   -4003.4023   -4359.6573            0    5179.0461    17.969081    23.331385    21.668955    9084.5692    4335.1739     5303.366    5898.5985   -892.04378    16.607184    465.70128    -3317.235 
12425000    227.00106   -4371.7581   -3982.6861   -4371.7581            0    2749.1437    17.902925    23.145487    22.262008    9224.7511    2734.6386    6249.9084   -737.11585    811.74413     -209.564    199.05953   -3612.8341 
12426000    209.01956   -4358.5809   -4000.3285   -4358.5809            0    3234.3369    18.036989    23.294984    21.877534    9192.3135    3116.2733    4271.9233    2314.8139    369.39416    462.09183    974.42121   -3566.7318 
12427000    212.54504   -4336.5282   -3972.2333   -4336.5282            0    3932.7169    17.837727    23.337444    22.080019    9191.6239    4286.3724    4745.6228    2766.1555    -994.7871    166.38115    951.50405    -3445.051 
12428000    213.15966   -4337.5463    -3972.198   -4337.5463            0     4812.203    17.752975    23.467989    21.937816     9139.878    5105.8544    5164.7353    4166.0192    724.57553    233.12669    147.36967   -3330.7518 
12429000    203.46066   -4339.5238   -3990.7992   -4339.5238            0    3441.0437    17.992564    23.426986    21.802061    9189.8206    4636.7517    1390.3105    4296.0689    -937.9264    1087.8305    180.89606   -3529.6164 
12430000    204.51204   -4342.1351   -3991.6084   -4342.1351            0    2968.3701    18.087954    23.005157    22.075297    9185.8891    3854.7607    2822.8504    2227.4992   -317.78306    -719.3269    41.839268   -3593.9455 
12431000    214.19944   -4345.7195    -3978.589   -4345.7195            0    3161.5221    17.991211    23.351017    21.748662    9136.8973    3306.6297    2224.2881    3953.6486   -231.37113    126.33148   -235.95606    -3557.309 
12432000     221.4604   -4345.5391   -3965.9636   -4345.5391            0     2808.267    17.828374    23.455696    21.993123    9197.0168     2657.315    4057.1556    1710.3303    1092.5639    402.40531   -798.39741   -3589.2934 
12433000    203.31291   -4352.2422   -4003.7708   -4352.2422            0    3251.2102    18.044566    23.360642    21.784439    9182.8523    3268.8637    2728.6819    3756.0849   -440.56236   -410.66929    197.62371   -3568.3607 
12434000    205.84828   -4360.0772   -4007.2603   -4360.0772            0    3000.2766    18.130425     23.09751    21.935751    9185.9829    1868.0423    4385.9214    2746.8661   -170.23136   -38.572354    74.166539   -3605.3189 
12435000      222.826   -4352.8099   -3970.8938   -4352.8099            0    4669.6338     17.81085    23.391958    21.944264    9142.6533    3753.4441     4862.036    5393.4213   -300.31427    451.77241   -439.00238   -3348.2625 
12436000    219.76805   -4344.2071   -3967.5322   -4344.2071            0     3786.787    18.005582    23.494325    21.594146      9134.95    3120.4604     2273.312    5966.5885   -1213.7179    85.625707   -1322.1519   -3463.0418 
12437000    207.84969   -4353.7199   -3997.4726   -4353.7199            0    2870.6188    17.994637    23.078127    22.140705    9194.6477    2387.9823    2158.1798    4065.6941    615.46186   -504.96702    855.28344   -3612.5384 
12438000    218.80587   -4336.8819   -3961.8561   -4336.8819            0    4468.7982    17.977663    23.352126    21.848151    9172.2179    2777.1927    3807.5115    6821.6904   -398.49574    648.34489    65.332433   -3364.0766 
12439000    197.17421   -4356.6083   -4018.6584   -4356.6083            0    2608.2673    17.852053     23.52242    21.970175    9225.7926    2336.1727    3155.8751    2332.7541   -434.81247   -67.546324   -871.17193   -3667.7194 
12440000    214.51223   -4317.1259   -3949.4593   -4317.1259            0    3518.3521    17.701911    23.532656     21.97154    9152.7498    4122.9666    2510.7062    3921.3835    416.04021    315.49135    62.793246   -3479.8174 
12441000    215.35646   -4348.7421   -3979.6285   -4348.7421            0    3171.8272    17.955025    23.394851    21.934917    9213.8747    2583.6224    2316.8724    4614.9869    647.03785   -945.94549   -668.55253   -3553.4145 
12442000    203.47969   -4326.6734   -3977.9162   -4326.6734            0    3022.0611    18.003102    23.193895    22.056845    9210.1017    2924.3233    2824.6885    3317.1714    181.01042   -243.35233   -247.63106   -3571.9933 
12443000    213.48721   -4347.6401   -3981.7303   -4347.6401            0    3068.4863    18.002019    23.427649    21.820568    9202.7149    2821.6293    1974.9962    4408.8334    402.74947   -505.80503   -33.557828   -3569.9022 
12444000    218.44982   -4342.5685    -3968.153   -4342.5685            0    3311.2335    17.856252    23.276754    22.216451    9233.9475      3152.07    5150.9411    1630.6894   -1034.8403    528.82653   -124.37682   -3522.2369 
12445000    208.02907   -4347.4395   -3990.8848   -4347.4395            0    4342.0297    17.996124    23.310679    21.822063    9154.3962    3880.0523    4229.9006    4916.1362   -398.10665    125.93246    186.29775   -3411.1914 
12446000     213.0918   -4353.8929   -3988.6608   -4353.8929            0    2700.8166    17.800924    23.375225    22.079653    9187.3567    3098.5875    4268.8854    734.97689     9.575593   -520.66498    30.074691   -3626.7833 
12447000    226.53979    -4373.782   -3985.5005    -4373.782            0    2428.6585    17.841605    23.374701     22.15268    9238.6019     2961.464    1337.7841    2986.7273    23.471408   -19.176337   -1601.8218   -3658.2739 
12448000    210.48947   -4343.0872   -3982.3155   -4343.0872            0     3756.469    18.049489    23.222475    21.854108    9160.2326    3038.5101    3390.9839    4839.9129    247.53428   -8.9663216   -738.65331    -3480.479 
12449000    215.75995   -4340.0675   -3970.2623   -4340.0675            0    3385.4061    17.901516    23.166513    22.106309    9167.8332    2467.0213     6100.135     1589.062    109.51052     221.1281    34.658875   -3517.6219 
12450000    204.90358   -4340.3206   -3989.1229   -4340.3206            0    3288.5791    17.879652    23.593503    21.725091    9164.5912    4241.3229    2729.3416    2895.0727     566.1013    -337.0523   -775.17909    -3549.584 
12451000     205.7151   -4342.8154   -3990.2268   -4342.8154            0    3737.5953    17.884849    23.267752    22.034211    9169.3218    3981.9482    3318.4201    3912.4175   -35.219727   -833.94305    146.68007   -3490.4163 
12452000    210.11382   -4327.2404   -3967.1125   -4327.2404            0    3330.4403    18.184306    23.054448     21.81105     9143.828    2215.2308    5240.5793    2535.5108    168.17851   -93.472416    914.60873   -3522.9871 
12453000    207.23604   -4365.2459   -4010.0504   -4365.2459            0    2782.3231    17.972519    23.453145    21.872902    9219.6926    3029.8468    2080.3541    3236.7684    343.91952    56.330677   -295.27673   -3635.9399 
12454000    197.43193   -4338.6958   -4000.3043   -4338.6958            0    3298.6327    17.633245    23.556744    22.045838    9157.4406    4451.3629    1551.2784    3893.2569    638.09596   -203.43662   -82.737075   -3559.7657 
12455000    200.29283   -4353.0164   -4009.7213   -4353.0164            0    3071.0282    17.988977    23.137597    21.901987    9116.0824    2522.1731     3603.712    3087.1997   -391.05472   -216.54105   -46.538738    -3601.432 
12456000    204.59829   -4354.0749   -4003.4005   -4354.0749            0    3921.2857    18.230262    22.964575    21.828275    9138.4119    1644.2984    4719.2072    5400.3514    726.90276     121.2976    673.33025   -3480.7936 
12457000    218.23947   -4361.2723   -3987.2173   -4361.2723            0    4293.5375     17.85951    23.326962    21.929256    9135.9059     4418.443    4148.9495      4313.22   -278.11924    453.88071   -140.63823   -3415.1557 
12458000     212.8967   -4339.3192   -3974.4216   -4339.3192            0    3304.1918     17.95773    23.486694    21.808913    9198.2949    4746.2403    2102.1756    3064.1594   -313.01679    61.934842    266.36408   -3531.1719 
12459000    206.15944   -4342.4145   -3989.0642   -4342.4145            0    2234.4917    17.898346    23.173092    22.228446    9219.4709    2518.4779    2894.9744    1290.0227    459.40841   -1611.5136   -207.16417   -3688.6223 
12460000    207.12687   -4324.5676   -3969.5592   -4324.5676            0    3060.9716    18.001637    23.376863    21.922767    9225.5784     2347.467    2769.8576    4065.5901   -520.55726   -531.50626   -421.26139    -3557.719 
12461000    210.66793   -4354.0114   -3992.9338   -4354.0114            0    3364.7744    17.716346    23.562116    21.906008    9144.3258    2607.8744    1967.7187    5518.7302    -222.8752    479.47282    395.73358   -3544.2054 
12462000    212.61231    -4348.752   -3984.3418    -4348.752            0    4239.6047    17.966488     23.15848    21.924929    9122.4491    3836.4514    3780.8359    5101.5268    435.61471   -184.67941    759.63724   -3420.2981 
12463000    214.12308   -4341.1573   -3974.1577   -4341.1573            0    3568.8852    18.145649     23.20653    21.727013    9149.1917    2196.8603    3809.7554      4700.04    516.09554   -470.79524   -537.42655   -3497.9557 
12464000    191.20043   -4330.0892   -4002.3782   -4330.0892            0    1751.3463    17.901663    23.399827    22.092559    9254.4808    1855.8469    852.39337    2545.7985   -1181.1668   -143.32792    219.32076   -3766.0041 
12465000     192.5296   -4362.7956   -4032.8065   -4362.7956            0      3664.31    17.863854    23.453743    21.789675    9129.3125    3387.7356    4120.3372    3484.8573    471.02435    1033.0743   -965.56911   -3544.9342 
12466000     211.9542   -4356.6011   -3993.3189   -4356.6011            0    3964.1289    17.929416    23.036187    22.068414     9114.815    1990.7464    3902.2403    5999.4001    -1.480918    317.68999    392.90177   -3466.3663 
12467000    209.41111   -4375.5638   -4016.6403   -4375.5638            0    3042.5518    18.032446    23.383139    21.886229    9228.4417    3153.1789    3053.5863    2920.8902   -301.73739   -970.00198   -234.50254   -3607.1513 
12468000    215.85062     -4352.42   -3982.4594     -4352.42            0    3477.4725     17.82199    23.386961    22.042807    9187.4896    3958.6464    2493.0461    3980.7251   -326.62313   -10.115018     29.92074   -3516.5125 
12469000    207.42942   -4332.3237   -3976.7968   -4332.3237            0    3292.1908     17.87742    23.462359    21.947434    9205.7734    2734.3999    1982.3253    5159.8472   -476.14241    -509.9969    804.84035   -3534.7979 
12470000    205.52841   -4360.5948   -4008.3262   -4360.5948            0    4092.0929    18.043099    23.166329    21.808435    9115.7591    3561.2322    3745.9114    4969.1352    1352.4554    405.04288    912.26835    -3464.307 
12471000    207.37223   -4347.4162   -3991.9873   -4347.4162            0    2495.5174    18.023936    23.136034    22.150558     9236.836    2159.0904    1997.8207    3329.6412    171.78806   -905.54422    377.22242   -3655.8167 
12472000    214.30949   -4370.5374   -4003.2183   -4370.5374            0    4329.1464    18.006884    23.437174    21.732286    9171.6872     3781.784    4614.3987    4591.2566    296.87314    25.739285   -350.02136   -3424.1532 
12473000    202.45232   -4346.3319   -3999.3356   -4346.3319            0    3066.1398    17.786533     23.43713    22.013202    9176.5399    4041.5205    3377.0193    1779.8795   -363.60828   -401.89901     267.1149   -3588.9928 
12474000    205.35255   -4338.8201   -3986.8529   -4338.8201            0    4049.7875    17.862062    23.385042    22.023692    9199.4082    4140.8819    4184.0666    3824.4139   -252.81458   -1059.5151    630.68803   -3443.5175 
12475000    202.29269   -4349.8054   -4003.0827   -4349.8054            0    4514.5948    18.064236    23.280626    21.828507     9179.907    4088.6695    3552.9471    5902.1676    287.50261   -529.93086    55.971046   -3398.6709 
12476000    208.33723   -4347.0571   -3989.9742   -4347.0571            0    3754.4102    17.941904    23.023069    22.254732    9192.9335    4608.1715    3983.4539    2671.6051   -424.37096   -788.77539    98.860587   -3486.6223 
12477000    219.32931   -4317.8157   -3941.8927   -4317.8157            0    4155.5837    18.067629     23.45532    21.721405    9205.1409    2985.7399    4999.8132    4481.1981   -360.80711   -529.26949   -364.79718   -3384.0158 
12478000    217.03706   -4340.1298   -3968.1357   -4340.1298            0    4349.2887     17.88387    23.181487    22.100938    9162.4898    4144.6293    6066.0259    2837.2109    170.84781    394.76649   -471.79419   -3386.9598 
12479000    216.41224   -4352.6086   -3981.6854   -4352.6086            0    2373.2629    18.058241    23.515068    21.852355    9279.4005    2112.9278    188.89248    4817.9685    410.49484   -487.00744    821.48147   -3660.5104 
12480000    212.72252   -4328.0152   -3963.4161   -4328.0152            0    2235.4247    17.883368    23.533956    22.028015    9270.8514    2319.2701    445.48003    3941.5239    256.88342    292.03306    793.04464   -3661.1736 
12481000    207.83015   -4330.8378    -3974.624   -4330.8378            0    3071.3202    18.013559     23.28116    21.919078    9192.3475     2113.122    4415.7591    2685.0796    -637.4588    -228.8671    353.33966   -3562.8799 
12482000    218.32756   -4360.4628   -3986.2569   -4360.4628            0    3660.4414      18.1334    23.196969    21.871371    9199.9722    2086.5931    4703.8471    4190.8842    482.30608     855.5398    246.50315   -3495.1275 
12483000    206.42714   -4357.4025   -4003.5935   -4357.4025            0    2366.6233    17.862266     23.45834    22.084858     9253.978    3405.6118    2769.4164    924.84182    416.19103   -357.15887    122.61152   -3684.1945 
12484000    209.74986   -4334.9283   -3975.4242   -4334.9283            0     2249.455    18.011389     23.39667    22.026065    9281.9278    3015.2427    1097.1977    2635.9247   -352.13448    776.09507    334.28663   -3670.9213 
12485000    205.37556   -4362.5251   -4010.5184   -4362.5251            0    1997.4848    18.193038    22.981918     22.12775    9251.8537    1613.6279    2811.5269    1567.2996    130.48834    313.96373    64.848049   -3741.0002 
12486000    208.00018   -4353.7173   -3997.2121   -4353.7173            0    2718.0229    18.069878    23.338079    21.875211    9225.1316    2978.3619    3433.8799    1741.8268   -214.61446   -299.68123    469.32291   -3631.5318 
12487000    212.18713   -4353.9446   -3990.2631   -4353.9446            0    4114.7768    17.681441    23.400049    22.146713    9163.1265     5183.688    4137.2172    3023.4253    -774.1095   -436.61977   -550.87272   -3440.3857 
12488000    211.79262   -4342.8484   -3979.8431   -4342.8484            0    3221.0511    17.948398    23.531699    21.819293    9215.5161    3146.5099    2577.6109    3939.0324    656.41381   -925.84788    531.26093   -3546.9376 
12489000    211.36323   -4351.7934    -3989.524   -4351.7934            0    3647.7799    17.856718    23.358439    21.993625    9173.6519    4328.0924    4487.6721    2127.5753    665.58276    118.06148   -128.44807   -3501.4937 
12490000     208.0147   -4339.7029   -3983.1728   -4339.7029            0    2865.9793    17.885037    23.573212    21.866552    9219.1078    4224.5147    2365.7416    2007.6816    845.95462    261.69172    108.14827   -3597.8384 
12491000    202.96634    -4352.913   -4005.0356    -4352.913            0    3689.6012     17.98393    23.186993    21.901408    9132.7394    2554.0871    3484.2344    5030.4823    328.66518   -108.30856    500.07531   -3513.6116 
12492000    217.28874    -4360.677   -3988.2515    -4360.677            0    1584.9552    17.913494    23.266757    22.318317    9302.0272    2913.0544    2205.8206   -364.00926    618.28769    291.55593    537.25719   -3773.2356 
12493000    216.30401    -4332.822   -3962.0843    -4332.822            0    4474.2019     17.98226    23.303788    21.769021    9122.4125    4403.6718     5102.572    3916.3617    398.82896   -280.26833    257.48611   -3366.8319 
12494000    214.16021    -4345.064   -3978.0007    -4345.064            0     2755.893    17.865414    23.267138    22.074187    9175.7329    1536.8214    3619.4099    3111.4477   -1235.2803    46.660943   -376.24181   -3609.2108 
12495000    221.73094    -4341.791   -3961.7517    -4341.791            0    4108.1453    17.949522    23.387425    21.732465    9123.1389     4655.356     3430.493    4238.5869    398.45674   -404.52789    1203.4822   -3415.1563 
12496000    212.80814   -4360.6799   -3995.9341   -4360.6799            0     3056.232    17.970482    23.371183    21.847544    9175.7811    3481.8476    2171.2374     3515.611    436.47255   -1251.6442    557.17284   -3586.9511 
12497000    204.82082   -4339.5089   -3988.4531   -4339.5089            0    4595.8325    17.939078    23.160694    21.883694    9092.2696    3607.5766    3964.6017    6215.3191    126.52712    94.012444    565.68438   -3379.0391 
12498000    224.69553   -4352.0147   -3966.8942   -4352.0147            0    2513.7123    18.103997       23.303    21.911022    9243.7655    2376.5892    4217.1104    947.43731    744.69883    166.12887    195.54677   -3628.0186 
12499000    196.39857   -4341.0836   -4004.4631   -4341.0836            0    4350.7794    17.781598    23.250038    22.077498    9127.3416    3950.7353     4586.226    4515.3768    720.67413    1238.3748    562.95817   -3425.3182 
12500000    214.24387   -4326.4782   -3959.2716   -4326.4782            0    2430.4487    17.902327    23.668449    21.858091    9261.7175    3321.7856   -395.68543    4365.2461   -183.90827    62.369777   -225.25707   -3630.9844 
Loop time of 417.624 on 64 procs for 250000 steps with 864 atoms

Performance: 103.442 ns/day, 0.232 hours/ns, 598.625 timesteps/s
193.5% CPU use with 32 MPI tasks x 2 OpenMP threads

MPI task timing breakdown:
Section |  min time  |  avg time  |  max time  |%varavg| %total
---------------------------------------------------------------
Pair    | 17.606     | 25.654     | 34.665     | 106.7 |  6.14
Bond    | 0.81027    | 1.113      | 1.9715     |  19.0 |  0.27
Kspace  | 210.76     | 220.5      | 231.96     |  41.1 | 52.80
Neigh   | 1.3035     | 1.3674     | 1.4476     |   3.9 |  0.33
Comm    | 65.873     | 69.382     | 73.118     |  22.0 | 16.61
Output  | 0.65992    | 0.66022    | 0.66224    |   0.0 |  0.16
Modify  | 73.957     | 76.77      | 80.046     |  17.0 | 18.38
Other   |            | 22.18      |            |       |  5.31

Nlocal:        27.0000 ave          39 max          17 min
Histogram: 4 4 3 3 3 5 2 1 6 1
Nghost:        2114.75 ave        2219 max        2007 min
Histogram: 4 12 0 0 0 0 0 0 7 9
Neighs:        6568.62 ave        9568 max        4297 min
Histogram: 6 3 4 2 5 2 2 5 2 1

Total # of neighbors = 210196
Ave neighs/atom = 243.28241
Ave special neighs/atom = 2.0000000
Neighbor list builds = 4463
Dangerous builds = 0

unfix		3
unfix		2
unfix		1

write_data	data.final.${pid} nocoeff
write_data	data.final.0 nocoeff
System init for write_data ...
PPPM initialization ...
  extracting TIP4P info from pair style
  using 12-bit tables for long-range coulomb (../kspace.cpp:340)
  G vector (1/distance) = 0.37171571
  grid = 24 27 25
  stencil order = 5
  estimated absolute RMS force accuracy = 0.0031586585
  estimated relative force accuracy = 9.5122061e-06
  using double precision FFTW3
  3d grid and FFT values/proc = 4410 672
Last active /omp style is kspace_style pppm/tip4p/omp

write_restart   restart.lmp.${pid}
write_restart   restart.lmp.0
System init for write_restart ...
PPPM initialization ...
  extracting TIP4P info from pair style
  using 12-bit tables for long-range coulomb (../kspace.cpp:340)
  G vector (1/distance) = 0.37171571
  grid = 24 27 25
  stencil order = 5
  estimated absolute RMS force accuracy = 0.0031586585
  estimated relative force accuracy = 9.5122061e-06
  using double precision FFTW3
  3d grid and FFT values/proc = 4410 672
Last active /omp style is kspace_style pppm/tip4p/omp
Total wall time: 0:06:57
