LAMMPS (30 Jul 2021)
  using 1 OpenMP thread(s) per MPI task
package omp 0
using multi-threaded neighbor list subroutines
echo both

include		in.partitions
variable        pid world 0
include		in.temp
variable        temperature equal 253.74
variable	tempDamp equal 100.0
include		in.pressure
variable        pressure equal 6000.0
variable        pressureDamp equal 1000.0 # This is 1 ps
include		in.seed
variable        seed world 745823

units		real
atom_style	full
read_restart	restart.lmp.${pid}
read_restart	restart.lmp.0
Reading restart file ...
  restart file = 30 Jul 2021, LAMMPS = 30 Jul 2021
  restoring atom style full from restart
  orthogonal box = (0.50781522 1.6896705 0.61953338) to (17.699757 21.939507 21.593662)
  4 by 4 by 4 MPI processor grid
  restoring pair style lj/cut/tip4p/long/omp from restart
  restoring bond style harmonic/omp from restart
  restoring angle style harmonic/omp from restart
  864 atoms
  576 bonds
  288 angles
Finding 1-2 1-3 1-4 neighbors ...
  special bond factors lj:    0        0        0       
  special bond factors coul:  0        0        0       
     2 = max # of 1-2 neighbors
     1 = max # of 1-3 neighbors
     1 = max # of 1-4 neighbors
     2 = max # of special neighbors
  special bonds CPU = 1.640 seconds
  read_restart CPU = 1.950 seconds
include 	in.setup
variable	out_freq equal 1000
variable	out_freq2 equal 10000
variable	out_freq3 equal 1000

timestep	2.0

neigh_modify    delay 7 every 1

include		in.tip4p
# This is TIP4P/Ice

# create groups ###
group ox type 2
288 atoms in group ox
group hy type 1
576 atoms in group hy

# set charges - beside manually ###
set group ox charge -1.1794
Setting atom values ...
  288 settings made for charge
set group hy charge 0.5897
Setting atom values ...
  576 settings made for charge

# ### TIP3P Potential Parameters ###
pair_style lj/cut/tip4p/long/omp 2 1 1 1 0.1577 8.5
pair_coeff 1 1*2 0.000 0.000
pair_coeff 2 2 0.21084 3.1668
bond_style  harmonic
bond_coeff  1 450 0.9572
angle_style harmonic
angle_coeff 1 55 104.52
kspace_style pppm/tip4p/omp 1.0e-5
pair_modify tail yes

thermo          ${out_freq}
thermo          1000
thermo_style    custom step temp pe etotal epair emol press lx ly lz vol pxx pyy pzz pxy pxz pyz enthalpy

restart 	${out_freq3} restart.lmp.${pid} restart2.lmp.${pid}
restart 	1000 restart.lmp.${pid} restart2.lmp.${pid}
restart 	1000 restart.lmp.0 restart2.lmp.${pid}
restart 	1000 restart.lmp.0 restart2.lmp.0


include         in.dump
dump            myDump all atom ${out_freq2} dump.water.${pid}
dump            myDump all atom 10000 dump.water.${pid}
dump            myDump all atom 10000 dump.water.0
dump            myDump2 all dcd ${out_freq2} dump.dcd
dump            myDump2 all dcd 10000 dump.dcd
dump_modify     myDump append yes
dump_modify     myDump2 append yes


variable natoms 	equal  "count(all)"                        # NUMBER ATOMS
variable H      	equal  "enthalpy/v_natoms"                 # ENTHALPY-per-atom
variable Vol      	equal  "vol/v_natoms"                 # volume-per-atom
fix AVG all 		ave/time ${out_freq} 1 ${out_freq} v_Vol v_H file vol_enthalpy.dat
fix AVG all 		ave/time 1000 1 ${out_freq} v_Vol v_H file vol_enthalpy.dat
fix AVG all 		ave/time 1000 1 1000 v_Vol v_H file vol_enthalpy.dat


timer           timeout 23:50:00 every 1000
New timer settings: style=normal  mode=nosync  timeout=23:50:00

fix 		1 all shake 1e-6 200 0 b 1 a 1
       0 = # of size 2 clusters
       0 = # of size 3 clusters
       0 = # of size 4 clusters
     288 = # of frozen angles
  find clusters CPU = 0.108 seconds
fix             2 all nph iso ${pressure} ${pressure} ${pressureDamp}
fix             2 all nph iso 6000 ${pressure} ${pressureDamp}
fix             2 all nph iso 6000 6000 ${pressureDamp}
fix             2 all nph iso 6000 6000 1000
fix             3 all temp/csvr ${temperature} ${temperature} ${tempDamp} ${seed}
fix             3 all temp/csvr 253.74 ${temperature} ${tempDamp} ${seed}
fix             3 all temp/csvr 253.74 253.74 ${tempDamp} ${seed}
fix             3 all temp/csvr 253.74 253.74 100 ${seed}
fix             3 all temp/csvr 253.74 253.74 100 745823

run             250000
PPPM initialization ...
  extracting TIP4P info from pair style
  using 12-bit tables for long-range coulomb (../kspace.cpp:340)
  G vector (1/distance) = 0.3747744
  grid = 24 24 25
  stencil order = 5
  estimated absolute RMS force accuracy = 0.0030154926
  estimated relative force accuracy = 9.0810664e-06
  using double precision FFTW3
  3d grid and FFT values/proc = 2730 288
Last active /omp style is kspace_style pppm/tip4p/omp
Neighbor list info ...
  update every 1 steps, delay 7 steps, check yes
  max neighbors/atom: 2000, page size: 100000
  master list distance cutoff = 10.8154
  ghost atom cutoff = 10.8154
  binsize = 5.4077, bins = 4 4 4
  1 neighbor lists, perpetual/occasional/extra = 1 0 0
  (1) pair lj/cut/tip4p/long/omp, perpetual
      attributes: half, newton on, omp
      pair build: half/bin/newton/omp
      stencil: half/bin/3d
      bin: standard
Per MPI rank memory allocation (min/avg/max) = 9.241 | 9.245 | 9.253 Mbytes
Step Temp PotEng TotEng E_pair E_mol Press Lx Ly Lz Volume Pxx Pyy Pzz Pxy Pxz Pyz Enthalpy 
 4000000    260.07239   -3851.9805   -3406.2253   -3851.9805            0    5025.2595    17.191942    20.249837    20.974129    7301.8078    3400.9069    4907.9402    6766.9315    1054.7271   -391.56578   -104.93249   -2871.0886 
 4001000    254.91485    -3891.308   -3454.3927    -3891.308            0    4874.9979    17.205885     20.26626     20.99114    7319.5884    6236.9324    3977.1167    4410.9447   -543.54246    326.62951   -135.04304   -2933.9931 
 4002000    245.59102   -3874.4847   -3453.5501   -3874.4847            0    4217.3502    17.163446    20.216272    20.939364    7265.5593    3762.6583    6470.0193    2419.3732    -622.1417   -902.86154    427.97845   -3006.6766 
 4003000    257.21217   -3897.1613   -3456.3085   -3897.1613            0    6930.2274    17.193767    20.251986    20.976355    7304.1333    6298.5103    6793.0271    7699.1448   -831.28174    294.09588    378.33142   -2718.0778 
 4004000    250.26132    -3909.242   -3480.3027    -3909.242            0    5755.2103    17.083347    20.121926    20.841643    7164.3118    6493.6362    5129.0198    5642.9748     1027.977    840.78531    2643.8881   -2878.9745 
 4005000    251.57587   -3862.0523   -3430.8599   -3862.0523            0    4574.1651    17.267463    20.338791    21.066265    7398.4578    6245.0582    3668.3634    3809.0736    -1468.954    548.41085     589.4479   -2937.3124 
 4006000    260.14004   -3890.9201    -3445.049   -3890.9201            0    4858.9459    17.197331    20.256184    20.980703    7308.6763    4427.3332    6239.6473    3909.8574    -842.4973    808.11044    1693.4511   -2927.1362 
 4007000    258.27405   -3905.9027   -3463.2298   -3905.9027            0    5598.7453    17.169498    20.223401    20.946748    7273.2484    6964.7447    4224.5323    5606.9588    739.43094    864.26423    1001.1131   -2869.3548 
 4008000     257.1776    -3878.044   -3437.2504    -3878.044            0    7681.5415    17.169735    20.223679    20.947036    7273.5484    6356.6343    9833.4327    6854.5574    1503.3836    391.81177    1500.8619   -2622.4137 
 4009000    259.36495   -3882.3084   -3437.7657   -3882.3084            0    5884.4374    17.260454    20.330534    21.057713    7389.4516    6860.7916     5884.278    4908.2426   -284.09625    1265.7108    2.7818765   -2803.6142 
 4010000    249.94944   -3886.8884   -3458.4836   -3886.8884            0    5773.8123    17.146908    20.196792    20.919187    7244.5766    5597.6995    6455.7498    5267.9876   -835.01226    237.32031    1159.6969   -2848.4531 
 4011000    259.47752   -3899.8133   -3455.0777   -3899.8133            0    5841.9055    17.183741    20.240177    20.964124    7291.3633    4911.1735    6519.1427    6095.4004    612.87188   -728.45822    1053.9412   -2833.8666 
 4012000    247.70907   -3855.7296   -3431.1648   -3855.7296            0    6037.4345    17.273162    20.345503    21.073217     7405.785    6453.9881    6689.1722     4969.143    -718.8425    1544.3157    537.80388    -2779.087 
 4013000    262.39903   -3876.3429      -3426.6   -3876.3429            0    6326.2053     17.17827    20.233733    20.957449     7284.401    7342.5795    6076.4425    5559.5941    230.17578   -1373.3906   -861.00153   -2754.5323 
 4014000    248.45811   -3896.3789   -3470.5302   -3896.3789            0    4266.6003    17.146272    20.196044    20.918412     7243.771    5398.9765    3401.0893    3999.7349    -1223.102    1278.5677   -265.84801   -3019.7938 
 4015000    253.12496   -3894.6404   -3460.7929   -3894.6404            0    3468.2012    17.179604    20.235305    20.959077     7286.099    3979.0965    4063.8493    2361.6579   -669.51785   -1416.8318   -756.23115   -3092.2609 
 4016000    266.17951   -3917.6591   -3461.4366   -3917.6591            0    6064.6482    17.087349    20.126641    20.846526    7169.3485    5973.5244    7410.8996    4809.5206   -263.70816    1216.2024   -2336.3392   -2827.3315 
 4017000    259.57965   -3894.3753   -3449.4647   -3894.3753            0    6015.0268    17.110676    20.154116    20.874984    7198.7496    6598.0281    6134.7773    5312.2749    527.94021   -1090.4601   -205.54647   -2817.9688 
 4018000    245.04801   -3899.9448   -3479.9409   -3899.9448            0    5680.2252    17.062392    20.097244    20.816078    7137.9799    5471.4203    4581.3741    6987.8811    919.39074     -1342.32    1494.9988   -2888.6288 
 4019000    247.89583   -3877.5695   -3452.6845   -3877.5695            0    5344.3114    17.149167    20.199454    20.921944    7247.4411     3631.643     5837.525    6563.7663    196.33642    587.98669   -1410.3243   -2887.8095 
 4020000    241.32829   -3892.1815   -3478.5531   -3892.1815            0      6563.12    17.142474    20.191569    20.913778    7238.9579     5861.395    5809.6797    8018.2852   -1169.7416    534.65463    203.04814   -2785.6663 
 4021000    247.67287   -3904.9733   -3480.4705   -3904.9733            0    5631.7458    17.200401      20.2598    20.984449    7312.5913    4841.6339    4897.8399    7155.7636   -545.74023    552.08289    772.11327   -2879.8637 
 4022000    268.92553   -3920.4754   -3459.5462   -3920.4754            0    5140.4199    17.233788    20.299126    21.025181    7355.2562     5341.436    3897.6656    6182.1581    231.53446    335.47165   -653.33456   -2908.1392 
 4023000    250.69574   -3925.5293   -3495.8454   -3925.5293            0    6816.5855    17.199716    20.258994    20.983613    7311.7177     8976.277    5798.9881    5674.4913     1658.583   -1065.8463   -1238.5357   -2768.9663 
 4024000    270.88477   -3868.9204   -3404.6332   -3868.9204            0    6352.6581    17.149909    20.200327    20.922849    7248.3813    4875.2071    6627.7552     7555.012    414.74253    1167.6587   -968.06756   -2733.0924 
 4025000     246.5336   -3855.6947   -3433.1446   -3855.6947            0    4536.7759    17.250995    20.319394    21.046174    7377.3105    4836.3705    3988.0558    4785.9015    172.69236    178.93466   -330.75547   -2945.0306 
 4026000    263.63684   -3853.5147   -3401.6502   -3853.5147            0    7948.3183    17.105671    20.148221    20.868879    7192.4347    6769.5482    7688.4911    9386.9157    1707.4931    1326.1901    206.83871   -2567.9171 
 4027000    256.73842   -3872.8736   -3432.8328   -3872.8736            0    4778.1645    17.215662    20.277776    21.003067    7332.0728    4926.9905    4393.7835    5013.7195   -629.23986   -1339.5513   -1045.0489      -2921.9 
 4028000    250.55214   -3898.5844   -3469.1466   -3898.5844            0    5000.1518    17.132682    20.180036    20.901832    7226.5603    3742.4632    4595.0809    6662.9113   -236.47714    -113.7902    -607.0599   -2942.1707 
 4029000    248.48739   -3927.2716   -3501.3727   -3927.2716            0    6328.8447    17.162875      20.2156    20.938668    7264.8344     5233.352    5964.3095    7788.8725    201.38155     -820.859    744.07251   -2830.8306 
 4030000    258.11634   -3889.2093   -3446.8067   -3889.2093            0    6061.9046    17.156757    20.208393    20.931203    7257.0676    6422.4632    6842.5108    4920.7397    239.09913   -222.37768   -369.89666   -2805.2336 
 4031000    254.34379   -3871.9953   -3436.0587   -3871.9953            0     6474.271    17.190773     20.24846    20.972703    7300.3181    5539.7294    7043.1277    6839.9559     1455.655    8.3737458   -319.22611   -2746.7583 
 4032000    241.91683   -3848.8433   -3434.2062   -3848.8433            0    8202.1239    17.144975    20.194516    20.916829    7242.1272    6918.1722     9457.642    8230.5576   -881.06849    559.36089    434.50214   -2567.9061 
 4033000    245.09264   -3878.6665   -3458.5861   -3878.6665            0    4282.9145    17.217522    20.279967    21.005337      7334.45    4178.4495    4822.3358     3847.958   -114.55728    1337.7173    532.71375   -3000.4623 
 4034000    243.81701    -3875.465   -3457.5709    -3875.465            0    6485.9754    17.114406     20.15851    20.879535    7203.4589    3938.5629    9122.5114    6396.8519   -258.04805    -210.3226    297.67616   -2776.1864 
 4035000    240.99014   -3890.5505   -3477.5016   -3890.5505            0    7472.2831    17.139961     20.18861    20.910713    7235.7757    7694.3019    6553.0161    8169.5313     664.2137   -771.29657   -747.33091   -2688.9788 
 4036000    253.86344   -3893.9042    -3458.791   -3893.9042            0    7005.4059    17.118771    20.163651    20.884861    7208.9721    7494.4204    6231.9245    7289.8726   -336.80411   -231.21164   -798.21468   -2722.2744 
 4037000    262.41243   -3885.4855   -3435.7196   -3885.4855            0    5912.1942    17.188293    20.245539    20.969677    7297.1593    3959.9753    6685.8139    7090.7934   -1222.8287   -2610.8515    731.08587   -2806.5345 
 4038000    261.01645   -3910.5495   -3463.1762   -3910.5495            0    6276.7432    17.154292     20.20549    20.928196    7253.9399    7192.5635    5285.8358    6351.8303    411.02458    474.98988    1124.4249   -2799.1516 
 4039000    255.10166   -3881.0557   -3443.8202   -3881.0557            0    4972.9825    17.168202    20.221875    20.945167    7271.6013    5444.8174    3973.0181    5501.1118     -71.3419   -668.81156    420.12372   -2916.4411 
 4040000    250.01332    -3892.168   -3463.6537    -3892.168            0    5479.4787    17.148336    20.198475     20.92093    7246.3879    4504.8152     6154.614    5779.0071   -386.96727   -566.54111    377.70305   -2884.5762 
 4041000    244.82595   -3901.7756   -3482.1523   -3901.7756            0    4358.1669    17.178078    20.233507    20.957215    7284.1574    4539.9913    4635.5672    3898.9421   -1276.2665   -123.34785   -134.22851   -3019.1757 
 4042000    252.00376   -3919.3944   -3487.4685   -3919.3944            0    4158.1689    17.253054    20.321819    21.048686    7379.9525     4733.932     3762.271    3978.3036   -2076.1995    753.32938    1599.8139   -3039.9288 
 4043000    262.57673   -3892.8357   -3442.7881   -3892.8357            0    6907.9715    17.120939    20.166205    20.887506    7211.7114    6071.8075    7884.7785    6767.3285   -741.44013    751.28734    1387.8989   -2716.2394 
 4044000    255.27104   -3910.7618    -3473.236   -3910.7618            0    5272.6991    17.143277    20.192516    20.914758    7239.9757    5391.0601    5034.3425    5392.6947    63.145657    62.426801    596.47623   -2916.5042 
 4045000    246.06761   -3909.5424    -3487.791   -3909.5424            0    5861.1437    17.145501    20.195135    20.917471    7242.7939    6316.9565    4769.8264    6496.6483    1553.2508   -659.64524    -635.6566   -2868.6859 
 4046000    276.48215   -3913.0754   -3439.1944   -3913.0754            0    5929.6124    17.129478    20.176262    20.897923    7222.5065    6324.7689    5258.7967    6205.2716   -267.20463   -44.046339     438.0873   -2814.6115 
 4047000    248.43691    -3885.609   -3459.7966    -3885.609            0    8079.4558    17.050965    20.083785    20.802138    7123.6489    8364.5483    8597.3363    7276.4827     -687.233   -842.40917   -205.54296    -2620.413 
 4048000    248.70338   -3882.2289   -3455.9598   -3882.2289            0    4885.7046    17.179934    20.235693    20.959479    7286.5181    3706.5478     5890.761    5059.8049     739.3664    230.71738     251.2065   -2936.7736 
 4049000    263.50437   -3897.6712   -3446.0337   -3897.6712            0    6847.9459    17.132292    20.179577    20.901356    7226.0672    6328.2489    7704.2822    6511.3065     2060.508    897.77266    27.701491   -2724.3644 
 4050000    244.12841   -3895.8251   -3477.3974   -3895.8251            0    4662.4754     17.24152    20.308233    21.034614    7365.1608    5352.9063    5075.6279    3558.8921    369.22457   -920.39453   -781.41046   -2976.5854 
 4051000     271.9774   -3893.1726   -3427.0127   -3893.1726            0     6451.645    17.180266    20.236084    20.959884    7286.9404    5213.2775    7044.0266    7097.6309   -499.26535    -620.0935    641.15881   -2741.3799 
 4052000    255.71308   -3902.4891   -3464.2057   -3902.4891            0     7120.608    17.199314     20.25852    20.983123    7311.2049    8951.3884    6134.1407    6276.2949   -267.34549   -1186.5892    1405.1675   -2704.9607 
 4053000    240.13046   -3903.6062   -3492.0308   -3903.6062            0     6179.326    17.216472     20.27873    21.004055    7333.1076    7478.7309    6032.1467    5027.1004    648.10967    35.120607   -405.93442   -2831.1775 
 4054000    260.00501   -3901.3781   -3455.7384   -3901.3781            0    4856.8523    17.248411     20.31635    21.043022    7373.9958    3780.4282     6275.565    4514.5638   -506.83949   -131.07923    755.17656    -2933.422 
 4055000    254.03873   -3908.5422   -3473.1285   -3908.5422            0    5535.1909    17.177046    20.232292    20.955956    7282.8446    4803.1963    6695.2029    5107.1735    167.72474    1113.1102    163.75034   -2885.2203 
 4056000    256.42568   -3908.2427   -3468.7378   -3908.2427            0      7987.28    17.254415    20.323422    21.050346    7381.6987    7186.6218    6741.4289    10033.789   -579.30786   -854.99945    339.71496   -2608.8712 
 4057000    252.66932   -3933.4733   -3500.4067   -3933.4733            0    4437.7613    17.267503    20.338838    21.066313    7398.5092    4573.6773    5073.1727    3666.4339   -354.95657    118.58293   -548.68046   -3021.5738 
 4058000    250.93742   -3891.7711    -3461.673   -3891.7711            0    6900.4899    17.146717    20.196567    20.918954    7244.3346    7282.9499    6832.1457    6586.3741   -1017.4981    2205.4104    -599.2302    -2732.628 
 4059000    251.83099   -3898.2959   -3466.6662   -3898.2959            0    5965.7298    17.180756    20.236661    20.960482    7287.5644    6588.4692    5128.3075    6180.4129    1414.1789    71.874144   -426.30593   -2832.6185 
 4060000    248.23106    -3924.572   -3499.1124    -3924.572            0    7023.5806    17.153966    20.205106    20.927798    7253.5265    7284.8857    6695.7769    7090.0791   -864.52837   -61.462577     32.58805   -2756.1213 
 4061000    246.24415   -3905.1446   -3483.0905   -3905.1446            0    5021.8689    17.171829    20.226147    20.949592     7276.211    5442.2183    4430.9143    5192.4742   -78.990024    1553.5114   -1135.0538   -2950.1895 
 4062000    256.69824    -3885.649    -3445.677    -3885.649            0    6618.3515    17.145222    20.194806     20.91713    7242.4398    6221.3351    7274.7455    6358.9739    -1120.263    247.55101   -743.00599   -2746.6232 
 4063000    264.60792    -3864.872   -3411.3431    -3864.872            0    5834.2551    17.129539    20.176334    20.897998    7222.5844    5778.7669    6958.0663    4765.9322   -584.93766    1202.6624   -777.21379   -2796.7978 
 4064000    265.54219   -3907.6995   -3452.5693   -3907.6995            0    5819.5442    17.123371    20.169069    20.890472    7214.7847    5715.4311    6770.8265    4972.3751   -669.96117    879.15339    408.57047   -2840.2355 
 4065000    244.14093   -3905.1025   -3486.6533   -3905.1025            0    6170.6018     17.07814    20.115794    20.835291    7157.7633    6661.5497    5825.9595    6024.2963    -398.7837   -588.59939    366.84527   -2842.5126 
 4066000    253.76576   -3851.6669   -3416.7211   -3851.6669            0    6084.8252    17.133304    20.180769    20.902591     7227.348    7682.3941    5985.0133    4587.0683    995.91685     165.7573    1314.3581   -2775.3595 
 4067000    236.64729   -3880.5272   -3474.9218   -3880.5272            0    2867.1885    17.212148    20.273636     20.99878    7327.5835    3185.1215    3138.6188    2277.8253    225.14854   -170.68517    1516.3067   -3168.5189 
 4068000    251.48361   -3883.0586   -3452.0243   -3883.0586            0    5219.6023    17.147336    20.197296    20.919709    7245.1192    4928.4635    4257.5933    6472.7502    978.14034   -2051.8047    367.91511   -2900.5074 
 4069000    247.30692   -3934.0646    -3510.189   -3934.0646            0    7203.8115    17.155381    20.206772    20.929524    7255.3217    5301.3306    7484.7622    8825.3416   -36.485394   -1000.9798    2119.4797   -2747.9435 
 4070000    260.15693   -3922.5644   -3476.6643   -3922.5644            0     4534.788    17.192462    20.250449    20.974763    7302.4699    4788.7414    2666.5408    6149.0818   -492.66233    525.44993    -1641.699   -2993.7138 
 4071000    253.64928   -3901.5222    -3466.776   -3901.5222            0    7617.1326    17.137585    20.185811    20.907813    7232.7662    8964.0032    6138.9319    7748.4626   -255.18012    545.25594    622.68399    -2663.302 
 4072000    263.15231   -3846.2688   -3395.2347   -3846.2688            0    6854.4113    17.199938    20.259255    20.983884    7312.0007    7192.9531    7152.6277    6217.6531    1545.1557   -656.82335    665.78112   -2664.2938 
 4073000    239.22857    -3929.266   -3519.2364    -3929.266            0    6221.3078    17.244671    20.311944    21.038458    7369.1995    5647.9525    4699.2009    8316.7699    1499.5323   -893.04641    745.06026   -2850.6186 
 4074000    265.90568   -3929.4035   -3473.6503   -3929.4035            0    6061.4657    17.249743    20.317919    21.044646    7375.7037    6809.6808    5568.0893    5806.6269    746.88195    448.75756    1063.3902   -2821.6362 
 4075000    249.07604   -3903.2523   -3476.3445   -3903.2523            0    5205.9493    17.249269     20.31736    21.044067    7375.0954    5389.0887      4675.22    5553.5393   -249.47375    1085.5643   -77.044591    -2916.402 
 4076000    253.18454   -3903.1243   -3469.1746   -3903.1243            0    4264.0363    17.283874    20.358121    21.086286    7419.5722     6213.976    2865.9869    3712.1459   -445.64453   -307.91742   -1546.6157   -3007.7767 
 4077000    245.98736   -3927.7732   -3506.1593   -3927.7732            0    4291.1161    17.279811    20.353335    21.081329    7414.3411    5488.8313    3014.7384    4369.7785     1058.429   -45.519143   -1006.0428   -3042.1585 
 4078000        285.4   -3911.0978    -3421.932   -3911.0978            0    5168.1921    17.149361    20.199681     20.92218    7247.6862    5166.9221    6527.1653     3810.489    433.19773    -1590.895    811.18205   -2875.6537 
 4079000    260.17861   -3920.2689   -3474.3317   -3920.2689            0    5249.6926    17.189404    20.246847    20.971033    7298.5746    4916.7817    5830.2964    5001.9997   -1208.3991   -194.12682    298.81806   -2915.5427 
 4080000     265.6033   -3883.2427   -3428.0077   -3883.2427            0    4240.4537    17.239525    20.305883     21.03218    7362.6045      3913.41    4868.5433    3939.4078    733.19505    -769.0883    534.53979   -2972.6846 
 4081000    252.79435   -3887.6861   -3454.4052   -3887.6861            0     4885.187    17.192413    20.250392    20.974704    7302.4084    5605.3984    3310.3721    5739.7904    -904.7325    73.543362   -1854.2707   -2934.1419 
 4082000    244.34155   -3901.7785   -3482.9855   -3901.7785            0    5829.6312    17.220108    20.283012    21.008491    7337.7545    6641.4142    4293.7555     6553.724   -134.27184   -699.49847     1102.863   -2859.1355 
 4083000    235.38263   -3887.2671   -3483.8293   -3887.2671            0    5151.4935    17.175871    20.230907    20.954523    7281.3499    4116.0585    4784.4692    6553.9529     1284.267    1005.9298    133.72291    -2936.787 
 4084000    264.60216   -3872.4632   -3418.9442   -3872.4632            0    5959.5991     17.17893    20.234511    20.958255    7285.2411    6601.0156    5325.0712    5952.7107    995.84848   -390.50589    577.47797   -2785.7501 
 4085000    248.25629   -3914.7972   -3489.2945   -3914.7972            0    4999.9799    17.241537    20.308253    21.034635     7365.183    3138.2889    5628.5625    6233.0882   -250.59076   -473.11073    1097.2393   -2952.2284 
 4086000    252.91565   -3904.7891   -3471.3003   -3904.7891            0    5995.9903    17.176583    20.231746    20.955391    7282.2555    5767.3718    4471.1695    7749.4295   -404.30783   -251.77594   -295.85317   -2834.5008 
 4087000    251.13999   -3925.4635   -3495.0182   -3925.4635            0    6790.7515    17.207247    20.267864    20.992801    7321.3265    7365.2992    6676.8861     6330.069   -1035.7783   -425.18602    428.17144   -2769.9422 
 4088000     262.5574   -3903.9092   -3453.8948   -3903.9092            0    5520.4953    17.208155    20.268934    20.993909     7322.486    6904.6391     1751.866    7904.9809    1945.4995    1461.4911    17.233748   -2864.3558 
 4089000    250.73585    -3923.359   -3493.6064    -3923.359            0    6834.5504    17.177237    20.232516    20.956189    7283.0872    7677.5847    6817.1932    6008.8732    813.29944    553.79263   -202.93571   -2767.6653 
 4090000    265.73771   -3952.5587   -3497.0934   -3952.5587            0    4545.8966    17.221909    20.285133    21.010688    7340.0569    4462.6459    4894.9556    4280.0884    675.99629    326.39869   -999.37541   -3010.4679 
 4091000    252.78482   -3951.3555    -3518.091   -3951.3555            0    7498.4596    17.111729    20.155357     20.87627    7200.0796     6944.734    7762.0983    7788.5466   -584.62993   -444.86727   -316.21051   -2730.7094 
 4092000    261.82934   -3919.3853   -3470.6188   -3919.3853            0    6026.5065    17.088495     20.12799    20.847924    7170.7907     6368.582    5715.4514    5995.4861   -386.04214    336.90431   -179.90086    -2840.375 
 4093000    262.46881   -3963.9604   -3514.0978   -3963.9604            0    4535.2993    17.147167    20.197097    20.919503    7244.9049    5224.2967    4775.4713    3606.1298   -252.57167    270.91058   -736.70445   -3034.9003 
 4094000    247.34064   -3928.9339   -3505.0005   -3928.9339            0    5599.6847    17.157628     20.20942    20.932267    7258.1737    5973.0663    5494.7558    5331.2321    1942.7476     1134.218   -181.21352    -2912.257 
 4095000    250.10253   -3937.9503   -3509.2831   -3937.9503            0    4582.3579    17.170528    20.224614    20.948005    7274.5573    5015.7308    4897.4759     3833.867    104.10572    65.999607      985.816   -3023.1318 
 4096000    263.37422   -3926.5282   -3475.1138   -3926.5282            0    5648.3951    17.125361    20.171413      20.8929    7217.3006    4640.5471    5253.8624    7050.7756   -732.07797    398.07174     293.3409   -2880.5811 
 4097000     250.6912   -3925.5178   -3495.8416   -3925.5178            0     5720.156    17.177251    20.232533    20.956206    7283.1048    6905.8155    4847.7573    5406.8952   -655.13838    -589.3965   -458.22145    -2888.266 
 4098000    244.68797    -3939.832   -3520.4452    -3939.832            0     5425.475    17.165186    20.218321    20.941486    7267.7686    6456.5102    3880.5283    5939.3866    584.64049   -1347.1354    214.91214   -2945.3831 
 4099000    256.96257   -3918.2071    -3477.782   -3918.2071            0    4654.0242    17.231889    20.296889    21.022864    7352.8256    4860.3863    3070.1797    6031.5065    1038.8975   -151.16547   -271.51747   -2978.7151 
 4100000    250.00799   -3911.1445   -3482.6393   -3911.1445            0    5607.5782    17.136566    20.184611    20.906571    7231.4766    6342.4041    6087.8897    4392.4409   -156.72125    720.86845    175.09467   -2891.2436 
 4101000    241.62435   -3930.6752   -3516.5394   -3930.6752            0    6479.5405    17.169164    20.223008     20.94634    7272.8235    8900.1311    6020.1332    4518.3573   -1657.4337    684.59575   -229.02878   -2829.2761 
 4102000    256.99283   -3898.5641   -3458.0872   -3898.5641            0    7230.2409    17.191385     20.24918    20.973449    7301.0976    9552.2386    6890.9594    5247.5246    -546.8102   -138.72923    738.08837   -2688.2182 
 4103000    244.49951   -3864.0534   -3444.9896   -3864.0534            0    7152.0927    17.136496    20.184528    20.906485    7231.3874    6367.1271     6956.125    8133.0261   -2576.8655   -433.89178    161.20101   -2690.7129 
 4104000    249.86959   -3907.2864   -3479.0185   -3907.2864            0    6348.9213    17.208982    20.269908    20.994918    7323.5415    8229.9196    6588.3318    4228.5125   -961.57425    799.23766   -38.385103   -2800.9134 
 4105000    255.89409   -3888.9677    -3450.374   -3888.9677            0    5046.2551    17.203705    20.263692     20.98848    7316.8065    5348.1049    4938.6276    4852.0329   -686.71274    167.61374   -925.68727   -2911.8976 
 4106000     242.2457   -3905.5451   -3490.3443   -3905.5451            0     7633.589    17.140518    20.189266    20.911392    7236.4806    8477.0559    7311.9116    7111.7995     852.2819    815.32645   -212.52815   -2684.7209 
 4107000    245.61809   -3910.4003   -3489.4193   -3910.4003            0    7065.9825    17.184916    20.241561    20.965558    7292.8594     7850.934    6648.6486     6698.365    1.4136001    1019.3931    683.04534   -2737.8893 
 4108000    257.19711   -3919.3558   -3478.5288   -3919.3558            0    4768.9253    17.315308    20.395146    21.124636    7460.1279    3275.9843    4956.7182    6074.0736   -25.563394    373.35066    1424.4414   -2959.6777 
 4109000    254.39767   -3924.5376   -3488.5087   -3924.5376            0     4254.352    17.344628    20.429681    21.160406     7498.089    3937.2846    3184.7084    5641.0631    232.89806    1598.3395    475.04695   -3023.2871 
 4110000    256.19778   -3913.1233   -3474.0091   -3913.1233            0    7102.1771    17.174618    20.229431    20.952994    7279.7564     6603.649    7690.2366    7012.6456   -1040.7517    749.83424    -287.5881   -2719.9867 
 4111000    261.64535   -3899.9545   -3451.5034   -3899.9545            0     5063.962    17.211292    20.272629    20.997736    7326.4912    5263.4008    5553.9176    4374.5677   -981.61796    947.01364   -24.999085   -2910.4223 
 4112000    249.30479   -3870.4422   -3443.1423   -3870.4422            0    5396.2488    17.220479    20.283449    21.008944    7338.2286    5867.1779    4881.5795    5439.9891   -1337.6002   -164.60872   -1318.8183   -2865.6328 
 4113000    247.37075    -3884.577    -3460.592    -3884.577            0    6213.1571    17.127682    20.174147    20.895732     7220.236    7001.3121    5628.1912    6009.9681   -382.50319    824.23093   -809.51552   -2806.3482 
 4114000    266.78255   -3875.7605   -3418.5043   -3875.7605            0    5352.0037    17.166903    20.220345    20.943582    7269.9508    5891.9128    4958.1652     5205.933    654.79303    908.15517    436.33466   -2851.0593 
 4115000     266.5326   -3913.3788    -3456.551   -3913.3788            0    5594.0321    17.211259     20.27259    20.997696    7326.4485    5949.7507    5199.1175    5633.2281    941.85667   -633.16555   -1457.6241   -2858.8358 
 4116000    247.71616   -3890.0123   -3465.4353   -3890.0123            0     5775.605    17.205048    20.265274    20.990118    7318.5197    3572.8683    7391.4601    6362.4867   -1008.7931    -921.0595   -483.06522    -2848.987 
 4117000    229.60043   -3866.2346   -3472.7074   -3866.2346            0    8334.4263    17.077566    20.115117    20.834591    7157.0412    8738.5067    7612.0498    8652.7225    138.03069   -616.56471   -23.621854   -2602.7757 
 4118000    250.42122   -3911.1314   -3481.9179   -3911.1314            0    5968.7635    17.101426    20.143221      20.8637    7187.0818    5346.6735     5538.387    7021.2301     1700.278   -167.14591    323.61458   -2856.2947 
 4119000    260.60869    -3900.856   -3454.1816    -3900.856            0    5005.1746    17.187144    20.244186    20.968276    7295.6967    4325.1131    5489.2178     5201.193    1159.6261    619.44714    1062.7216   -2921.6297 
 4120000      243.745   -3895.6327   -3477.8621   -3895.6327            0    6394.9008    17.160441    20.212732    20.935698    7261.7434    5531.5201      7738.22    5914.9623   -586.00661   -2545.8745    1214.6608   -2800.6096 
 4121000      252.773   -3908.6528   -3475.4085   -3908.6528            0    7878.9283    17.095368    20.136086     20.85631    7179.4469    6268.9711    9311.0458     8056.768     506.5348    655.14186    1742.6046   -2650.4464 
 4122000    266.53887   -3897.5685     -3440.73   -3897.5685            0    5673.1984    17.187966    20.245154    20.969278    7296.7429    4989.4245    5756.4783    6273.6925   -874.11006    1425.3455    1079.5486   -2837.0136 
 4123000     238.2911   -3893.1461   -3484.7233   -3893.1461            0    5079.0431    17.190406    20.248028    20.972256    7299.8515    7257.0072    4164.2888    3815.8333   -27.376242    1002.0684     285.9471   -2944.0041 
 4124000    260.26221   -3858.5699   -3412.4894   -3858.5699            0    6787.9921    17.125184    20.171205    20.892684    7217.0767    6261.0624    7639.8722    6463.0417   -972.53161    1072.9555    2046.7762   -2698.0284 
 4125000    261.27994   -3852.0875   -3404.2626   -3852.0875            0    6944.2188    17.146877    20.196756     20.91915    7244.5376    5160.4708    7927.6434    7744.5423    234.69594   -1020.1465    2515.8437    -2670.577 
 4126000    263.90858    -3907.413   -3455.0827    -3907.413            0    5401.5152    17.162245    20.214857    20.937898    7264.0337    4619.5193    5384.1634    6200.8628    155.94857   -193.74319    1190.2163   -2882.8544 
 4127000    237.73443   -3848.0562   -3440.5876   -3848.0562            0    5153.1263    17.160101    20.212332    20.935283    7261.3124    6947.9815    5218.7243     3292.673   -739.38989   -1518.8351    -698.1031   -2894.8777 
 4128000    247.02877   -3892.7266   -3469.3277   -3892.7266            0    7382.1794    17.177292    20.232582    20.956257    7283.1578    8270.4055    7437.8285    6438.3042    1104.4356   -1297.6274    26.220835   -2685.2119 
 4129000    254.35373   -3898.9164   -3462.9628   -3898.9164            0    4962.3788    17.267635    20.338994    21.066475    7398.6793    4962.1418    4809.3364    5115.6582    725.95779   -770.54251    1281.0639   -2927.5114 
 4130000     249.4784   -3925.8881   -3498.2906   -3925.8881            0    7099.3457    17.298728    20.375617    21.104408    7438.7181    7456.3611    8101.4915    5740.1844    443.55323   -799.16264    188.25929   -2728.1105 
 4131000    248.00371   -3933.9856   -3508.9158   -3933.9856            0    6859.1157    17.233993    20.299368    21.025431    7355.5193    6121.1876    8304.3079    6151.8515    895.20562   -388.47513    1028.8543   -2773.1199 
 4132000    262.82899   -3915.9255   -3465.4456   -3915.9255            0    4719.6852    17.315198    20.395017    21.124502    7459.9858    5146.1672    4178.2112    4834.6771   -1018.3816    798.97824   -1341.1746   -2951.9615 
 4133000    240.57459   -3917.4782   -3505.1416   -3917.4782            0    4138.2386    17.256199    20.325523    21.052522    7383.9879    2220.1887    4883.0949    5311.4322   -408.94286   -607.03675    157.92194   -3059.5034 
 4134000    239.93395    -3934.787   -3523.5485    -3934.787            0    4914.2573    17.265911    20.336963    21.064372    7396.4634    3791.7839    5004.3129    5946.6752    584.67339    995.76971   -345.08874   -2993.4484 
 4135000    243.10946   -3956.4401   -3539.7588   -3956.4401            0    3884.7496    17.203413    20.263348    20.988124    7316.4337     3032.343    4845.8898    3776.0159    210.95584    317.03165    -521.7359   -3125.2456 
 4136000    254.45453   -3931.0318   -3494.9055   -3931.0318            0    5362.9416    17.191305    20.249087    20.973352    7300.9964    3683.8002    6974.4671    5430.5575    1698.4563    1555.6118    544.01166   -2923.8726 
 4137000    246.23628   -3916.9124   -3494.8718   -3916.9124            0    7457.0978     17.17766    20.233015    20.956705    7283.6256    7421.6247    8633.8288      6315.84    404.83633   -337.34285     393.9786   -2702.7475 
 4138000    254.81417   -3912.4519   -3475.7091   -3912.4519            0    5385.6987    17.188265    20.245505    20.969643    7297.1232    4639.7727    5710.1607    5807.1628    759.54421    1558.8793    234.43599   -2902.5574 
 4139000    233.76514   -3913.8438   -3513.1784   -3913.8438            0    6900.0804    17.162562    20.215231    20.938286     7264.437    5917.9765    8248.0783    6534.1866   -1371.1343    46.851013   -25.467597   -2782.1538 
 4140000    252.19513   -3893.9911   -3461.7372   -3893.9911            0     6947.733    17.145875    20.195576    20.917927    7243.2678    8571.7131    7238.9201    5032.5657   -13.652817    1458.8115    37.883151   -2727.8091 
 4141000     256.2825   -3919.5445   -3480.2851   -3919.5445            0    4999.8079    17.232933    20.298119    21.024138    7354.1617    5871.7708    5368.6968     3758.956    447.48905   -40.587327   -1032.3632   -2944.0411 
 4142000    244.54966   -3865.0733   -3445.9236   -3865.0733            0    6161.4515    17.128337    20.174919    20.896531    7221.0639    6046.0756    6069.8857    6368.3932    1139.7751    347.61015    453.12156     -2797.05 
 4143000    242.21406   -3886.9962   -3471.8496   -3886.9962            0    6458.6652    17.181023    20.236976    20.960808     7287.904    7187.0199     5765.805    6423.1709    47.389232    110.77042   -2048.8491     -2785.38 
 4144000    250.73364   -3918.1704   -3488.4215   -3918.1704            0     6297.294    17.177264    20.232548    20.956222    7283.1212    7066.8616     6104.782    5720.2384    9.1573474    273.39319   -1586.6348   -2819.5428 
 4145000    252.90198   -3873.1118   -3439.6465   -3873.1118            0    5809.0112    17.198696    20.257793     20.98237    7310.4176    7012.4195    6963.7701     3450.844    256.48589    2086.2643   -423.79068   -2820.3191 
 4146000    250.87094     -3914.03   -3484.0458     -3914.03            0    5092.0702    17.175664    20.230663     20.95427    7281.0864    4785.2197    5882.9364    4608.0544   -378.67397    1015.4482   -561.99368   -2943.3333 
 4147000    234.31607   -3881.6566   -3480.0469   -3881.6566            0    5430.2491    17.240282    20.306775    21.033104    7363.5742    4754.3184    7176.7833    4359.6458   -434.25759   -296.23139    -270.2806   -2896.8914 
 4148000    243.93853   -3892.0297   -3473.9274   -3892.0297            0    5832.2601    17.195051    20.253499    20.977923    7305.7706    6953.9329    5364.5385     5178.309   -57.475751    192.12907   -128.29117   -2852.5166 
 4149000    270.29567   -3855.9645    -3392.687   -3855.9645            0    5981.8546    17.108717    20.151808    20.872594    7196.2773    6785.2013    4373.3253    6787.0371   -371.81464    1687.6789   -451.73373   -2764.8894 
 4150000    255.92856    -3902.938   -3464.2852    -3902.938            0    6860.3602    17.204325    20.264422    20.989236    7317.5972    6811.3378    7101.5815    6668.1615   -504.96051   -869.04165    513.53877   -2732.1499 
 4151000    254.43008   -3872.1428   -3436.0584   -3872.1428            0    4999.3525    17.239035    20.305306    21.031582    7361.9762     6583.208    5272.9377    3141.9117   -1616.3852   -1533.2124    104.23067   -2899.2935 
 4152000    243.63398   -3917.3523    -3499.772   -3917.3523            0    5973.1446     17.26246    20.332898    21.060161    7392.0293    6559.4501      5713.64    5646.3438   -321.60097    357.71043      381.994   -2855.8362 
 4153000     250.7628   -3892.1585   -3462.3597   -3892.1585            0    6433.2585    17.272736    20.345001    21.072697    7405.2375    8009.5956    7087.3002    4202.8796   -1027.2128    529.86747    723.28318    -2767.582 
 4154000    242.06315   -3908.3019    -3493.414   -3908.3019            0    6685.8807    17.241736    20.308488    21.034878    7365.4377    7300.1877    6608.9524    6148.5022    216.27486   -701.99984    425.73855   -2775.2343 
 4155000    251.08228   -3905.5912   -3475.2447   -3905.5912            0    6123.0103    17.239697    20.306086     21.03239    7362.8248    4921.5026     6984.442    6463.0864   -305.04279    293.30519     1196.074   -2817.7605 
 4156000    234.27575   -3892.6266    -3491.086   -3892.6266            0    6607.6937    17.167919    20.221541    20.944821    7271.2415    6673.7091    7829.3215    5320.0507   -268.07397    1771.4376   -316.67224   -2790.3824 
 4157000    245.69998   -3885.6031   -3464.4817   -3885.6031            0    5167.8958    17.188644    20.245952    20.970105    7297.6059    6724.2848     5314.579    3464.8237   -381.92319   -1095.7605    1170.0027   -2914.4724 
 4158000    253.28876   -3914.6076   -3480.4793   -3914.6076            0    5702.5042    17.227587    20.291822    21.017616    7347.3198    4957.0275    6380.7406    5769.7445    660.81172    1533.5834    880.16394   -2869.4382 
 4159000     249.3641   -3890.5761   -3463.1746   -3890.5761            0    7436.1042    17.172231     20.22662    20.950081    7276.7212    6132.9818    7598.4075    8576.9233   -1346.3305   -88.030295   -1075.2447   -2674.0291 
 4160000     263.5378   -3894.1341   -3442.4393   -3894.1341            0    6475.3419    17.201636    20.261255    20.985956    7314.1667    7185.2314    7927.9812    4312.8131   -201.16241   -2074.8749   -1370.5777   -2751.7171 
 4161000    246.17835   -3912.4261   -3490.4848   -3912.4261            0    4473.0922    17.141302     20.19019    20.912349    7237.4745    5170.5841    3427.3114    4821.3813   -759.93191    595.02245   -1246.1194   -3018.3448 
 4162000    239.13568   -3872.0098   -3462.1395   -3872.0098            0    6239.8201    17.187367    20.244449    20.968548    7295.9807    6811.4419    5335.3502    6572.6683    261.62181   -125.46415    639.74185   -2798.1952 
 4163000      269.135   -3926.0081   -3464.7199   -3926.0081            0    8580.5425     17.13856     20.18696    20.909003    7234.0012    8111.3502    8976.2823    8653.9951    782.83202   -613.81486    744.28758   -2559.4684 
 4164000    253.85323   -3907.6845   -3472.5887   -3907.6845            0    8525.4978    17.099921    20.141448    20.861863    7185.1835    8947.3078    9092.9633    7536.2223    965.16532    27.358685   -827.46465   -2579.2143 
 4165000    247.30113   -3908.6119   -3484.7462   -3908.6119            0    6188.8043    17.184509    20.241082    20.965061    7292.3417    6373.1531    6653.4889    5539.7708    1052.1794    91.145245    923.79548   -2826.5587 
 4166000    261.00647   -3909.4407   -3462.0846   -3909.4407            0    4756.5119    17.196255    20.254917    20.979391    7307.3051    3999.1172    6264.9528    4005.4656   -1954.3167     620.8335   -119.21259   -2955.1853 
 4167000    242.45315   -3903.4358   -3487.8794   -3903.4358            0    6252.6917    17.118854    20.163749    20.884962    7209.0771    5483.0957    6712.6705    6562.3088    730.11853    1401.9554    264.10479   -2830.4902 
 4168000    268.73675    -3910.413   -3449.8075    -3910.413            0    4082.0349     17.19618    20.254829      20.9793    7307.2095    4423.5459    4825.6965    2996.8622    1321.9613    528.55757    -1230.414   -3014.7925 
 4169000    258.73621   -3880.6102   -3437.1452   -3880.6102            0    5565.1871    17.133256    20.180713    20.902533    7227.2873    3215.4928    7178.4438    6301.6248     1236.409    727.94531   -553.08961   -2850.5601 
 4170000    251.42257   -3902.3935   -3471.4638   -3902.3935            0    4612.7472    17.153644    20.204727    20.927405    7253.1182    4979.6169    4399.6067     4459.018   -215.68149    -511.2331   -2773.1006   -2983.5307 
 4171000    249.27529   -3904.5623    -3477.313   -3904.5623            0    5480.9998    17.165387    20.218559    20.941732    7268.0249    6397.7884    4834.7285    5210.4825   -1113.7405   -187.08615    836.60711   -2896.3452 
 4172000    260.34062   -3931.7552   -3485.5403   -3931.7552            0    6090.7033    17.102398    20.144366    20.864886    7188.3076    6571.3013    7446.2721    4254.5364    498.17364    207.03986   -1131.3004    -2847.027 
 4173000    257.40247   -3946.1729   -3504.9939   -3946.1729            0    5246.4147    17.126387    20.172622    20.894152    7218.5981    4580.1854    5969.9137     5189.145    -1926.672   -104.00062    2277.3925   -2952.6731 
 4174000    253.02623   -3918.6167   -3484.9384   -3918.6167            0     5819.979    17.131498    20.178642    20.900388     7225.063    5688.5367    5098.5208    6672.8796   -806.10447   -2087.9197    10.489471   -2871.6864 
 4175000    252.25479   -3892.5239   -3460.1678   -3892.5239            0    4559.9298    17.207741    20.268446    20.993404     7321.957    4110.7396    4880.7124    4688.3375   -283.53917    584.52915    542.40049   -2973.2438 
 4176000    254.10206   -3913.7143   -3478.1921   -3913.7143            0    7071.1195    17.067865     20.10369    20.822755    7144.8508    7718.8338    8069.6115    5424.9132    1797.7384   -528.74326    -794.9467   -2741.3792 
 4177000    257.85799    -3890.511   -3448.5512    -3890.511            0    6473.0967    17.047553    20.079766    20.797975    7119.3731    5630.5627    7359.2157    6429.5118   -10.468946   -82.916355    102.78251   -2776.4577 
 4178000    260.00177   -3888.1734   -3442.5393   -3888.1734            0    5540.5188    17.110827    20.154294    20.875169    7198.9405    5775.0603    5019.4164    5827.0796    1244.5407    1316.3627     665.8839   -2860.8449 
 4179000    250.26763   -3897.2295   -3468.2794   -3897.2295            0     5528.818    17.097615    20.138732     20.85905    7182.2777    3581.3689    5321.8693    7683.2159   -1902.0437   -1614.4347     883.6471   -2889.1569 
 4180000    252.23782   -3910.2944   -3477.9674   -3910.2944            0    7344.2668     17.11025    20.153614    20.874465    7198.2121    7114.4707    8133.1622    6785.1676     -783.398    356.29445    571.10888    -2706.977 
 4181000    263.96455    -3915.323   -3462.8968    -3915.323            0    6522.2372    17.170241    20.224276    20.947654    7274.1922     6451.665    6703.6144    6411.4321    1163.7393    450.81807    522.52463   -2770.9746 
 4182000    272.67919   -3914.3138    -3446.951   -3914.3138            0    7201.6503    17.206079    20.266488    20.991376    7319.8357    5799.1188     6222.967    9582.8651   -1001.1942   -216.74672    532.80169   -2678.1583 
 4183000    243.48947   -3908.4761   -3491.1435   -3908.4761            0    4474.3599    17.200876     20.26036    20.985029    7313.1977    7108.3489    2807.4936    3507.2373   -1147.8091    1026.7078   -800.14236   -3013.9285 
 4184000    254.54818   -3918.4536   -3482.1667   -3918.4536            0    5674.0296    17.131581     20.17874    20.900489     7225.168    4495.6062    5238.4658    7288.0169    782.38993   -23.264701   -585.44919   -2884.2848 
 4185000    252.34729   -3862.6843   -3430.1697   -3862.6843            0    6639.5994    17.102841    20.144888    20.865426    7188.8659    6421.5583    6412.5253    7084.7147    1033.8104   -985.36012   -510.42879   -2734.0593 
 4186000    273.07138   -3910.6675   -3442.6325   -3910.6675            0    6523.2478    17.111161    20.154688    20.875577    7199.3625    7092.7319    6197.4587    6279.5528   -810.40029   -209.38863   -94.132087    -2757.722 
 4187000    244.09759    -3895.403   -3477.0281    -3895.403            0    5817.3152    17.110021    20.153345    20.874186    7197.9238    4492.3079    6654.2334    6305.4041   -535.74041    334.40266   -1429.3259   -2866.3593 
 4188000    267.47301   -3885.7369   -3427.2974   -3885.7369            0    6315.9385    17.117162    20.161756    20.882898    7206.9395    7083.4031     5331.795    6532.6174   -829.60629   -699.03386   -931.06607   -2763.4555 
 4189000    235.51909   -3900.8869   -3497.2153   -3900.8869            0    5677.6553    17.103001    20.145076    20.865621    7189.0674    3292.2029    6450.1603    7290.6028   -140.42958    285.89851   -350.73591   -2901.9405 
 4190000    265.66004    -3875.155   -3419.8227    -3875.155            0    6627.8946    17.194461    20.252804    20.977202    7305.0178    7041.9277    7330.1681    5511.5881   -800.86944    711.68113    773.96099   -2713.7121 
 4191000    260.47409   -3922.6669   -3476.2232   -3922.6669            0    6889.2625    17.163698    20.216569    20.939671    7265.8788    7060.7226    8319.3343    5287.7305   -255.43448   -749.42783    1058.1492   -2746.1998 
 4192000    257.78375   -3908.7667   -3466.9342   -3908.7667            0    5621.1997    17.113752    20.157739    20.878737    7202.6325      6470.91    4926.4416    5466.2474    278.67038    1142.6625   -291.55126   -2876.4664 
 4193000    254.66937   -3937.6928   -3501.1982   -3937.6928            0    4784.7939     17.14179    20.190765    20.912944    7238.0925    3685.5417    5891.8297    4777.0102   -1075.8334    639.18967    469.11495   -2996.1146 
 4194000     256.2032   -3912.5471   -3473.4236   -3912.5471            0    7688.3346    17.093308    20.133659    20.853795    7176.8509    7935.9841    7716.0065    7413.0131    1653.8937    946.82809   -753.85839   -2668.7086 
 4195000    250.03962   -3935.7013    -3507.142   -3935.7013            0    6952.8613    17.095875    20.136682    20.856927    7180.0848    8204.3198    7037.4803    5616.7839   -444.25122    301.89925   -1280.3594   -2779.0789 
 4196000    253.53174    -3918.387   -3483.8423    -3918.387            0    4727.8551    17.160475    20.212773     20.93574    7261.7874    6813.1443     4009.906    3360.5151    -404.5721   -1393.5351   -1078.8458   -2983.1354 
 4197000    251.88847   -3915.1009   -3483.3727   -3915.1009            0    7134.3814    17.106679    20.149408    20.870108     7193.706    8594.3888    6962.0392    5846.7163    1025.4432    211.27274    1063.0022   -2734.8846 
 4198000    253.54562   -3887.4994   -3452.9309   -3887.4994            0    5775.2987    17.108612    20.151685    20.872467    7196.1456    6609.7603    6177.4918     4538.644   -238.12882   -908.22249    1652.1942   -2846.8225 
 4199000    264.43408   -3905.1883   -3451.9573   -3905.1883            0    6608.7163    17.127162    20.173535    20.895098    7219.5784    5667.3003    7860.1435    6298.7049     -289.307   -894.38372   -761.59177   -2756.1246 
 4200000    266.48199   -3933.0204   -3476.2794   -3933.0204            0    6337.9005    17.133353    20.180827    20.902651      7227.41    4905.9037    9664.8459    4442.9518    1016.5085    198.57255    528.62336    -2808.237 
 4201000    269.52107   -3939.8423   -3477.8924   -3939.8423            0    4660.4758    17.232561     20.29768    21.023684    7353.6854     4475.065    6036.0885    3470.2738   -225.19004    608.05704    557.79737   -2978.0752 
 4202000    261.61846   -3909.1203   -3460.7152   -3909.1203            0    6302.0163     17.14905    20.199316    20.921801    7247.2927    5153.4893    7026.9417    6725.6178    995.66586    2144.8447   -16.365666   -2794.6278 
 4203000    244.72306   -3920.3604   -3500.9135   -3920.3604            0    8026.8251    17.086566    20.125717     20.84557     7168.362    7208.4722    7634.3028    9237.7002    360.25895    50.906595   -244.48999   -2661.7635 
 4204000    245.58072   -3925.2777   -3504.3608   -3925.2777            0    4937.4746     17.10097    20.142684    20.863144    7186.5068    6197.2855    3917.5224    4697.6159    239.88856   -1410.6061    790.55344   -2986.8748 
 4205000    242.93948   -3915.2348   -3498.8448   -3915.2348            0    6605.3957    17.039597    20.070394    20.788268    7109.4093    8403.1562    4799.1969    6613.8339    255.53755   -1726.0267   -680.84509   -2813.9746 
 4206000    251.03587    -3935.212   -3504.9451    -3935.212            0    5440.2373    17.100943    20.142652    20.863111    7186.4726    6498.2099    4969.2321    4853.2701   -1019.8072     651.7447    -1328.027   -2934.7684 
 4207000    255.58196   -3907.7638   -3469.7051   -3907.7638            0    5432.1763    17.157188    20.208901    20.931729    7257.6151    5360.1975    6974.7117    3961.6197    1371.1327    517.00825   -994.64712   -2894.7371 
 4208000    256.79553   -3889.8803   -3449.7415   -3889.8803            0    7095.8982    17.083446    20.122043    20.841764    7164.4362    7116.5909    7243.9334    6927.1704   -984.21311   -862.27224    187.87569   -2708.3198 
 4209000    245.56155    -3892.741   -3471.8569    -3892.741            0    6173.6693    17.115898    20.160268    20.881356    7205.3435    5155.9086    6907.9872     6457.112    -1600.087    275.48884   -1393.9953    -2823.112 
 4210000    262.51458   -3885.2267   -3435.2856   -3885.2267            0    7186.3053    17.103576    20.145754    20.866323    7189.7928    7061.9597    7768.6209    6728.3354     883.5777    813.46359    602.29013   -2681.7602 
 4211000    247.94944   -3882.4826   -3457.5058   -3882.4826            0    4681.4003     17.17111      20.2253    20.948714    7275.2968    4477.9429    4765.7697    4800.4884    23.947441    549.36856    344.58009   -2960.7964 
 4212000    258.10917   -3913.4253    -3471.035   -3913.4253            0     7104.726     17.14673    20.196583     20.91897     7244.351    6529.7617    7002.7229    7781.6934   -94.382725   -1003.6061    394.93476   -2720.4106 
 4213000    263.12821   -3907.9556   -3456.9629   -3907.9556            0    6001.4319    17.133871    20.181437    20.903282     7228.065    5284.7858    6566.0094    6153.5005    1223.5397   -277.88862   -1811.9262   -2824.3284 
 4214000    238.31165   -3903.1556   -3494.6976   -3903.1556            0    4339.0143    17.144265    20.193679    20.915963    7241.2273     5664.059    2755.1363    4597.8475    342.67623   -900.54496    1269.8498   -3036.4722 
 4215000    243.98534   -3967.2237   -3549.0412   -3967.2237            0    7010.5563    17.094397    20.134942    20.855125    7178.2234     8813.533     6213.723    6004.4128   -213.36689    319.38941    1339.9058   -2815.1269 
 4216000    249.43384   -3923.2554   -3495.7343   -3923.2554            0    5638.8034    17.163725    20.216601    20.939704    7265.9132    4650.8225    7098.7781    5166.8094     431.1628     1481.937   -1408.8983   -2898.2135 
 4217000    241.63815   -3931.9871   -3517.8276   -3931.9871            0    6406.8304    17.141538    20.190467    20.912636    7237.7722    6462.4462    6803.0476    5954.9974     505.0406    1075.1265    104.18482   -2841.5515 
 4218000    258.81363   -3934.1543   -3490.5566   -3934.1543            0    7592.6805    17.141007    20.189842    20.911988    7237.0997    5986.1759    8870.0692    7921.7964    537.27082     1369.801   -637.07445    -2689.182 
 4219000    249.71369   -3893.9604   -3465.9597   -3893.9604            0    6152.0835    17.177277    20.232563    20.956238     7283.138    6109.0746    5152.5865    7194.5895   -703.96204    2089.7075    446.57997   -2812.5033 
 4220000    253.07301    -3929.363   -3495.6045    -3929.363            0      7371.88    17.055284    20.088872    20.807406    7129.0628    5930.3363    8490.4639    7694.8398   -624.64038    1401.7996   -814.18274   -2729.1496 
 4221000     255.2479   -3923.2662     -3485.78   -3923.2662            0    6054.8782    17.111492    20.155077     20.87598    7199.7795    5211.1735    5460.6713    7492.7899    838.73268     1108.749   -949.66385   -2850.0093 
 4222000    238.97038   -3889.3012   -3479.7141   -3889.3012            0    6690.1712    17.047004    20.079119    20.797306    7118.6855    4375.6518    6829.4311    8865.4308   -47.488885   -70.824831   -651.43229   -2785.1491 
 4223000    254.75818   -3918.7514   -3482.1046   -3918.7514            0    5598.2518    17.127961    20.174475    20.896072    7220.5882    4713.9728    6968.7069    5112.0758    45.687648   -986.47559   -43.054996   -2892.5814 
 4224000    265.68104   -3923.6853   -3468.3171   -3923.6853            0    8291.3093    17.113373    20.157293    20.878275    7202.1542    7720.6383     8162.239    8991.0507    38.849371    308.81446   -269.79191   -2597.4308 
 4225000    244.29934   -3925.7027    -3506.982   -3925.7027            0    6824.6017    17.165708    20.218937    20.942124    7268.4327    6742.0445    6531.3854    7200.3752    692.74869    944.61193   -465.47018   -2783.5563 
 4226000    250.90179   -3913.2468   -3483.2097   -3913.2468            0     4547.956    17.254597    20.323636    21.050568    7381.9317    2856.1097    5860.2487    4927.5098    384.66132    537.28077    -194.1094   -2993.5863 
 4227000     268.8362   -3866.6827   -3405.9067   -3866.6827            0    6819.3999     17.18871     20.24603    20.970186    7297.6908     6663.645     6692.708    7101.8468   -965.20028    1972.4584    440.10085   -2680.1225 
 4228000    254.11887   -3870.9612   -3435.4102   -3870.9612            0    7149.2222    17.158504    20.210451    20.933334    7259.2846    7441.3581    6950.7138    7055.5945    1553.1502    357.95775   -828.74505   -2678.5276 
 4229000    251.57717   -3895.6379   -3464.4433   -3895.6379            0     6647.898    17.187371    20.244453    20.968552     7295.985     6363.926     7506.493    6073.2749    305.13435   -86.252272    1053.2335   -2757.0773 
 4230000    259.69278   -3887.5982   -3442.4937   -3887.5982            0    6954.5515    17.150865    20.201453    20.924015    7249.5932    6460.1588    7592.5408    6810.9549    1140.3929    14.602028   -553.83876   -2707.2037 
 4231000    252.75144   -3872.3063   -3439.0989   -3872.3063            0    7177.6968    17.103841    20.146065    20.866646    7190.1264    6540.2829      7427.11    7565.6976   -243.05402    400.17084    2009.3746   -2686.4412 
 4232000    253.38881   -3891.5834   -3457.2836   -3891.5834            0     5094.103    17.189422    20.246868    20.971054    7298.5971    5476.6942    4890.8509     4914.764   -335.73114   -1142.3426   -199.95547   -2915.0543 
 4233000    250.80628   -3901.1637   -3471.2903   -3901.1637            0    8915.7897    17.137559    20.185781    20.907782    7232.7339    9377.2753    8266.4037    9103.6902    534.36801   -313.99482     238.6684   -2530.8349 
 4234000    246.73952   -3859.6731     -3436.77   -3859.6731            0    4456.2802    17.217516    20.279959    21.005329    7334.4414    4811.0573    4281.2614     4276.522    1699.1084   -100.33769   -675.69906   -2960.1027 
 4235000    246.07147   -3901.1274   -3479.3693   -3901.1274            0    4118.3463    17.236582    20.302417     21.02859    7358.8348    2234.2628     4607.956    5512.8201    528.42812   -2026.4561    78.849375    -3037.384 
 4236000    267.35489   -3906.2442   -3448.0071   -3906.2442            0    5956.0821    17.156768    20.208407    20.931217    7257.0823    5678.6641    6115.0226    6074.5596   -154.19033   -1240.4294   -584.62441   -2817.6326 
 4237000    248.96622   -3867.9826    -3441.263   -3867.9826            0    6915.3512    17.140539    20.189291    20.911418    7236.5075    6110.6876    8182.4952     6452.871   -842.47102   -21.581746   -477.56745   -2711.4373 
 4238000    262.12098    -3893.523   -3444.2566    -3893.523            0     5589.948    17.205935    20.266318      20.9912    7319.6513     5115.002       6075.5     5579.342    2435.0761   -2607.6721   -387.60801   -2847.5318 
 4239000    254.79254   -3914.7002   -3477.9945   -3914.7002            0    5930.5254    17.227877    20.292163    21.017969    7347.6906    5212.1237    6411.8863    6167.5663    2249.0642    531.09729    927.34326   -2842.4881 
 4240000    246.72567   -3862.2535   -3439.3741   -3862.2535            0    7748.7516    17.142748    20.191893    20.914112    7239.3053    6052.5409    9319.7268     7873.987    159.18649   -58.077403    223.38193   -2621.2776 
 4241000     252.1384   -3907.2471   -3475.0905   -3907.2471            0    6108.6393    17.152666    20.203575    20.926213    7251.8783    6799.0614    4856.1511    6670.7054    1035.0233   -1209.5163   -214.55378   -2829.0334 
 4242000    258.93136    -3907.032   -3463.2325    -3907.032            0    4984.1927    17.228694    20.293126    21.018966    7348.7361    3563.0047    6101.5594     5288.014    610.20365    1183.2162   -300.14119   -2929.0577 
 4243000    254.37414   -3858.6777   -3422.6891   -3858.6777            0    7650.6833    17.125292    20.171332    20.892817    7217.2137    9901.6677    6164.8204    6885.5617   -57.298104    1268.3724   -1212.7176   -2617.4114 
 4244000    252.74469    -3877.671   -3444.4752    -3877.671            0    5628.9387    17.177205    20.232478     20.95615    7283.0464    5745.6605     5242.948    5898.2077     776.8929    1517.0393   -300.56557   -2846.5932 
 4245000    259.09544   -3878.6382   -3434.5575   -3878.6382            0    6065.0057    17.167307     20.22082    20.944075    7270.4641    4962.4563    7238.7915    5993.7694   -111.07439   -1816.5568    981.51027   -2791.4712 
 4246000    254.42676   -3912.0092   -3475.9304   -3912.0092            0    5157.3834    17.171181    20.225383    20.948801    7275.3871    6173.9874    4667.1702    4630.9925   -583.02944    771.75966   -202.43624   -2928.7111 
 4247000    239.06833   -3887.9591   -3478.2042   -3887.9591            0    5413.4675    17.152026    20.202822    20.925432    7251.0668    3770.2411    6003.2417    6466.9199    1106.2475    543.22684    960.72963   -2905.7334 
 4248000    267.81235   -3913.2873   -3454.2661   -3913.2873            0     4477.281    17.178131    20.233569    20.957279     7284.224    4692.6397    4215.1459    4524.0573   -1012.5663    423.14553    370.16583   -2978.6314 
 4249000    240.52511   -3921.3351   -3509.0833   -3921.3351            0    4929.8229    17.172752    20.227234    20.950717    7277.3839    5027.6647    6295.5905    3466.2135    1280.8044    742.39553   -1194.7925   -2985.8655 
 4250000    272.34044   -3907.3153   -3440.5331   -3907.3153            0    5994.2607    17.139787    20.188406    20.910501    7235.5555    7138.7955     5034.445    5809.5416    1164.1092    174.73377    914.13719   -2807.9998 
Loop time of 520.246 on 64 procs for 250000 steps with 864 atoms

Performance: 83.038 ns/day, 0.289 hours/ns, 480.542 timesteps/s
99.1% CPU use with 64 MPI tasks x 1 OpenMP threads

MPI task timing breakdown:
Section |  min time  |  avg time  |  max time  |%varavg| %total
---------------------------------------------------------------
Pair    | 21.155     | 25.907     | 30.967     |  47.5 |  4.98
Bond    | 0.27219    | 0.29467    | 0.33853    |   1.6 |  0.06
Kspace  | 225.76     | 236.82     | 250.76     |  40.1 | 45.52
Neigh   | 4.9258     | 5.9649     | 7.2391     |  27.8 |  1.15
Comm    | 113.1      | 126.21     | 138.4      |  55.5 | 24.26
Output  | 1.3693     | 1.3704     | 1.3718     |   0.0 |  0.26
Modify  | 113.52     | 117.29     | 121.61     |  16.1 | 22.54
Other   |            | 6.395      |            |       |  1.23

Nlocal:        13.5000 ave          19 max           9 min
Histogram: 1 7 5 12 8 11 6 6 3 5
Nghost:        2203.94 ave        2244 max        2163 min
Histogram: 3 2 5 6 15 14 7 9 1 2
Neighs:        4265.38 ave        6409 max        2356 min
Histogram: 2 5 9 10 10 14 7 2 1 4

Total # of neighbors = 272984
Ave neighs/atom = 315.95370
Ave special neighs/atom = 2.0000000
Neighbor list builds = 13161
Dangerous builds = 0

unfix		3
unfix		2
unfix		1

write_data	data.final.${pid}
write_data	data.final.0
System init for write_data ...
PPPM initialization ...
  extracting TIP4P info from pair style
  using 12-bit tables for long-range coulomb (../kspace.cpp:340)
  G vector (1/distance) = 0.37346322
  grid = 24 24 24
  stencil order = 5
  estimated absolute RMS force accuracy = 0.0032533024
  estimated relative force accuracy = 9.7972235e-06
  using double precision FFTW3
  3d grid and FFT values/proc = 2535 216
Last active /omp style is kspace_style pppm/tip4p/omp
WARNING: Not all mixed pair coeffs generated from mixing. Use write_data with 'pair ij' option to store all pair coeffs. (../write_data.cpp:312)

write_restart   restart.lmp.${pid}
write_restart   restart.lmp.0
System init for write_restart ...
PPPM initialization ...
  extracting TIP4P info from pair style
  using 12-bit tables for long-range coulomb (../kspace.cpp:340)
  G vector (1/distance) = 0.37346322
  grid = 24 24 24
  stencil order = 5
  estimated absolute RMS force accuracy = 0.0032533024
  estimated relative force accuracy = 9.7972235e-06
  using double precision FFTW3
  3d grid and FFT values/proc = 2535 216
Last active /omp style is kspace_style pppm/tip4p/omp
Total wall time: 0:08:44
