LAMMPS data file via write_data, version 30 Jul 2021, timestep = 8750000

1296 atoms
2 atom types
864 bonds
1 bond types
432 angles
1 angle types

-10.669650134654127 12.649650134654127 xlo xhi
-9.210607677502061 12.200605677502061 ylo yhi
0.08336870146349717 21.776630298539313 zlo zhi
-9.10575620282585 2.0106492378166885 2.9788936140315605 xy xz yz

Masses

1 1.008
2 15.999

Pair Coeffs # lj/cut/tip4p/long/omp

1 0 0
2 0.21084 3.1668

Bond Coeffs # harmonic/omp

1 450 0.9572

Angle Coeffs # harmonic/omp

1 55 104.52

Atoms # full

282 94 1 0.5897 -10.453764282412319 -4.166070103404375 1.5112740168597643 1 1 0
323 108 1 0.5897 -6.224219849679953 -5.620896507976042 3.4920204338395924 1 1 0
280 94 2 -1.1794 -9.607637087266559 -4.605991914493659 1.4290924566724692 1 1 0
270 90 1 0.5897 -8.511294734933994 -7.358345358930986 2.1140269876645004 1 1 0
163 55 2 -1.1794 -7.182253060047524 -7.943927244171899 1.0358926264696564 1 1 0
164 55 1 0.5897 -6.328918010786763 -8.257027334873063 1.3358520376540757 1 1 0
298 100 2 -1.1794 -5.848167234147873 -7.19149753572761 4.231311794522552 1 1 0
269 90 1 0.5897 -9.42784830494662 -6.180802136443185 2.3697038760066125 1 1 0
268 90 2 -1.1794 -9.243993856946847 -7.074129703574419 2.6604610771651394 1 1 0
75 25 1 0.5897 -9.214601878591267 -3.2873477232014414 4.476765162710657 1 0 0
324 108 1 0.5897 -7.104126314778768 -4.392719827561439 3.589080946832045 1 1 0
73 25 2 -1.1794 -8.428352282006792 -3.7433110562472898 4.776987553452036 1 0 0
314 105 1 0.5897 -9.052712782881128 -6.793129725481988 4.503717453866496 1 1 0
260 87 1 0.5897 -6.824164681101528 -6.323495862696662 0.5386561975253812 1 1 0
299 100 1 0.5897 -6.4779933076576155 -7.910855909524185 4.185594512300359 1 1 0
322 108 2 -1.1794 -6.35646371115614 -4.752402922775332 3.1117490067154767 1 1 0
261 87 1 0.5897 -6.465572305272601 -5.087671021204742 1.3361833950129471 1 1 0
315 105 1 0.5897 -8.825112994249867 -5.514041729394552 5.280923605506096 1 1 0
281 94 1 0.5897 -8.96578978397918 -3.8960033363577917 1.4427218778312405 1 1 0
300 100 1 0.5897 -4.992827230896494 -7.617719265864036 4.177035604318355 1 1 0
275 92 1 0.5897 -10.49907988739302 -8.151036909097055 3.3231485602020365 1 1 0
313 105 2 -1.1794 -8.920350892679064 -6.460144778263864 5.3912816008105935 1 1 0
259 87 2 -1.1794 -6.558353309014213 -5.409249636615592 0.43943625881262277 1 1 0
165 55 1 0.5897 -7.446401365160806 -8.573314672582026 0.3648583883508388 1 1 0
429 143 1 0.5897 -6.2840072389312285 -7.268137415216751 8.696699429264708 1 0 0
428 143 1 0.5897 -6.437982411559116 -7.033246010460583 10.18429226097603 1 0 0
427 143 2 -1.1794 -5.799089863049713 -6.988098454442439 9.472950581655292 1 0 0
419 140 1 0.5897 -8.811277908463428 -5.481092194420674 8.825337918378878 1 0 0
418 140 2 -1.1794 -9.50188893254707 -5.923856653473875 9.318571056603298 1 0 0
413 138 1 0.5897 -7.587708943125885 -3.667983100745314 7.91841998879712 1 0 0
414 138 1 0.5897 -6.674776013028539 -4.835699449346387 7.610143064991814 1 0 0
350 117 1 0.5897 -7.101518026392063 -4.3866906536943535 9.960447991042969 0 0 0
627 209 1 0.5897 -10.359529989164347 -6.740395086060146 6.508302524419699 1 1 0
618 206 1 0.5897 -7.727376317198717 -7.333298301174111 6.634697540333562 1 1 0
616 206 2 -1.1794 -7.298840266494546 -7.9221491941826585 7.255910230740426 1 1 0
412 138 2 -1.1794 -7.4040590074223065 -4.572726509446633 8.171575693059573 1 0 0
420 140 1 0.5897 -9.033486738588394 -6.4768736594669 9.943907544299488 1 0 0
351 117 1 0.5897 -7.077484941615785 -3.065496263718943 10.699259644796456 0 0 0
349 117 2 -1.1794 -7.054522699795162 -4.012085816301689 10.840016983629999 0 0 0
74 25 1 0.5897 -8.187154587870658 -3.296722981340176 5.58849739125515 1 0 0
633 211 1 0.5897 -5.618919936558619 -6.10415985903387 5.773519139504263 1 1 0
684 228 1 0.5897 -8.394515915537307 -6.388300107450863 14.467581361159173 0 0 0
662 221 1 0.5897 -8.81813434316326 -4.041357295510734 13.339296424083829 0 0 0
740 247 1 0.5897 -10.67775858007311 -3.277240965290787 12.055058828900629 1 0 0
652 218 2 -1.1794 -5.510821358661809 -5.401380171417692 12.742410896911563 0 0 0
682 228 2 -1.1794 -7.723121772806224 -6.744034696962098 13.885427465481 0 0 0
780 260 1 0.5897 -7.515597625500239 -3.8468151887961657 15.352808286504999 0 0 0
779 260 1 0.5897 -7.177108324858103 -2.758144796263931 14.356613543217929 0 0 0
778 260 2 -1.1794 -7.914096015640936 -3.2487282107893307 14.720522577643473 0 0 0
768 256 1 0.5897 -9.460944722995663 -2.4626828030257126 14.997468944237323 0 0 0
654 218 1 0.5897 -5.977196525758316 -4.874734449735055 12.093248640821235 0 0 0
653 218 1 0.5897 -6.200187807679098 -5.877324131740897 13.205567820238803 0 0 0
661 221 2 -1.1794 -9.230344864272213 -4.3617579367424835 12.537067027851041 0 0 0
729 243 1 0.5897 -7.988834381725936 -6.991028882179997 12.087976074096712 1 0 0
766 256 2 -1.1794 -10.320763077923543 -2.056099053959878 15.105250928688585 0 0 0
788 263 1 0.5897 -4.9259193494020375 -4.592864784537971 15.71450258758603 0 0 0
663 221 1 0.5897 -8.535992499538128 -4.324966167208633 11.879231950150936 0 0 0
767 256 1 0.5897 -10.93319049417158 -2.7915045092349224 15.124343955147395 0 0 0
727 243 2 -1.1794 -7.939164680161104 -7.369768225584365 11.210320645591914 1 0 0
757 253 2 -1.1794 -9.749480813933603 -5.885111791458618 15.520521592346054 0 0 0
758 253 1 0.5897 -9.45472961974303 -5.294242849471925 16.21346255225984 0 0 0
739 247 2 -1.1794 -11.528851870533238 -2.901194347605246 11.830486586628407 1 0 0
1087 363 2 -1.1794 -6.488031516310224 -4.923266476875796 16.559351677847744 0 0 0
1097 366 1 0.5897 -9.005824437689228 -5.647218837256991 18.574785864973357 0 0 0
1142 381 1 0.5897 -8.538789249867442 -6.283377685235665 20.716135860512942 0 0 0
1130 377 1 0.5897 -7.150239820365366 -1.552550967488295 18.830789932223894 0 0 0
1152 384 1 0.5897 -6.776944298591345 -3.9075873257898017 19.708787762187413 0 0 0
1225 409 2 -1.1794 -8.131376015396585 -3.305954714412449 20.940183209480274 0 0 0
1227 409 1 0.5897 -8.766233783927593 -2.768048843069196 20.467047269883473 0 0 0
1088 363 1 0.5897 -6.617662266286909 -5.868731673489561 16.634509711425252 0 0 0
1109 370 1 0.5897 -8.693616833059524 -3.3207980691575187 17.859020971574665 0 0 0
1108 370 2 -1.1794 -9.257612831601085 -4.092459883571484 17.807012035074877 0 0 0
1248 416 1 0.5897 -5.714654921481621 -1.4245788042531888 20.746646483133098 0 0 0
1089 363 1 0.5897 -6.339506013990185 -4.629253894574472 17.45805483966319 0 0 0
1150 384 2 -1.1794 -6.043139614556814 -4.316474474954167 19.249912154565585 0 0 0
1219 407 2 -1.1794 -10.299256388772687 -1.690293575253703 20.238513588572225 0 0 0
1129 377 2 -1.1794 -7.651161459994379 -1.7688384140853124 18.04438374900687 0 0 0
1151 384 1 0.5897 -5.9553765175822635 -5.178217398871076 19.657434162170567 0 0 0
1121 374 1 0.5897 -4.618206481658491 -3.335845477805143 18.640714306732498 0 0 0
1131 377 1 0.5897 -7.02002618959136 -1.6913137904498683 17.32892103848237 0 0 0
1143 381 1 0.5897 -8.376231701440046 -5.066565143656946 21.602044493956242 0 0 0
1226 409 1 0.5897 -7.798260421138572 -2.732571384385789 21.6304249486573 0 0 0
1141 381 2 -1.1794 -8.433197482726632 -6.021701839566186 21.63076547336005 0 0 0
1110 370 1 0.5897 -10.144333593726607 -3.749416261928239 17.917702299259098 0 0 0
1096 366 2 -1.1794 -8.926471519271225 -6.521978659257483 18.95541310927093 0 0 0
1221 407 1 0.5897 -10.74419063183889 -2.031632133993485 19.46284250194018 0 0 0
44 15 1 0.5897 -10.049607575180683 0.9301003747201548 0.24969067395701783 1 0 0
69 23 1 0.5897 -11.085305642244407 -2.6028304260933908 3.333795385576855 1 0 0
98 33 1 0.5897 -11.87640295856077 0.4237927562524497 4.414328513852884 1 0 0
272 91 1 0.5897 -9.433706613056335 -1.1374574092367826 1.2106357428424446 1 1 0
271 91 2 -1.1794 -10.25976127127769 -0.8406496051625734 0.8289008111676405 1 1 0
256 86 2 -1.1794 -12.028592511950666 -3.25189837609694 1.917130962333906 1 1 0
258 86 1 0.5897 -12.466267669089872 -2.7358584906782895 1.2400661421800154 1 1 0
301 101 2 -1.1794 -7.963474560686187 -2.380233128181559 1.6115536494755431 1 1 0
67 23 2 -1.1794 -10.68309142754955 -2.321301916785081 4.155445795402794 1 0 0
107 36 1 0.5897 -9.301560473106496 1.5402036847801597 3.2170618947116347 1 0 0
68 23 1 0.5897 -11.36283731686087 -2.4593368945791836 4.815086951089737 1 0 0
52 18 2 -1.1794 -12.155374213126882 0.04054060236295598 2.6356074365036024 1 0 0
53 18 1 0.5897 -12.341883672390454 0.9103795816945475 2.282099034640888 1 0 0
82 28 2 -1.1794 -8.925290262242077 -0.1601837310975771 4.076796687848773 1 0 0
83 28 1 0.5897 -9.586807335611578 -0.8516648578334607 4.099011392429452 1 0 0
54 18 1 0.5897 -11.502382758126478 -0.32589271025919153 2.039326785995512 1 0 0
97 33 2 -1.1794 -11.909208788238018 0.7543697847155837 5.3120086510097115 1 0 0
59 20 1 0.5897 -13.50941035166858 -0.9666425898949953 3.396527717449412 1 0 0
99 33 1 0.5897 -11.690410112845493 1.6830112870379903 5.233901542388253 1 0 0
84 28 1 0.5897 -8.092592485183147 -0.6269766511758004 4.006481519883001 1 0 0
302 101 1 0.5897 -7.564540716870216 -2.210192808594286 2.4648355722900845 1 1 0
273 91 1 0.5897 -10.457029430128099 -1.487383310860463 0.15139116142768858 1 1 0
527 176 1 0.5897 -11.845244642930567 1.6377417422375053 8.708079089801505 1 0 0
526 176 2 -1.1794 -12.568822284548753 1.1521438558655497 9.104164066934464 1 0 0
426 142 1 0.5897 -8.954717239022136 -1.723120723116212 7.073430581248567 1 0 0
411 137 1 0.5897 -13.39755327574899 0.1636076946459788 6.29319952451591 1 0 0
402 134 1 0.5897 -10.914534444569135 -0.16814758169404698 6.654246741022319 1 0 0
401 134 1 0.5897 -11.127830159808155 -1.2473894315001974 7.694405089861601 1 0 0
400 134 2 -1.1794 -10.44654971751103 -0.7114053354785987 7.288390698810871 1 0 0
537 179 1 0.5897 -9.403011710432342 0.04024624133770516 8.618392196264997 1 0 0
536 179 1 0.5897 -9.562951526583022 0.10004568924447277 10.122611192612824 1 0 0
535 179 2 -1.1794 -8.919179830317729 0.2199552350443703 9.424465188743994 1 0 0
528 176 1 0.5897 -12.154396162861781 0.6067150865114357 9.772770521029642 1 0 0
424 142 2 -1.1794 -8.080792053343837 -2.099611888326609 6.9699017533175 1 0 0
435 145 1 0.5897 -7.422974588825873 -0.8314177006892294 9.753680928036438 0 0 0
522 174 1 0.5897 -9.78267273516797 2.189525626464773 7.538640666142177 1 0 0
425 142 1 0.5897 -7.496636732842518 -1.342402870995432 6.929288356535906 1 0 0
417 139 1 0.5897 -8.833960503834279 0.9574167796368975 5.611515384628509 1 0 0
433 145 2 -1.1794 -6.733501810384447 -1.3515784583531678 10.166365900245598 0 0 0
410 137 1 0.5897 -13.525068587776278 0.33489380089396903 7.7919395798812126 1 0 0
415 139 2 -1.1794 -8.592585843704017 1.5615239087400283 6.313639739672483 1 0 0
769 257 2 -1.1794 -12.32593740742367 2.657958628799882 12.279778508679968 0 0 0
762 254 1 0.5897 -9.096256445421147 2.233496915951241 11.985574048792278 0 0 0
761 254 1 0.5897 -9.37877988297854 1.2080887537073952 13.063020030657102 0 0 0
760 254 2 -1.1794 -8.664379586502395 1.6846572504270725 12.640204985932776 0 0 0
888 296 1 0.5897 -10.63484880681795 3.274457641994765 15.186100256089148 0 0 0
792 264 1 0.5897 -11.456632757973049 0.750597982028431 14.391274055525008 0 0 0
837 279 1 0.5897 -11.129965533537352 0.1506047601267646 11.850037810997561 1 0 0
896 299 1 0.5897 -8.023846205389257 2.6985484731739025 15.44041759278835 0 0 0
791 264 1 0.5897 -10.697604700925176 -0.5387573620043735 14.159892061471792 0 0 0
790 264 2 -1.1794 -10.814067882283705 0.3444656078465229 13.80956035795505 0 0 0
770 257 1 0.5897 -11.942583309621975 2.896474372490898 13.123756092077407 0 0 0
865 289 2 -1.1794 -12.79094335012434 1.3878033839488033 15.48923469878672 0 0 0
836 279 1 0.5897 -11.137783097042343 -1.2381904366492327 11.24735378897901 1 0 0
771 257 1 0.5897 -11.650560478281648 2.8787494118281653 11.638404949522181 0 0 0
835 279 2 -1.1794 -11.041615827390673 -0.3138445812931536 11.017764363223613 1 0 0
866 289 1 0.5897 -12.534366269427718 1.987042460580163 16.190133920355024 0 0 0
1009 337 2 -1.1794 -10.928874154910227 3.7689300204157252 21.046940650169013 0 -1 0
1260 420 1 0.5897 -9.704401541730329 3.362677730007986 19.69775679715871 0 0 0
1205 402 1 0.5897 -12.054119742543339 1.5020385252533721 18.40404136384595 0 0 0
1259 420 1 0.5897 -8.942924475286556 2.0824027924445634 19.427310759654894 0 0 0
1258 420 2 -1.1794 -9.017375382661935 2.9934182527757844 19.142900601587932 0 0 0
1250 417 1 0.5897 -11.506256069650837 0.7976361795427813 20.666670967557245 0 0 0
1206 402 1 0.5897 -11.194963534676303 0.2585507929561093 18.316423793513515 0 0 0
1249 417 2 -1.1794 -11.398567171717644 1.0940762172933027 21.57038111561517 0 0 0
1236 412 1 0.5897 -7.815125426481161 -0.03665531703403957 20.33774894612278 0 0 0
1218 406 1 0.5897 -13.19575947070253 3.5767315674624154 17.744952460733494 0 0 0
1235 412 1 0.5897 -9.312756933901547 -0.2306247120873426 20.23208762441699 0 0 0
1234 412 2 -1.1794 -8.64292086435778 0.4439026048548964 20.344140654064816 0 0 0
1246 416 2 -1.1794 -6.113050494059841 -0.8873745633609786 20.061828147665913 0 0 0
1195 399 2 -1.1794 -9.608453581813746 2.418384567316764 16.433577227355897 0 0 0
1217 406 1 0.5897 -11.714392480296276 3.824766826015269 17.555812086236152 0 0 0
1197 399 1 0.5897 -9.37987625134137 2.7941981234580204 17.283681330960086 0 0 0
1100 367 1 0.5897 -9.14937144874466 -0.6618614264486151 17.637613064953193 0 0 0
1216 406 2 -1.1794 -12.36698378640041 3.1251327939355917 17.585530388410696 0 0 0
1099 367 2 -1.1794 -9.898465149061575 -0.28730888059297044 17.17417038732207 0 0 0
1251 417 1 0.5897 -11.170365189762567 2.020547009214173 21.49343746534074 0 0 0
1010 337 1 0.5897 -10.596615428917794 4.3352445018239685 21.743403589864535 0 -1 0
1196 399 1 0.5897 -9.692755448504471 1.4796494388035963 16.601028658467165 0 0 0
1204 402 2 -1.1794 -11.894826152550758 0.6603048509306362 18.831216304208425 0 0 0
1011 337 1 0.5897 -11.743882758924132 4.185695403666948 20.767156872029517 0 -1 0
1101 367 1 0.5897 -10.067186060200802 -0.8986947142619748 16.457284055702623 0 0 0
40 14 2 -1.1794 -15.087364156994987 3.75672023289812 1.73013179424105 1 0 0
177 59 1 0.5897 -14.021606058414598 4.528557510839471 3.187648473390381 1 0 0
42 14 1 0.5897 -15.571705264335638 4.354417786180566 1.1605153666937347 1 0 0
108 36 1 0.5897 -10.028493874351316 2.8218208111107685 3.565059844761078 1 0 0
106 36 2 -1.1794 -9.415897737735643 2.4469568016213863 2.9322708499671086 1 0 0
55 19 2 -1.1794 -13.20733135183996 6.296096363849278 0.7246727523198814 1 0 0
56 19 1 0.5897 -12.411422796637789 5.879687390154354 1.0553511026958442 1 0 0
85 29 2 -1.1794 -10.946526053666314 4.866693398397562 1.5366456337300138 1 0 0
190 64 2 -1.1794 -12.047040100713778 7.077659922753867 4.141606159933061 1 0 0
66 22 1 0.5897 -13.396102499766709 2.9971725746639706 1.4563370241250326 1 0 0
65 22 1 0.5897 -11.903062953982024 3.222695431991692 1.564351673523156 1 0 0
64 22 2 -1.1794 -12.557292658953498 2.536738524803914 1.4314188806488948 1 0 0
45 15 1 0.5897 -9.76729665727855 2.200308664927798 1.0235099155879697 1 0 0
176 59 1 0.5897 -14.284307384086683 4.503225168497554 4.678358515705554 1 0 0
191 64 1 0.5897 -12.674689860305094 6.360304340789186 4.229494660679685 1 0 0
175 59 2 -1.1794 -13.602994312921641 4.691372143743671 4.032873000526333 1 0 0
183 61 1 0.5897 -12.108257671661727 3.7462348818000866 4.324601136984255 1 0 0
181 61 2 -1.1794 -11.300948167239063 3.42209680292995 4.7238231736848935 1 0 0
167 56 1 0.5897 -16.506543146312396 6.213783512467453 3.266779691573041 1 0 0
43 15 2 -1.1794 -9.785509458939613 1.843115544758307 0.1356710763891179 1 0 0
162 54 1 0.5897 -14.521448941200875 6.892862436661275 2.0380412033413586 1 0 0
192 64 1 0.5897 -11.203762639328282 6.643967458585017 4.011168823472445 1 0 0
182 61 1 0.5897 -11.035791479920833 4.116643579806032 5.326721141044978 1 0 0
508 170 2 -1.1794 -13.565059920281968 6.370615743271058 7.328088071067609 1 0 0
645 215 1 0.5897 -12.560028777119468 7.197465847303459 8.65432155644291 1 0 0
644 215 1 0.5897 -12.597648200017058 7.122500680831692 10.165884069093549 1 0 0
643 215 2 -1.1794 -12.034642525972632 7.375621826038117 9.434302257340637 1 0 0
509 170 1 0.5897 -14.242341892065157 5.826635727234736 7.730132144255552 1 0 0
457 153 2 -1.1794 -10.024378812011625 3.3064917422398654 10.778719069392043 0 0 0
459 153 1 0.5897 -9.869026168742536 4.250998847700021 10.767800382831634 0 0 0
532 178 2 -1.1794 -10.986235746331634 5.132205867295806 6.834456180308057 1 0 0
543 181 1 0.5897 -10.4588473311457 6.259445207387962 9.65975436116882 0 0 0
510 170 1 0.5897 -14.040252106059004 6.931844305862732 6.715308710385503 1 0 0
521 174 1 0.5897 -10.55587871852867 3.4884379541959163 7.622766712964379 1 0 0
534 178 1 0.5897 -11.84745361814015 5.5100779783533085 7.01258165906706 1 0 0
636 212 1 0.5897 -15.117092122715544 7.777006473773284 9.891857280628976 1 0 0
519 173 1 0.5897 -16.367847514562207 7.479835349964251 6.482591589730425 1 0 0
458 153 1 0.5897 -9.982946171717236 3.04586232618154 9.858640153011073 0 0 0
520 174 2 -1.1794 -10.434465468892652 2.6495358628759096 8.067588617856027 1 0 0
533 178 1 0.5897 -10.376677235691327 5.862029721610192 6.944165266931108 1 0 0
887 296 1 0.5897 -10.279132489725306 4.203099897104401 14.044510321348685 0 0 0
869 290 1 0.5897 -12.436251360669546 8.377784076028682 12.940619058384236 0 0 0
876 292 1 0.5897 -12.639565797604684 4.6150107311383195 14.832298556783133 0 0 0
874 292 2 -1.1794 -13.496830534083864 5.0106045593612265 14.98981163137669 0 0 0
649 217 2 -1.1794 -15.886160847315178 8.55049394607449 15.47096206992581 0 -1 0
945 315 1 0.5897 -14.168395753864118 7.125151764127121 11.887699966569103 1 0 0
848 283 1 0.5897 -13.863405630434091 3.6764486908754854 12.038833695782508 1 0 0
900 300 1 0.5897 -14.556310878674175 7.878140585939541 14.210536107004646 0 0 0
899 300 1 0.5897 -13.745738467468838 6.604767102657325 14.094026113078899 0 0 0
898 300 2 -1.1794 -13.890928431157246 7.451120528445003 13.670967267239423 0 0 0
886 296 2 -1.1794 -11.026359299419708 3.8177000288165814 14.502073494829919 0 0 0
875 292 1 0.5897 -14.11659348309017 4.28809656651039 14.889279948837272 0 0 0
943 315 2 -1.1794 -14.1609061054945 6.780199355002221 10.994874417128168 1 0 0
944 315 1 0.5897 -14.324374123125079 5.842697065280403 11.098444114352214 1 0 0
1018 340 2 -1.1794 -11.741368976397276 7.51449148758406 20.33236345464735 0 -1 0
1019 340 1 0.5897 -12.35855527679108 6.789748832852599 20.23204558760927 0 -1 0
1020 340 1 0.5897 -10.878596943902068 7.1014225868531895 20.297523326733014 0 -1 0
1034 345 1 0.5897 -14.47599756971847 8.111923870233053 20.77296593375516 0 -1 0
1237 413 2 -1.1794 -10.529158497699894 5.523700473110459 17.712664627558524 0 0 0
1043 348 1 0.5897 -12.098983747555604 9.097092275150736 19.495812536738164 0 -1 0
1030 344 2 -1.1794 -9.291496340636098 6.344435699278682 19.921536635645232 0 -1 0
1032 344 1 0.5897 -8.885382380155846 5.800902447072859 20.596759940133403 0 -1 0
1003 335 2 -1.1794 -13.235591653669134 5.186244744227814 20.292939821077894 0 -1 0
1035 345 1 0.5897 -14.482492205038522 9.3147980726487 21.692189219123613 0 -1 0
1239 413 1 0.5897 -9.81769477557013 5.561746543658213 17.07345037978368 0 0 0
1238 413 1 0.5897 -10.112940282502906 5.736214376916749 18.547977892662857 0 0 0
990 330 1 0.5897 -14.203223134788676 7.236183516515744 18.395071370385928 0 -1 0
1208 403 1 0.5897 -12.18077111791633 6.383818882778943 17.47862831149775 0 0 0
1207 403 2 -1.1794 -12.964100927783084 6.791986457958444 17.10984545995761 0 0 0
989 330 1 0.5897 -15.101261801606274 8.44273243348939 18.567796847006726 0 -1 0
988 330 2 -1.1794 -14.855054986378665 7.616518400206303 18.983870647929415 0 -1 0
980 327 1 0.5897 -12.544196100147051 8.478102402644296 16.455828900942514 0 -1 0
1033 345 2 -1.1794 -14.503400758629066 8.35777661912136 21.69762314157181 0 -1 0
1209 403 1 0.5897 -13.26540821885696 6.17433446594778 16.443583715407087 0 0 0
1005 335 1 0.5897 -13.754930406968676 4.977483510544486 19.516509199830345 0 -1 0
57 19 1 0.5897 -11.542706473907078 8.655163193544723 21.775857441837516 1 0 -1
153 51 1 0.5897 -12.628008908438305 9.305469419978053 1.202055588374574 1 0 0
174 58 1 0.5897 -16.4590780134546 10.210231974199203 1.6069161867272594 1 0 0
173 58 1 0.5897 -14.985742504155366 10.550782153048395 1.535912461454386 1 0 0
172 58 2 -1.1794 -15.603368075016096 9.831053900373607 1.4064302672596518 1 0 0
205 69 2 -1.1794 -14.939602602184362 7.887281654829561 5.409687440969117 1 0 0
161 54 1 0.5897 -15.25324268296043 8.201121520581172 2.2502486216368767 1 0 0
285 95 1 0.5897 -17.19011209829933 11.783278286384938 3.221360045486635 1 0 0
148 50 2 -1.1794 -18.112495780872493 10.907680387296494 1.7946744146735214 1 0 0
215 72 1 0.5897 -12.221724501177105 8.706751833799185 3.390877281053886 1 0 0
150 50 1 0.5897 -18.539032628437358 11.417302858203733 1.1057430989476897 1 0 0
216 72 1 0.5897 -13.063391084729362 9.954416868267991 3.5552394466251926 1 0 0
284 95 1 0.5897 -17.288631552585677 11.881076627800276 4.728858663851361 1 0 0
160 54 2 -1.1794 -15.13759328815295 7.328658803894658 2.6268263151636586 1 0 0
291 97 1 0.5897 -15.176339698518825 10.82464812075344 4.356404318770622 1 0 0
289 97 2 -1.1794 -14.335384891740503 10.528344467074572 4.704522332294404 1 0 0
283 95 2 -1.1794 -16.67451923932807 11.985293454863957 4.002059277726723 1 0 0
193 65 2 -1.1794 -13.898555984946846 12.091689518561406 1.644222100704251 1 0 0
207 69 1 0.5897 -14.798697558633453 8.818255323557526 5.237065537475553 1 0 0
152 51 1 0.5897 -12.71112199116114 8.030064595790623 0.39064911627439575 1 0 0
206 69 1 0.5897 -14.988864552149266 7.48703512640191 4.541612333426763 1 0 0
214 72 2 -1.1794 -12.387901073245041 9.564727652105159 3.000189977886803 1 0 0
151 51 2 -1.1794 -12.735681867221196 8.98337143876709 0.3071622320004882 1 0 0
290 97 1 0.5897 -14.107882689013302 11.179157086431807 5.368509775000624 1 0 0
640 214 2 -1.1794 -13.980005434844674 12.237791751203059 6.788128208958784 1 0 0
630 210 1 0.5897 -13.032106685127527 9.39117233576815 7.5213199627615115 1 0 0
629 210 1 0.5897 -13.881960976816933 10.634437243873606 7.676593130015099 1 0 0
628 210 2 -1.1794 -13.671417369004713 9.803327916356192 8.102379882280673 1 0 0
566 189 1 0.5897 -13.192742717822126 10.125970349313203 9.830047410806179 0 0 0
525 175 1 0.5897 -11.961241035726156 8.281962667864406 5.5695942509829175 1 0 0
617 206 1 0.5897 -17.125179903796504 13.032576547371274 7.6902309921322525 1 0 0
642 214 1 0.5897 -14.830966507634022 12.671939819172511 6.848119579698226 1 0 0
635 212 1 0.5897 -14.977209773048997 8.84197010233608 8.824867267526693 1 0 0
567 189 1 0.5897 -12.851115692069836 11.32292466479613 10.691712261076955 0 0 0
634 212 2 -1.1794 -15.630482258354679 8.351355057223792 9.323670246458779 1 0 0
565 189 2 -1.1794 -13.027304355932223 10.3831113592421 10.737063962394608 0 0 0
641 214 1 0.5897 -13.344012981008415 12.931123780700911 6.964270375655929 1 0 0
327 109 1 0.5897 -13.316495222182152 13.430616151646241 9.742890668731075 0 -1 0
523 175 2 -1.1794 -11.730778859825932 8.812476063723139 6.332232199962125 1 0 0
658 220 2 -1.1794 -16.39277508247627 12.20662854964483 15.021573112694272 0 -1 0
870 290 1 0.5897 -12.098859761670269 9.42374353373085 11.899317734246496 0 0 0
680 227 1 0.5897 -10.914419576762365 9.689711657164413 15.3784088220963 0 -1 0
671 224 1 0.5897 -13.284844138795581 11.339002689802196 14.092808678867458 0 -1 0
868 290 2 -1.1794 -11.696432667732864 8.808954189244407 12.51282345930668 0 0 0
956 319 1 0.5897 -16.795293733120523 11.017775318113987 11.969903699710967 1 0 0
660 220 1 0.5897 -15.562929990540184 11.736878507325045 14.938397912066334 0 -1 0
879 293 1 0.5897 -14.682502173494008 10.092576322095624 11.647586188223636 0 0 0
878 293 1 0.5897 -14.903698282515066 10.117346131415413 13.145021524930248 0 0 0
877 293 2 -1.1794 -15.351025414924202 9.944994516520484 12.316565584406202 0 0 0
683 228 1 0.5897 -16.708411160461672 13.764737598903832 14.181175851330012 0 -1 0
670 224 2 -1.1794 -13.974684812461684 10.828714260107269 14.51705574982276 0 -1 0
672 224 1 0.5897 -13.516486582047833 10.306188441450104 15.175308302911185 0 -1 0
728 243 1 0.5897 -17.24057702994241 13.11314300904672 11.338115835272369 1 -1 0
659 220 1 0.5897 -17.060575315024035 11.521685645475113 14.98800909503678 0 -1 0
955 319 2 -1.1794 -17.622899980468752 11.427444019779731 11.718007735904717 1 0 0
650 217 1 0.5897 -15.601800743706384 9.125095992213769 16.181698797120738 0 -1 0
1140 380 1 0.5897 -11.89900812035616 12.964871846348764 20.80593526680537 0 -1 0
1138 380 2 -1.1794 -12.327975335664755 13.513131542971703 20.1489102133135 0 -1 0
1128 376 1 0.5897 -13.89645107708136 14.3467665529245 20.622509878124283 0 -1 0
1127 376 1 0.5897 -15.377438392665074 14.045762710640595 20.534318283395365 0 -1 0
1022 341 1 0.5897 -13.349867702629464 12.725783576163295 18.815716675669663 0 -1 0
1119 373 1 0.5897 -14.93526921837859 11.45311846730263 20.605308417571436 0 -1 0
1117 373 2 -1.1794 -14.148563846117456 11.038278293101222 20.959153053454692 0 -1 0
1044 348 1 0.5897 -12.881986788944992 10.35852149663717 19.792086740845 0 -1 0
1042 348 2 -1.1794 -12.28010846657917 9.9732265258776 19.15528735398042 0 -1 0
981 327 1 0.5897 -12.530476394117334 9.754142279730406 17.270380259125226 0 -1 0
1126 376 2 -1.1794 -14.756522408468557 14.766496800631913 20.640360739473287 0 -1 0
1098 366 1 0.5897 -17.326219083088986 14.474810827573258 18.459401452663755 0 -1 0
1111 371 2 -1.1794 -16.44532373959923 12.43921519702241 20.213262785511446 0 -1 0
991 331 2 -1.1794 -15.979611358744487 13.770726302546649 17.251937221766973 0 -1 0
992 331 1 0.5897 -15.200677700495342 13.384029154373529 17.651859436948634 0 -1 0
1023 341 1 0.5897 -12.994176544252934 12.620620088444454 17.347972466289974 0 -1 0
1021 341 2 -1.1794 -13.698740068169663 12.44197328746473 17.970797540686853 0 -1 0
1001 334 1 0.5897 -14.81280261414086 10.770763647125513 17.91491961967761 0 -1 0
1000 334 2 -1.1794 -15.42775252910807 10.054021679765448 17.75887665984223 0 -1 0
979 327 2 -1.1794 -12.404313374585639 9.422171609280525 16.38151997542146 0 -1 0
1002 334 1 0.5897 -16.285565472473152 10.42434116610551 17.966793658505196 0 -1 0
1013 338 1 0.5897 -10.853225654435239 10.871762020932707 18.485033528999814 0 -1 0
1113 371 1 0.5897 -16.82975848088261 12.23983488119882 19.359676725572648 0 -1 0
1118 373 1 0.5897 -13.883213946082126 11.605446908670913 21.683091797340943 0 -1 0
993 331 1 0.5897 -16.147814317393028 13.228652017605267 16.481195483299665 0 -1 0
318 106 1 0.5897 -2.7836805161262657 -4.266781419951449 1.780316492327728 1 1 0
311 104 1 0.5897 -2.6794646390456123 -7.962421145443303 3.456779239894419 1 1 0
1 1 2 -1.1794 -0.6810625254631066 -3.6703166999046664 4.707939199435134 0 0 0
304 102 2 -1.1794 -1.265625343562192 -7.173314091727365 2.761703546452345 1 1 0
310 104 2 -1.1794 -3.402131399019625 -8.440582941547744 3.8634372311401632 1 1 0
316 106 2 -1.1794 -1.9115376021300605 -4.658551116318234 1.7345602874231723 1 1 0
242 81 1 0.5897 -0.8768673962111428 -6.770990784600741 4.486195334235286 0 1 0
306 102 1 0.5897 -0.6402672983594222 -7.583025016818366 2.1639676186968506 1 1 0
305 102 1 0.5897 -1.4402554824950595 -6.315150207858293 2.3751418537395996 1 1 0
243 81 1 0.5897 -0.8696819676358238 -5.400780326436246 5.129998467688616 0 1 0
317 106 1 0.5897 -1.3194257066126145 -3.91406712062956 1.627669231256207 1 1 0
293 98 1 0.5897 -5.104323924097907 -3.6575049030984506 2.337523554369637 1 1 0
201 67 1 0.5897 0.2980931048170845 -8.45614686882402 0.09096801456517148 1 1 0
1262 421 1 0.5897 -1.9919097884499788 -5.73605956151067 0.21598943425581424 0 0 1
241 81 2 -1.1794 -0.9116548927562533 -6.33439792874734 5.337291925288963 0 1 0
632 211 1 0.5897 -4.527898746650828 -5.7306351845234005 6.754221544960146 1 1 0
356 119 1 0.5897 1.2870890843219982 -7.004283228246632 10.234561823486317 0 0 0
555 185 1 0.5897 -2.4110119946904547 -6.700944749078081 6.295370211243913 0 1 0
554 185 1 0.5897 -2.6202683583941724 -6.658820477531935 7.794129678465951 0 1 0
553 185 2 -1.1794 -3.039482276562448 -6.93379087876683 6.978784873902318 0 1 0
546 182 1 0.5897 0.17760901763198866 -7.318910833209268 6.600759233658089 0 1 0
359 120 1 0.5897 -4.416557802225727 -3.1030036262601612 8.842761165270005 0 0 0
544 182 2 -1.1794 0.6384578234209268 -7.798610502942678 7.289066769517818 0 1 0
348 116 1 0.5897 -1.3279301763939877 -6.407735656573109 9.913058350959762 0 0 0
347 116 1 0.5897 -0.9118966523185534 -5.551697699070209 8.735676905897447 0 0 0
346 116 2 -1.1794 -1.6817419909848859 -5.85103302469816 9.219382323561215 0 0 0
336 112 1 0.5897 -3.3356840490357094 -5.082726218920974 9.645593908238752 0 0 0
334 112 2 -1.1794 -4.209388709034071 -4.692209473664492 9.664245242099774 0 0 0
335 112 1 0.5897 -4.806176943842734 -5.44034567898421 9.684068031674666 0 0 0
404 135 1 0.5897 -5.165670538410957 -3.7326680317614587 5.734527429960747 1 0 0
631 211 2 -1.1794 -5.373160522324909 -5.437002469560152 6.414370057871373 1 1 0
326 109 1 0.5897 -3.1746036657688332 -7.713746479572865 10.813804246968127 0 0 0
793 265 2 -1.1794 -1.8246888001157107 -5.842553268770505 15.640887019149615 0 0 0
802 268 2 -1.1794 -2.6541696343230416 -2.152365436387692 15.075515074443086 0 0 0
803 268 1 0.5897 -3.2560137354234246 -2.8920384446986205 15.158834091711206 0 0 0
795 265 1 0.5897 -2.6895064183755863 -5.475192483285596 15.458309871418468 0 0 0
787 263 2 -1.1794 -4.210353287732609 -4.400779064118078 15.108446691053786 0 0 0
789 263 1 0.5897 -4.57967912945478 -4.565870811512399 14.240980485372575 0 0 0
655 219 2 -1.1794 -0.24370526863109454 -7.4339054463826155 11.083606094681295 0 0 0
718 240 2 -1.1794 0.10280985101642237 -6.899731549366562 13.791847384298505 0 0 0
699 233 1 0.5897 -0.7542915984655139 -4.181589811428586 11.695710694834961 0 0 0
697 233 2 -1.1794 -1.471263079190262 -4.316371954921429 12.315399894157784 0 0 0
677 226 1 0.5897 -2.498772522967519 -5.858094940157313 12.361975929188716 0 0 0