LAMMPS data file via write_data, version 30 Jul 2021, timestep = 1250000

1296 atoms
2 atom types
864 bonds
1 bond types
432 angles
1 angle types

-10.886387048171715 12.866387048171715 xlo xhi
-9.195654945048474 12.185652945048474 ylo yhi
-0.038725941138965325 21.898724941137267 zlo zhi
-9.228583027611654 2.0344723302371652 3.0980882374134002 xy xz yz

Masses

1 1.008
2 15.999

Pair Coeffs # lj/cut/tip4p/long/omp

1 0 0
2 0.21084 3.1668

Bond Coeffs # harmonic/omp

1 450 0.9572

Angle Coeffs # harmonic/omp

1 55 104.52

Atoms # full

280 94 2 -1.1794 -9.781867309962076 -4.433969972092741 1.6726695127041908 1 1 0
73 25 2 -1.1794 -8.246145190446633 -3.9665675992959644 4.532686523904809 1 0 0
300 100 1 0.5897 -5.172949058146847 -7.495150946558913 3.8485153225517204 1 1 0
270 90 1 0.5897 -8.806356526619602 -7.410228593496609 1.781643953238314 1 1 0
269 90 1 0.5897 -9.58119426220267 -6.139363330839576 2.0578493506432434 1 1 0
268 90 2 -1.1794 -9.579473025577357 -7.079328855968639 2.2387037154468814 1 1 0
282 94 1 0.5897 -10.674098419673829 -4.090619418832932 1.7201623908203412 1 1 0
298 100 2 -1.1794 -6.056878503584798 -7.131553624516107 3.7965446106090193 1 1 0
59 20 1 0.5897 -13.673856740342767 -1.0183344307248223 3.445120340165177 1 0 0
314 105 1 0.5897 -9.188526571945498 -6.766548386740327 4.5719433953200355 1 1 0
299 100 1 0.5897 -6.6231627208476445 -7.893716974419604 3.675452673855292 1 1 0
99 33 1 0.5897 -11.346541883381013 1.7521233037653925 5.3962921750715624 1 0 0
163 55 2 -1.1794 -7.415843557642594 -8.060827660407613 0.7201283621909406 1 1 0
164 55 1 0.5897 -6.528239609071537 -8.370845894333018 0.8998513771014067 1 1 0
43 15 2 -1.1794 -9.8481101890837 1.4204447878791466 0.07662657983800743 1 0 0
75 25 1 0.5897 -9.137130281861856 -3.678605482608714 4.3339868429919015 1 0 0
273 91 1 0.5897 -10.919015298822213 -1.624652606283469 0.25678745877875614 1 1 0
281 94 1 0.5897 -9.228407914256248 -3.6557418590631077 1.607241106665703 1 1 0
261 87 1 0.5897 -6.830356993819691 -5.058592720865359 1.043665119219827 1 1 0
74 25 1 0.5897 -7.893009549816723 -3.2807971306113703 5.0994186860795025 1 0 0
324 108 1 0.5897 -7.115668410914527 -4.316842431535268 3.3321940208459053 1 1 0
68 23 1 0.5897 -11.254344102785852 -2.5310042614807475 4.591298079786928 1 0 0
53 18 1 0.5897 -12.64142148056049 0.8409419030486038 2.519615832118288 1 0 0
272 91 1 0.5897 -9.767702292169185 -1.391655573759043 1.2118571327259182 1 1 0
256 86 2 -1.1794 -12.301891731221215 -3.445473867923967 1.903765077326734 1 1 0
258 86 1 0.5897 -12.733152504356516 -2.8264349519011907 1.314616981339475 1 1 0
54 18 1 0.5897 -11.699377670589529 -0.3326868738827553 2.3554281567803863 1 0 0
82 28 2 -1.1794 -9.118695014674902 -0.12217305397906131 3.8055759990891955 1 0 0
83 28 1 0.5897 -9.694777956280968 -0.8030394546150639 4.153085226506742 1 0 0
271 91 2 -1.1794 -10.600617003952005 -1.0174186397758138 0.9246596527892149 1 1 0
98 33 1 0.5897 -11.72048201582969 0.5591536747779955 4.542621686682558 1 0 0
52 18 2 -1.1794 -12.293048969157379 0.07927202172613335 2.98305672781989 1 0 0
67 23 2 -1.1794 -10.50476649364575 -2.6624102897939554 4.010809966158473 1 0 0
69 23 1 0.5897 -10.893099224817057 -2.849423672288122 3.1561700856063797 1 0 0
275 92 1 0.5897 -10.843274963512036 -7.9434673271601905 3.0300072521956523 1 1 0
84 28 1 0.5897 -8.269162263083963 -0.5526208418404046 3.7095873967643413 1 0 0
44 15 1 0.5897 -10.141049214643232 0.5487412756205607 0.3422626017165531 1 0 0
107 36 1 0.5897 -9.472149250867744 1.4603415657867878 3.0163606397237395 1 0 0
323 108 1 0.5897 -6.245791942362827 -5.549677984749486 3.208568045453869 1 1 0
301 101 2 -1.1794 -8.162674510811641 -2.16510678674715 1.315182702212987 1 1 0
417 139 1 0.5897 -9.072227751279694 1.317336965481294 5.380563171770512 1 0 0
633 211 1 0.5897 -6.013430379928987 -5.944738278074513 5.165539213633077 1 1 0
259 87 2 -1.1794 -6.959970540045369 -5.218762880762941 0.1089515867036521 1 1 0
260 87 1 0.5897 -7.1616560501896585 -6.152686206475641 0.05123379645647892 1 1 0
428 143 1 0.5897 -6.664844916309802 -7.065361416713838 9.958511794561927 1 0 0
420 140 1 0.5897 -9.061581959591537 -6.0507720914368015 10.064478517676907 1 0 0
618 206 1 0.5897 -7.7995592038999675 -7.37566273097422 6.273325715166141 1 1 0
413 138 1 0.5897 -7.583492170772551 -3.517037616807018 7.4039192904703715 1 0 0
419 140 1 0.5897 -8.995645279859891 -5.268938647403804 8.769801089752848 1 0 0
418 140 2 -1.1794 -9.595315973464675 -5.5215936831681 9.471699120458842 1 0 0
414 138 1 0.5897 -6.94024610688829 -4.886750351062602 7.359058379031493 1 0 0
427 143 2 -1.1794 -6.062915907134974 -7.038735164315226 9.214852306130032 1 0 0
350 117 1 0.5897 -7.2753868250965485 -4.110746347960843 9.955620848342233 0 0 0
412 138 2 -1.1794 -7.505954534872055 -4.333484030582237 7.897548076306146 1 0 0
327 109 1 0.5897 -4.6837683481701955 -7.727725048807827 9.518880463180656 0 0 0
349 117 2 -1.1794 -7.242165602429075 -3.676095434156185 10.807725506414418 0 0 0
429 143 1 0.5897 -6.611269608484987 -7.234816265848254 8.455185025768802 1 0 0
351 117 1 0.5897 -7.041821511405443 -2.762643060408516 10.603560467902508 0 0 0
627 209 1 0.5897 -10.60564751795558 -6.6163486984187765 6.684640043029392 1 1 0
435 145 1 0.5897 -7.3404189174634205 -0.7293752759391694 9.80500692106821 0 0 0
97 33 2 -1.1794 -11.638490896986928 0.8423097584433297 5.453239608423501 1 0 0
527 176 1 0.5897 -12.286364443805283 1.523406590576288 8.668456613472367 1 0 0
526 176 2 -1.1794 -13.002164786288697 1.2825896212567347 9.256477224599516 1 0 0
426 142 1 0.5897 -8.914223899758914 -1.7223888125309026 6.804971093291752 1 0 0
402 134 1 0.5897 -10.793309322769506 -0.0858496589098845 6.838858055021973 1 0 0
401 134 1 0.5897 -10.933604742882508 -1.2441967555117035 7.803459030881003 1 0 0
400 134 2 -1.1794 -10.283502168111784 -0.7469637844328894 7.30717598480848 1 0 0
537 179 1 0.5897 -9.238170888705245 -0.06526592178477841 8.626942573670393 1 0 0
536 179 1 0.5897 -9.732599038578503 0.24041806368387597 10.024647691323874 1 0 0
535 179 2 -1.1794 -8.934159642003925 0.18295002778741498 9.499950450712578 1 0 0
528 176 1 0.5897 -12.570786975732375 1.0634344697543057 10.082386522920643 1 0 0
424 142 2 -1.1794 -8.03590623761653 -2.053141598012819 6.616989349953086 1 0 0
616 206 2 -1.1794 -7.340486674055414 -7.7946851302884035 7.001303574838548 1 1 0
411 137 1 0.5897 -13.343187343271458 0.24556437712955415 6.295963135829174 1 0 0
522 174 1 0.5897 -10.104773980387872 2.27220325783599 7.532026410239168 1 0 0
430 144 2 -1.1794 -12.278624202242924 -2.261791776442492 8.547806555096336 1 0 0
631 211 2 -1.1794 -5.740930089571333 -5.282730522792214 5.800881925750935 1 1 0
425 142 1 0.5897 -7.515537862292387 -1.2682751324077683 6.445437276511206 1 0 0
367 123 2 -1.1794 -12.7784929043932 -2.7287859629578115 5.6026344092703635 1 0 0
516 172 1 0.5897 -14.338518671383923 2.4370991874811363 9.603237991400198 1 0 0
520 174 2 -1.1794 -10.793486797769507 2.6068653300032043 8.106279368633462 1 0 0
457 153 2 -1.1794 -10.469561927370044 2.8243562747347486 10.859197990790435 0 0 0
458 153 1 0.5897 -10.593316104393711 2.537038541541076 9.954618690426681 0 0 0
315 105 1 0.5897 -8.963914409864344 -5.555011851019712 5.451404560905694 1 1 0
313 105 2 -1.1794 -9.344594711467389 -6.433250217262258 5.455475768852947 1 1 0
652 218 2 -1.1794 -5.72596738468166 -5.171412410086617 12.813853074139537 0 0 0
780 260 1 0.5897 -7.580228843100226 -3.757237239488491 15.123458423398493 0 0 0
779 260 1 0.5897 -7.599095268035805 -2.596724288881706 14.151448980250965 0 0 0
778 260 2 -1.1794 -8.172008661314521 -3.1415439835223467 14.691005583730755 0 0 0
768 256 1 0.5897 -9.946629373436373 -2.630767060217229 14.903613014588611 0 0 0
654 218 1 0.5897 -6.233226060356235 -4.767166395376005 12.109892804502863 0 0 0
653 218 1 0.5897 -6.361053130082253 -5.705170146682624 13.291276255125178 0 0 0
791 264 1 0.5897 -10.865876128682821 -0.4667116735345278 13.964476785240254 0 0 0
662 221 1 0.5897 -8.853586896471594 -3.789160502892103 13.133228325933683 0 0 0
740 247 1 0.5897 -11.059117633069999 -2.9938067797746557 12.600443610600676 1 0 0
769 257 2 -1.1794 -12.799947108736852 2.8223757101365923 12.54315629550149 0 0 0
661 221 2 -1.1794 -9.432851159082006 -4.101424502786938 12.438115558252731 0 0 0
771 257 1 0.5897 -12.113566511224787 2.9361540394335854 11.885860037314835 0 0 0
663 221 1 0.5897 -8.942265837414496 -3.949154717100032 11.630501933502943 0 0 0
729 243 1 0.5897 -8.18280427892725 -6.8750342189301765 12.06535942664965 1 0 0
896 299 1 0.5897 -7.997152258422356 2.773857485198521 15.526983369440835 0 0 0
766 256 2 -1.1794 -10.804379575363724 -2.2078509130747754 14.863133288252307 0 0 0
684 228 1 0.5897 -8.839331503722436 -6.403646455792281 14.41523800406005 0 0 0
835 279 2 -1.1794 -11.238847827212837 -0.0765983054764483 11.062223073005606 1 0 0
1195 399 2 -1.1794 -9.706479029380489 2.1901860251113057 16.28868501289 0 0 0
866 289 1 0.5897 -12.929526308569876 1.718240763463502 16.070400177520384 0 0 0
790 264 2 -1.1794 -11.04614118805183 0.46198435169139884 13.818645811045196 0 0 0
836 279 1 0.5897 -11.546283148822292 -0.9780282276990384 11.157843846754906 1 0 0
792 264 1 0.5897 -11.824653522711298 0.6409723769964835 14.345842679732199 0 0 0
762 254 1 0.5897 -9.01264271576797 2.015826341314929 12.047116433602358 0 0 0
761 254 1 0.5897 -9.322891720176186 1.0103814344673676 13.135541039413905 0 0 0
760 254 2 -1.1794 -8.600364170381983 1.494831064582673 12.73622870825026 0 0 0
837 279 1 0.5897 -11.060834349626713 0.2124382086459864 11.957159284970164 1 0 0
682 228 2 -1.1794 -8.011575434729101 -6.6734230416656395 14.017569142061728 0 0 0
888 296 1 0.5897 -10.728077711304897 3.1532268207196896 14.99237346547843 0 0 0
727 243 2 -1.1794 -8.153466574018669 -7.184196501216837 11.160014140100746 1 0 0
770 257 1 0.5897 -12.353239240298297 2.946836455048251 13.38052026104722 0 0 0
788 263 1 0.5897 -4.781926184192846 -4.406816035278702 15.695855149235262 0 0 0
897 299 1 0.5897 -7.901179701140814 2.566990539279683 14.030460584243858 0 0 0
1087 363 2 -1.1794 -6.5835905901612986 -4.66511338216611 16.34397716080519 0 0 0
1099 367 2 -1.1794 -10.488846817951195 -0.48772122380638017 17.0755353219687 0 0 0
1150 384 2 -1.1794 -6.2498642197464 -4.10522294417879 19.315634731128178 0 0 0
1131 377 1 0.5897 -7.371980732270692 -1.5804217111572294 17.05320461534781 0 0 0
1248 416 1 0.5897 -6.139151701452578 -1.0786943964260267 20.839241695856117 0 0 0
1108 370 2 -1.1794 -9.925897750225282 -3.9956402857873226 17.768131192054007 0 0 0
1152 384 1 0.5897 -7.10687225091829 -3.8940602471540453 19.68587243138262 0 0 0
1227 409 1 0.5897 -9.193149221701 -2.774112712512167 20.47536843657769 0 0 0
1249 417 2 -1.1794 -11.651489157442075 1.2024698730447945 21.759253328935102 0 0 0
1096 366 2 -1.1794 -8.892773068089554 -6.051971561677153 19.154561453444842 0 0 0
1109 370 1 0.5897 -9.264999395363066 -3.3701232475466583 17.47123019827228 0 0 0
1130 377 1 0.5897 -7.657067332728029 -1.1786395396650082 18.484571966891963 0 0 0
1089 363 1 0.5897 -6.666096072112907 -4.153648163631969 17.148768124624375 0 0 0
1225 409 2 -1.1794 -8.449155341435358 -3.284357026064317 20.795389435717304 0 0 0
1151 384 1 0.5897 -6.10476748077514 -5.021022962977854 19.55337008437359 0 0 0
1246 416 2 -1.1794 -6.500096912869631 -0.6141833631483831 20.084113443770335 0 0 0
1129 377 2 -1.1794 -8.043376397637449 -1.6291968503610015 17.733603535656904 0 0 0
1097 366 1 0.5897 -9.297223082991271 -5.31820567808589 18.69166535912253 0 0 0
1217 406 1 0.5897 -11.832879306324847 3.844006228259337 17.390918938939038 0 0 0
1098 366 1 0.5897 -8.362150116512748 -6.491599257965076 18.49031159204985 0 0 0
165 55 1 0.5897 -5.60542615785696 -5.352760550838616 21.81269202317071 1 1 -1
1219 407 2 -1.1794 -10.54435324656243 -1.723043638755362 20.124747230354636 0 0 0
1250 417 1 0.5897 -11.441282519332063 0.9063638179945208 20.873696808066597 0 0 0
1141 381 2 -1.1794 -8.780712718246933 -5.743069956508906 21.84911058418909 0 0 0
1229 410 1 0.5897 -7.875166762647522 3.603568038257025 18.3635441412055 0 0 0
1260 420 1 0.5897 -9.832987303528196 3.175601823670341 19.651491040324494 0 0 0
1259 420 1 0.5897 -9.165610622637672 1.855277661167067 19.330334437422408 0 0 0
1258 420 2 -1.1794 -9.346557905566524 2.7208982524883023 18.96395655481981 0 0 0
1196 399 1 0.5897 -9.768329045566844 1.254668794488449 16.481647499407345 0 0 0
1206 402 1 0.5897 -11.680435307418662 0.16234298026283867 18.174956355267653 0 0 0
1236 412 1 0.5897 -7.994191145308725 0.11203573652249688 20.388121933335675 0 0 0
1121 374 1 0.5897 -4.810806346796042 -3.2174838028231303 18.442375246186067 0 0 0
1235 412 1 0.5897 -9.455687935303464 -0.28263423800544984 20.375480874764236 0 0 0
1234 412 2 -1.1794 -8.87769383692715 0.47931145523829954 20.415477902179994 0 0 0
1197 399 1 0.5897 -9.659489804208235 2.60978218750404 17.147654304245982 0 0 0
1100 367 1 0.5897 -9.658839428796721 -0.8576493223733799 17.376422849670746 0 0 0
1009 337 2 -1.1794 -11.043298178911009 3.907299620634266 21.02423479577211 0 -1 0
1216 406 2 -1.1794 -12.459224335244286 3.1201865950970635 17.388181694024063 0 0 0
1088 363 1 0.5897 -6.7769180230244785 -5.564051907456303 16.610015131969554 0 0 0
1142 381 1 0.5897 -8.64871174093603 -6.048189313398563 20.95158282096407 0 0 0
1218 406 1 0.5897 -13.237390381011991 3.4745838546586967 17.818269760710123 0 0 0
1011 337 1 0.5897 -11.927356333023749 4.110593466961916 20.71861974508318 0 -1 0
1205 402 1 0.5897 -12.322304881452904 1.5108802765861977 18.422387735874715 0 0 0
1010 337 1 0.5897 -10.906009932428795 4.4931263849689 21.768608502941234 0 -1 0
1143 381 1 0.5897 -8.719035650092728 -4.789691359772396 21.78996466859762 0 0 0
1226 409 1 0.5897 -8.06475314059543 -2.7421580931643987 21.484190454677332 0 0 0
1251 417 1 0.5897 -11.597649970766017 2.156995687418071 21.712219951059083 0 0 0
1101 367 1 0.5897 -10.882227526106455 -1.1806448452347915 16.545159585430504 0 0 0
40 14 2 -1.1794 -15.083313205346322 3.6706207265435467 2.0665778708946743 1 0 0
42 14 1 0.5897 -15.437332981494134 4.283095291372833 1.4217292612018275 1 0 0
153 51 1 0.5897 -12.967282489288975 8.932032986234717 0.7206609159882446 1 0 0
177 59 1 0.5897 -13.871739395661283 4.399532339759604 3.219047604474681 1 0 0
207 69 1 0.5897 -15.012042797759822 8.915050173239312 4.9477159953431125 1 0 0
56 19 1 0.5897 -12.71430316246878 5.816517355233037 1.2386547737280198 1 0 0
284 95 1 0.5897 -17.608092575980354 11.938381564465782 4.400763166298101 1 0 0
66 22 1 0.5897 -13.558235290108552 2.861640129489073 1.6723178460997106 1 0 0
65 22 1 0.5897 -12.068826453899863 3.1240186143412174 1.6046659429339452 1 0 0
64 22 2 -1.1794 -12.733560247911935 2.472493155645875 1.3814254196873443 1 0 0
181 61 2 -1.1794 -11.114400661455235 3.5489829626493687 4.717064704541148 1 0 0
190 64 2 -1.1794 -12.02149872024432 7.299682913554474 4.263895695352449 1 0 0
191 64 1 0.5897 -12.671484614474549 6.614851743276526 4.106514302854361 1 0 0
183 61 1 0.5897 -11.97203684082671 3.820701307680242 4.390077701557529 1 0 0
175 59 2 -1.1794 -13.462960059932863 4.913790100819471 3.915205119868994 1 0 0
206 69 1 0.5897 -15.110679633041375 7.50646698437987 4.4018725988578336 1 0 0
1033 345 2 -1.1794 -16.62411911890956 4.941658406257632 0.015195128726001546 0 -1 1
216 72 1 0.5897 -13.494562627175345 9.980820223461517 3.133476242991952 1 0 0
176 59 1 0.5897 -14.049645832822403 4.812214744617783 4.664587372705353 1 0 0
55 19 2 -1.1794 -13.592527491556224 5.921131578523777 0.872515538096284 1 0 0
160 54 2 -1.1794 -15.446517695853451 7.164900910249688 2.7235260981176057 1 0 0
85 29 2 -1.1794 -11.242531427956795 4.693560286691477 1.5950484349990348 1 0 0
174 58 1 0.5897 -16.7622055383581 10.024091689294359 1.5740852954021638 1 0 0
173 58 1 0.5897 -15.295882983267596 10.338646935720373 1.3672052645723385 1 0 0
172 58 2 -1.1794 -15.908882061313605 9.60828218587373 1.4509997159612544 1 0 0
161 54 1 0.5897 -15.442929538876442 8.04979912851141 2.358566794525938 1 0 0
150 50 1 0.5897 -18.894108178270432 11.426480063141508 0.990353735280562 1 0 0
148 50 2 -1.1794 -18.41070274743503 10.901341109637137 1.6281975470988217 1 0 0
214 72 2 -1.1794 -12.790567779932491 9.548118108181804 2.650498367597131 1 0 0
285 95 1 0.5897 -17.506913958522524 11.93418205921921 2.890347338673463 1 0 0
108 36 1 0.5897 -10.105803698318256 2.8210055776493945 3.213543257018957 1 0 0
162 54 1 0.5897 -14.802536709225329 6.6871355976875275 2.200923882102569 1 0 0
283 95 2 -1.1794 -16.991850921675983 12.084244960278756 3.6830774056047098 1 0 0
291 97 1 0.5897 -15.672239075464864 10.93795295190738 3.99221493783456 1 0 0
289 97 2 -1.1794 -14.921325854594306 10.454340062957623 4.33649875015684 1 0 0
45 15 1 0.5897 -9.744206663959663 1.8995668058190525 0.8986793773097334 1 0 0
194 65 1 0.5897 -13.830037793503362 11.989273155982321 2.1864985472909044 1 0 0
167 56 1 0.5897 -17.11385572368477 6.327227243860728 2.9039443736571515 1 0 0
215 72 1 0.5897 -12.477857000809514 8.864474961242468 3.2430594991180737 1 0 0
193 65 2 -1.1794 -14.230764861330778 11.88879040052305 1.3230646999832867 1 0 0
205 69 2 -1.1794 -15.129909923899582 8.004655814858275 5.218901955769058 1 0 0
57 19 1 0.5897 -13.601188775822875 5.351864604452507 0.10312380858822742 1 0 0
106 36 2 -1.1794 -9.566917211531784 2.31837782594069 2.602770376066336 1 0 0
41 14 1 0.5897 -15.855465778245883 3.284226527841991 2.4796793811707927 1 0 0
152 51 1 0.5897 -13.385569970165285 7.617307191067972 0.09750451517814124 1 0 0
290 97 1 0.5897 -14.605300503219922 10.988619344500325 5.065092695233624 1 0 0
1118 373 1 0.5897 -16.304237636060307 8.300218395408386 0.2586244961219251 0 -1 1
149 50 1 0.5897 -19.074870162476508 10.61279500352698 2.254098290722868 1 0 0
508 170 2 -1.1794 -13.610635671229687 6.613801822985849 7.359956523169497 1 0 0
519 173 1 0.5897 -16.555356662187982 7.654535430300896 6.345951239559101 1 0 0
644 215 1 0.5897 -12.77286897934119 7.196491896863176 10.088110473493611 1 0 0
643 215 2 -1.1794 -12.03801505477668 7.257949509650544 9.477935041427797 1 0 0
521 174 1 0.5897 -10.876035675109177 3.5305265932379513 7.8690161297586885 1 0 0
510 170 1 0.5897 -13.8779298839417 7.270278905149443 6.716637753575644 1 0 0
567 189 1 0.5897 -13.680141250914824 11.423950157824962 10.67400712544223 0 0 0
509 170 1 0.5897 -14.420004481266407 6.37922364747395 7.813879877176363 1 0 0
583 195 2 -1.1794 -18.834373487375608 11.63447549943453 5.492266637303541 1 0 0
532 178 2 -1.1794 -11.15265941390827 5.245330640404493 7.1462710465863974 1 0 0
636 212 1 0.5897 -15.1873466367507 7.936575589168019 9.891752848981692 1 0 0
534 178 1 0.5897 -12.03287461207585 5.613618159267446 7.222428619759662 1 0 0
617 206 1 0.5897 -17.241253685234227 13.066180939341614 7.441157612079558 1 0 0
543 181 1 0.5897 -10.6174455254832 5.827906451841187 9.827611001831222 0 0 0
645 215 1 0.5897 -12.3851942039798 6.925855043444944 8.650067857553717 1 0 0
646 216 2 -1.1794 -18.525300894093085 12.293616404334667 8.461326130314088 1 0 0
635 212 1 0.5897 -14.85125740522429 8.930165561035999 8.800133286518044 1 0 0
459 153 1 0.5897 -10.37011819523329 3.7743934442136453 10.79773779272589 0 0 0
634 212 2 -1.1794 -15.53039899518901 8.318142706172797 9.083684202151641 1 0 0
640 214 2 -1.1794 -14.027223468286493 12.491757895797988 6.456853516642694 1 0 0
630 210 1 0.5897 -12.95338029106281 9.371778331146714 7.5583648561505505 1 0 0
629 210 1 0.5897 -13.703452969854482 10.686428004546297 7.589043179157275 1 0 0
628 210 2 -1.1794 -13.585782828178983 9.870482431950514 8.075516899119142 1 0 0
566 189 1 0.5897 -13.547630112777586 10.106901606562822 9.939484826346579 0 0 0
642 214 1 0.5897 -14.900560602265298 12.815351844201718 6.677651230633611 1 0 0
541 181 2 -1.1794 -9.762107701160836 5.590950432449098 10.186136619604108 0 0 0
647 216 1 0.5897 -18.34570726640485 11.401772826976813 8.759009353389562 1 0 0
565 189 2 -1.1794 -13.65800385374609 10.477447365703998 10.81504238909055 0 0 0
585 195 1 0.5897 -18.799983819208645 12.066317344579389 6.3457547699999335 1 0 0
182 61 1 0.5897 -10.956564071674455 4.112788159327977 5.4742659821442645 1 0 0
518 173 1 0.5897 -16.71179782498789 8.087806632075427 7.7879411974106025 1 0 0
624 208 1 0.5897 -17.076320359619704 9.426126805052832 9.527179952085921 1 0 0
525 175 1 0.5897 -11.863226487079691 8.39677324373633 5.626081143306192 1 0 0
533 178 1 0.5897 -10.568706525691423 5.998157635881551 7.238395450620009 1 0 0
879 293 1 0.5897 -14.962506276602415 10.182147591935511 12.040000353162782 0 0 0
876 292 1 0.5897 -12.909183172683925 4.863766026201478 14.794356264522245 0 0 0
887 296 1 0.5897 -10.645954184107392 4.32038042812473 14.031689851942335 0 0 0
874 292 2 -1.1794 -13.654738156310682 5.144255263081323 15.324985535178248 0 0 0
898 300 2 -1.1794 -14.002080741822024 7.720345331620891 13.824784644800932 0 0 0
945 315 1 0.5897 -14.13748961545492 7.309536230288572 12.096160530850124 1 0 0
900 300 1 0.5897 -14.678417083115324 8.19849957384011 14.304393698307349 0 0 0
899 300 1 0.5897 -14.06630246102144 6.822484705705058 14.15028152702982 0 0 0
848 283 1 0.5897 -14.32679796688531 3.7596428887302835 12.09507606890013 1 0 0
886 296 2 -1.1794 -11.26905046364142 3.798750672159457 14.537468850394966 0 0 0
956 319 1 0.5897 -17.147671749628852 11.295622615582552 12.505336658685541 1 0 0
877 293 2 -1.1794 -15.636672187450419 10.267990356000293 12.713955741972638 0 0 0
869 290 1 0.5897 -12.483004437423308 8.613872063887445 13.255257830222668 0 0 0
683 228 1 0.5897 -17.174158494699938 13.772866823876626 14.211581646266351 0 -1 0
868 290 2 -1.1794 -11.79197197875325 8.948249794857755 12.683583648971835 0 0 0
728 243 1 0.5897 -17.375167470156285 13.242677144735822 11.232478231473717 1 -1 0
878 293 1 0.5897 -15.15419001859722 10.498099498901219 13.50798377055866 0 0 0
658 220 2 -1.1794 -16.849630959100615 12.171849420638576 15.207640202709944 0 -1 0
672 224 1 0.5897 -13.586091287169996 10.60440512746895 15.400725299164884 0 -1 0
671 224 1 0.5897 -13.37812715246083 11.798636741869856 14.493834491587643 0 -1 0
670 224 2 -1.1794 -14.048727764287765 11.18755981758175 14.798901004637237 0 -1 0
660 220 1 0.5897 -15.94009016171751 11.877857291521632 15.258121909320055 0 -1 0
965 322 1 0.5897 -16.69095243918051 8.824215670526687 12.021830051859215 1 0 0
659 220 1 0.5897 -17.3590780264827 11.36471634983058 15.13527050829261 0 -1 0
870 290 1 0.5897 -12.25925708099403 9.333191149995688 11.942135310784785 0 0 0
955 319 2 -1.1794 -17.900488537919912 11.611845926032096 12.005789810475044 1 0 0
875 292 1 0.5897 -13.990347952618944 4.336317269561567 15.713336571483037 0 0 0
943 315 2 -1.1794 -14.356883924378694 7.1543533181752395 11.177492731179687 1 0 0
649 217 2 -1.1794 -16.13851266100215 8.654905218161083 15.53348012249898 0 -1 0
650 217 1 0.5897 -15.94620541759603 9.221470379599886 16.28058539157623 0 -1 0
680 227 1 0.5897 -11.17726401360731 10.081959044713035 15.362048295937473 0 -1 0
880 294 2 -1.1794 -9.09869739585973 5.172801509790254 13.354508416497639 0 0 0
847 283 2 -1.1794 -14.92391257698257 4.381101373836369 11.678490286501564 1 0 0
681 227 1 0.5897 -11.039819036772618 9.841370489110407 13.87383204494712 0 -1 0
944 315 1 0.5897 -14.519150143146128 6.212449705715073 11.12534625976683 1 0 0
1018 340 2 -1.1794 -11.659618586788344 7.415798325611323 20.532886138601548 0 -1 0
1019 340 1 0.5897 -12.178809817320472 6.616195275802417 20.618409333505667 0 -1 0
1020 340 1 0.5897 -10.751053388699765 7.1151259898135635 20.551461354485014 0 -1 0
1209 403 1 0.5897 -13.138391729574987 6.394477159289991 16.57486830956354 0 0 0
1002 334 1 0.5897 -16.496623772664748 10.453176204718442 17.92603207673423 0 -1 0
1030 344 2 -1.1794 -9.073937701185544 6.53062136828102 20.31380558358672 0 -1 0
1207 403 2 -1.1794 -12.774052368216749 6.957761406205243 17.25762334209572 0 0 0
1237 413 2 -1.1794 -10.69968089847329 5.6717035414744785 18.106088962424955 0 0 0
1208 403 1 0.5897 -11.99672561002858 6.4909736471328845 17.56446017158258 0 0 0
1238 413 1 0.5897 -10.201352059545613 6.007509159303783 18.8511508037122 0 0 0
1239 413 1 0.5897 -10.045208362343043 5.537049246160926 17.420827549622373 0 0 0
1035 345 1 0.5897 -14.585100439216982 8.991192765759461 21.84793401665773 0 -1 0
991 331 2 -1.1794 -16.418962902437787 14.169767351058244 17.375738289835418 0 -1 0
1043 348 1 0.5897 -12.236781551213246 9.236135493623173 19.547796729421265 0 -1 0
1042 348 2 -1.1794 -12.605601792852564 10.066235081517146 19.24583188045486 0 -1 0
992 331 1 0.5897 -15.570850203950712 13.789129654529997 17.60399098487313 0 -1 0
988 330 2 -1.1794 -14.917104884856615 7.681126193032778 19.125530047979083 0 -1 0
980 327 1 0.5897 -12.638220975020896 8.670199361592555 16.755634904918757 0 -1 0
1003 335 2 -1.1794 -13.586373988817876 4.964996463671522 20.579385622526274 0 -1 0
990 330 1 0.5897 -14.31078998235104 7.377526425363627 18.450043228623578 0 -1 0
1126 376 2 -1.1794 -14.959767224880897 14.739182939956326 20.57097657139127 0 -1 0
1138 380 2 -1.1794 -12.463042768076612 13.425043203867663 20.269557159562844 0 -1 0
1117 373 2 -1.1794 -14.445357022925867 10.777949164933425 21.48863599510124 0 -1 0
1127 376 1 0.5897 -15.646513058990914 14.090788685957971 20.726516454930398 0 -1 0
1022 341 1 0.5897 -13.706780372050277 13.091942763154318 18.85168366111617 0 -1 0
1119 373 1 0.5897 -15.202971915218768 11.143236631301441 21.031601196325056 0 -1 0
1111 371 2 -1.1794 -16.639463737600675 12.232067086193439 20.487685692747334 0 -1 0
1044 348 1 0.5897 -13.278847168954965 10.278895966249898 19.892050289698254 0 -1 0
1128 376 1 0.5897 -14.142091047955724 14.256088236655199 20.690503991055017 0 -1 0
1000 334 2 -1.1794 -15.601741499674528 10.114508335621505 17.953057407429874 0 -1 0
1001 334 1 0.5897 -15.05244629931956 10.894138366357254 18.034863632981434 0 -1 0
1032 344 1 0.5897 -8.72445306887337 5.694405193882822 20.621826300558162 0 -1 0
1023 341 1 0.5897 -13.2971004463255 12.999527767398067 17.39732722884672 0 -1 0
1021 341 2 -1.1794 -14.030259421231449 12.831588414930433 17.98927041592279 0 -1 0
981 327 1 0.5897 -12.540386748251933 9.984232192706006 17.500938049460707 0 -1 0
989 330 1 0.5897 -15.218573152326151 8.533741347000394 18.811779860163576 0 -1 0
1140 380 1 0.5897 -11.967939175953394 12.779377118709348 20.7738266852068 0 -1 0
1034 345 1 0.5897 -14.651097205665224 7.700377099834331 21.059807505397245 0 -1 0
993 331 1 0.5897 -16.744530016214192 13.620448111773506 16.662693230249396 0 -1 0
1013 338 1 0.5897 -10.917223504700441 11.116770792437656 19.098404937271845 0 -1 0
151 51 2 -1.1794 -11.15536117614063 11.627126705472513 21.81893599326537 1 0 -1
979 327 2 -1.1794 -12.512637989404745 9.609485021081209 16.620656932472514 0 -1 0
310 104 2 -1.1794 -3.519939211255716 -8.479552110389722 3.4683622272289734 1 1 0
242 81 1 0.5897 -1.1795768597720127 -7.2873970968923425 4.454809015825066 0 1 0
303 101 1 0.5897 -7.631258303778816 -1.9483471446101852 0.5492146108090457 1 1 0
305 102 1 0.5897 -1.6810535254178713 -6.302189278711167 1.8090025290897451 1 1 0
317 106 1 0.5897 -1.3009047742165265 -3.8928404916823425 1.0924834200723312 1 1 0
318 106 1 0.5897 -2.7714045926070927 -4.235244077849181 0.9814597617906446 1 1 0
304 102 2 -1.1794 -1.4667244927783312 -7.18113298747115 2.1217034988053016 1 1 0
88 30 2 -1.1794 -4.215554730514997 0.2097682076021261 2.309778125424969 1 0 0
311 104 1 0.5897 -2.7750650986760146 -8.110267866240914 2.994084197752564 1 1 0
104 35 1 0.5897 -3.584941140666599 -2.874641199994228 4.189270219950407 1 0 0
306 102 1 0.5897 -0.7874045453040228 -7.49003632508437 1.5223999607070346 1 1 0
316 106 2 -1.1794 -1.9157359983638003 -4.622832765841883 1.1655006946935338 1 1 0
26 9 1 0.5897 -4.010717804744619 0.28178132497611585 4.258513225192653 0 0 0
94 32 2 -1.1794 -6.654691292932055 -1.2815599090105367 3.431672057397488 1 0 0
293 98 1 0.5897 -5.033981656946783 -4.082540688905992 1.9375463914968498 1 1 0
95 32 1 0.5897 -5.940813491281691 -0.7744502653194267 3.0451444138332104 1 0 0
241 81 2 -1.1794 -1.1902629783501588 -6.743268981355998 5.242157631150301 0 1 0
96 32 1 0.5897 -6.236912250237714 -1.7963318145394709 4.122145885080818 1 0 0
243 81 1 0.5897 -0.8796783549148763 -5.887427999628185 4.946697598654025 0 1 0
103 35 2 -1.1794 -2.869673332988267 -2.7768262860555684 3.5608499255994044 1 0 0
90 30 1 0.5897 -3.5277883335162707 -0.10317411162148993 1.7222989342751034 1 0 0
105 35 1 0.5897 -3.2864013982919316 -2.8791032340050116 2.7052308556919895 1 0 0
292 98 2 -1.1794 -4.46565534133146 -3.516485599271963 1.4152764402042879 1 1 0
89 30 1 0.5897 -4.476388043179363 1.0554417691053875 1.9449762782852216 1 0 0
294 98 1 0.5897 -5.065898555201649 -2.9165246812453782 0.9724943185203723 1 1 0
25 9 2 -1.1794 -3.9856075728228424 0.6641875216041218 5.135574582349573 0 0 0
3 1 1 0.5897 -1.3886536841272452 -3.6530754953085225 4.138686696169986 0 0 0
199 67 2 -1.1794 0.5301098221473257 -8.029920633615323 0.6043348457358657 1 1 0
1 1 2 -1.1794 -0.6468835346026314 -4.030693497311373 4.611432503702575 0 0 0
302 101 1 0.5897 -7.616227361297815 -1.9226364470888768 2.0627343042996484 1 1 0
27 9 1 0.5897 -3.9146635663504883 1.6067266138415945 4.984467914998868 0 0 0
322 108 2 -1.1794 -6.400701740403392 -4.69012672792622 2.8168438322260916 1 1 0
403 135 2 -1.1794 -5.185190026844924 -2.6268388406239787 5.411679001619196 1 0 0
309 103 1 0.5897 -2.8146007307367604 -1.2787384133619533 0.015330536177058582 1 1 0
546 182 1 0.5897 0.03915601053710738 -7.209414921229416 6.714210731660753 0 1 0
359 120 1 0.5897 -4.40135107302287 -2.8830744027414195 8.558034461206109 0 0 0
334 112 2 -1.1794 -4.202037107694461 -4.554714787142995 9.269226710436609 0 0 0
632 211 1 0.5897 -4.887861477945858 -5.585526438507031 6.112133542494875 1 1 0
555 185 1 0.5897 -2.638885949788504 -6.609690859640674 6.191933833334003 0 1 0
554 185 1 0.5897 -2.93595179666338 -6.135348931241161 7.598439279434773 0 1 0
553 185 2 -1.1794 -3.3615943514145465 -6.390754683536405 6.780028154304626 0 1 0