LAMMPS data file via write_data, version 30 Jul 2021, timestep = 7750000

864 atoms
2 atom types
576 bonds
1 bond types
288 angles
1 angle types

0.6037515503018849 17.603820849701926 xlo xhi
1.8026708472212185 21.826506952783244 ylo yhi
0.7365754811679999 21.476620318827585 zlo zhi

Masses

1 1.00794
2 15.9994

Pair Coeffs # lj/cut/tip4p/long/omp

1 0 0
2 0.21084 3.1668

Bond Coeffs # harmonic/omp

1 450 0.9572

Angle Coeffs # harmonic/omp

1 55 104.52

Atoms # full

7 1 2 -1.1794 3.981389926546185 5.762902252150038 3.1105425339785557 3 -2 -2
299 1 1 0.5897 3.088401757671729 4.7125735359843866 1.9367316839256252 -6 -1 3
9 1 1 0.5897 3.5130227725848844 6.596057966065755 3.163217631382316 3 -2 -2
300 1 1 0.5897 1.7897856464472701 4.38090996082291 1.2327486893028508 -6 -1 3
286 1 2 -1.1794 2.2142505142935307 4.3174125773919565 4.994120838180709 6 2 1
298 1 2 -1.1794 2.737191004219456 4.410174721170525 1.0991904202131986 -6 -1 3
288 1 1 0.5897 2.6699555148659235 4.931750845585681 4.4185877074579825 6 2 1
287 1 1 0.5897 2.9109845457939625 3.78087330077442 5.372227650653905 6 2 1
8 1 1 0.5897 4.719819479674441 5.864338062837732 3.711118634925924 3 -2 -2
706 1 2 -1.1794 3.524956616497451 1.9076469403246907 3.389866830537839 -4 0 -6
707 1 1 0.5897 2.6850521149351456 1.831120727821469 2.937130577263952 -4 0 -6
629 1 1 0.5897 3.850960980004288 5.837607707611301 6.851630839159919 -2 -2 4
679 1 2 -1.1794 3.4257915862090655 3.094238682268646 7.236592140310362 -8 -2 -4
680 1 1 0.5897 4.21221237073564 3.60531250614597 7.428012847212275 -8 -2 -4
705 1 1 0.5897 1.4299782237387477 6.1780277466034565 8.41569060137176 3 -1 -2
681 1 1 0.5897 2.7440647489268577 3.4904783043365364 7.779300914863303 -8 -2 -4
628 1 2 -1.1794 4.469185635942591 5.6061924438989506 7.5448436737067475 -2 -2 4
630 1 1 0.5897 4.651605558671179 6.433846277214828 7.989798547640001 -2 -2 4
449 1 1 0.5897 1.3437219857220088 5.633332849100364 6.213675690450244 3 2 0
363 1 1 0.5897 2.310401876178987 5.420730095136252 10.735312683272284 4 -2 -3
511 1 2 -1.1794 1.3503607481015978 3.4861440298368986 8.992400845205893 2 1 -5
512 1 1 0.5897 1.445422010222067 3.9753963087953905 9.80962292582786 2 1 -5
703 1 2 -1.1794 1.4481451840409587 6.4258653027186465 9.340091893398537 3 -1 -2
92 1 1 0.5897 3.0394932244426447 2.526747517258396 9.802619351607367 -1 -3 -2
361 1 2 -1.1794 2.851208830183133 4.6744404485371875 10.993838408596506 4 -2 -3
642 1 1 0.5897 4.699063890004956 6.424714371986923 10.201037312721647 5 2 -5
448 1 2 -1.1794 0.6226388850414821 5.726810423647829 6.836225039895172 3 2 0
362 1 1 0.5897 3.7477707353297482 4.950286250186158 10.803202281787456 4 -2 -3
710 1 1 0.5897 1.4947619576379976 4.984363626481542 14.37709983064322 -5 -2 -1
6 1 1 0.5897 4.497191661799924 2.616009531005848 11.84719260724534 3 -2 -3
709 1 2 -1.1794 2.169344516375354 4.420805661462523 14.756160913899956 -5 -2 -1
559 1 2 -1.1794 4.414261882832036 5.726215267135654 15.662841559148198 5 2 1
579 1 1 0.5897 1.4252065355289485 3.5555556188589486 12.420145047503437 0 2 -1
711 1 1 0.5897 1.685897429259651 3.8053056439458026 15.307290020629733 -5 -2 -1
560 1 1 0.5897 3.6784232206588516 5.30109365614563 15.222293360050712 5 2 1
438 1 1 0.5897 3.9122982841394554 2.253129281982977 14.887740326118006 1 7 0
436 1 2 -1.1794 4.813205011724501 2.562982395297498 14.980600409902655 1 7 0
485 1 1 0.5897 4.6991330194303895 6.7999846297821085 14.106896714463035 -3 3 2
453 1 1 0.5897 1.719234980085355 4.315503007855991 17.609900397725525 -1 -1 2
132 1 1 0.5897 1.0893153047048538 4.1890100353139355 19.77742226849804 -2 3 -1
740 1 1 0.5897 4.172256845785379 4.492351906087707 18.58419191559754 0 0 4
451 1 2 -1.1794 2.322661944967181 4.548326085600631 18.31553917179194 -1 -1 2
452 1 1 0.5897 2.262622758647193 5.501616962082954 18.37789728775245 -1 -1 2
348 1 1 0.5897 2.6359281723956256 5.873043746206969 20.81604253004407 -5 2 -5
588 1 1 0.5897 3.0590146261057694 2.8496941250066357 21.09711382149906 -1 5 5
586 1 2 -1.1794 2.9892692211016416 1.947217348130651 20.785780955507835 -1 5 5
346 1 2 -1.1794 2.5227196708997663 6.740790709011562 20.4281440336071 -5 2 -5
687 1 1 0.5897 2.98703471132694 2.318297606342089 18.408472785644378 7 -5 -4
656 1 1 0.5897 4.498264393521193 8.160287000181729 1.7174904390462415 0 0 -1
659 1 1 0.5897 2.704046910869868 9.06530153119239 2.8296396595276403 0 0 0
660 1 1 0.5897 1.7159662824567574 7.931299817332411 2.6572648078962766 0 0 0
658 1 2 -1.1794 2.6186182696568068 8.115909554976948 2.9168968191099887 0 0 0
727 1 2 -1.1794 2.1859404628812413 10.741882131729888 1.3793293062573313 0 0 1
498 1 1 0.5897 4.500253047213555 11.7705791330791 5.279118787854174 0 1 0
754 1 2 -1.1794 2.6582972719711107 11.379892148122897 4.748073838776245 -3 -3 -3
755 1 1 0.5897 1.833639589686908 10.939471628825823 4.542536140148954 -3 -3 -3
662 1 1 0.5897 2.648963300258044 7.565774520090199 4.631304427032978 -2 -3 1
661 1 2 -1.1794 2.8643650796587625 7.231505432841938 5.502015316564575 -2 -3 1
728 1 1 0.5897 2.4485281127477414 11.586352269128668 1.7456620151017852 0 0 1
386 1 1 0.5897 1.3824672855303395 9.375537342781556 7.823568215633462 -2 0 -2
50 1 1 0.5897 3.6160445359226214 8.170380039523437 8.715871454528646 9 1 -2
385 1 2 -1.1794 2.1987407924125826 8.88752548738363 7.71477204186081 -2 0 -2
704 1 1 0.5897 1.602852665729761 7.370473491752816 9.332312234530159 3 -1 -2
691 1 2 -1.1794 3.7194685744653415 11.226936353578598 7.798344579607731 5 1 5
387 1 1 0.5897 2.8835531467113973 9.555687031960149 7.744073429662663 -2 0 -2
692 1 1 0.5897 2.9986170177883174 11.700747367963318 7.383387821349141 5 1 5
663 1 1 0.5897 2.37591984635319 7.794353962862808 6.102762459806441 -2 -3 1
693 1 1 0.5897 3.6691445357423773 11.47431616916336 8.721703302715511 5 1 5
786 1 1 0.5897 1.2014758237764533 10.293659229611032 10.783568833412549 7 3 6
46 1 2 -1.1794 2.506080550059422 8.791249209495994 10.805090487917067 3 -2 0
49 1 2 -1.1794 4.537248240604867 7.910256331237983 8.716374384934333 9 1 -2
677 1 1 0.5897 4.210695312582459 8.479111990291116 5.949746359266894 3 0 -4
439 1 2 -1.1794 1.2877673011581106 9.432179124849942 14.315702488741255 4 3 0
827 1 1 0.5897 2.734121769260802 7.273071489434253 13.041627469981924 -1 1 3
440 1 1 0.5897 1.6475925693699116 10.121747798579495 13.75777629054938 4 3 0
828 1 1 0.5897 1.4677028142810569 8.036409897722377 13.366408444844934 -1 1 3
441 1 1 0.5897 1.9714191410546318 9.26783221022066 14.965230366323897 4 3 0
841 1 2 -1.1794 2.4461465420589796 11.682287888812635 12.841171137484462 -2 3 0
826 1 2 -1.1794 1.7839865094270668 7.246165757108614 12.92849763368111 -1 1 3
48 1 1 0.5897 2.102002923602455 8.26032180496659 11.491452473776961 3 -2 0
484 1 2 -1.1794 4.5396087378847625 7.356578134791915 13.344655539123877 -3 3 2
515 1 1 0.5897 4.204910239890524 9.400057477496194 15.814142665303734 -3 -3 0
514 1 2 -1.1794 3.2779074450169197 9.259807043530838 16.007168674373013 -3 -3 0
486 1 1 0.5897 4.774123552291086 6.809695469851493 12.59485576544251 -3 3 2
698 1 1 0.5897 0.6245071784078462 11.144273409715314 16.072599503856786 -4 4 -4
47 1 1 0.5897 3.2766870243774626 9.176603068846097 11.222159962607297 3 -2 0
189 1 1 0.5897 0.9954561365455521 10.224572318804368 19.245381034239564 -3 3 2
143 1 1 0.5897 3.4342119628546426 8.752137036976581 18.928660184913653 0 1 5
533 1 1 0.5897 2.082360975830915 7.405324258475938 16.54338941777963 -7 1 -2
347 1 1 0.5897 3.338868931663836 7.200293579641322 20.625680222368235 -5 2 -5
532 1 2 -1.1794 1.555190403983151 6.9891097781354725 17.225386472412946 -7 1 -2
142 1 2 -1.1794 2.9900013744100074 9.589888904900523 18.79786678242332 0 1 5
791 1 1 0.5897 0.6931951770329633 7.305528412365489 20.272063576509776 3 6 -1
516 1 1 0.5897 3.2385200286106244 9.195573641061646 16.961413621650625 -3 -3 0
534 1 1 0.5897 1.0262260229387765 7.700107122509669 17.587256127025974 -7 1 -2
144 1 1 0.5897 3.6735736518188338 10.24701746073321 18.928893669301438 0 1 5
729 1 1 0.5897 2.1327419857897114 10.89557668923956 21.17607097838089 0 0 0
726 1 1 0.5897 4.280394265112779 6.844432020209339 17.1857564228287 1 -6 2
724 1 2 -1.1794 4.723153113686153 7.121881599791765 17.987789139974918 1 -6 2
582 1 1 0.5897 4.292146907211384 11.752058071295194 17.075881293831873 -5 0 2
179 1 1 0.5897 0.7363594891550662 16.55755885131111 4.861420236057576 -10 3 0
240 1 1 0.5897 4.149546590836014 14.830535135939204 4.582886289780749 -6 -3 -1
309 1 1 0.5897 2.6683732269679967 13.999133976522558 1.6576094519681348 2 7 -2
238 1 2 -1.1794 3.7058470139244184 14.167849873436511 5.112260803352754 -6 -3 -1
756 1 1 0.5897 2.48441964726078 12.305909147599092 4.579149698990353 -3 -3 -3
307 1 2 -1.1794 2.9990758920676557 13.28245495694201 2.199146788147921 2 7 -2
308 1 1 0.5897 3.8942093429046283 13.540944772228334 2.418810338633176 2 7 -2
509 1 1 0.5897 0.762046946665616 14.611002856789376 4.132789331611725 2 -1 5
508 1 2 -1.1794 0.9202874846775035 13.684520335410738 3.951531175541311 2 -1 5
178 1 2 -1.1794 1.2186098682470303 16.561004271475163 4.034567546182059 -10 3 0
239 1 1 0.5897 4.233679627909591 14.103656652844988 5.9082331010473546 -6 -3 -1
145 1 2 -1.1794 2.3407876351203645 16.00434127949307 1.300048187516326 0 -1 -2
510 1 1 0.5897 1.5654493823831301 13.685104738919378 3.2443908410861217 2 -1 5
147 1 1 0.5897 1.4896946389548342 15.977287121924695 0.8627449909390602 0 -1 -2
146 1 1 0.5897 2.322494305026087 16.813655526637277 1.810881972628343 0 -1 -2
258 1 1 0.5897 2.305245752654802 15.524847770822428 7.719429709437678 -1 -1 -1
185 1 1 0.5897 1.3623451875111816 14.150045030827151 9.933430482402098 2 4 3
72 1 1 0.5897 1.1842662930469094 13.146720703447176 6.02925491521979 3 1 -4
184 1 2 -1.1794 2.2240575019071667 14.566316787068306 9.912197877993004 2 4 3
256 1 2 -1.1794 2.7023904891899253 16.10260898408982 7.067716933037989 -1 -1 -1
375 1 1 0.5897 2.890145285858761 12.919152928762893 10.114778625353289 3 3 0
404 1 1 0.5897 4.187409085625754 14.840217422657345 9.820382560837198 3 -2 -2
70 1 2 -1.1794 1.075924753118379 12.864484532595228 6.937484402440704 3 1 -4
257 1 1 0.5897 2.8482174393221307 15.54111924273597 6.306322809818502 -1 -1 -1
71 1 1 0.5897 0.7427047672098424 13.638643615839076 7.391250256041854 3 1 -4
373 1 2 -1.1794 3.0469552883782547 11.987562600410762 10.269082028539167 3 3 0
186 1 1 0.5897 2.343780615210576 14.915389709733853 10.795416237701927 2 4 3
536 1 1 0.5897 3.0479996201309967 14.993170917794323 14.271728337692851 6 7 5
260 1 1 0.5897 4.648825136838098 16.730567911996133 14.115024092557407 -2 -4 8
77 1 1 0.5897 1.51995446890312 14.944361482180014 16.054704903997354 -4 -3 -4
644 1 1 0.5897 1.9784998681451544 15.982822114545367 12.81407032597289 3 -3 3
842 1 1 0.5897 1.6027644655634772 11.923052705808736 13.22456970457387 -2 3 0
537 1 1 0.5897 3.7962200322094257 15.011033244512767 15.587726732714572 6 7 5
643 1 2 -1.1794 2.759902909050436 15.500078880739123 12.54457677886814 3 -3 3
645 1 1 0.5897 3.3637026161022336 16.174853993588027 12.234156756576743 3 -3 3
535 1 2 -1.1794 3.0514276539960465 14.603184321491817 15.145906568205026 6 7 5
843 1 1 0.5897 3.0853173434410617 11.874469158801238 13.527321821852 -2 3 0
374 1 1 0.5897 2.948100501531918 11.881043665471307 11.215244138759104 3 3 0
581 1 1 0.5897 3.690291545301361 12.869568506646448 16.250717326639048 -5 0 2
804 1 1 0.5897 3.8088261463958237 14.535682690996051 19.85764982603539 7 2 -1
471 1 1 0.5897 2.4807728223672747 12.981181603916024 19.550983054953566 -1 -1 2
469 1 2 -1.1794 3.3974260873649738 12.782130225137328 19.74174380002984 -1 -1 2
802 1 2 -1.1794 3.945419686166949 15.475785645787589 19.740078761002184 7 2 -1
470 1 1 0.5897 3.788085903618038 12.60672650173634 18.88564392672037 -1 -1 2
338 1 1 0.5897 0.9136173491556221 13.960086818503408 17.98266315757549 -2 -2 5
803 1 1 0.5897 3.674964409694458 15.863532618281296 20.572405719140157 7 2 -1
233 1 1 0.5897 1.835525389355939 16.39426678357918 17.596178516370042 -2 0 -3
699 1 1 0.5897 1.7368073344064539 12.13228734851068 16.352995700208126 -4 4 -4
234 1 1 0.5897 3.2111629860787283 16.271696422381652 18.216346813422685 -2 0 -3
580 1 2 -1.1794 3.5262270702297567 12.32341527355979 17.019522230561286 -5 0 2
337 1 2 -1.1794 0.9064335346828725 13.63055117315461 18.881335953195563 -2 -2 5
697 1 2 -1.1794 0.7841109240882473 12.040530443256053 16.368424995175097 -4 4 -4
339 1 1 0.5897 0.6251100991898505 12.719185395549848 18.800521887002063 -2 -2 5
76 1 2 -1.1794 0.6507308685527917 14.982469918964506 16.45377712468265 -4 -3 -4
108 1 1 0.5897 4.552771920970694 12.048610861819437 21.20061350062309 -1 0 1
810 1 1 0.5897 1.182179913971265 19.95711805438081 2.323413844963876 5 -2 1
808 1 2 -1.1794 1.0504038268118832 20.583169378560747 1.6114037723307235 5 -2 1
366 1 1 0.5897 0.643177338010931 19.640410747404218 5.391654980118876 3 6 -2
550 1 2 -1.1794 3.0230935073327454 18.362666269821933 2.554103424626188 -3 5 -6
708 1 1 0.5897 3.376012097645809 21.52294595910389 4.242627045703532 -4 -1 -6
551 1 1 0.5897 2.8402719819561324 18.054189643266724 3.4416316538824674 -3 5 -6
472 1 2 -1.1794 3.572315484317199 20.69696714399827 5.82895245397617 -1 -2 -3
552 1 1 0.5897 3.8859032022936018 18.772648676268822 2.615508857887586 -3 5 -6
230 1 1 0.5897 3.7456787996539744 18.19668616952572 0.7471071997035317 3 2 0
228 1 1 0.5897 1.8818199521971182 17.794070329822496 6.3504451793589585 5 -1 2
321 1 1 0.5897 1.1786805056258918 20.076103632914094 9.826995896457124 3 -3 4
93 1 1 0.5897 3.725165058667979 21.20264892071473 9.872518226466003 -1 -4 -2
91 1 2 -1.1794 3.226221057716516 21.826374311482127 10.400039241022606 -1 -4 -2
735 1 1 0.5897 2.6073631873342213 18.416906107977034 10.15822209533597 -2 -1 -2
226 1 2 -1.1794 1.7204193773681873 18.735087128401663 6.418998848952593 5 -1 2
573 1 1 0.5897 4.1815837413762456 17.131857890956873 7.732379725773961 3 -6 -3
733 1 2 -1.1794 2.0621230890036477 18.47460594209866 9.373586841738348 -2 -1 -2
734 1 1 0.5897 1.3057525415586677 17.920276822892006 9.565650853835251 -2 -1 -2
227 1 1 0.5897 1.7458061479531513 18.91510000836526 7.358789913720077 5 -1 2
474 1 1 0.5897 3.4916925760291013 21.449640064668085 6.414823735822227 -1 -2 -3
473 1 1 0.5897 2.9869643187928454 20.038181976924605 6.20262983289993 -1 -2 -3
673 1 2 -1.1794 4.83140157569825 20.157360731595013 8.760478990121456 -3 -3 0
320 1 1 0.5897 0.7507363601060957 21.516705048057215 9.643766732271448 3 -3 4
779 1 1 0.5897 2.535913073756528 20.983686606728007 12.124793671228725 -4 0 0
66 1 1 0.5897 3.6767406961267857 18.79506170399041 12.268366165232147 6 1 -4
354 1 1 0.5897 3.1832775118381686 17.461480052545326 16.05047827586543 4 2 -2
353 1 1 0.5897 4.301461657967829 18.204222191688817 15.350448020750596 4 2 -2
352 1 2 -1.1794 3.4339325270307617 17.827719686195387 15.202355650796815 4 2 -2
780 1 1 0.5897 1.8354633556398012 19.77919653288962 12.716856638202566 -4 0 0
778 1 2 -1.1794 2.5208513727908954 20.42191412357481 12.899685303024022 -4 0 0
807 1 1 0.5897 2.5207188603678023 19.5819588861395 15.57477837438231 4 -1 -4
805 1 2 -1.1794 1.865999817954593 20.167277642592797 15.955587164369417 4 -1 -4
460 1 2 -1.1794 0.7399845607861836 17.552075680640876 12.619871745376608 1 3 2
64 1 2 -1.1794 3.880091590958562 18.00929639276308 11.760921408439765 6 1 -4
65 1 1 0.5897 4.831525077395037 17.92378151197862 11.821897751485466 6 1 -4
218 1 1 0.5897 0.7595606036287421 21.081008614618355 14.699825506798998 1 4 -2
712 1 2 -1.1794 2.2151586018701055 19.079840396242606 19.123595217311053 -5 -1 3
323 1 1 0.5897 0.7154416305272909 18.94100809361684 19.953124855955107 9 0 -4
714 1 1 0.5897 2.3312515289541595 18.422940391435127 18.437089172319357 -5 -1 3
231 1 1 0.5897 3.702939824787102 18.656614620417656 20.045418046172358 3 2 -1
685 1 2 -1.1794 3.262533538086388 21.615489262852225 17.84958725403549 7 -6 -4
587 1 1 0.5897 2.3112594567315954 21.57904759298893 21.336135017260464 -1 4 5
713 1 1 0.5897 2.3601169884340303 19.916651355970558 18.681991848660246 -5 -1 3
335 1 1 0.5897 4.801531943211293 21.121091812105036 21.05114738847068 3 1 4
806 1 1 0.5897 2.3619675980890342 20.723994272044887 16.55587817329664 4 -1 -4
229 1 2 -1.1794 4.293815664696861 18.30127519549023 20.70940655957473 3 2 -1
686 1 1 0.5897 4.1915086002324 21.77778266661576 17.68547574752658 7 -6 -4
232 1 2 -1.1794 2.679460467513447 16.841406566599368 17.660486468484866 -2 0 -3
619 1 2 -1.1794 6.176087464806993 6.291609179463146 4.772144807474045 3 -1 5
236 1 1 0.5897 7.762475630489182 2.981962074647994 5.271095903543532 1 1 -4
621 1 1 0.5897 6.529825222827163 5.703696857143216 5.439602078940055 3 -1 5
620 1 1 0.5897 6.85336619570759 6.322736214963513 4.09643134311695 3 -1 5
235 1 2 -1.1794 6.852655673062228 3.2565504429944143 5.156703622321487 1 1 -4
194 1 1 0.5897 5.926580086159852 3.325789658331198 1.9190528921462633 2 -3 2
195 1 1 0.5897 5.062808242430789 2.4799278519836143 2.8303012886006798 2 -3 2
193 1 2 -1.1794 5.973607811363574 2.6349876061829547 2.579990835593713 2 -3 2
493 1 2 -1.1794 8.687894028131653 3.493159584883191 1.5249678665735293 2 2 2
237 1 1 0.5897 6.637278761626996 3.0053457781783566 4.258501632647069 1 1 -4
494 1 1 0.5897 8.411224673800419 2.6441047196280705 1.8696733582633336 2 2 2
244 1 2 -1.1794 8.156679577011122 5.983940819209834 2.7831924543025024 -3 4 0
245 1 1 0.5897 8.348972741561958 5.097560943361487 2.4771751411339116 -3 4 0
425 1 1 0.5897 5.034471600386675 5.453585712187984 1.2628708254342944 8 -3 3
246 1 1 0.5897 8.480002604642305 6.554133468332712 2.085584931639726 -3 4 0
424 1 2 -1.1794 5.55400581265101 4.78288902680925 0.8195759996812129 8 -3 3
769 1 2 -1.1794 6.86575893683218 3.122166680856468 10.010309502814874 5 -1 -1
770 1 1 0.5897 7.246033786742246 2.245556033488618 9.953744280923189 5 -1 -1
164 1 1 0.5897 8.538119949130277 5.194496781183631 8.370923454838493 -2 4 -1
771 1 1 0.5897 6.868806960125727 3.4437228305069447 9.10872376463191 5 -1 -1
796 1 2 -1.1794 7.015140113082698 4.790021148881314 7.455642343323915 -1 -3 -2
798 1 1 0.5897 6.951028560026531 4.194047271955396 6.709343550783942 -1 -3 -2
797 1 1 0.5897 6.168109057385625 5.235179720325949 7.480731542002081 -1 -3 -2
640 1 2 -1.1794 5.123249376183923 5.930354919572706 10.902418916398581 5 2 -5
165 1 1 0.5897 9.040040136615396 4.314875967410507 9.496247404909807 -2 4 -1
641 1 1 0.5897 6.011490688483751 6.2848604292326895 10.942624358203972 5 2 -5
5 1 1 0.5897 5.872396716823089 3.2425285063733478 11.7562781239345 3 -2 -3
603 1 1 0.5897 7.737521927049594 4.316697316901342 15.940295816324598 2 7 -2
602 1 1 0.5897 7.454084486171969 4.675251851857068 14.497007692105859 2 7 -3
682 1 2 -1.1794 8.210655294859404 4.017361364080955 12.921119581709942 7 1 -5
683 1 1 0.5897 9.036015417533662 4.497318323565096 12.989577414682872 7 1 -5
601 1 2 -1.1794 7.153087666993746 4.838975834743276 15.39079486452648 2 7 -2
684 1 1 0.5897 8.416830538380891 3.1387034599105137 13.24003863218755 7 1 -5
437 1 1 0.5897 5.168660506309153 2.5371115854926276 14.092209044617011 1 7 0
4 1 2 -1.1794 5.342957722423101 2.6535194674301468 12.293891377864806 3 -2 -3
561 1 1 0.5897 5.1512909767759885 5.130443169146794 15.528186140778365 5 2 1
306 1 1 0.5897 8.59319429688788 5.2480905598289445 19.794230603201335 0 -2 -6
304 1 2 -1.1794 7.964702842774807 5.945325803372228 19.981679301283965 0 -2 -6
305 1 1 0.5897 7.736310745706246 6.299948395502607 19.12239941919888 0 -2 -6
591 1 1 0.5897 8.204193277952687 3.3971424864198574 18.058503632233446 0 2 0
725 1 1 0.5897 5.074861834841525 6.313097344320126 18.35984497152815 1 -6 2
739 1 2 -1.1794 5.106330490165054 4.596460921868673 18.765682986891168 0 0 4
169 1 2 -1.1794 7.494189229126774 3.0109279384851226 19.83344256805252 -3 6 -2
751 1 2 -1.1794 5.867753728811998 2.292275679076287 17.538683106155897 5 0 1
170 1 1 0.5897 6.779928333163485 2.4968963913163806 20.210102790523486 -3 6 -2
171 1 1 0.5897 7.888470564574996 3.458522314581577 20.582099153031756 -3 6 -2
752 1 1 0.5897 5.688893868629795 3.1276860380153395 17.970378981009453 5 0 1
426 1 1 0.5897 6.255240984430227 5.269755941196365 21.126619534541266 8 -4 2
753 1 1 0.5897 5.705608027626905 2.462140816026594 16.610688168432013 5 0 1
589 1 2 -1.1794 8.664048549773295 3.6493060665518797 17.25772203934332 0 2 0
741 1 1 0.5897 5.182907529385113 4.4677931931588635 19.711113160210424 0 0 4
75 1 1 0.5897 7.325546569910607 6.014549119361415 16.742305743400596 -1 1 2
73 1 2 -1.1794 7.6107175643832115 6.743279178813765 17.293564528312753 -1 1 2
497 1 1 0.5897 5.30784031353552 10.523617214571825 5.570467698025058 0 1 1
378 1 1 0.5897 8.957446162736023 9.597108100728452 4.509283336440916 6 4 4
678 1 1 0.5897 5.647211953378082 8.162885296451606 5.591415935558507 3 0 -4
496 1 2 -1.1794 5.39679482297221 11.435500139490836 5.293295549986908 0 1 1
655 1 2 -1.1794 4.925122249885228 7.677911391363968 1.0094069599443563 0 0 -1
310 1 2 -1.1794 7.809006526247603 9.57690104537545 2.735678549657621 3 4 4
311 1 1 0.5897 6.855374249514902 9.494182248395187 2.7289949550262738 3 4 4
161 1 1 0.5897 8.704596239812151 11.17830005221853 2.1470198906118947 -1 7 2
312 1 1 0.5897 8.114415104111071 8.880022795529001 2.1548656191994477 3 4 4
530 1 1 0.5897 4.857172677842509 10.43390280136054 3.9073197111820406 -4 -2 -5
529 1 2 -1.1794 4.9740563909464965 9.907032506994065 3.1167498183977327 -4 -2 -5
531 1 1 0.5897 4.900011449451649 10.534095677498492 2.39732509275308 -4 -2 -5
369 1 1 0.5897 7.294616014058616 9.536656238754784 8.459400822742488 8 6 -1
117 1 1 0.5897 6.682874863537298 11.221646650253916 6.628862702224174 -3 -3 2
51 1 1 0.5897 4.91403537636265 8.360102159173742 7.960078785112727 9 1 -2
787 1 2 -1.1794 6.173196493786077 11.23355794048735 9.993669103255623 0 -5 8
367 1 2 -1.1794 7.511906762095769 8.688281282084173 8.845837383547451 8 6 0
788 1 1 0.5897 5.850744091551677 10.635871349291675 10.668261132101652 0 -5 8
115 1 2 -1.1794 7.243139506038234 10.806586885119751 7.284681362931559 -3 -3 2
116 1 1 0.5897 8.014057885600117 11.371830182128676 7.334099898107128 -3 -3 2
742 1 2 -1.1794 8.941975179198302 7.499513668491194 7.031538135668415 -4 -1 -1
368 1 1 0.5897 8.094168775597504 8.275943988364432 8.207661271245618 8 6 0
750 1 1 0.5897 8.784281150601075 9.750513599135491 9.381115296155043 4 8 -3
30 1 1 0.5897 7.421260462517154 8.026211858351509 10.581898335886393 -8 -1 5
744 1 1 0.5897 8.98135312669334 8.17933217008753 6.3588172270865675 -4 -1 -1
676 1 2 -1.1794 5.100075656360523 8.828017336840144 6.009162315611676 3 0 -4
789 1 1 0.5897 5.710876645485617 10.969469714815189 9.19817933618357 0 -5 8
2 1 1 0.5897 7.49871394546333 8.75007240351821 12.92366969441594 -1 -6 2
29 1 1 0.5897 8.44292134138589 7.233275746412551 11.368933988015742 -8 -1 5
406 1 2 -1.1794 6.2839497704675775 9.053904205039412 16.151844501191427 -4 -3 4
408 1 1 0.5897 6.764051878275074 9.133739639033447 15.327582939322399 -4 -3 4
28 1 2 -1.1794 7.509135198262586 7.440857259673101 11.334162247681856 -8 -1 5
1 1 2 -1.1794 7.752910754681948 9.241066386811228 13.705055300710407 -1 -6 2
3 1 1 0.5897 8.157137685362523 10.039644561516571 13.36574912284009 -1 -6 2
27 1 1 0.5897 4.949185337962359 10.502815314202284 12.74009903621016 -2 3 6
26 1 1 0.5897 4.912569997506069 8.9936632200336 12.62568040632863 -2 3 6
25 1 2 -1.1794 4.8969966397648115 9.793274705270358 12.099714178569757 -2 3 6
157 1 2 -1.1794 8.517301270326833 11.749100422490365 12.7758126268265 -2 2 -1
152 1 1 0.5897 6.215354714952244 10.426722766567385 21.08333611994115 3 0 -3
858 1 1 0.5897 5.889246256863995 10.33408860491313 17.6082613135877 -1 1 -4
153 1 1 0.5897 7.460562458665178 9.742380136025945 20.560674475797974 3 0 -2
857 1 1 0.5897 5.926143928927895 10.290622377245155 19.121113376366413 -1 1 -4
856 1 2 -1.1794 5.562104721989526 10.784958698809941 18.386694606194983 -1 1 -4
114 1 1 0.5897 8.820962811918005 7.40526008554196 20.952667340019083 -5 -4 2
702 1 1 0.5897 7.975664138967549 9.699311958458118 16.71375125264997 4 1 3
700 1 2 -1.1794 8.859970664625033 10.006291936694154 16.913819641480018 4 1 3
151 1 2 -1.1794 6.522893909347734 9.606614153298464 20.69717270608508 3 0 -2
657 1 1 0.5897 5.562143713126683 8.294728324200698 21.388870253982123 1 0 -2
407 1 1 0.5897 6.562479715616042 8.211537611521548 16.51116654319806 -4 -3 4
701 1 1 0.5897 8.94076338567244 9.903882405582733 17.862113952059957 4 1 3
74 1 1 0.5897 8.548256104862816 6.824263684191118 17.118241182748687 -1 1 2
314 1 1 0.5897 6.481294446265735 12.599051105938576 4.225416077263854 -2 -2 2
176 1 1 0.5897 5.6990677586529115 15.843241045201879 2.610722514102007 -3 -3 8
160 1 2 -1.1794 9.0901466205028 12.054367389943124 2.1345669222694457 -1 7 2
315 1 1 0.5897 7.179221473184217 13.103781669893152 2.980385471422407 -2 -2 2
313 1 2 -1.1794 6.883922386996105 13.381029978732407 3.847687507327621 -2 -2 2
782 1 1 0.5897 7.581222090468131 14.22531857442185 5.27324050011396 -2 0 0
177 1 1 0.5897 5.872257457358606 14.71558131221945 3.6058916968203434 -3 -3 8
175 1 2 -1.1794 5.359415610653755 15.506600641136567 3.4399281282402767 -3 -3 8
106 1 2 -1.1794 5.309697339410088 11.88648839586844 1.0236486877989857 -1 0 2
421 1 2 -1.1794 6.322601574359799 16.652332791356095 0.9920124008061779 -4 -1 6
107 1 1 0.5897 5.930136119912999 12.579293219090735 0.7970724466376783 -1 0 2
67 1 2 -1.1794 7.834901293325889 16.16551052726087 9.776204147916708 4 -3 -3
216 1 1 0.5897 8.478887829177653 12.997602685576803 8.960402887767366 -1 2 3
556 1 2 -1.1794 5.2292704899196725 14.142915958177731 7.320323084642325 1 3 1
215 1 1 0.5897 7.315313105172687 12.686073613202739 9.877509878215935 -1 2 3
214 1 2 -1.1794 7.964682495305404 13.361392782638747 9.681182185348362 -1 2 3
68 1 1 0.5897 7.606468589032272 15.242498394144736 9.88637696142976 4 -3 -3
557 1 1 0.5897 5.164782348040212 14.565701318937494 8.176700734334318 1 3 1
12 1 1 0.5897 8.89953619877504 13.05542246316738 6.629894698998791 -5 1 3
405 1 1 0.5897 5.060721846106798 15.98104016507008 9.343080763843963 3 -2 -2
69 1 1 0.5897 7.778000192372498 16.315844142227768 8.832575024773679 4 -3 -3
783 1 1 0.5897 6.862991447258469 14.447565697010756 6.587291099471542 -2 0 0
327 1 1 0.5897 8.73297090791921 16.019469903721877 6.614472770516029 -1 -3 0
403 1 2 -1.1794 5.091726222225205 15.154001278023625 9.824023342325027 3 -2 -2
781 1 2 -1.1794 7.728588385890309 14.491043088880136 6.180956705654943 -2 0 0
558 1 1 0.5897 5.063927216089116 13.21673104257067 7.496879008227425 1 3 1
814 1 2 -1.1794 8.827007466585638 15.27755482770592 15.88828982222736 -3 8 -6
261 1 1 0.5897 5.709273637433487 15.744594004960447 14.557045106600945 -2 -4 8
721 1 2 -1.1794 6.091740582173942 14.002297747972849 12.082512071032303 4 3 0
255 1 1 0.5897 8.82271128216382 15.786928209298711 12.212810503428098 3 10 -8
34 1 2 -1.1794 5.381830982863992 15.095977138508221 16.27089288100011 -6 6 -2
723 1 1 0.5897 5.654324791171475 14.59484691619557 12.693914874967989 4 3 0
254 1 1 0.5897 7.7482048763594085 14.74110813255559 12.421742023015803 3 10 -8
454 1 2 -1.1794 5.062583536097033 11.82440319207941 13.958656115541213 4 -4 1
722 1 1 0.5897 5.777554575516322 14.27288548092006 11.219755319861866 4 3 0
383 1 1 0.5897 7.768597671906604 12.650653041610331 15.696381245378351 -12 -1 -4
259 1 2 -1.1794 5.308697490201626 16.125811864238578 13.775704962833144 -2 -4 8
382 1 2 -1.1794 6.8889477124421274 12.466181522196512 16.025692374633763 -12 -1 -4
253 1 2 -1.1794 8.647453212511584 14.96150373162626 12.664712034547932 3 10 -8
159 1 1 0.5897 8.120257850847258 12.500620410638456 12.335499668615988 -2 2 -1
456 1 1 0.5897 5.408100210975119 12.43880837984196 13.311059543698045 4 -4 1
455 1 1 0.5897 5.6349149658160185 11.929720135064281 14.718671378915685 4 -4 1
158 1 1 0.5897 9.02272447968208 12.130924644693904 13.493457413071784 -2 2 -1
794 1 1 0.5897 7.638594434580794 15.888431315821968 18.704044162246205 -9 3 3
343 1 2 -1.1794 6.581166034847662 13.250648217501597 18.610246946974627 -4 -1 -3
793 1 2 -1.1794 8.472785549119813 15.691833272430626 19.13034274406046 -9 3 3
638 1 1 0.5897 6.5732362867935965 13.855192690705273 20.270638751252974 -6 3 1
696 1 1 0.5897 5.4125853942639175 16.454545112620224 18.939247343988303 1 -3 -3
384 1 1 0.5897 6.957289703802007 12.58595957883113 16.972931103503583 -12 -1 -4
344 1 1 0.5897 7.527080381486443 13.180736252007057 18.481294070438526 -4 -1 -3
345 1 1 0.5897 6.28015061565642 12.34430688673071 18.67506486304401 -4 -1 -3
35 1 1 0.5897 5.629456432914535 15.591280871414712 17.05167858617279 -6 6 -2
694 1 2 -1.1794 6.082488633857082 16.814562524763517 18.35797412312352 1 -3 -3
637 1 2 -1.1794 6.831020779541417 14.083667707066626 21.163778198308563 -6 3 1
795 1 1 0.5897 9.048991048411374 16.41184470946657 18.873736557217192 -9 3 3
639 1 1 0.5897 6.72111582868569 15.03344418046322 21.209780784485304 -6 3 1
36 1 1 0.5897 5.931662093221962 14.31292807756435 16.299020662169852 -6 6 -2
445 1 2 -1.1794 8.456427454292285 18.552875679267387 4.63610521454586 4 -1 -2
446 1 1 0.5897 8.763266280380106 17.741017657324335 4.232335230547481 4 -1 -2
156 1 1 0.5897 8.172576720498846 20.079881263194235 1.5203328571906847 4 1 -4
341 1 1 0.5897 5.6078891623679965 20.044847234470076 1.6592540036626322 1 3 1
155 1 1 0.5897 7.172730159832602 21.03494255302215 2.1369268055604396 4 1 -4
154 1 2 -1.1794 8.103156606717771 20.809943508900123 2.1355217874372734 4 1 -4
447 1 1 0.5897 8.289512693116723 19.139624946926702 3.8984460219840638 5 -1 -2
97 1 2 -1.1794 6.165580849442214 17.288853664404655 5.515289340849029 1 -8 7
99 1 1 0.5897 7.015772745873377 17.68282543412292 5.319773060286471 1 -8 7
340 1 2 -1.1794 5.417435241288144 19.634580909403034 2.5028662035619407 1 3 1
342 1 1 0.5897 5.0820902238127905 20.347706609132214 3.0462534166804787 1 3 1
423 1 1 0.5897 7.054795182311866 17.222184558792833 0.7565975974022894 -4 -1 6
98 1 1 0.5897 5.91270186332471 16.848724299697324 4.703749295560939 1 -8 7
654 1 1 0.5897 6.5068663167902985 21.368701174574962 5.906714999741911 -1 -1 2
674 1 1 0.5897 5.25569571685855 20.64467567213985 8.054240096067938 -3 -3 0