LAMMPS data file via write_data, version 30 Jul 2021, timestep = 41500000

1920 atoms
2 atom types
1280 bonds
1 bond types
640 angles
1 angle types

0.014632661738312791 24.7153683382502 xlo xhi
0.01614190405276794 24.713859095924818 ylo yhi
0.08758405706125849 22.72241594294512 zlo zhi

Masses

1 1.008
2 15.999

Pair Coeffs # lj/cut/tip4p/long/omp

1 0 0
2 0.21084 3.1668

Bond Coeffs # harmonic/omp

1 450 0.9572

Angle Coeffs # harmonic/omp

1 55 104.52

Atoms # full

1 1 2 -1.1794 4.472577883123302 1.4477641517952786 4.259929359688738 0 0 0
2 1 1 0.5897 4.565523108543293 2.144603856773475 4.909581603499332 0 0 0
3 1 1 0.5897 5.258844039282062 1.5179976905746722 3.7184858492365844 0 0 0
4 2 2 -1.1794 3.0033018419100217 1.5445853929316604 1.9382133324476907 0 0 0
5 2 1 0.5897 3.39890253619894 1.6001421601987185 2.808102272957464 0 0 0
6 2 1 0.5897 2.0604490716847095 1.5367044308367221 2.1033936940096054 0 0 0
10 4 2 -1.1794 3.3969777849534686 4.534649826520925 3.679102990409845 0 0 0
11 4 1 0.5897 2.9239087282240646 5.292097599908642 4.023712408035767 0 0 0
12 4 1 0.5897 2.976950997619697 4.351392530177731 2.838693689354833 0 0 0
13 5 2 -1.1794 1.5022660761778242 3.0054497231386827 5.06251761724827 0 0 0
14 5 1 0.5897 2.2853227161425527 3.3311384796115795 4.618606743961734 0 0 0
15 5 1 0.5897 1.5843795558870863 2.0524753768071817 5.02567583740781 0 0 0
22 8 2 -1.1794 1.6849262978146806 4.453215308024888 1.5679580240519526 0 0 0
24 8 1 0.5897 1.672518810366802 5.233785310213096 1.014038457995209 0 0 0
23 8 1 0.5897 0.9318260551138617 4.559417150361274 2.149222429131945 0 0 0
20 7 1 0.5897 4.016425739219871 2.913836201261475 1.0625219848484035 0 0 0
9 3 1 0.5897 5.1363256130049555 4.523670892482325 3.6826934365363093 0 0 0
19 7 2 -1.1794 4.8688316919843695 3.235469170954878 0.76881255213679 0 0 0
21 7 1 0.5897 5.5037591672362725 2.7361688194769607 1.2824868815459947 0 0 0
27 9 1 0.5897 4.8387109087735185 5.057253483111356 0.78717141186642 0 0 0
28 10 2 -1.1794 1.541321288274752 0.20056176128502978 4.981644661280832 0 0 0
16 6 2 -1.1794 0.320568694579529 1.4308002704869511 2.0682048160157684 0 0 0
387 129 1 0.5897 4.218376857771302 0.2399468646995477 1.2621654758964918 0 1 0
7 3 2 -1.1794 6.092453137260701 4.47889026357045 3.6710988742662387 0 0 0
98 33 1 0.5897 0.26269812238365253 5.4749257158488716 3.9056278425219806 1 0 0
25 9 2 -1.1794 4.731568573293212 6.003141262990293 0.6867811382419727 0 0 0
867 289 1 0.5897 4.451720810989305 0.10162930000627036 5.60431025692356 0 1 0
99 33 1 0.5897 0.22018752247086487 3.966653590773616 4.02920357241247 1 0 0
47 16 1 0.5897 6.068740358057599 0.7905480095696983 1.8481994317682962 0 0 0
180 60 1 0.5897 8.260333959422187 6.016813054617958 4.714659033293002 0 0 0
8 3 1 0.5897 6.374843410298083 5.2510844883751115 4.161246414314575 0 0 0
58 20 2 -1.1794 7.540079151802531 0.1375770725701906 5.073807158553887 0 0 0
46 16 2 -1.1794 6.441720726982317 1.502336370775074 2.3683147027298306 0 0 0
31 11 2 -1.1794 10.92839329801723 1.4623713744838054 4.303293969424785 0 0 0
32 11 1 0.5897 10.907500076294951 2.2096424209995336 4.901139774638979 0 0 0
34 12 2 -1.1794 9.170165555532412 1.5523242803981834 2.0433744614854135 0 0 0
36 12 1 0.5897 9.626943616993522 2.2205339159597814 1.53236529379148 0 0 0
39 13 1 0.5897 11.138340944691354 4.640981292366339 3.7098994760000203 0 0 0
40 14 2 -1.1794 9.428903543432167 4.855533607127202 3.8217961706897494 0 0 0
41 14 1 0.5897 9.13049554547754 4.901184337579889 2.913413176680972 0 0 0
42 14 1 0.5897 9.021506910307451 4.0618046906568726 4.168633273022628 0 0 0
43 15 2 -1.1794 7.865779247066138 2.8673762632654594 4.921605836454417 0 0 0
45 15 1 0.5897 7.166439144575631 3.316711869975616 4.446928449423287 0 0 0
48 16 1 0.5897 7.388658180158906 1.391915421841234 2.2820857567618473 0 0 0
49 17 2 -1.1794 10.93499772163188 3.2769384899905485 0.8266710522367979 0 0 0
52 18 2 -1.1794 7.821833976899375 4.818214596968913 1.5250047330407461 0 0 0
53 18 1 0.5897 7.789063350737589 4.1488700973649895 0.8415008865151674 0 0 0
54 18 1 0.5897 7.042023739815216 4.6571017285018 2.0562769830249046 0 0 0
35 12 1 0.5897 9.606831595421571 1.5614330354414867 2.8951574954929846 0 0 0
33 11 1 0.5897 10.834467877911003 0.6977727677560952 4.8714815099212165 0 0 0
59 20 1 0.5897 7.7233169631849625 1.072126291705286 4.977354543165946 0 0 0
50 17 1 0.5897 11.655895589568225 2.8781417955174198 1.3140810136258625 0 0 0
56 19 1 0.5897 10.843097839167246 5.127878191219825 0.7207565759554859 0 0 0
37 13 2 -1.1794 12.08037914507546 4.551607943441606 3.5653506705438116 0 0 0
78 26 1 0.5897 12.211283462344715 1.6321844001148451 3.053807953992179 0 0 0
77 26 1 0.5897 12.112464918787117 0.8931335247192771 1.7362127303630421 0 0 0
416 139 1 0.5897 10.165056124757744 0.21855557040087215 1.1773116925938913 0 1 0
1619 540 1 0.5897 7.691722434470637 6.1374955524917905 0.18375339863257256 0 0 1
55 19 2 -1.1794 10.709350270211402 6.0733933771613104 0.7868950632599231 0 0 0
150 50 1 0.5897 1.5080079644054019 6.042846391077292 5.767251950817083 0 0 0
505 169 2 -1.1794 4.558984892579422 5.905704191037302 6.5430696229799095 0 0 0
579 193 1 0.5897 0.25765840287889724 5.440156125698325 9.672691299965836 1 0 0
494 165 1 0.5897 1.5907520664146286 1.9812395161598317 10.652621759771696 0 0 0
504 168 1 0.5897 1.4627125989505978 4.116278414544912 6.51803275022068 0 0 0
501 167 1 0.5897 4.636812789481605 4.133861578666255 6.275193551112194 0 0 0
499 167 2 -1.1794 4.793389423642379 3.191398224803567 6.334420431797757 0 0 0
483 161 1 0.5897 4.613055337232317 2.1586732581153942 10.506345975642411 0 0 0
492 164 1 0.5897 2.817427272367176 4.1216362892988005 9.815404205015193 0 0 0
493 165 2 -1.1794 1.641646530822729 2.922163566549359 10.484293836352261 0 0 0
491 164 1 0.5897 2.6698285979427414 4.866096933344574 8.505437428360041 0 0 0
485 162 1 0.5897 3.1667283162531126 1.6562838450285446 8.58088403242404 0 0 0
481 161 2 -1.1794 4.4713873124956915 1.4551575906901772 9.872886510348094 0 0 0
482 161 1 0.5897 5.229564205662842 1.5005259508299436 9.290289817806114 0 0 0
502 168 2 -1.1794 1.5841247568520302 4.880137819243082 7.0819898563970725 0 0 0
500 167 1 0.5897 4.0942381529662795 2.8671842358728665 6.902200738651115 0 0 0
490 164 2 -1.1794 3.2217359088297552 4.808618759761374 9.285433209768605 0 0 0
503 168 1 0.5897 0.8709039022135538 4.824661324094817 7.7180274567817655 0 0 0
498 166 1 0.5897 1.0550726708556972 1.7280473166255708 7.603353675108691 0 0 0
484 162 2 -1.1794 2.813632637789727 1.6687784026169883 7.691243749247199 0 0 0
489 163 1 0.5897 4.9616868997354215 4.881083676363474 9.308801504068445 0 0 0
486 162 1 0.5897 3.288820750141214 0.9745031159330618 7.234670496495693 0 0 0
527 176 1 0.5897 5.9482843932438545 0.7240457781602998 7.37128545365198 0 0 0
528 176 1 0.5897 6.154988641433944 2.223422933634397 7.337954360097743 0 0 0
487 163 2 -1.1794 5.918409167302006 4.849426430471143 9.30892316743199 0 0 0
629 210 1 0.5897 2.197817215637495 6.029340692650005 10.22476675505016 0 0 0
578 193 1 0.5897 0.32196420088978545 3.9292532927175055 9.601982680649854 1 0 0
496 166 2 -1.1794 0.10120319704118351 1.7632194975180684 7.675567767971835 0 0 0
508 170 2 -1.1794 1.5033471318164129 0.20962377552137376 10.588167152697704 0 0 0
495 165 1 0.5897 1.5638458610771295 3.3252114116811557 11.349038375218372 0 0 0
488 163 1 0.5897 6.133108787984083 4.083035714729236 9.840733714993222 0 0 0
1347 449 1 0.5897 4.720018702008675 0.29179301969036425 11.25475698766084 0 1 0
529 177 2 -1.1794 10.882021960209386 3.2598903577856944 6.434204234202848 0 0 0
512 171 1 0.5897 10.040896575531324 1.5236298736642084 9.35659250953638 0 0 0
513 171 1 0.5897 11.554347092440707 1.558793164486069 9.375118229116103 0 0 0
1010 337 1 0.5897 10.727687966695614 2.7837616135145598 11.2298666913585 0 0 0
44 15 1 0.5897 7.831450216942071 3.235439065444747 5.804575033293882 0 0 0
520 174 2 -1.1794 9.266948887619074 4.644052551343003 9.32970485171849 0 0 0
532 178 2 -1.1794 7.646145277947899 4.468073933340273 7.155441608362458 0 0 0
522 174 1 0.5897 8.78247331340295 4.644972564501797 8.504127231480888 0 0 0
524 175 1 0.5897 8.23116921149989 3.3111209623302686 10.225704566800422 0 0 0
511 171 2 -1.1794 10.790501310826713 1.5390190040958653 9.95170812734218 0 0 0
535 179 2 -1.1794 10.750542546429148 6.055754091547743 6.518419919267822 0 0 0
533 178 1 0.5897 7.495940959848749 5.193416109027411 6.549150042362852 0 0 0
534 178 1 0.5897 6.938268517756455 4.540013692876737 7.795785452629225 0 0 0
517 173 2 -1.1794 12.043977852218324 4.718865064188246 9.27127904952691 0 0 0
516 172 1 0.5897 9.486783314155824 0.8825133191534589 7.400445867098394 0 0 0
896 299 1 0.5897 11.428422637488898 0.07718350196342118 6.901869452266423 0 1 0
525 175 1 0.5897 7.5787529906639035 2.0055978056157997 10.62814487134173 0 0 0
521 174 1 0.5897 8.92010409564138 5.394410492762412 9.812338938287306 0 0 0
1377 459 1 0.5897 10.709269759114807 0.14316364678237442 11.220618781955814 0 1 0
526 176 2 -1.1794 6.409881738406688 1.4346175368548166 7.816588803225334 0 0 0
558 186 1 0.5897 12.199379534249369 2.0615163895899173 7.338472702806228 0 0 0
519 173 1 0.5897 11.093916606838013 4.6095687700110375 9.313181740913443 0 0 0
530 177 1 0.5897 10.18623881251588 2.943748323045685 7.01060979831543 0 0 0
515 172 1 0.5897 8.152982478068802 1.486356776263813 7.785720039248699 0 0 0
538 180 2 -1.1794 7.618471413242553 0.15186636180164806 10.534755489064407 0 0 0
523 175 2 -1.1794 7.471506991435456 2.9549901871859543 10.686559752786012 0 0 0
514 172 2 -1.1794 9.095364574201522 1.6520028066987822 7.813910781183317 0 0 0
531 177 1 0.5897 10.78806143699757 4.212424319897468 6.444686568349905 0 0 0
961 321 2 -1.1794 4.553910139817086 1.8246404158237561 15.572591618882832 0 0 0
962 321 1 0.5897 5.376075784784697 1.835084578592773 15.082443062626108 0 0 0
963 321 1 0.5897 4.577488187760035 1.0031196190706417 16.06332648558479 0 0 0
964 322 2 -1.1794 2.9885018907021266 1.557439526759969 13.387597583880769 0 0 0
965 322 1 0.5897 3.401025602649518 1.7289673556915033 14.234176367392651 0 0 0
966 322 1 0.5897 2.0500112833119797 1.6411167157086457 13.556574308127036 0 0 0
970 324 2 -1.1794 3.2351165161578184 4.793280589305727 15.017667036304383 0 0 0
971 324 1 0.5897 4.183943166077533 4.671159647197291 15.051351246531288 0 0 0
972 324 1 0.5897 2.877552220022535 4.013658897034771 15.44265020766671 0 0 0
973 325 2 -1.1794 1.6015294802724866 2.946638330066937 16.298887345811032 0 0 0
975 325 1 0.5897 0.887056551333004 3.424870274513629 15.878028554117746 0 0 0
982 328 2 -1.1794 1.503854086110546 4.576922082129279 12.757900182254778 0 0 0
983 328 1 0.5897 1.474809178167866 5.339713678599399 12.180340599700203 0 0 0
984 328 1 0.5897 2.1937208407218924 4.7803014240528645 13.389583227346757 0 0 0
980 327 1 0.5897 3.8869224798692374 3.030653231415103 12.44597346175691 0 0 0
981 327 1 0.5897 5.398695964250422 3.0709122601542793 12.375031701597102 0 0 0
979 327 2 -1.1794 4.611733365704199 3.424678865224594 11.96049065109236 0 0 0
990 330 1 0.5897 1.6181644548677525 1.1370780443957293 16.30847722867197 0 0 0
986 329 1 0.5897 4.63521154844975 5.122544333748079 12.032258161840787 0 0 0
1346 449 1 0.5897 4.049149213153688 0.32670115478617834 12.611504973057412 0 1 0
967 323 2 -1.1794 6.043472913319225 4.697031012885275 14.932425517859361 0 0 0
1109 370 1 0.5897 0.7897645205550745 6.018972400314281 15.973180487084267 0 0 0
1008 336 1 0.5897 5.996155050445616 0.9132595704510659 13.02107806693103 0 0 0
1110 370 1 0.5897 2.3035020928115473 6.002612987632666 15.952080313980394 0 0 0
988 330 2 -1.1794 1.6761359265949136 0.18849796881725722 16.19403519188677 0 0 0
985 329 2 -1.1794 4.765394666413422 6.068881945165994 12.093567215023352 0 0 0
1058 353 1 0.5897 0.2583766409010442 4.773355533909726 14.117945663578823 1 0 0
1460 487 1 0.5897 4.573138465184211 2.876306272628837 17.013852665213193 0 0 0
976 326 2 -1.1794 0.17942397160108214 1.6865729554997604 13.564156502906899 0 0 0
1006 336 2 -1.1794 6.385140479098081 1.659241052012662 13.477672109126862 0 0 0
968 323 1 0.5897 6.461137486393084 5.401147818647512 15.428463517492865 0 0 0
969 323 1 0.5897 6.447029951382534 3.895963214957875 15.266649627576252 0 0 0
1017 339 1 0.5897 10.78744305136963 5.051146020737875 12.013549916435528 0 0 0
991 331 2 -1.1794 10.583402143638159 1.524959742196963 15.590026979054214 0 0 0
992 331 1 0.5897 11.346986323979745 1.4394252874545845 15.01912104399339 0 0 0
993 331 1 0.5897 10.661507020000602 0.7964635308446946 16.206033682037486 0 0 0
994 332 2 -1.1794 9.090291188347152 1.3835793202265285 13.356889713332219 0 0 0
995 332 1 0.5897 9.588863645057305 2.0619908629909935 12.901404479233532 0 0 0
998 333 1 0.5897 11.24978270988639 4.544868772202447 14.911238611103615 0 0 0
1000 334 2 -1.1794 9.457555379313838 4.654534527410184 14.91672379867431 0 0 0
1001 334 1 0.5897 9.03345682019184 3.9044223667386384 15.33355662815001 0 0 0
1002 334 1 0.5897 9.00899973857669 4.747313511843631 14.076197462333164 0 0 0
1003 335 2 -1.1794 7.711427207614834 2.877084132078752 16.190198653293713 0 0 0
1004 335 1 0.5897 7.819852692046343 1.9285167070185723 16.258933573650467 0 0 0
1007 336 1 0.5897 7.324643808658628 1.4758088081910437 13.480145404959762 0 0 0
1012 338 2 -1.1794 7.744360536630963 4.803264163133511 12.748192808803168 0 0 0
1014 338 1 0.5897 7.648119973543975 4.027784357376549 12.195346727691526 0 0 0
1011 337 1 0.5897 11.42096258106413 2.8762953192850915 12.5725723063485 0 0 0
1009 337 2 -1.1794 10.72574358266434 3.276694248963017 12.050412149000366 0 0 0
996 332 1 0.5897 9.411531397502637 1.413943734211751 14.258096602964663 0 0 0
1013 338 1 0.5897 7.058567470497865 4.712896214507753 13.409876291033191 0 0 0
997 333 2 -1.1794 12.186007971163127 4.425147195209196 15.0708260298129 0 0 0
1139 380 1 0.5897 8.446397735419307 5.852759345157696 15.944832821032026 0 0 0
1038 346 1 0.5897 12.073069626606092 0.7779259514332882 12.921881409987419 0 0 0
1376 459 1 0.5897 10.059070530905238 0.08719407010520051 12.586694576761909 0 1 0
1015 339 2 -1.1794 10.851363854513835 6.00589712004637 12.038544915677825 0 0 0
1490 497 1 0.5897 10.9648947887266 2.8298157426065744 16.93876078478425 0 0 0
1018 340 2 -1.1794 7.789689313680578 0.03701940947168105 16.393291781105553 0 0 0
660 220 1 0.5897 7.72718794041319 6.007692316392608 11.458951054653046 0 0 0
974 325 1 0.5897 1.661876467469222 3.3274418078267627 17.17503322842279 0 0 0
1468 490 2 -1.1794 1.6759184605966555 0.1709300924229334 21.853139927872483 0 0 0
1539 513 1 0.5897 0.3063515223173018 5.4690112604370915 21.15922148831637 1 0 0
1456 486 2 -1.1794 0.3262329208662315 1.5603205321539304 19.209476449823278 0 0 0
1454 485 1 0.5897 2.3110214444766584 3.4002107086896487 21.41202236252 0 0 0
1464 488 1 0.5897 0.9970559242511375 4.70960110876786 19.089904071828066 0 0 0
1443 481 1 0.5897 4.926537911647092 2.1670545745058347 21.766908168517645 0 0 0
1450 484 2 -1.1794 3.2906647021336033 4.7579978464747255 20.71012580019559 0 0 0
1469 490 1 0.5897 1.739611788442286 1.1093051157508536 22.0310683694469 0 0 0
1442 481 1 0.5897 4.257960289900326 1.48558781942503 20.59190000925905 0 0 0
1453 485 2 -1.1794 1.6063938916328977 2.9225628017882808 21.849800390389014 0 0 0
1444 482 2 -1.1794 3.12184756265442 1.4122111236888646 19.24254776979165 0 0 0
1463 488 1 0.5897 1.6180103424198493 5.220206294743099 17.807036391633908 0 0 0
1452 484 1 0.5897 2.950451982306488 4.731370257545967 19.815789301604497 0 0 0
1441 481 2 -1.1794 5.0062857803587235 1.4117975461150756 21.184243770018206 0 0 0
1451 484 1 0.5897 4.239879662929321 4.688143480398759 20.60800046959801 0 0 0
1445 482 1 0.5897 2.170259383032775 1.503753327233574 19.291720419596317 0 0 0
1446 482 1 0.5897 3.4090916696729403 2.165594626233372 18.72662366345874 0 0 0
1461 487 1 0.5897 5.333589547334949 2.9418456175509977 18.321320677818164 0 0 0
1459 487 2 -1.1794 4.5686682306500686 3.3010400566628486 17.871677986973204 0 0 0
1462 488 2 -1.1794 1.6956080650702783 4.5261533545207335 18.46167150172058 0 0 0
1466 489 1 0.5897 4.519070535732887 5.005296778003458 17.92918814994794 0 0 0
1465 489 2 -1.1794 4.463959592524798 5.959877139555861 17.884477155066897 0 0 0
1538 513 1 0.5897 0.39196017154491386 3.9669623942338452 20.990447957507833 1 0 0
1488 496 1 0.5897 6.039886906367777 0.969031069430515 18.418850661748216 0 0 0
1826 609 1 0.5897 4.004467114414433 0.1455605774799073 18.177623162207965 0 1 0
1447 483 2 -1.1794 6.063138753222527 4.642255175485733 20.58461439241696 0 0 0
1590 530 1 0.5897 2.246949032363396 6.020054045979663 21.727665503808012 0 0 0
386 129 1 0.5897 4.933422817076333 0.19944191475043446 22.56316023539641 0 1 -1
1455 485 1 0.5897 1.5145502946660137 3.35515646976513 22.698747548729877 0 0 0
1485 495 1 0.5897 7.864842975600434 2.098930560372694 21.950731209004324 0 0 0
1005 335 1 0.5897 7.732349120756408 3.1872536823924267 17.09554060528137 0 0 0
1487 496 1 0.5897 6.194161294033292 1.481243085857919 19.835136684024313 0 0 0
1493 498 1 0.5897 7.814975159096323 5.085519845516815 17.878628158344426 0 0 0
1484 495 1 0.5897 8.584097292924104 3.334787187357181 21.453402911245874 0 0 0
1472 491 1 0.5897 10.952296751538503 0.8648443594111169 21.917144925346378 0 0 0
1491 497 1 0.5897 10.219734171896556 2.8256278553166676 18.256628171425504 0 0 0
1492 498 2 -1.1794 7.883727075976242 4.355484174108078 18.49392867458611 0 0 0
1486 496 2 -1.1794 6.528794977200997 1.6007418299642833 18.946296769498943 0 0 0
1498 500 2 -1.1794 7.802052110159389 0.2913087361098866 22.079040542137058 0 0 0
1856 619 1 0.5897 11.556100596639725 0.1277272143412408 18.255986950585125 0 1 0
1489 497 2 -1.1794 10.93885128579161 3.256979970390558 17.794995069020445 0 0 0
1480 494 2 -1.1794 9.482297494793798 4.8288275781565355 20.657407187718626 0 0 0
1496 499 1 0.5897 10.942150978372865 5.099987300150652 17.69892447628854 0 0 0
1474 492 2 -1.1794 9.234201305336256 1.6048593333700492 19.268158109531207 0 0 0
1477 493 2 -1.1794 12.209263358504446 4.635366347120212 20.59732453955659 0 0 0
1475 492 1 0.5897 8.293375987560413 1.578930321419068 19.09353495820504 0 0 0
1518 506 1 0.5897 12.140633516070448 1.4914609575638362 19.94843830623966 0 0 0
1494 498 1 0.5897 7.138549024172704 4.468067354283542 19.08413269269022 0 0 0
1481 494 1 0.5897 10.428597755318453 4.740427857570172 20.543301965003387 0 0 0
1473 491 1 0.5897 10.30902550262271 1.487919366758702 20.696481584364562 0 0 0
1483 495 2 -1.1794 7.797883789520293 3.0533474948184693 21.921341068703953 0 0 0
1448 483 1 0.5897 6.398591183249847 5.437475557130189 20.99858231900859 0 0 0
1471 491 2 -1.1794 11.023702950764315 1.6106451908998936 21.321365586461006 0 0 0
1476 492 1 0.5897 9.598971299486177 0.9085648772536746 18.72190266667087 0 0 0
1517 506 1 0.5897 12.14995692136365 2.1437913342482013 18.582275546017144 0 0 0
1449 483 1 0.5897 6.474880947356615 3.9271517541389342 21.06976775514741 0 0 0
1620 540 1 0.5897 8.426678288308493 5.970199013368818 21.505609893737258 0 0 0
1482 494 1 0.5897 9.118457561251352 4.6529597432688785 19.78966130124411 0 0 0
1495 499 2 -1.1794 10.849811451718422 6.03427390446469 17.885591299162435 0 0 0
51 17 1 0.5897 10.932916672124339 2.8207400203728303 22.619980390051655 0 0 -1
148 50 2 -1.1794 1.5469780357551988 6.406826739957567 4.882783614749228 0 0 0
121 41 2 -1.1794 4.501357695629493 7.6069887755974825 4.274794399281501 0 0 0
122 41 1 0.5897 3.804781648565278 7.61351119560604 3.618254790751728 0 0 0
123 41 1 0.5897 5.311229477752603 7.64425252036105 3.765845552591761 0 0 0
124 42 2 -1.1794 2.94322946085907 7.791744430400221 2.0331092000706072 0 0 0
125 42 1 0.5897 3.298558912703303 7.046805893345912 1.5482553676459143 0 0 0
126 42 1 0.5897 3.528152874980165 8.518549480725438 1.8188592818235934 0 0 0
129 43 1 0.5897 4.991657781882762 10.857994542313635 3.5514268356408865 0 0 0
130 44 2 -1.1794 3.172816382718732 10.781972829713197 3.5955661746804344 0 0 0
132 44 1 0.5897 2.7421680324402598 10.033071963736255 4.0078365191297 0 0 0
133 45 2 -1.1794 1.441905787352802 9.124403163080837 4.94610408527594 0 0 0
135 45 1 0.5897 0.8178126731097469 9.646710236005164 4.442124411456661 0 0 0
137 46 1 0.5897 1.0686212872508603 7.806566247468481 2.144245316781348 0 0 0
139 47 2 -1.1794 4.75566587502819 9.587364400403459 0.970731506337076 0 0 0
142 48 2 -1.1794 1.4783358290623827 10.778890989147289 1.391001649762873 0 0 0
143 48 1 0.5897 2.2534069093059683 10.894699633899643 1.940693244837802 0 0 0
144 48 1 0.5897 1.5402706741193326 11.476726750130302 0.7387271517526468 0 0 0
149 50 1 0.5897 1.5008055385266688 7.354300483276069 5.01093253295517 0 0 0
131 44 1 0.5897 2.751795665554877 11.546835320334225 3.987998497661152 0 0 0
140 47 1 0.5897 4.751369832827146 10.532491222672254 0.8191494605383406 0 0 0
621 207 1 0.5897 4.388067359167416 8.848375361554774 5.502264693281962 0 0 0
136 46 2 -1.1794 0.11934398072862011 7.856509181479181 2.256923764529961 0 0 0
218 73 1 0.5897 0.1496219007814744 10.886794011210895 2.7325586358859173 1 0 0
270 90 1 0.5897 0.8649774431415425 12.250045775867127 4.589363962408876 0 0 0
127 43 2 -1.1794 5.943468418767739 10.7561459224451 3.5529095548834784 0 0 0
507 169 1 0.5897 4.576229007018554 6.412377907810961 5.731118481515983 0 0 0
168 56 1 0.5897 6.0710248667642315 8.496786865995604 1.840705535711883 0 0 0
26 9 1 0.5897 5.395714263272665 6.382328202868449 1.2624768862329063 0 0 0
145 49 2 -1.1794 4.657667147715766 12.332530833429036 0.8402882381603799 0 0 0
1574 525 1 0.5897 1.4644111869172374 9.475079858635914 0.10576579648314545 0 0 1
141 47 1 0.5897 4.724089386090975 9.203609675263468 0.09436386565331306 0 0 0
128 43 1 0.5897 6.266492681563808 11.525995035735349 4.021163818924412 0 0 0
166 56 2 -1.1794 6.384404849148099 7.694752317919138 2.2588015194768576 0 0 0
157 53 2 -1.1794 12.09889551993107 10.866120968360905 3.697101876339152 0 0 0
178 60 2 -1.1794 7.4911824496099255 6.34561143908816 5.1800642095290685 0 0 0
151 51 2 -1.1794 11.016386415167094 7.814737659907031 4.3360524315413524 0 0 0
152 51 1 0.5897 10.333096530796572 7.7805296700584154 3.6665384985291776 0 0 0
153 51 1 0.5897 10.771508473792274 7.134878252362331 4.963827367715264 0 0 0
154 52 2 -1.1794 9.160346542762708 7.828638993884994 2.230497447544884 0 0 0
155 52 1 0.5897 9.595184504934014 8.561904274365666 1.7951610763867816 0 0 0
156 52 1 0.5897 9.503480357664111 7.050765372604016 1.79067310923342 0 0 0
158 53 1 0.5897 11.144759193342857 10.850312786709015 3.6216432318160394 0 0 0
160 54 2 -1.1794 9.326314106172154 10.840552818567383 3.701985801180036 0 0 0
161 54 1 0.5897 8.897007932066359 10.907498515262423 2.849043749763548 0 0 0
162 54 1 0.5897 8.813504239619853 10.187430843632525 4.178159391951012 0 0 0
163 55 2 -1.1794 7.619360703316254 9.042284434909801 4.972191981870698 0 0 0
164 55 1 0.5897 6.950693795828492 9.4884787046768 4.452487710644915 0 0 0
167 56 1 0.5897 7.336749176337412 7.7898032504194505 2.2768130289764357 0 0 0
169 57 2 -1.1794 10.882030663943512 9.458872321047629 0.950273925165911 0 0 0
172 58 2 -1.1794 7.761271819013456 11.032977659916176 1.525720840995112 0 0 0
173 58 1 0.5897 7.794741566683258 10.318114469646149 0.8900139938475214 0 0 0
174 58 1 0.5897 6.983946846875823 10.848913634424452 2.053162258366995 0 0 0
179 60 1 0.5897 7.560903896170394 7.298127826783576 5.115945310192637 0 0 0
171 57 1 0.5897 10.883077652034757 10.411941236804012 0.8612946569183363 0 0 0
300 100 1 0.5897 8.32879308624235 12.178662312670037 4.526229400339004 0 0 0
57 19 1 0.5897 11.479033648056404 6.392247358046993 1.2583032198945892 0 0 0
197 66 1 0.5897 12.04724225885382 8.354131743905654 1.6361590483745507 0 0 0
175 59 2 -1.1794 10.82737614485137 12.234540313521423 0.7843815246227774 0 0 0
198 66 1 0.5897 12.19828235343834 7.655460486681083 2.9707271203990584 0 0 0
650 217 1 0.5897 10.925262540864601 9.014872678926375 5.682028953167126 0 0 0
1739 580 1 0.5897 7.672466056555421 12.224069108026637 0.1557939696309797 0 0 1
134 45 1 0.5897 1.5523063453497983 9.606985699626621 5.765376265242664 0 0 0
628 210 2 -1.1794 1.4768140516383734 6.412390713976814 10.724494601128878 0 0 0
616 206 2 -1.1794 0.07597044536565918 7.76816069095954 7.816192187861593 0 0 0
648 216 1 0.5897 5.7137674362312785 7.054695654389781 7.335050886296482 0 0 0
611 204 1 0.5897 4.148242456642158 10.946427062622936 9.093673120543272 0 0 0
612 204 1 0.5897 2.8308169193798953 11.559896948669463 9.518085393795184 0 0 0
624 208 1 0.5897 1.4260350039884337 11.553422539531926 6.513120678897151 0 0 0
614 205 1 0.5897 2.31656513038928 9.559831459043206 10.10266504058291 0 0 0
647 216 1 0.5897 5.748310020495949 7.800778873305484 8.651935419281852 0 0 0
604 202 2 -1.1794 2.843816912644303 7.751103711833108 8.01361344548798 0 0 0
613 205 2 -1.1794 1.6083140265603826 9.179144498339374 10.62204719676525 0 0 0
622 208 2 -1.1794 1.3066499654723804 10.793131816086547 7.082309380011466 0 0 0
619 207 2 -1.1794 4.425586292968236 9.338602616452789 6.323574555476031 0 0 0
603 201 1 0.5897 3.9067216061419945 7.6461972760932015 9.483592872554157 0 0 0
698 233 1 0.5897 0.09170507895609087 11.425019646004571 9.683709535569049 1 0 0
610 204 2 -1.1794 3.2010268911131727 10.821861546180127 9.033809465624532 0 0 0
630 210 1 0.5897 1.6165336304830547 7.35725625909106 10.661505397302644 0 0 0
620 207 1 0.5897 5.182523337956756 8.976926340185631 6.784594904403583 0 0 0
601 201 2 -1.1794 4.653723276316562 7.7837899553369585 10.066141664532221 0 0 0
606 202 1 0.5897 1.894851656046886 7.779551658012029 7.891246463053817 0 0 0
605 202 1 0.5897 3.1758685046315374 8.476514151200016 7.484650637976215 0 0 0
602 201 1 0.5897 4.644621223600791 7.026165702009673 10.651114486866417 0 0 0
626 209 1 0.5897 4.633842080412447 11.180468644452752 6.30142103765339 0 0 0
699 233 1 0.5897 0.11690364636086463 10.588299359328042 8.422251498379879 1 0 0
625 209 2 -1.1794 4.635299044252555 12.136741324150453 6.258989807224968 0 0 0
623 208 1 0.5897 2.0452422294946406 10.830029296705144 7.69011495289451 0 0 0
506 169 1 0.5897 3.7776631513047843 6.214304015508404 7.0019903409177795 0 0 0
615 205 1 0.5897 0.8123829276030418 9.580607003194517 10.273297950711974 0 0 0
607 203 2 -1.1794 5.962201496559951 10.911130836255364 9.263895479329143 0 0 0
1101 367 1 0.5897 4.630510998753792 9.081108479862452 11.376969337374128 0 0 0
678 226 1 0.5897 12.225444766678873 8.467483976804012 7.455477573203343 0 0 0
1130 377 1 0.5897 10.637429185400899 9.009234579306206 11.324458857159973 0 0 0
632 211 1 0.5897 11.311250115269052 7.638024670456989 9.318438181502911 0 0 0
165 55 1 0.5897 7.689304575251138 9.563677764219548 5.771902423813277 0 0 0
651 217 1 0.5897 10.14926672959051 8.923222036654888 6.978750272482334 0 0 0
641 214 1 0.5897 10.400455342603491 10.808920632664504 9.28418371517277 0 0 0
645 215 1 0.5897 7.606027487063303 8.292174090030022 10.680423227721565 0 0 0
655 219 2 -1.1794 10.854165346420931 12.174218073486852 6.414678486725118 0 0 0
642 214 1 0.5897 9.089020648295698 10.134371616207957 9.62653317228526 0 0 0
652 218 2 -1.1794 7.67122337118599 10.794725678581367 7.132500834042124 0 0 0
779 260 1 0.5897 8.38685588806609 12.101420500167064 10.086636626952325 0 0 0
537 179 1 0.5897 9.989417937686904 6.454270071524045 6.94052956602998 0 0 0
635 212 1 0.5897 9.257032386057789 7.651494597067199 8.643746968843642 0 0 0
634 212 2 -1.1794 8.955903160728198 7.692785427263592 7.736053674458428 0 0 0
658 220 2 -1.1794 7.702722475005956 6.563841620042331 10.68024878554598 0 0 0
649 217 2 -1.1794 10.813607593835055 9.44578965199254 6.52945288857917 0 0 0
646 216 2 -1.1794 6.199510340616071 7.728483122277174 7.810813138291477 0 0 0
640 214 2 -1.1794 9.452337213937982 10.910589340758653 9.200198934582412 0 0 0
633 211 1 0.5897 10.759785518074532 6.982919448225993 10.566941266342145 0 0 0
631 211 2 -1.1794 10.603730411141443 7.7061416396219755 9.959594626983865 0 0 0
636 212 1 0.5897 8.000870036893826 7.703198313423685 7.800259116690512 0 0 0
637 213 2 -1.1794 12.153011927319307 10.75580415928344 9.245189033750131 0 0 0
608 203 1 0.5897 6.391997008797838 11.701980308794509 9.589638592200556 0 0 0
653 218 1 0.5897 6.976531264521644 10.837147379145813 7.789699740931203 0 0 0
657 219 1 0.5897 10.916368317995445 11.222741816036278 6.498850155985477 0 0 0
643 215 2 -1.1794 7.702208757948115 9.241883609960398 10.60927654340391 0 0 0
609 203 1 0.5897 6.416005575438698 10.192604929638671 9.704419324194081 0 0 0
536 179 1 0.5897 11.503222053258904 6.447031449951367 6.961903239454804 0 0 0
299 100 1 0.5897 7.671166734612278 12.143973050096356 5.8894512398577445 0 0 0
654 218 1 0.5897 8.482415986365936 10.864705039221187 7.635871154191251 0 0 0
659 220 1 0.5897 6.993250344623348 6.202076112509134 10.149141088914583 0 0 0
780 260 1 0.5897 7.637925731524058 12.059412885542383 11.401700310114835 0 0 0
1081 361 2 -1.1794 4.8277550802122455 7.613535824395338 15.741216592003669 0 0 0
1082 361 1 0.5897 4.898292700100272 8.430135253319728 16.235646262692775 0 0 0
1083 361 1 0.5897 4.702592946818843 6.938916351620045 16.408673463722565 0 0 0
1084 362 2 -1.1794 3.0106773561499613 7.694670533085212 13.614265067758879 0 0 0
1085 362 1 0.5897 3.5965584538876176 7.636846990669839 14.369049935831214 0 0 0
1086 362 1 0.5897 3.3607027081995775 8.417625792303184 13.09359805235568 0 0 0
1089 363 1 0.5897 5.0111339824684356 10.667493293373722 14.89444576415116 0 0 0
1090 364 2 -1.1794 3.2152371737259724 10.862237740938246 14.891869535993315 0 0 0
1091 364 1 0.5897 2.9382571618395774 11.651406673091023 15.357449685493632 0 0 0
1092 364 1 0.5897 2.780411120272258 10.145737653907293 15.354289709654719 0 0 0
1095 365 1 0.5897 0.8791073292777548 9.403853299446748 15.959857710619863 0 0 0
1097 366 1 0.5897 1.2196028646125203 7.827925771395093 13.598518782248538 0 0 0
1099 367 2 -1.1794 4.610614893487992 9.51480196910411 12.230079522759612 0 0 0
1102 368 2 -1.1794 1.5186591958749467 10.918045519816067 12.743902122562583 0 0 0