LAMMPS (30 Jul 2021)
  using 1 OpenMP thread(s) per MPI task
package omp 0
using multi-threaded neighbor list subroutines
echo both

include		in.partitions
variable        pid world 0
include		in.temp
variable        temperature equal 266.02
variable	tempDamp equal 100.0
include		in.pressure
variable        pressure equal 9625.0
variable        pressureDamp equal 1000.0 # This is 1 ps
include		in.seed
variable        seed world 745823

units		real
atom_style	full
read_restart    restart.lmp.${pid}
read_restart    restart.lmp.0
Reading restart file ...
  restart file = 30 Jul 2021, LAMMPS = 30 Jul 2021
  restoring atom style full from restart
  triclinic box = (-3.1554392 -0.15517862 -0.054702285) to (14.765438 22.735178 19.284700) with tilt (0.064374671 -6.0896906 0.12940810)
  4 by 4 by 4 MPI processor grid
  restoring pair style lj/cut/tip4p/long/omp from restart
  restoring bond style harmonic/omp from restart
  restoring angle style harmonic/omp from restart
  1008 atoms
  672 bonds
  336 angles
Finding 1-2 1-3 1-4 neighbors ...
  special bond factors lj:    0        0        0       
  special bond factors coul:  0        0        0       
     2 = max # of 1-2 neighbors
     1 = max # of 1-3 neighbors
     1 = max # of 1-4 neighbors
     2 = max # of special neighbors
  special bonds CPU = 0.024 seconds
  read_restart CPU = 0.211 seconds

include 	in.setup
variable	out_freq equal 1000
variable	out_freq2 equal 10000
variable	out_freq3 equal 1000

timestep	2.0

neigh_modify    delay 7 every 1

include		in.tip4p
# This is TIP4P/Ice

# create groups ###
group ox type 2
336 atoms in group ox
group hy type 1
672 atoms in group hy

# set charges - beside manually ###
set group ox charge -1.1794
Setting atom values ...
  336 settings made for charge
set group hy charge 0.5897
Setting atom values ...
  672 settings made for charge

# ### TIP3P Potential Parameters ###
pair_style lj/cut/tip4p/long/omp 2 1 1 1 0.1577 8.5
pair_coeff 1 1*2 0.000 0.000
pair_coeff 2 2 0.21084 3.1668
bond_style  harmonic
bond_coeff  1 450 0.9572
angle_style harmonic
angle_coeff 1 55 104.52
kspace_style pppm/tip4p/omp 1.0e-5
pair_modify tail yes

thermo          ${out_freq}
thermo          1000
thermo_style    custom step temp pe etotal epair emol press lx ly lz vol pxx pyy pzz pxy pxz pyz enthalpy

restart 	${out_freq3} restart.lmp.${pid} restart2.lmp.${pid}
restart 	1000 restart.lmp.${pid} restart2.lmp.${pid}
restart 	1000 restart.lmp.0 restart2.lmp.${pid}
restart 	1000 restart.lmp.0 restart2.lmp.0


include         in.dump
dump            myDump all atom ${out_freq2} dump.water.${pid}
dump            myDump all atom 10000 dump.water.${pid}
dump            myDump all atom 10000 dump.water.0
dump            myDump2 all dcd ${out_freq2} dump.dcd
dump            myDump2 all dcd 10000 dump.dcd
dump_modify     myDump append yes
dump_modify     myDump2 append yes


variable natoms 	equal  "count(all)"                        # NUMBER ATOMS
variable H      	equal  "enthalpy/v_natoms"                 # ENTHALPY-per-atom
variable Vol      	equal  "vol/v_natoms"                 # volume-per-atom
fix AVG all 		ave/time ${out_freq} 1 ${out_freq} v_Vol v_H file vol_enthalpy.dat
fix AVG all 		ave/time 1000 1 ${out_freq} v_Vol v_H file vol_enthalpy.dat
fix AVG all 		ave/time 1000 1 1000 v_Vol v_H file vol_enthalpy.dat



fix 		1 all shake 1e-6 200 0 b 1 a 1
       0 = # of size 2 clusters
       0 = # of size 3 clusters
       0 = # of size 4 clusters
     336 = # of frozen angles
  find clusters CPU = 1.142 seconds
fix             2 all nph tri ${pressure} ${pressure} ${pressureDamp}
fix             2 all nph tri 9625 ${pressure} ${pressureDamp}
fix             2 all nph tri 9625 9625 ${pressureDamp}
fix             2 all nph tri 9625 9625 1000
fix             3 all temp/csvr ${temperature} ${temperature} ${tempDamp} ${seed}
fix             3 all temp/csvr 266.02 ${temperature} ${tempDamp} ${seed}
fix             3 all temp/csvr 266.02 266.02 ${tempDamp} ${seed}
fix             3 all temp/csvr 266.02 266.02 100 ${seed}
fix             3 all temp/csvr 266.02 266.02 100 745823


run             250000
PPPM initialization ...
  extracting TIP4P info from pair style
  using 12-bit tables for long-range coulomb (../kspace.cpp:340)
  G vector (1/distance) = 0.37863674
  grid = 24 27 32
  stencil order = 5
  estimated absolute RMS force accuracy = 0.0025347417
  estimated relative force accuracy = 7.6332993e-06
  using double precision FFTW3
  3d grid and FFT values/proc = 3825 384
Last active /omp style is kspace_style pppm/tip4p/omp
Neighbor list info ...
  update every 1 steps, delay 7 steps, check yes
  max neighbors/atom: 2000, page size: 100000
  master list distance cutoff = 10.8154
  ghost atom cutoff = 10.8154
  binsize = 5.4077, bins = 5 5 4
  1 neighbor lists, perpetual/occasional/extra = 1 0 0
  (1) pair lj/cut/tip4p/long/omp, perpetual
      attributes: half, newton on, omp
      pair build: half/bin/newton/tri/omp
      stencil: half/bin/3d/tri
      bin: standard
Per MPI rank memory allocation (min/avg/max) = 9.313 | 9.326 | 9.339 Mbytes
Step Temp PotEng TotEng E_pair E_mol Press Lx Ly Lz Volume Pxx Pyy Pzz Pxy Pxz Pyz Enthalpy 
22500000    271.24748   -4790.6401   -4248.1116   -4790.6401            0    8705.9317    17.920877    22.890356    19.339403    7933.3182    8418.7669    8880.5321    8818.4962    -1042.395   -145.20394   -1838.7742   -3240.8413 
22501000     259.9394   -4818.6861   -4298.7751   -4818.6861            0    6575.3565    18.031161    22.732658    19.516084     7999.569    7339.4155    7287.2407    5099.4134   -62.441006   -1202.6697   -53.449545   -3531.6578 
22502000    264.01532   -4810.5526   -4282.4893   -4810.5526            0    7169.4456    18.070624    22.671833    19.439299    7964.1673     9203.932    7355.9646    4948.4403   -390.56496    1317.7133     78.04123   -3449.7638 
22503000    268.04722   -4825.6159   -4289.4883   -4825.6159            0    9799.5925    18.068354    22.668452    19.350673      7925.68    7953.7609    11628.842     9816.175     478.6645    1161.3103     -300.276   -3156.7739 
22504000    253.32541   -4830.0724   -4323.3903   -4830.0724            0    9067.6082    17.890628    22.896339    19.274298    7895.3281    11582.846    8160.0231    7459.9558    658.45689    71.743475   -46.527452   -3279.2981 
22505000     254.3005   -4784.1718   -4275.5394   -4784.1718            0     11131.28    17.782949    23.112996    19.131382    7863.3276    12556.688    10277.135    10560.015   -397.82009   -131.02915   -36.511645   -2999.0202 
22506000     274.5451   -4812.1981    -4263.074   -4812.1981            0    10986.636    17.793445    22.996878    19.284339    7891.0297    10806.329    10977.501    11176.076   -419.34635    692.38306   -933.65977   -2998.7037 
22507000    264.32555   -4809.8092   -4281.1254   -4809.8092            0    10712.202    17.832187    23.009661    19.228039     7889.506    10506.226    10698.633    10931.746    663.85837    876.43508    84.366433   -3048.5757 
22508000    272.00513   -4808.0314   -4263.9875   -4808.0314            0    9027.0865    17.935033    23.016618    19.166861    7912.1531    8304.6742    9219.1053      9557.48    1308.2812    959.63697    21.027535   -3222.3462 
22509000    282.51679   -4798.8018   -4233.7333   -4798.8018            0     10568.24    17.753615    22.940391    19.278931    7851.8242    11337.824    9301.5725    11065.324    -80.90764   -1479.0739   -180.17647   -3023.5556 
22510000     267.1059   -4802.0061   -4267.7613   -4802.0061            0    9121.6713    17.939833    22.986426     19.23175    7930.6474    9590.9754    8441.7374    9332.3013   -118.72907    238.01289   -40.546411   -3212.7455 
22511000    271.55131   -4824.4293   -4281.2932   -4824.4293            0    11503.087    17.919094     22.78595     19.21073    7843.8096    10884.717    11906.101    11718.441   -562.16148    661.08794    1112.1527     -2965.41 
22512000     287.4706   -4806.4562   -4231.4795   -4806.4562            0    10524.875    17.913256    22.910022    19.277722     7911.444    11435.446    10259.259    9879.9184    -1619.353    1104.7381   -1218.9959   -3017.1163 
22513000    277.43974   -4796.6226   -4241.7089   -4796.6226            0    7948.1618    17.916269    23.100809    19.219994    7954.7768    7932.6354    8463.3879    7448.4621   -1399.0273    -595.7293     56.24873   -3319.6247 
22514000    262.01523   -4796.5616   -4272.4988   -4796.5616            0    11373.494     17.89127    22.842114    19.237077    7861.7015    9585.4155    11442.068    13092.998   -582.16921   -514.54307    104.72036   -2968.4725 
22515000     274.2243   -4831.3019   -4282.8194   -4831.3019            0    9340.7627    17.971441    22.957785      19.1893    7917.2073    7261.6914    9804.2072    10956.389   -589.95518    37.565513   -1673.8328   -3204.2943 
22516000    273.40682   -4821.7427   -4274.8953   -4821.7427            0    9280.8478    17.858841    22.994706    19.275423     7915.622    9986.4218    8881.3786    8974.7431    786.01339     175.0016    3411.8362   -3203.5028 
22517000    264.96108   -4802.7047   -4272.7498   -4802.7047            0    10315.374     17.92919    22.857626    19.238127    7884.1442    9922.2638    11044.204    9979.6545     -726.703   -22.235695   -524.31221   -3086.6659 
22518000     259.7421   -4820.5013    -4300.985   -4820.5013            0    8103.5175     17.95289    22.971376    19.236796    7933.3045    8834.1222    7758.0137    7718.4165      283.107   -614.10475     1828.394   -3363.4152 
22519000     256.2208   -4788.4197   -4275.9464   -4788.4197            0    9452.2689    17.913554    22.977452    19.261057    7928.0023    8227.2707    10931.248     9198.288   -1225.8881    1472.0095   -835.88256   -3183.0583 
22520000    268.45776    -4813.479   -4276.5303    -4813.479            0    10489.444    17.921062    22.763614    19.249053    7852.6156    9912.1074    9926.6825    11629.543    1846.0874    162.73911    852.52553   -3075.2546 
22521000    261.26577   -4821.9352   -4299.3714   -4821.9352            0    9777.8336    17.884972    22.885772    19.288657     7895.067    9310.2628    10132.062    9891.1763   -1423.7438    841.08052   -742.48126   -3173.5374 
22522000    270.75811   -4821.7092   -4280.1595   -4821.7092            0    9050.9606    18.098537    22.751953    19.180295    7898.0058    8124.5063     8982.496    10045.879    -913.5469    436.68911   -254.26734   -3237.6308 
22523000    262.75816   -4827.8871   -4302.3383   -4827.8871            0    9838.2106    17.903854    22.716952    19.369748     7878.083    7583.2625    11780.888    10150.482   -267.56528     70.55265     281.8641   -3171.9893 
22524000      272.853   -4774.1531   -4228.4134   -4774.1531            0    10202.446    17.946902    22.907781    19.263856    7919.8275    11550.718    9389.4689    9667.1518   -408.20815   -1087.2283    122.98418   -3050.0047 
22525000    279.49329   -4804.4515   -4245.4304   -4804.4515            0    9416.6407    17.941655    22.650164    19.428511    7895.3861    11232.928    10725.718    6291.2758    863.58537    567.90379   -795.88854   -3161.1409 
22526000    274.38252   -4810.4613   -4261.6624   -4810.4613            0    9174.2943    18.079968    22.711333    19.311088    7929.5221    10512.925    9040.2941    7969.6641   -799.64656    65.033064    193.11406   -3200.7108 
22527000    270.48934   -4770.6367   -4229.6246   -4770.6367            0    11370.139    17.914892    22.638105     19.37396    7857.2877    11920.942    12417.809    9771.6655    -131.2781    272.40693    -1975.742   -2926.7149 
22528000    264.62823   -4822.4106   -4293.1214   -4822.4106            0    8607.5637    17.933542    22.947828    19.279345    7934.1414    8515.2269    8385.6746    8921.7895    1692.3542   -126.70606   -778.08853   -3297.1289 
22529000    262.71598    -4803.957   -4278.4926    -4803.957            0    8318.3291    17.926964    22.935966    19.297969    7934.7893    7530.0613    9101.3668    8323.5592    439.40557   -1.5211322    1444.6167   -3315.8892 
22530000     267.2726   -4789.2249   -4254.6467   -4789.2249            0    9180.3952    17.955385    22.875921    19.269756    7914.9748    10495.608    7799.9825     9245.595    1581.4868   -415.81037    2406.7842   -3194.9372 
22531000    254.08788   -4749.7343   -4241.5272   -4749.7343            0    8913.7571    18.052284    23.007645    19.218622    7982.2728    8026.7814    9958.8997    8755.5903    167.66987    542.67512    1321.8861   -3203.8476 
22532000    267.65001   -4804.1354   -4268.8023   -4804.1354            0    8042.9639    17.774235    23.101651    19.352377    7946.3601    8163.7129    9167.7708    6797.4078    861.37924    748.94841    669.38194   -3336.7072 
22533000    280.81418   -4828.9664   -4267.3033   -4828.9664            0    10297.939     17.70203    23.277897    19.075806    7860.4919    11504.855    8921.9515    10467.012   -1662.2763   -170.63021    393.07429   -3086.7763 
22534000    262.73308    -4826.649   -4301.1504    -4826.649            0    11154.203    17.773635     22.94364    19.185671    7823.7611    9955.6464    12316.665    11190.296   -335.18298    994.15695   -1110.9207   -3028.4388 
22535000    259.49864   -4838.3369   -4319.3075   -4838.3369            0    9200.1725    17.729205    23.147221    19.264712    7905.8873    8785.5069    10302.577     8512.434   -1154.4754    1939.8407   -1024.7073   -3258.5345 
22536000    259.20089   -4832.0829   -4313.6491   -4832.0829            0    9374.1731    17.850387    23.062485    19.186339    7898.5225    9047.7023    8821.7594    10253.057    696.87279   -168.43202    316.04869   -3233.8208 
22537000    268.75494     -4805.36   -4267.8169     -4805.36            0    10294.535    17.821387    23.248732    19.022309    7881.4115    9933.7638    9996.9228    10952.917   -130.49699    -1259.489   -322.18103   -3084.5394 
22538000    260.94734   -4811.2391   -4289.3122   -4811.2391            0    7683.5704    17.819078    22.996364    19.402275    7950.5477    7200.9581    7528.6377    8321.1153    73.160539     587.6371    1040.9586   -3398.3977 
22539000    265.66144   -4816.0454   -4284.6897   -4816.0454            0    8369.8195    17.960506    22.777845    19.359509    7920.0065      7109.23    9514.0263    8486.2021   -677.83341    191.04091   -447.13726   -3317.9323 
22540000    269.75498   -4801.8489   -4262.3057   -4801.8489            0    10748.158    18.044227    22.576095     19.35516    7884.6764    9144.3224    12067.667    11032.484    441.12297    101.15534    712.29442   -3026.3759 
22541000    259.50731   -4784.3709   -4265.3243   -4784.3709            0    10439.516    17.882647    22.773506    19.390802    7896.9151    10426.899    10826.083    10065.565   -1827.2844  -0.12460984   -1570.9778   -3063.0219 
22542000     268.7498   -4815.5482   -4278.0154   -4815.5482            0    9348.6453    18.011749    22.760253    19.316539     7918.853    10658.687    8561.7847    8825.4642   -238.22344   -897.38339    311.31881   -3198.3558 
22543000    264.28443   -4787.4792   -4258.8777   -4787.4792            0    10237.773    17.987586    22.814409    19.299912    7920.2234    10721.053    10010.381    9981.8866   -1238.9351    1136.5562   -653.34431   -3076.3295 
22544000    259.56402   -4825.6665   -4306.5064   -4825.6665            0    11028.593    17.895733    22.963088    19.167084    7876.5458    11548.146    9832.4897    11705.143   -2439.3491    1052.7807    250.92901   -3039.6372 
22545000    261.90765   -4834.3722   -4310.5245   -4834.3722            0    9416.8859    17.791139    23.117657     19.15166    7876.8758    9430.3137    9632.5762    9187.7679    2002.6015    1264.9023   -517.04223   -3228.7489 
22546000      265.034   -4835.6912   -4305.5905   -4835.6912            0    7743.7181    17.718496    23.279217    19.277137     7951.293    8452.6712    7142.7522    7635.7309    12.615288   -161.10339   -206.60404   -3407.6177 
22547000    280.01844   -4835.4769   -4275.4054   -4835.4769            0    11204.603    17.902381    23.093039    18.987682     7849.895    9837.8183    10402.907    13373.082   -527.89462   -1186.1554    819.45323   -2992.6726 
22548000    255.88054   -4810.8335   -4299.0408   -4810.8335            0    8990.1614    17.635072    23.187367    19.317167    7898.9997    9221.4089    9684.3279    8064.7473    1604.2426    418.93313     984.8368   -3263.3849 
22549000    271.68318    -4792.672    -4249.272    -4792.672            0    11443.011    17.702645    23.479861    18.928015    7867.5362    10200.459    9512.8363    14615.737   -492.06363   -641.33179    556.94838   -2936.3016 
22550000    259.54232   -4808.7145   -4289.5978   -4808.7145            0    12285.781    17.784237    23.019521    19.100874    7819.6043    12269.536    11711.607    12876.199    1668.5037   -524.36904    690.99545   -2888.5162 
22551000    269.31005   -4748.6967   -4210.0433   -4748.6967            0    8238.9172    17.918629    23.177042    19.217045    7980.8543    9701.1117    7166.3756    7849.2642   -236.95502   -221.53903    459.09126   -3251.0945 
22552000    255.62605    -4812.952   -4301.6683    -4812.952            0    8695.6826    17.765179    23.138138    19.205084    7894.3105    8382.2155    9021.4045    8683.4279    96.576166   -161.06917   -1167.7908   -3300.5307 
22553000    257.85798   -4820.2145   -4304.4667   -4820.2145            0    9669.8567    17.988207    23.052208    18.990839    7874.8911    7649.6178     9066.927    12293.025   -2333.5832   -1215.0277     1032.046   -3193.9107 
22554000    287.06922   -4821.5818   -4247.4079   -4821.5818            0    8263.8918    17.909613    22.935945    19.329027    7939.8597    8927.7529    8300.6514    7563.2712    1829.4538   -228.76594    887.73021   -3290.4929 
22555000    278.21074   -4813.7663   -4257.3104   -4813.7663            0    9540.1819    17.963087     23.01539    19.104083    7898.1521    11344.369    8758.0984    8518.0781    591.75774    854.60142    -306.4793   -3158.4108 
22556000    271.76606   -4773.1215   -4229.5558   -4773.1215            0    8085.2968    17.716615    23.102993    19.491137    7977.8555    9824.1422    9271.0345    5160.7135    1430.9799   -22.081008   -957.11624   -3288.8409 
22557000    266.53075   -4842.3194   -4309.2249   -4842.3194            0    9500.8769    17.966087    22.976279    19.093531    7881.6916    8380.6722    9329.9246    10792.034   -1126.8501    40.538011     810.6853   -3217.1334 
22558000    271.21596   -4823.7095    -4281.244   -4823.7095            0    8252.3964     17.75079     23.03353    19.418433    7939.4857    9704.5722    7148.8446    7903.7724    10.579472   -1270.2467   -466.06012   -3325.7052 
22559000    275.98691   -4834.6083   -4282.6004   -4834.6083            0    8676.5646    18.076411    22.988775    18.993804    7892.9613    6870.9269    9186.2582    9972.5088   -903.52627    1030.2504    79.562546   -3283.8346 
22560000    275.72814   -4835.9983   -4284.5079   -4835.9983            0    8378.5174     17.72984    23.019032    19.426764    7928.5236    9913.6674    7494.6736    7727.2111    1728.0551   -1390.3346    1515.4424   -3315.7051 
22561000    278.07775    -4807.754   -4251.5641    -4807.754            0    7982.0417    17.986365    22.957994    19.142839    7904.6693    7739.7836    7602.4953    8603.8462   -1596.1873   -551.26832   -1279.0434   -3331.3824 
22562000    283.77692   -4799.3026   -4231.7137   -4799.3026            0    8657.8183    17.794626     23.02665    19.358406    7932.1187     8762.685    8646.2674    8564.5025    55.404326   -153.12968    2373.6371   -3230.1616 
22563000    270.80321   -4788.4712   -4246.8313   -4788.4712            0    8749.2125    17.839921    23.223496    19.143613    7931.3007    9829.7736     8740.655    7677.2089   -944.26482    609.95554   -958.25387   -3234.8109 
22564000     272.6539   -4834.4949   -4289.1534   -4834.4949            0     9818.235    17.798936    23.157915    19.135432    7887.3622    10783.904    8848.9409    9821.8596   -467.19319   -73.909086    1006.2618   -3159.7708 
22565000    259.29847   -4814.6931   -4296.0642   -4814.6931            0    8969.7874    17.693902    23.484967    19.014254    7901.1964    7207.8846    8629.5216    11071.956    424.23185    88.674467   -916.31543    -3262.468 
22566000    275.63796   -4779.1884   -4227.8784   -4779.1884            0    11848.007    17.605069    23.254169    19.176136    7850.5423    12134.121    11612.578    11797.321   -998.87539    1845.6045    75.497079   -2871.3751 
22567000    258.59498   -4813.3879    -4296.166   -4813.3879            0    8120.5634      17.9979    23.146697    19.067094    7943.1978    8821.2194    6451.4443    9089.0266   -400.03526   -441.03912    2182.3983   -3355.4524 
22568000    271.08897   -4812.5085   -4270.2971   -4812.5085            0     10375.08    17.756605    23.118391    19.185384    7875.6794    9296.6572    9740.4422    12088.142   -1602.4217    265.95273   -1346.6202   -3078.6288 
22569000    269.19921   -4857.3253   -4318.8936   -4857.3253            0    10227.774    17.736521    23.200168    19.066816    7845.8092    10735.847    9885.3325    10062.144    66.039753    1378.7152   -297.88286   -3148.6002 
22570000    258.82091     -4783.64   -4265.9662     -4783.64            0    10470.731    17.685095    23.212775    19.267693    7909.7756    13323.751    8223.6768    9864.7641   -642.45021   -357.43139   -2713.0836    -3058.105 
22571000    264.10199   -4807.5665   -4279.3299   -4807.5665            0      8222.25    17.673012    23.524607     19.07526     7930.552    10448.675    7035.8348      7182.24    -545.7664   -459.23767   -1318.5089   -3328.3529 
22572000    272.75915   -4759.6245   -4214.0725   -4759.6245            0    9445.3019    17.811615    23.337123    19.146369    7958.6067    9714.5278    9354.1075    9267.2705   -830.83168   -425.09205   -1489.8778   -3117.7741 
22573000    261.72147    -4835.123   -4311.6478    -4835.123            0    9249.2416    17.717575    22.985851    19.256104     7842.117    10625.035    9872.0041    7250.6854    1122.7454    946.04362    217.51926   -3253.8191 
22574000    256.85397   -4821.0578   -4307.3181   -4821.0578            0    11516.924    17.711453    23.091696    19.113282    7817.0934     10827.64    11861.222    11861.912   -819.71201   -1599.7358     331.4395   -2994.3393 
22575000    264.41191   -4817.2433   -4288.3869   -4817.2433            0    10080.193    17.837441    23.107655    19.104944    7874.7032    9661.2866     10246.34    10332.953   -709.05111    228.75758   -1426.7376   -3130.7324 
22576000     266.3834   -4802.8622   -4270.0625   -4802.8622            0    8810.9646    17.961719    22.969173    19.250096     7941.932    7360.2672    9900.7111    9171.9156    693.38914    979.42584    1418.8157   -3249.5331 
22577000    251.99482   -4844.1001   -4340.0794   -4844.1001            0    8918.3043    17.833477    22.923316    19.334129    7903.8391     8136.547    8087.1997    10531.166   -456.78322    -1095.902    341.40651   -3312.0719 
22578000    276.35322   -4768.1036    -4215.363   -4768.1036            0    11142.513    17.860402    22.752553    19.329256    7854.8249    12348.579    11408.959    9670.0025   -1055.2072   -538.95926   -811.20186   -2938.9372 
22579000    258.76711   -4811.3075   -4293.7413   -4811.3075            0    10446.774      17.9002    22.742451    19.381418    7890.0674    10787.036    10977.995    9575.2916    2277.8571    470.39241    2105.1812   -3091.6463 
22580000    257.22045   -4765.0379   -4250.5653   -4765.0379            0    8654.8274    18.144818    22.768663    19.250104     7952.858    8267.8401    8948.4245    8748.2176    -1331.374    17.556588   -2660.5834   -3246.7414 
22581000    272.85928    -4814.789   -4269.0367    -4814.789            0    9353.5783    17.836129    22.809563    19.495808    7931.5638    12190.329    8063.4787    7806.9276    -809.6445    -628.2903    338.49554   -3187.0735 
22582000    254.47727   -4813.0592   -4304.0732   -4813.0592            0     10089.82    18.001218    22.917142    19.106604    7882.1712    8347.4106    10170.713    11751.336   -1025.6772    747.93582    451.48257   -3144.2142 
22583000    280.44089   -4814.5617   -4253.6453   -4814.5617            0    10438.835    17.872343    22.905778    19.206001    7862.5514    10972.939    11215.036    9128.5307   -482.71091    222.25308    1134.0886   -3056.6528 
22584000    274.84159   -4786.6472   -4236.9301   -4786.6472            0    9383.6957    17.808669    22.857879    19.459548    7921.3673    9926.6981    9111.7451    9112.6439   -2309.8069   -88.428182   -1032.7685   -3152.8785 
22585000    266.69276   -4820.5517   -4287.1333   -4820.5517            0    9351.9441    17.970603    22.926216    19.100315    7869.2899    8907.9886    8876.5007    10271.343   -367.08022   -925.49512    2548.4861   -3213.8525 
22586000    259.97491   -4821.9165   -4301.9346   -4821.9165            0    7364.4916    17.908511    22.945875    19.453069    7993.7805    6954.7723    8478.8669    6659.8356   -174.55788    268.20253   -940.37816   -3443.3741 
22587000    266.12269   -4821.5269   -4289.2486   -4821.5269            0    10139.589    18.090089    22.552439    19.395564    7912.9176    10336.985    11403.094    8678.6871   -1417.7557    1401.2519   -1148.8933    -3119.122 
22588000    268.00548   -4820.0694   -4284.0253   -4820.0694            0    7632.3773    17.987076    22.853461    19.351003    7954.5578    8007.5043    6864.5742    8025.0534   -880.34116   -1126.6149    1590.3494   -3398.6003 
22589000    254.95477   -4841.7403   -4331.7992   -4841.7403            0    8209.6664    17.988966    22.699874    19.442772    7939.4028    5722.3445    9646.0008    9260.6541   -1507.0166   -928.94867    187.05225    -3381.218 
22590000     269.5883   -4826.2233   -4287.0134   -4826.2233            0    10129.117    18.125024    22.486654    19.310116    7870.2463    9598.6716     10796.17    9992.5083   -788.15772    272.45428    749.34255   -3124.3988 
22591000    259.38684   -4818.9904   -4300.1847   -4818.9904            0    7703.1009    17.991436    22.687287    19.473068     7948.456    9043.3594    7362.8932    6703.0499   -15.951982    181.43668   -740.92114   -3407.2406 
22592000     269.8697   -4838.1424   -4298.3697   -4838.1424            0    9049.4674     18.06863    22.622539    19.308229    7892.3986    8982.6528    9354.8799    8810.8694    246.68597   -376.74069    728.63194    -3256.753 
22593000    280.88257   -4813.7365   -4251.9366   -4813.7365            0    9585.7051    17.998778    22.709623    19.308923    7892.4347    9288.4755    10858.946    8609.6944    520.37797    226.13935   -480.75317   -3148.5926 
22594000    267.90365   -4819.9144    -4284.074   -4819.9144            0     10267.37      17.8768     22.82609    19.289484    7871.2174     11163.84    9565.3204    10072.948    249.74729   -1658.1462   -24.226419   -3105.4454 
22595000    253.90492   -4824.2873   -4316.4461   -4824.2873            0    9877.7671    17.823786    22.809118    19.343436    7863.9742    10507.562    10126.829    8998.9106    821.35787   -240.21147    302.12714   -3183.5848 
22596000    265.69576   -4805.6217   -4274.1973   -4805.6217            0    8954.8565    18.024893    22.939635    19.228401     7950.645    6503.3673    10986.146    9375.0564   -274.46765     1942.535     391.8135   -3235.8638 
22597000    265.49934   -4811.2374   -4280.2059   -4811.2374            0    9740.0009    17.915252    22.801431    19.314096    7889.6807    9097.9167    10619.885    9502.2006    19.596648   -342.85263   -243.22599   -3159.4931 
22598000    260.52691   -4805.7164   -4284.6304   -4805.7164            0    8199.2537    17.881785    22.882143    19.394647     7935.777    9798.7232    8181.7252    6617.3126   -355.69382   -830.26517    509.88463   -3335.6884 
22599000    261.92115   -4802.4038   -4278.5291   -4802.4038            0    10659.266    17.905295    22.807348    19.212774    7845.9644    10236.247    10990.511    10751.041   -170.88075   -194.69789    1420.3465   -3058.8389 
22600000    264.68322    -4805.243   -4275.8439    -4805.243            0    10001.312    17.920795    22.801375    19.339844    7902.6235    11881.456    9286.8933    8835.5869    1078.3518   -155.67858    1062.7634   -3123.1761 
22601000    251.43486   -4825.7195   -4322.8187   -4825.7195            0    9365.5859    17.952876    22.765506    19.361064     7912.989    8888.9829    9748.8979    9458.8769    941.30866    124.62885   -223.40878   -3242.0037 
22602000    263.19776   -4809.5721   -4283.1441   -4809.5721            0    9052.7284    18.056738     22.70442    19.335383    7926.8836    8209.1249    8997.3812    9951.6791    496.22632    624.07204   -550.87685   -3236.5992 
22603000    271.20722   -4807.8426   -4265.3947   -4807.8426            0    9462.4359    17.832179    22.867369    19.372957    7899.8081    9975.6431    9876.7422    8534.9222    67.050718   -330.83381    780.77999   -3175.2218 
22604000    272.01038    -4791.477   -4247.4226    -4791.477            0    12824.651    17.776163    22.654792    19.361089    7797.0061    13218.775    12221.242    13033.935   -1995.1275   -2122.3181    193.37699   -2789.1144 
22605000    274.84663   -4783.9258   -4234.1986   -4783.9258            0    9120.2998    18.156147     22.59263    19.350077     7937.307    7770.3882    10667.262    8923.2495   -143.83289    607.53777   -67.061955   -3178.4556 
22606000    267.49227   -4853.1775   -4318.1599   -4853.1775            0    8271.7301    17.956251    22.910748    19.328109    7951.4132    7281.3274    8969.9607    8563.9023    397.01586    1052.1958     1223.161   -3358.9436 
22607000    281.34963    -4847.085    -4284.351    -4847.085            0    7880.2145    17.872638     22.84539     19.49451    7959.7522    8706.0752    7467.0111    7467.5573   -1133.0313   -676.74226   -123.55424   -3369.5777 
22608000    272.40567   -4804.3912   -4259.5462   -4804.3912            0    9672.7114    18.006273    22.862192    19.180632    7895.9538    8469.9118    9785.4133    10762.809   -1198.9738   -94.806548    406.49257    -3145.691 
22609000    264.49089   -4832.2204   -4303.2059   -4832.2204            0    8623.1075    17.840409    23.138894     19.24887    7946.0747    9248.0306    8003.2114    8618.0807     230.5932    22.674609    1293.1692   -3303.9141 
22610000    274.77616   -4802.3778   -4252.7916   -4802.3778            0    9253.3843    17.833847    23.129567      19.1616    7903.9524    7981.1326    9385.3811    10393.639    1297.2215    808.80017    2500.2236   -3186.1444 
22611000    272.86258   -4784.0422   -4238.2833   -4784.0422            0    9041.9553    17.802068    22.959452    19.392562     7926.239    9318.6398    9380.4876    8426.7383    362.40347    26.356284    205.06496   -3193.0688 
22612000    274.29141   -4810.6038   -4261.9871   -4810.6038            0    10126.151    18.012655     23.08878     18.89465       7858.1    7341.0914    10984.712     12052.65   -780.71879    1197.9265    552.56192   -3101.5066 
22613000    266.08873   -4817.0535   -4284.8432   -4817.0535            0    11582.983    17.681014    23.033878    19.220971    7827.9774    13556.771    10603.188    10588.991    169.09102   -1229.1599    277.86993   -2962.4948 
22614000    270.66946   -4794.4506   -4253.0782   -4794.4506            0    10122.704    17.824625    23.030534    19.217271    7888.8939    8785.6894    10294.086    11288.336    312.85009    258.19264   -335.38686   -3088.4467 
22615000    257.75176   -4808.4912   -4292.9558   -4808.4912            0    7952.5292    18.015671    22.940068    19.260677    7960.0663    6535.3027    8105.0619    9217.2229    492.14115    216.03099    1533.0868   -3369.7514 
22616000    248.19831   -4814.4213   -4317.9941   -4814.4213            0    7874.3652     18.01454     22.71663    19.390698    7935.2483    8359.9556    8761.2448    6501.8951    241.11287   -426.90307   -1983.7814   -3406.7138 
22617000    257.03142   -4833.6745   -4319.5799   -4833.6745            0    9410.1447    17.899398    22.752803    19.403365     7902.243    9928.7371    9567.6229    8734.0742   -1663.3373   -240.68601   -1696.3549   -3235.0974 
22618000    256.62348   -4813.8954   -4300.6168   -4813.8954            0    9415.3583    18.001141    22.836721    19.167278    7879.4192    9576.1721    8089.8113    10580.091    361.09983   -1232.4706   -845.49766   -3218.6674 
22619000    257.35816   -4814.1645   -4299.4164   -4814.1645            0    10117.218    17.858861    22.954189    19.209911     7874.828    9938.7578    10602.938    9809.9594    2178.8914   -1118.1775    389.75954   -3137.4914 
22620000     272.2838   -4833.0899   -4288.4887   -4833.0899            0    8657.2037    17.909715    23.025525    19.293308     7956.186    7889.2718    9108.9432     8973.396    1565.8949   -504.50568    938.17802    -3283.969 
22621000    256.57457    -4813.894   -4300.7131    -4813.894            0    10522.312    17.872836    22.919389    19.172136    7853.5681    10382.054    9962.7638    11222.118    85.564493   -837.16304   -460.55645   -3095.5271 
22622000    272.50002   -4793.2711   -4248.2373   -4793.2711            0    10331.331    17.832896    23.121667    19.162135     7901.052    9622.2753     11011.11    10360.607    1006.1477   -426.33614   -1074.7521   -3057.7711 
22623000    272.99631   -4826.5958   -4280.5694   -4826.5958            0     10283.19    17.613922    23.086389    19.291187    7844.6038    12988.263    9034.5103    8826.7977    884.02743   -284.30434    2043.4724   -3104.1159 
22624000    269.99539   -4809.3029   -4269.2787   -4809.3029            0     9226.069     17.93718    22.951635    19.263775    7930.6578    10088.065    9362.7061    8227.4362    -170.0026    506.87658   -1737.8853   -3202.1869 
22625000    275.13337   -4803.1386   -4252.8379   -4803.1386            0    9553.4111    17.900707    22.878904    19.265035    7889.9673    7997.0817    10721.605    9941.5469   -726.44532    1008.8537    825.80537   -3153.5548 
22626000     267.5712   -4835.0214    -4299.846   -4835.0214            0    9271.8149    17.964893    22.942221    19.192738    7910.3741    6893.4083    10739.025    10183.012    1230.5588    803.02572    77.006643   -3230.2059 
22627000    263.28545   -4824.0119   -4297.4085   -4824.0119            0    9645.0829    17.846455    23.036043    19.204432    7895.1671    8349.6738     9996.072    10589.503   -350.64821    1186.8023    745.80699   -3186.8456 
22628000    267.85742   -4830.2702   -4294.5223   -4830.2702            0    9935.6882    17.576993    23.365262    19.154184    7866.4521    11074.111    9412.3128    9320.6411   -2641.9178   -61.180962   -582.77458    -3154.659 
22629000    264.69799   -4765.5548   -4236.1261   -4765.5548            0    8501.1853     17.82125    23.192318    19.217614    7942.9491    9376.7929    7746.4334    8380.3295   -755.33392   -86.969025    649.39112   -3251.3508 
22630000    254.56283   -4821.6241   -4312.4669   -4821.6241            0    9918.1523    17.945103    22.944809    19.209149    7909.3085    12534.884    8290.0411     8929.532   -2479.0813    677.45555   -1339.7559   -3168.4165 
22631000    263.45971    -4840.326    -4313.374    -4840.326            0    11045.827    17.815618    22.751912     19.39453    7861.3663    10826.903    11470.679    10839.897    189.06266    1030.4319    1059.7509   -3046.9704 
22632000    285.42638   -4819.8036   -4248.9156   -4819.8036            0    8500.6967    18.078942    22.671068     19.32472     7920.602    7095.1655    9545.6403    8861.2844   -396.24227   -302.38657   -735.81087   -3266.9674 
22633000    276.69398   -4811.1539   -4257.7318   -4811.1539            0    7921.0954    17.950941     22.90661    19.399949     7977.166    10176.069     7247.075    6340.1421    1047.7607   -2215.1346    1981.0827   -3336.2012 
22634000    251.14355   -4813.5701    -4311.252   -4813.5701            0    9669.4045     18.03638    22.499549    19.441545    7889.5815    10375.314    10837.846    7795.0535    610.23562   -613.08392    81.858673   -3198.6762 
22635000    255.32751   -4814.0967   -4303.4101   -4814.0967            0    9585.7563    18.025134        22.61    19.397926    7905.5915    7158.8635    11038.263    10560.142    1574.2991    522.98964    1876.4104   -3198.2209 
22636000    271.17749   -4792.3235    -4249.935   -4792.3235            0     11911.03    17.873309    22.770163    19.267787    7841.5688    11364.685    11433.533    12934.872   -1679.0838   -600.41663    536.44983   -2887.7749 
22637000    257.21414   -4794.9824   -4280.5224   -4794.9824            0    11323.207    17.939503    22.690357    19.256167    7838.2946    11800.714    12049.886    10119.021    1833.5361   -391.18841    1297.6013   -2986.1271 
22638000    267.29529   -4820.3169   -4285.6933   -4820.3169            0    10092.936    18.187318    22.526457    19.257201    7889.5948     9600.465    10799.725    9878.6195   -189.78064    -1501.089   -100.37616   -3124.3834 
22639000    262.60661   -4843.0723   -4317.8266   -4843.0723            0    9580.6521    17.956814    22.639223    19.465549    7913.2969    9372.5779    10561.916    8807.4621   -153.52369   -643.11413   -253.14125   -3212.1493 
22640000     273.3087   -4810.0196   -4263.3684   -4810.0196            0    8789.3676    18.156483    22.680224    19.297469    7946.5647    8069.9852    9755.1567    8542.9609    1567.3707    1332.1495   -185.40789   -3244.7466 
22641000    253.32773   -4809.5744   -4302.8876   -4809.5744            0    7913.9759    18.056381     22.56996    19.581632    7980.1378    6521.5787    10077.903    7142.4457    1398.4719   -260.59101   -406.22121   -3381.8423 
22642000    277.23059   -4841.2479   -4286.7524   -4841.2479            0    8221.0452    18.062644    22.719495    19.271007    7908.3231    8160.1852    8310.5094    8192.4411   -824.95751   -192.26687   -77.860324     -3338.58 
22643000    257.95779   -4807.2901   -4291.3426   -4807.2901            0    9920.3277    17.930293    22.630177       19.453    7893.3603     11307.17    10428.724    8025.0888   -2111.6062    -737.6863   -1245.7578   -3149.3486 
22644000    265.16732   -4798.1593   -4267.7919   -4798.1593            0    11777.671    18.039175    22.647677    19.198745    7843.5591    11480.011    12035.856    11817.145    1761.3988   -1888.4056    78.182565    -2920.541 
22645000    261.49352   -4815.5186   -4292.4992   -4815.5186            0    9130.1069    17.875827    22.844049    19.374958    7911.8855    8664.5687     10491.06    8234.6916   -1308.3494   -1278.0302    394.33381    -3239.006 
22646000     264.0587     -4824.05      -4295.9     -4824.05            0    8875.6354    18.101156    22.579888    19.343381    7906.0665    7069.6468    8923.8287    10633.431    -993.3814    42.694255    389.59468   -3272.5226 
22647000    259.72032    -4837.926   -4318.4533    -4837.926            0    9878.3559    17.939666    22.844848    19.228055    7880.2137    10322.547    10308.829    9003.6921   -395.47965    669.57856   -1184.8636   -3183.1849 
22648000    260.16072   -4807.3908   -4287.0372   -4807.3908            0    11515.958    17.772183    22.919492    19.286778    7856.0718     12383.61    11358.287    10805.978     178.0008    395.47786    818.44012   -2967.6222 
22649000    274.28116   -4793.6736   -4245.0774   -4793.6736            0    10184.156    17.828114    23.147326    19.104803    7884.0396    10127.066    9513.5348    10911.866   -186.62161    -624.2252    1808.9237   -3074.0968 
22650000    268.43073   -4840.5258   -4303.6312   -4840.5258            0     9114.763    17.888451    23.063057    19.192238    7917.9951    10451.864      7274.29    9618.1348   -1683.7197    690.42205    78.001123   -3251.0963 
22651000    278.02083   -4793.9385   -4237.8625   -4793.9385            0    8711.2588    17.853147     23.21355    19.226872    7968.2872    10398.759    7829.8788    7905.1389    1382.3868   -991.67499    111.10583   -3225.5333 
22652000    270.60551   -4816.0686   -4274.8241   -4816.0686            0    7873.7104    18.005476    23.066598    19.093236    7929.8993    5896.7176    7892.5272    9831.8864    727.31361   -143.50436   -2794.5034   -3364.2339 
22653000    264.77775    -4786.867   -4257.2788    -4786.867            0    9527.9364    17.805083    23.008766    19.235315    7880.1892    10519.236    8253.1755    9811.3976   -434.03064   -1473.8706   -559.18497   -3162.2857 
22654000     264.5214   -4818.1956   -4289.1202   -4818.1956            0    9697.7355    17.798438     23.07734    19.197885    7885.3509    9538.2931    10253.658    9301.2553   -685.51842    1159.2453   -108.95206    -3173.883 
22655000    267.52151   -4835.9841    -4300.908   -4835.9841            0    8724.3458     17.94113    22.847748    19.405258    7954.4947    8474.1114    9516.5981     8182.328   -43.858301      752.805   -243.62604   -3288.8128 
22656000    261.93655   -4846.2054      -4322.3   -4846.2054            0    8612.4403    18.088862    22.862783    19.174265    7929.7422    7555.7851    8654.2197     9627.316   -1538.8784    465.10902    1186.1692   -3326.2957 
22657000    266.18868   -4827.6105   -4295.2002   -4827.6105            0    9258.1223    17.821898    22.943156    19.304936    7893.6067    9405.2441    10022.635    8346.4877    -338.5748   -806.58127   -621.70063   -3229.4037 
22658000    266.41415   -4844.1689   -4311.3077   -4844.1689            0    11661.995    17.751259    22.970746    19.212596     7834.122    14192.011    10660.543    10133.431    1070.7461   -1264.9597   -148.66989   -2978.8941 
22659000     266.5938    -4828.885   -4295.6645    -4828.885            0     10159.67    17.742306    23.214894    19.171181    7896.3363    9703.2191    10480.475    10295.315   -2246.5297    905.41763   -420.13371   -3125.6773 
22660000    264.72286   -4801.5199   -4272.0415   -4801.5199            0    9862.3592    17.766703    23.057367    19.276718    7896.7731    10884.437     10132.76    8569.8813   -31.085865    1428.4495     542.0676   -3136.2297 
22661000     257.3949   -4820.0624   -4305.2408   -4820.0624            0    8939.5546    17.906395    23.161102     19.08085     7913.436    9843.3745    8963.8675    8011.4218    778.66345   -331.59183    449.46294   -3273.5327 
22662000    262.71794   -4804.4646   -4278.9963   -4804.4646            0    6829.0028    17.765812    23.314009    19.265815    7979.7524    6609.0579    6733.8415    7144.1091   -26.572155   -583.27442    -283.4633   -3484.2608 
22663000    253.71098   -4789.7667   -4282.3134   -4789.7667            0    11996.285    17.731677     23.03646    19.113828    7807.5225    13329.697    9564.0163    13095.141    796.34475   -568.25984    736.09939     -2916.36 
22664000    266.29993   -4824.1924   -4291.5596   -4824.1924            0    9401.3494    17.761511    23.213174    19.210824    7920.6431    9940.9853    9199.2275    9063.8354   -1085.1913    957.44226   -668.40267   -3205.5679 
22665000     260.5968    -4816.023   -4294.7972    -4816.023            0    9043.0836    17.819685    23.195185    19.127837    7906.1263    9609.7514    8692.3482    8827.1511   -1139.7997     826.1668   -461.07193   -3252.1049 
22666000    277.92161   -4793.5159   -4237.6384   -4793.5159            0    9406.2005    17.801613      23.1862    19.212285    7929.9045    10619.657    7950.5561    9648.3887    2031.4906   -1334.0097    2512.0859   -3149.8158 
22667000    273.38279   -4834.0962   -4287.2969   -4834.0962            0    10869.167    17.681614    23.257217    19.078787    7845.6767    10791.125    10619.054     11197.32      856.997   -134.49414   -168.06547   -3043.6344 
22668000    273.49558   -4800.3372   -4253.3122   -4800.3372            0    11233.725    17.760005    23.073308    19.175846    7857.9179    11935.428    11430.491    10335.255   -310.70099    797.85534     730.8158    -2965.931 
22669000    280.26383   -4802.7345   -4242.1722   -4802.7345            0    10224.625    17.745624    23.198299     19.20179    7904.7679    11607.643    8442.9508    10623.283    1088.5205    58.296559   -866.83847   -3063.4474 
22670000    279.13791   -4831.6508   -4273.3405   -4831.6508            0    9916.1989    17.896313    23.039014    19.224429    7926.4898    7918.4367    9881.4671    11948.693    1016.1913    105.33607   -1718.4624   -3127.0307 
22671000    272.47901   -4809.0523   -4264.0606   -4809.0523            0     9799.938    17.786953    22.985218    19.262361    7875.1657    10749.127    9151.4048    9499.2818    447.71454    785.06804   -1835.2171   -3138.5258 
22672000    252.60469   -4802.8553   -4297.6147   -4802.8553            0    9788.8045    17.841146    23.066354    19.169448    7888.8065    9231.0691    9950.4555    10184.889   -769.00631    529.00752   -984.00866   -3171.4113 
22673000    262.67498   -4836.1652   -4310.7828   -4836.1652            0     7828.932    17.818478    23.101003    19.281683    7936.8173     7355.644    7982.5781    8148.5739    452.55248    410.19344   -1137.9188   -3404.5813 
22674000    266.15314    -4833.633   -4301.2938    -4833.633            0    10451.493    18.002834    22.869705    19.148755    7883.9156    9820.7821    11148.868    10384.829    874.43313    664.52143   -1906.5286   -3099.5934 
22675000    264.04688   -4810.8699   -4282.7435   -4810.8699            0    10089.252    17.810375     22.97865    19.228349     7869.363    10088.578    10347.431     9831.746    1103.9135    333.11562    183.63865   -3124.8345 
22676000    265.59575   -4818.0664   -4286.8421   -4818.0664            0    9517.3191    17.944223     22.93031    19.187885    7895.1732    9479.4078    10084.105    8988.4442    382.78417   -332.02438   -1045.4119   -3190.9894 
22677000    279.28917   -4828.0897   -4269.4768   -4828.0897            0    8169.7855    17.933823    22.809204    19.443741    7953.5831    10137.342    6714.5715    7657.4433    2054.3329   -268.40109   -32.786384   -3321.8238 
22678000     261.8372   -4787.9838    -4264.277   -4787.9838            0    10156.838    18.208777    22.667817    19.074063    7872.8809    7785.3049    10241.291    12443.918    1464.9136    25.677458    -994.7161   -3098.0903 
22679000    281.85197     -4830.07   -4266.3312     -4830.07            0    8630.0161    18.002404    22.740875    19.372697    7930.9967    8654.8634    9665.0183    7570.1666    68.366486   -247.47425   -448.94312   -3268.1365 
22680000    263.76419   -4800.7008   -4273.1398   -4800.7008            0    10223.844     17.92761    22.749663    19.370387    7900.1554    9716.8559    10548.125    10406.552   -963.93412    8.5436176   -2207.2021   -3095.1928 
22681000     261.5376   -4822.4518   -4299.3443   -4822.4518            0    8368.1856    18.073662    22.507963    19.453135    7913.5609    8288.8383    9533.0492    7282.6693   -643.49704   -1601.7287    464.72786   -3333.5623 
22682000    281.35993   -4834.8555   -4272.1009   -4834.8555            0    10016.358    17.928695    22.745406    19.305462    7872.6796    10134.049    10450.123    9464.9017   -468.26515    443.99196     1891.065   -3122.0732 
22683000    260.49337   -4826.6009    -4305.582   -4826.6009            0    9936.5855    18.128939    22.644332    19.248635    7901.9055     8871.179    10518.603    10419.975   -2727.5703    943.34089    2034.7315   -3160.4781 
22684000    254.54843   -4821.3086   -4312.1803   -4821.3086            0    10313.367    18.019592    22.776761    19.183319    7873.3701     8075.281    10417.276    12447.545    580.42808     588.7964    2177.9142   -3127.9476 
22685000    286.77147    -4822.012   -4248.4337    -4822.012            0     9646.845    17.672931    23.007255    19.419139    7895.9312    10035.692    9769.5678    9135.2748   -636.52866   -1440.3115    486.74573   -3137.5603 
22686000      259.294   -4804.9828   -4286.3627   -4804.9828            0    6945.2752    18.015262    23.092737     19.23619    8002.6726     8927.027     5551.675    6357.1237    -301.8617   -315.36262   -621.92247   -3475.7743 
22687000    259.54117   -4802.7784    -4283.664   -4802.7784            0    10965.098    17.666793    22.967606    19.330843    7843.7591    10306.063    11617.691    10971.541    973.18508    757.05391    1646.1493   -3029.3315 
22688000    275.43688   -4800.7323   -4249.8245   -4800.7323            0    12227.782    18.055008    22.671498    19.161163    7843.3169    9053.6669    14059.044    13570.634   -1305.1304    1651.4606   0.66783151   -2851.1285 
22689000    260.86063   -4828.2399   -4306.4865   -4828.2399            0    10079.137     17.91683    22.633734    19.442445    7884.3928    10682.708    11315.294    8239.4083    189.66634    1566.2514    900.63885    -3147.529 
22690000    271.38744   -4779.9858   -4237.1774   -4779.9858            0     8364.628    18.062853     22.77816    19.331764    7953.8328    9317.1018    8411.6765    7365.1056   -892.62139   -734.47136    215.94094   -3266.8932 
22691000    278.19918   -4823.4391   -4267.0064   -4823.4391            0    10829.706    18.044701     22.56714    19.317511    7866.4249    11996.552    10550.839    9941.7284   -277.86191   -760.97615    1735.1048    -3024.582 
22692000    268.75776    -4796.231   -4258.6822    -4796.231            0    11029.156    17.887956    22.585964    19.491518    7874.8993    12641.387    11492.413     8953.668   -1771.5468   -725.60656   -2748.0062   -2992.0131 
22693000    261.50703   -4803.8635   -4280.8171   -4803.8635            0    9498.0385    18.172236    22.818563    19.101676    7920.7832    7970.5925    9507.4129     11016.11    541.63834    80.325429   -275.51552    -3183.637 
22694000    269.49422   -4811.0159   -4271.9942   -4811.0159            0    11631.462     17.72971    22.879961    19.375367     7859.716    11982.855    12274.837    10636.693   -337.50844    385.63472    1120.0345   -2938.7274 
22695000    269.99935   -4812.3236   -4272.2915   -4812.3236            0    12052.042    17.994348     22.79864    19.120992    7844.3232    13452.452    11927.029    10776.645   -1464.1403    1285.4264    137.34797    -2893.521 
22696000    262.56843   -4826.4741   -4301.3048   -4826.4741            0    6345.6607    18.011734    22.945433    19.417962    8025.1917    7259.1189     5438.061     6339.802   -738.70225   -1380.6188   -1511.4382   -3558.6138 
22697000    249.66624   -4779.2749   -4279.9116   -4779.2749            0    8782.4331     17.88764    22.971979    19.340123    7947.1365    8944.0692     9702.213    7701.0171   -1178.6853   -300.27051    7.0642207   -3262.0203 
22698000    264.04136   -4817.5883   -4289.4729   -4817.5883            0     7858.404    18.007872    23.048523     19.21003    7973.2161    7306.8541    8182.7123    8085.6457    1413.5917    396.43541    1315.7529   -3375.6884 
22699000    263.86956    -4793.449   -4265.6773    -4793.449            0    7552.1028    17.847065    23.202826     19.25268    7972.5798    8529.7074    6470.2645    7656.3365   -2338.2925    715.31517   -623.75018   -3387.5799 
22700000    265.10066     -4814.43   -4284.1959     -4814.43            0    10187.382    17.831229    23.197246     19.03466    7873.4094    10666.453     9482.259    10413.436    393.37102   -946.62408    1640.3942   -3114.4236 
22701000    271.12714   -4822.5206   -4280.2328   -4822.5206            0    8057.4527    17.813729    23.113803    19.320916    7955.2522    7678.2351    7515.5279    8978.5952   -556.73437     651.5655   -345.64217   -3345.4137 
22702000    264.03025   -4812.0534   -4283.9602   -4812.0534            0    9339.7703    17.904332    23.055833     19.14055    7901.2055    8622.9395    9408.7741    9987.5973   -993.99853    734.45711   -1332.1699   -3207.7294 
22703000     254.1904   -4826.1713   -4317.7591   -4826.1713            0    8170.8985    17.866918    23.127987      19.1848    7927.6552     8371.829    7686.9827    8453.8837   -667.82716    738.09583   -1764.7961   -3373.0666 
22704000    262.91273    -4832.194   -4306.3361    -4832.194            0    10862.303    17.772082      22.9422    19.262056    7853.7309    10728.897    10209.901    11648.112    131.49231   -498.82293   -315.44759   -3062.1829 
22705000    262.73936   -4836.0524   -4310.5413   -4836.0524            0    10425.813    17.828344     23.01096    19.154475     7858.072    9869.5121    10876.057    10531.872   -189.90249    170.99542     1235.472    -3115.723 
22706000    255.89952   -4817.7575   -4305.9268   -4817.7575            0    9255.4919    17.775533    22.990153    19.437187    7943.2442     10083.62    8880.0383    8802.8176   -31.658484    508.24132   -462.58858    -3233.733 
22707000    261.73362   -4801.7811   -4278.2815   -4801.7811            0    10602.483    17.883086    23.147919     19.00985    7869.2461    8402.6078    10769.836    12635.004    390.65092    519.41468   -818.05397   -3061.4888 
22708000    270.35963   -4799.5793   -4258.8266   -4799.5793            0    7735.4733    17.867236    23.142791    19.228698    7951.0222    7695.2399    7068.3058    8442.8741    128.67331    551.94865    802.59017   -3361.8404 
22709000    258.61092   -4797.1445   -4279.8907   -4797.1445            0    10199.298    17.912188    22.936348    19.226952     7899.204    10329.287    10435.859    9832.7473    1288.6451      679.054   -2170.5486   -3104.9133 
22710000     278.3507   -4826.0848    -4269.349   -4826.0848            0    8740.4974    18.056294    22.892646    19.219879    7944.6589    8183.1794    8992.8274    9045.4855    754.31084    42.925816    652.04659   -3256.6339 
22711000    269.96215   -4816.4205   -4276.4628   -4816.4205            0    8737.7672    17.948065    22.744277    19.394853    7917.2849    8511.4642     9723.775    7978.0624     9.789437   -391.68451    417.61046   -3267.5524 
22712000    271.82643   -4827.0129   -4283.3265   -4827.0129            0    9991.9789    17.911312    22.986232    19.214172    7910.7358    9534.8621    10310.045     10131.03    593.06477     334.8882   -759.97353   -3130.5522 
22713000    262.52821   -4805.4944   -4280.4056   -4805.4944            0    9556.8301    17.801452    23.064639    19.203724    7884.7429    9683.7161    9215.9297    9770.8446    1193.6995   -681.90236    349.08212   -3181.4572 
22714000    263.52735   -4816.9385   -4289.8513   -4816.9385            0    10302.881    17.892965     23.06315    19.121711    7890.9213    10417.993    9147.1637    11343.486    901.16717   -792.73667   -27.627877   -3104.1855 
22715000    264.45877   -4858.6035   -4329.6533   -4858.6035            0    10951.316    17.699308    23.005717    19.224928    7828.1075    10606.303    10892.492    11355.155   -287.42764    213.22983    12.206402   -3079.3971 
22716000    271.83484   -4825.1262    -4281.423   -4825.1262            0    10266.574    17.772703    23.087583    19.186911    7872.9412    10209.602    10007.709    10582.412   -1600.2935   -205.41942   -406.80214   -3102.6275 
22717000    269.20754   -4858.0154    -4319.567   -4858.0154            0    8459.0995    17.787777    22.947282    19.365177    7904.5001    9268.1117    8360.4189     7748.768    324.13995    -144.7958    1649.4852   -3344.4103 
22718000    275.20381   -4817.1732   -4266.7315   -4817.1732            0    7931.9196     18.02512    22.836117    19.289559    7940.0406    7190.4913    8173.8224    8431.4449   -2879.4442    216.95117   -456.08496   -3348.2363 
22719000    269.35697   -4828.2001   -4289.4529   -4828.2001            0    9269.4255    17.840709    22.943505    19.303095    7901.3044    7873.9546    11439.807    8494.5149    722.45897    1034.3805    2634.1203   -3221.3146 
22720000    247.84173   -4814.0145   -4318.3005   -4814.0145            0    10672.115    18.044997    22.823725    19.100809    7866.7453    10514.951    9854.6742    11646.719   -113.94574   -62.684366   -788.91067   -3093.9057 
22721000    255.25276   -4805.4579   -4294.9208   -4805.4579            0    9687.4584    17.740905    22.845704    19.462449    7888.1982    11290.926    9318.2128     8453.236    -264.3034    -1572.788   -234.56351   -3180.4632 
22722000    258.02325   -4840.2319   -4324.1535   -4840.2319            0    8597.1006    17.998643    22.901792    19.195074    7912.2318    7760.1126    9101.2951     8929.894   -490.58035    499.60647    1784.7488   -3332.1188 
22723000     267.6061   -4849.2366   -4313.9914   -4849.2366            0    10621.028    17.789859    22.701451    19.466281    7861.5668    9952.8996    11464.417    10445.767    1020.1349    789.17862    1929.8266   -3096.2599 
22724000    267.20487   -4806.1811   -4271.7384   -4806.1811            0    10207.621    18.125101    22.663259    19.180477     7878.839    9778.2514    9714.0984    11130.514   -541.22786   -228.43785    427.23167   -3098.8339 
22725000    264.64301   -4833.4822   -4304.1635   -4833.4822            0    9796.2485    17.734425    22.954356    19.367243     7884.062    10527.989    9829.4238    9031.3329   -1004.9317   -555.05108   -1054.4269   -3177.7815 
22726000    261.36454   -4808.6851   -4285.9237   -4808.6851            0    10595.279    18.086677     22.95195      19.0068    7890.1887    8719.0701    10856.805    12209.962    1226.0177    1029.3926    715.95486   -3066.7217 
22727000    283.60049    -4777.967    -4210.731    -4777.967            0    10502.031    17.710441    22.639274    19.632852    7871.8221     9955.067    11871.013    9680.0136   -463.42135     1338.497   -2110.7398    -3005.072 
22728000    270.38019   -4789.5654   -4248.7716   -4789.5654            0    11187.536    18.191653    22.752771    19.042035    7881.6985    8309.1911    12897.655    12355.761   -419.50979    443.36352   -771.61401   -2962.8037 
22729000    266.54171   -4797.3455   -4264.2292   -4797.3455            0    9817.5577    17.696972    22.971414    19.491229    7923.6613     11181.62    10349.543    7921.5107   -1469.3976     540.8431    -1985.695   -3129.7272 
22730000    283.30976   -4807.5613   -4240.9068   -4807.5613            0     9050.846    17.983539    22.872221    19.238438    7913.2211    9734.8972    8577.4882    8840.1527    406.93296   -250.25515      1543.53   -3196.3829 
22731000    273.88323   -4796.2565   -4248.4562   -4796.2565            0    11837.391    17.795907    22.799002    19.374009    7860.5955    13794.675    13075.627      8641.87   -410.46787    137.86487   -659.47527   -2891.4328 
22732000    267.85259   -4805.8951   -4270.1568   -4805.8951            0    9866.6793    18.036888    22.945392    19.132735    7918.3398    10135.837    9322.7192    10141.481    1504.0632   -976.98188    1414.6544   -3130.7442 
22733000    270.05147   -4837.6926   -4297.5563   -4837.6926            0    10043.201    17.807234    22.910216    19.290486    7869.8931    11373.646     9261.732    9494.2248   -402.57328   -505.32255   -2035.6529   -3144.8547 
22734000    271.34232   -4806.0559   -4263.3377   -4806.0559            0    9991.5188    17.865077    23.104742    19.123389    7893.5228    8335.3627    10237.083    11402.111    869.19865   -15.231042   -551.56032   -3113.1247 
22735000    255.54424   -4816.1964   -4305.0764   -4816.1964            0    9476.5966    17.827731    22.999156    19.298388    7912.7788    11715.854    8702.3371    8011.5983   -1806.6279   -509.00177   -1429.8781   -3211.4794 
22736000    270.46875   -4834.8758   -4293.9049   -4834.8758            0    8614.0624     17.87991    23.103675    19.137268    7905.4451    8783.6182    8043.4948    9015.0741    927.35096    524.96538   -1056.7955   -3300.7655 
22737000    269.88892   -4834.3199   -4294.5088   -4834.3199            0    9526.0966    17.757162    23.112768      19.2593    7904.3471    8990.8752    9736.3276     9851.087    1104.5494   -328.28936    143.30038   -3196.3709 
22738000       266.16   -4796.8053   -4264.4524   -4796.8053            0    9429.1315    17.904837    22.989554    19.219483    7911.2046    7450.6274    10302.431    10534.336    2416.5948    841.81564    1129.7574   -3176.5494 
22739000    262.27915   -4812.2836   -4287.6929   -4812.2836            0    8690.1596    18.022535     22.87728    19.170277    7904.0315     7228.534    9532.0429    9309.9019    1186.1469    447.09613   -1300.8226   -3285.9591 
22740000    283.81958   -4840.1088   -4272.4346   -4840.1088            0    8480.2967    18.093169    22.717714    19.349245    7953.2255    7361.8969    10041.826    8037.1669   -41.006957    1068.7155    1101.2676   -3288.8081 
22741000    254.97321   -4816.4838   -4306.5059   -4816.4838            0    9496.9708    18.040246    22.923982    19.232726     7953.776    7995.3519    9716.1228    10779.438   -400.84617    1378.7322    817.09554   -3204.8795 
22742000    267.11416    -4832.738   -4298.4767    -4832.738            0    9212.0448    17.821121    22.964075    19.348556    7918.3107    10719.954    8818.0122    8098.1686   -323.90523   -266.37998    584.44184   -3234.6657 
22743000    284.50333   -4811.2335   -4242.1917   -4811.2335            0     10430.23    17.916326    22.975794    19.118883    7870.1314    8158.9112    10896.731    12235.047   -1142.0002   -1147.2171    56.990503   -3045.0329 
22744000    271.91318   -4803.0894   -4259.2295   -4803.0894            0    10580.533    17.749983    23.006113    19.294495    7879.0637     9792.118    10292.435    11657.046    444.09094    51.461341    390.84722    -3043.441 
22745000    273.94603   -4799.7288   -4251.8029   -4799.7288            0    8770.7416    17.863498     23.21399    19.158361    7944.6478    9625.2276    7231.3359    9455.6613   -555.74575   -160.77218    403.81656    -3235.585 
22746000    263.72763   -4817.9388    -4290.451   -4817.9388            0    8553.7172     17.65272    23.142315    19.476924    7956.8064    10605.041    8544.3252    6511.7853    206.50427    1047.4824    172.79693   -3297.8617 
22747000    258.01425   -4785.1433    -4269.083   -4785.1433            0    9540.4229    17.968778    22.973745    19.107356      7887.71    7551.9915    9956.7782    11112.499   -897.31102   -118.31025   -238.26564   -3171.6084 
22748000    266.66857    -4791.094   -4257.7239    -4791.094            0    6771.7601    17.841379    23.065796    19.364612    7969.0337    8452.8922    6519.5819    5342.8062    342.12293   -304.36742    3209.4617   -3470.7087 
22749000    251.26849   -4793.3178   -4290.7497   -4793.3178            0    10018.755    18.044605    22.865208    19.140069    7897.0708    8022.8494     11348.04    10685.376     204.2849    1511.1476    1739.9949   -3136.8829 
22750000    265.13721   -4778.0614   -4247.7543   -4778.0614            0    9468.4324    17.932601    22.737876    19.501766    7951.8306    12509.746    9427.1481    6468.4027   -240.04362    374.59461    732.41354   -3149.7069 
Loop time of 488.85 on 64 procs for 250000 steps with 1008 atoms

Performance: 88.371 ns/day, 0.272 hours/ns, 511.404 timesteps/s
99.1% CPU use with 64 MPI tasks x 1 OpenMP threads

MPI task timing breakdown:
Section |  min time  |  avg time  |  max time  |%varavg| %total
---------------------------------------------------------------
Pair    | 28.907     | 33.08      | 36.846     |  34.3 |  6.77
Bond    | 0.27322    | 0.28523    | 0.29424    |   0.8 |  0.06
Kspace  | 221.9      | 228.27     | 238.16     |  24.8 | 46.70
Neigh   | 4.6158     | 5.1118     | 5.7571     |  12.7 |  1.05
Comm    | 96.756     | 104.36     | 112.11     |  34.0 | 21.35
Output  | 1.1625     | 1.1637     | 1.1653     |   0.1 |  0.24
Modify  | 106.24     | 109.23     | 112.35     |  16.2 | 22.34
Other   |            | 7.35       |            |       |  1.50

Nlocal:        15.7500 ave          20 max          11 min
Histogram: 1 1 8 11 9 9 9 10 5 1
Nghost:        2507.81 ave        2526 max        2478 min
Histogram: 2 2 2 4 6 10 13 10 6 9
Neighs:        5260.44 ave        6713 max        3670 min
Histogram: 1 1 8 11 9 9 9 9 6 1

Total # of neighbors = 336668
Ave neighs/atom = 333.99603
Ave special neighs/atom = 2.0000000
Neighbor list builds = 9847
Dangerous builds = 0

unfix		3
unfix		2
unfix		1

write_data	data.final.${pid}
write_data	data.final.0
System init for write_data ...
PPPM initialization ...
  extracting TIP4P info from pair style
  using 12-bit tables for long-range coulomb (../kspace.cpp:340)
  G vector (1/distance) = 0.37852451
  grid = 24 27 36
  stencil order = 5
  estimated absolute RMS force accuracy = 0.0025473754
  estimated relative force accuracy = 7.6713454e-06
  using double precision FFTW3
  3d grid and FFT values/proc = 4050 480
Last active /omp style is kspace_style pppm/tip4p/omp
WARNING: Not all mixed pair coeffs generated from mixing. Use write_data with 'pair ij' option to store all pair coeffs. (../write_data.cpp:312)

write_restart   restart.lmp.${pid}
write_restart   restart.lmp.0
System init for write_restart ...
PPPM initialization ...
  extracting TIP4P info from pair style
  using 12-bit tables for long-range coulomb (../kspace.cpp:340)
  G vector (1/distance) = 0.37852451
  grid = 24 27 36
  stencil order = 5
  estimated absolute RMS force accuracy = 0.0025473754
  estimated relative force accuracy = 7.6713454e-06
  using double precision FFTW3
  3d grid and FFT values/proc = 4050 480
Last active /omp style is kspace_style pppm/tip4p/omp
Total wall time: 0:08:11
