LAMMPS data file via write_data, version 30 Jul 2021, timestep = 9250000

1296 atoms
2 atom types
864 bonds
1 bond types
432 angles
1 angle types

-10.50400967136314 12.48400967136314 xlo xhi
-9.062218141207556 12.052216141207555 ylo yhi
0.31035585081197326 21.549643149184973 zlo zhi
-9.107328544322078 1.7798505257173372 2.6742322174313293 xy xz yz

Masses

1 1.008
2 15.999

Pair Coeffs # lj/cut/tip4p/long/omp

1 0 0
2 0.21084 3.1668

Bond Coeffs # harmonic/omp

1 450 0.9572

Angle Coeffs # harmonic/omp

1 55 104.52

Atoms # full

282 94 1 0.5897 -10.331590477587765 -4.050264505322002 1.7446436592202546 1 1 0
280 94 2 -1.1794 -9.458495919786905 -4.437590306017871 1.6818123602267707 1 1 0
270 90 1 0.5897 -8.437458399833357 -7.360013946174611 2.2694686154631123 1 1 0
163 55 2 -1.1794 -7.150474352896905 -7.9536073119510124 1.0775842064342147 1 1 0
164 55 1 0.5897 -6.312959800173309 -8.282457949397255 1.4042735410330465 1 1 0
269 90 1 0.5897 -9.225772360827994 -6.0804884430267405 2.4508526460910556 1 1 0
268 90 2 -1.1794 -9.14344025066498 -6.97280187701922 2.7870958639095793 1 1 0
299 100 1 0.5897 -6.510724166405651 -7.876551113851123 4.23282343709646 1 1 0
324 108 1 0.5897 -7.055269983842252 -4.294925532977863 3.763379528403512 1 1 0
73 25 2 -1.1794 -8.33188586761566 -3.7025131134190694 4.908828145978889 1 0 0
314 105 1 0.5897 -8.796237716259032 -6.711350380354887 4.582433397090595 1 1 0
298 100 2 -1.1794 -5.889664643864032 -7.149861441666481 4.281300761826287 1 1 0
323 108 1 0.5897 -6.247142123262702 -5.55246894218644 3.524511562196871 1 1 0
261 87 1 0.5897 -6.715558184457568 -4.946187026032127 1.3405215320305288 1 1 0
300 100 1 0.5897 -5.029015040219897 -7.568807309208409 4.27669946663166 1 1 0
260 87 1 0.5897 -6.801400423972012 -6.211953892918893 0.5146260918753796 1 1 0
315 105 1 0.5897 -8.604340188089143 -5.454374984797029 5.403919469826374 1 1 0
74 25 1 0.5897 -8.03430007210391 -3.088327568113437 5.579995498105807 1 0 0
281 94 1 0.5897 -8.860048149057544 -3.694741214464737 1.760353153539586 1 1 0
313 105 2 -1.1794 -8.747679324591221 -6.397153037196156 5.4853789790220615 1 1 0
275 92 1 0.5897 -10.438019443127303 -7.969714076007721 3.5269876402588487 1 1 0
53 18 1 0.5897 -12.1836313115479 0.9819246193008322 2.4790973404743144 1 0 0
75 25 1 0.5897 -9.191547261690001 -3.3733366188498426 4.646302117825242 1 0 0
259 87 2 -1.1794 -6.623192497138973 -5.274117295189347 0.44592252831365053 1 1 0
44 15 1 0.5897 -9.779573708871393 0.8510496710020785 0.496213136924599 1 0 0
97 33 2 -1.1794 -11.736836637079254 0.6508084984664002 5.483186370621638 1 0 0
59 20 1 0.5897 -13.346729989028287 -0.8547135826053811 3.5053551917621535 1 0 0
99 33 1 0.5897 -11.676945411352028 1.602046365033953 5.396229611418877 1 0 0
54 18 1 0.5897 -11.287753639630553 -0.22285634688385159 2.2854410640665224 1 0 0
107 36 1 0.5897 -9.355119928746104 1.4431561602617649 3.5040910442475366 1 0 0
68 23 1 0.5897 -11.272509069808896 -2.466829243152425 4.84956397800612 1 0 0
256 86 2 -1.1794 -11.920193226609907 -3.2479806794426596 1.9794410488220582 1 1 0
69 23 1 0.5897 -10.990683125718295 -2.52445074900895 3.363080416861382 1 0 0
67 23 2 -1.1794 -10.577021092819665 -2.3345550346410056 4.205239483415154 1 0 0
271 91 2 -1.1794 -10.058399976860214 -0.8374362476854778 1.0750233916803351 1 1 0
82 28 2 -1.1794 -8.891397325308587 -0.10636612072174145 4.287168219496216 1 0 0
258 86 1 0.5897 -12.37532535532921 -2.707548531305628 1.3336338363038038 1 1 0
83 28 1 0.5897 -9.475451806906538 -0.8644702327862248 4.270296328673441 1 0 0
272 91 1 0.5897 -9.233937748023685 -1.2393233065547964 1.3489366755162304 1 1 0
52 18 2 -1.1794 -12.005415203069239 0.10777630943331218 2.8257620839009805 1 0 0
98 33 1 0.5897 -11.721089637495538 0.326120002639243 4.582790624692215 1 0 0
301 101 2 -1.1794 -7.811009843499319 -2.200273722439265 1.7668664937897411 1 1 0
84 28 1 0.5897 -8.011960067431497 -0.47935981444359044 4.226082593147027 1 0 0
322 108 2 -1.1794 -6.386933278228673 -4.667381197317964 3.188143600832031 1 1 0
273 91 1 0.5897 -10.402100717799188 -1.4276711507294033 0.40438608279965893 1 1 0
165 55 1 0.5897 -7.377794262739128 -8.545765769590147 0.3606901741215837 1 1 0
1010 337 1 0.5897 -12.767917963142889 1.4646413710350785 0.3412648379349434 0 -1 1
429 143 1 0.5897 -6.2898021042906205 -7.225767066962314 8.6353530003226 1 0 0
428 143 1 0.5897 -6.631332891851473 -7.164163394040834 10.109100720718795 1 0 0
427 143 2 -1.1794 -5.9154232812047605 -7.016161528472228 9.491104923296907 1 0 0
618 206 1 0.5897 -7.634230265350259 -7.378690684358715 6.561068643228391 1 1 0
420 140 1 0.5897 -9.008257218294895 -6.506667021317526 9.901772776842082 1 0 0
414 138 1 0.5897 -6.678017948103248 -4.970062519980669 7.560837123095399 1 0 0
413 138 1 0.5897 -7.529386973645453 -3.7351387930065814 7.7650458901519395 1 0 0
412 138 2 -1.1794 -7.356613410631768 -4.603767257374588 8.127963880090293 1 0 0
350 117 1 0.5897 -7.081972358598598 -4.260380017966628 9.842400736942563 0 0 0
419 140 1 0.5897 -8.764447357856186 -5.46892409095541 8.826810623961014 1 0 0
418 140 2 -1.1794 -9.463319090148813 -5.950617226130156 9.269318656404165 1 0 0
627 209 1 0.5897 -10.251364986608264 -6.7305576218650405 6.401698608154966 1 1 0
616 206 2 -1.1794 -7.252251900161878 -7.961293264438566 7.217521506002094 1 1 0
349 117 2 -1.1794 -7.077708753736562 -3.9150438050624636 10.735205090660749 0 0 0
351 117 1 0.5897 -6.919651124134489 -2.9771100506370596 10.62883597348766 0 0 0
426 142 1 0.5897 -8.7423502144703 -1.7349302326193552 7.147588471887945 1 0 0
425 142 1 0.5897 -7.279946589021221 -1.349056859742741 7.080142261865017 1 0 0
435 145 1 0.5897 -7.480696131013058 -0.9565752777294705 9.789292429968684 0 0 0
401 134 1 0.5897 -11.021159784919659 -1.3086355228790287 7.738224481080379 1 0 0
402 134 1 0.5897 -10.757240776072521 -0.30024804671123917 6.640310103559567 1 0 0
400 134 2 -1.1794 -10.312702626889891 -0.8565865501002303 7.279956074289338 1 0 0
411 137 1 0.5897 -13.219498433543155 0.35392029265645597 6.402962693876033 1 0 0
536 179 1 0.5897 -9.611309723278314 0.018476633806493226 10.12758716693616 1 0 0
535 179 2 -1.1794 -8.947416715477173 0.07712350830275838 9.440439426718394 1 0 0
537 179 1 0.5897 -9.414272961232406 -0.148355696608661 8.635702702805059 1 0 0
528 176 1 0.5897 -12.104018333685937 0.5875147217950953 9.874762866635486 1 0 0
424 142 2 -1.1794 -7.8621104901699415 -2.1084381861526307 7.103586085823098 1 0 0
527 176 1 0.5897 -11.80310667739548 1.6111540809763554 8.800749081427819 1 0 0
526 176 2 -1.1794 -12.527755842227723 1.1754907188114618 9.249472638523242 1 0 0
522 174 1 0.5897 -9.731686591024628 2.184655211139205 7.5500537508949614 1 0 0
410 137 1 0.5897 -13.484358479410929 0.4268035728078594 7.891894556288716 1 0 0
633 211 1 0.5897 -5.696839122625181 -6.070387947695609 5.700581350522031 1 1 0
417 139 1 0.5897 -8.775876822937303 0.9368865538685238 5.7341422220483675 1 0 0
415 139 2 -1.1794 -8.488492229879844 1.5047510349038902 6.4491353193627825 1 0 0
626 209 1 0.5897 -10.463846407524331 -6.5828808297517165 7.89348273801622 1 1 0
652 218 2 -1.1794 -5.689491311391595 -5.376124371509944 12.610959921434903 0 0 0
780 260 1 0.5897 -7.429482842483236 -3.9510558741737105 15.194174131071764 0 0 0
779 260 1 0.5897 -7.118665041329638 -2.951747208343729 14.100238720819362 0 0 0
778 260 2 -1.1794 -7.846338484505974 -3.3980098135652845 14.533380298492768 0 0 0
768 256 1 0.5897 -9.4265760319397 -2.6283623132585436 14.823361321064429 0 0 0
654 218 1 0.5897 -6.128609797308842 -4.819645344942728 11.967702803420813 0 0 0
653 218 1 0.5897 -6.394935169286766 -5.88779030505067 13.006934992373845 0 0 0
661 221 2 -1.1794 -9.237039872283116 -4.370940709937674 12.394369943616564 0 0 0
682 228 2 -1.1794 -7.746980529288055 -6.859801299818738 13.738826652837053 0 0 0
684 228 1 0.5897 -8.395730877915442 -6.4265005506395925 14.293488396885056 0 0 0
662 221 1 0.5897 -8.775487847969943 -4.1233457644741325 13.195655383484278 0 0 0
663 221 1 0.5897 -8.589438703641608 -4.255612194825213 11.698901832100047 0 0 0
740 247 1 0.5897 -10.67922028696149 -3.315407295625497 12.035350358103205 1 0 0
788 263 1 0.5897 -4.9789533255280904 -4.551502161813042 15.482231357376692 0 0 0
729 243 1 0.5897 -8.058494446638733 -7.195732874207232 11.998521081982181 1 0 0
766 256 2 -1.1794 -10.298622892537107 -2.2382380190008595 14.88333918123096 0 0 0
866 289 1 0.5897 -12.476412876316761 1.6969705686298617 16.208231042047117 0 0 0
727 243 2 -1.1794 -8.118543704466902 -7.540452772642523 11.107487664896507 1 0 0
896 299 1 0.5897 -8.079889581438795 2.3981456389928812 15.486426517997703 0 0 0
762 254 1 0.5897 -9.214557591914257 2.1388021834186866 11.92525424268264 0 0 0
888 296 1 0.5897 -10.53397635004127 3.0503888647238924 15.244706269968667 0 0 0
771 257 1 0.5897 -11.612509768022017 2.790166708223534 11.69553222392073 0 0 0
835 279 2 -1.1794 -11.192580919591354 -0.34090367527625176 11.009118282167497 1 0 0
770 257 1 0.5897 -11.849600273301341 2.888250497442943 13.187694916764418 0 0 0
836 279 1 0.5897 -11.323426898427702 -1.2876548339723737 11.059620465777266 1 0 0
761 254 1 0.5897 -9.496942301646477 1.104715122665322 12.99427605601605 0 0 0
837 279 1 0.5897 -11.180703207609213 -0.05133076998400554 11.92147707011232 1 0 0
791 264 1 0.5897 -10.70051123639653 -0.6630677681451385 14.081222660192044 0 0 0
792 264 1 0.5897 -11.508725456274194 0.6018704319265691 14.276834749281637 0 0 0
760 254 2 -1.1794 -8.783659221944403 1.592858561530468 12.582938344206912 0 0 0
790 264 2 -1.1794 -10.874160140253899 0.1924005464497256 13.68865932096002 0 0 0
769 257 2 -1.1794 -12.295229037614016 2.7032669746594635 12.360892073899192 0 0 0
739 247 2 -1.1794 -11.510494897229016 -2.9940820680159703 11.686007987895154 1 0 0
897 299 1 0.5897 -7.900946917934327 2.305719941071736 13.985821024447851 0 0 0
757 253 2 -1.1794 -9.631535367148121 -5.809278835461217 15.540393403280731 0 0 0
767 256 1 0.5897 -10.89824416084454 -2.9831831189598352 14.842772030072076 0 0 0
865 289 2 -1.1794 -12.740877626364892 1.1372826237184235 15.478099688952225 0 0 0
789 263 1 0.5897 -4.754542880389325 -4.707417226359811 13.993035109318255 0 0 0
1151 384 1 0.5897 -5.933417461047969 -5.183847568695742 19.388593213940393 0 0 0
1152 384 1 0.5897 -6.813276437592649 -3.9807335700924433 19.653099751456637 0 0 0
1225 409 2 -1.1794 -8.08071016129471 -3.4607422431154546 20.81367785257564 0 0 0
1227 409 1 0.5897 -8.905284099512079 -3.1064641418504735 20.480719268929157 0 0 0
1109 370 1 0.5897 -8.6196287880159 -3.434826475477884 17.683022358804763 0 0 0
1108 370 2 -1.1794 -9.23601972364473 -4.161285616000974 17.775001958805134 0 0 0
1089 363 1 0.5897 -6.4265061318181935 -4.548764193893463 17.32866266317506 0 0 0
1150 384 2 -1.1794 -6.131887679313804 -4.30545648292685 19.064393386709284 0 0 0
1219 407 2 -1.1794 -10.403110678782525 -2.157206139791322 20.167312043791704 0 0 0
1129 377 2 -1.1794 -7.671751457192753 -1.8978872944448835 17.631426935667477 0 0 0
1248 416 1 0.5897 -5.879383754949021 -1.67964859648312 20.495103936703515 0 0 0
1097 366 1 0.5897 -8.998182968449855 -5.756839538322353 18.44268240387889 0 0 0
1131 377 1 0.5897 -6.986059574059726 -1.7589299425295248 16.978071531532866 0 0 0
1229 410 1 0.5897 -7.871793614632276 3.4983485053705934 18.318758086837942 0 0 0
1087 363 2 -1.1794 -6.4761652643144725 -4.8622103303017 16.425515822498646 0 0 0
1130 377 1 0.5897 -7.242980938475148 -1.725575864451053 18.469803139981323 0 0 0
1204 402 2 -1.1794 -11.883332479720691 0.3520332000964572 18.748531361065215 0 0 0
1088 363 1 0.5897 -6.59748963538859 -5.808136076217752 16.50623017311486 0 0 0
1101 367 1 0.5897 -10.237385736816323 -1.173250838912562 16.350785872897422 0 0 0
1249 417 2 -1.1794 -11.508733963183978 0.9733175115631276 21.418521025216826 0 0 0
1143 381 1 0.5897 -8.36167693916811 -5.133125844236638 21.37228386993148 0 0 0
1226 409 1 0.5897 -7.830834526196096 -2.8645147069917325 21.519607592829132 0 0 0
1110 370 1 0.5897 -10.0995071328569 -3.750309186560571 17.733202962005826 0 0 0
1141 381 2 -1.1794 -8.501822910246805 -6.078938414116182 21.41479656306554 0 0 0
1259 420 1 0.5897 -9.077590735961182 1.7077427148887185 19.431947066246057 0 0 0
1195 399 2 -1.1794 -9.59232029939017 2.025712490186507 16.43982785316218 0 0 0
1121 374 1 0.5897 -4.791469505659161 -3.3912759025986094 18.31495971375364 0 0 0
1251 417 1 0.5897 -11.414236881872434 1.9240995147186108 21.36293486918828 0 0 0
1196 399 1 0.5897 -9.725968820349168 1.0785472620185867 16.471843951675176 0 0 0
1218 406 1 0.5897 -13.28820807553145 3.1779820128959333 17.600381622144702 0 0 0
1197 399 1 0.5897 -9.572802120536315 2.296441075069392 17.357828141653343 0 0 0
1258 420 2 -1.1794 -9.222891709628682 2.59769046728694 19.11110400677728 0 0 0
1235 412 1 0.5897 -9.373556394243302 -0.6302629925979293 20.166589273609862 0 0 0
1236 412 1 0.5897 -7.893920050394579 -0.3097186502880884 20.170092910640392 0 0 0
1246 416 2 -1.1794 -6.2959857089928555 -1.0753033592729704 19.880723139410854 0 0 0
1099 367 2 -1.1794 -9.972300741120142 -0.5593810546456481 17.035728398837737 0 0 0
1250 417 1 0.5897 -11.488973879509228 0.6766370437109419 20.508586172029087 0 0 0
1205 402 1 0.5897 -12.00181481209681 1.2333746922924984 18.39459810670189 0 0 0
1216 406 2 -1.1794 -12.405602092863457 2.810327914199494 17.646272000251624 0 0 0
1206 402 1 0.5897 -11.22087845150329 -0.04617487616296856 18.183844946922978 0 0 0
1100 367 1 0.5897 -9.152973882848464 -0.9186489925189356 17.376208699239534 0 0 0
1234 412 2 -1.1794 -8.757803593502267 0.10234437463684287 20.183007181232533 0 0 0
1009 337 2 -1.1794 -11.213124663489783 3.573887844125016 20.84135095705134 0 -1 0
1260 420 1 0.5897 -9.857090290040215 2.9724940615572066 19.72234523260232 0 0 0
1217 406 1 0.5897 -11.826040982396687 3.570583294503905 17.598880808806513 0 0 0
1011 337 1 0.5897 -12.012981338152727 3.956968590166152 20.481116397337807 0 -1 0
1096 366 2 -1.1794 -8.838777789294403 -6.639194257009741 18.777504076352912 0 0 0
1142 381 1 0.5897 -8.534329820649225 -6.358048680077175 20.49968053086879 0 0 0
758 253 1 0.5897 -9.338912284660248 -5.2493631375499765 16.25952280272817 0 0 0
40 14 2 -1.1794 -15.037035447985275 3.770174331472621 2.0279062935719496 1 0 0
177 59 1 0.5897 -14.085804001198529 4.591917839889483 3.290822621753962 1 0 0
42 14 1 0.5897 -15.446552516041525 4.327013747398322 1.365711730065649 1 0 0
55 19 2 -1.1794 -13.210041430661668 6.206298331460301 1.0303919826706998 1 0 0
56 19 1 0.5897 -12.386156043882396 5.8447654614128925 1.3571956220453039 1 0 0
66 22 1 0.5897 -13.463904146197095 2.954237484678348 1.8062191250355133 1 0 0
65 22 1 0.5897 -11.998183882336559 3.3072507835678184 1.6679496678376913 1 0 0
64 22 2 -1.1794 -12.594226412416546 2.5611489595907795 1.732726027527258 1 0 0
191 64 1 0.5897 -12.533619472548242 6.231637612458266 4.161273769487513 1 0 0
183 61 1 0.5897 -12.282064599755989 3.7047952599516805 4.494079825458341 1 0 0
181 61 2 -1.1794 -11.474484984899426 3.30429519100257 4.816091564009158 1 0 0
176 59 1 0.5897 -14.281135872403876 4.679239046433102 4.7896888953253045 1 0 0
175 59 2 -1.1794 -13.63400630155955 4.829832030132687 4.100554510782649 1 0 0
108 36 1 0.5897 -10.196231214298459 2.6856338557816635 3.7049472883724373 1 0 0
85 29 2 -1.1794 -10.94483667590799 4.776856344141978 1.6599421546148312 1 0 0
190 64 2 -1.1794 -11.91496889162593 6.961900727825082 4.172672221202918 1 0 0
162 54 1 0.5897 -14.459655502019348 6.787403414157437 2.196789666090385 1 0 0
167 56 1 0.5897 -16.566390407621803 6.266398352387796 3.536664206066683 1 0 0
45 15 1 0.5897 -9.721839307507551 2.105677216650049 1.3413259763122052 1 0 0
43 15 2 -1.1794 -9.7367961522432 1.805055320423543 0.43259547653665265 1 0 0
182 61 1 0.5897 -11.165220420150403 3.9015767623633035 5.497172660744055 1 0 0
205 69 2 -1.1794 -14.720148152053545 7.69135353245683 5.417466625762334 1 0 0
160 54 2 -1.1794 -15.161879303144946 7.123542496560926 2.7537394062999363 1 0 0
206 69 1 0.5897 -14.766344326692867 7.411909698370547 4.503043156966676 1 0 0
151 51 2 -1.1794 -12.798765563864348 8.857816098812084 0.42156139616086585 1 0 0
152 51 1 0.5897 -12.969756471726217 7.9204271521073935 0.5114531118427385 1 0 0
207 69 1 0.5897 -14.580459119803553 8.637120446810073 5.372511553799167 1 0 0
153 51 1 0.5897 -12.738473207824129 9.178094154767944 1.3216577155313993 1 0 0
215 72 1 0.5897 -12.282709787378435 8.559241465518589 3.436928820432513 1 0 0
148 50 2 -1.1794 -17.96716724234361 10.75896229306392 1.943611709815336 1 0 0
150 50 1 0.5897 -18.402934627520963 11.372477048592856 1.3520491956987035 1 0 0
174 58 1 0.5897 -16.40573140791534 10.01524866906652 1.689213685386789 1 0 0
173 58 1 0.5897 -14.923579292707416 10.323237619737895 1.6678295603371756 1 0 0
172 58 2 -1.1794 -15.545358656040525 9.595737621360005 1.6844145985125725 1 0 0
161 54 1 0.5897 -15.293358484738294 8.023881668154257 2.4568324861837136 1 0 0
289 97 2 -1.1794 -14.365059085133765 10.346431736765215 4.828414135019398 1 0 0
216 72 1 0.5897 -13.11140019719796 9.807795034093829 3.6512824299715154 1 0 0
291 97 1 0.5897 -15.180636924796246 10.740119688661299 4.518371744530426 1 0 0
283 95 2 -1.1794 -16.61919359347273 11.776156181171359 4.111695287270033 1 0 0
284 95 1 0.5897 -17.2979976708674 11.652068929469248 4.775160351402847 1 0 0
285 95 1 0.5897 -17.02836409931837 11.493333320731036 3.2937874633950726 1 0 0
193 65 2 -1.1794 -13.94848081507416 11.87697069208706 1.708186485471657 1 0 0
192 64 1 0.5897 -11.05476180185767 6.549109983035107 4.095887109056589 1 0 0
290 97 1 0.5897 -14.072483569190288 10.923953701401668 5.5334953361859585 1 0 0
214 72 2 -1.1794 -12.425263266762823 9.441177636461934 3.093515075814846 1 0 0
106 36 2 -1.1794 -9.492900312737738 2.327001437038426 3.1636493396744747 1 0 0
525 175 1 0.5897 -11.798659315698352 8.03114449689658 5.615079501574619 1 0 0
57 19 1 0.5897 -13.476207449299821 5.605980427343894 0.3339475670413373 1 0 0
508 170 2 -1.1794 -13.291716929991646 6.208530952494154 7.321811484696119 1 0 0
645 215 1 0.5897 -12.346412527971642 6.856919024436094 8.694714383694464 1 0 0
644 215 1 0.5897 -12.606357444066088 6.97153659577522 10.181881738602494 1 0 0
643 215 2 -1.1794 -11.94241865908995 7.1431952653934765 9.513994803225932 1 0 0
509 170 1 0.5897 -14.00198672000076 5.7638832804048 7.784499344113418 1 0 0
543 181 1 0.5897 -10.45618085603631 6.198030738303807 9.861301243884078 0 0 0
532 178 2 -1.1794 -10.870369267460134 4.974054793664287 6.919394327882223 1 0 0
521 174 1 0.5897 -10.569346126856763 3.4327837205972145 7.729054027203756 1 0 0
510 170 1 0.5897 -13.734315824620728 6.767302354727734 6.682940435017817 1 0 0
534 178 1 0.5897 -11.730700468986152 5.377629615352378 7.03434410780929 1 0 0
636 212 1 0.5897 -15.147393255208907 7.638723869614463 9.90296317152949 1 0 0
457 153 2 -1.1794 -10.153523693278384 3.1341616878974694 10.73233636733479 0 0 0
459 153 1 0.5897 -10.019389522651545 4.0815972533724985 10.712808826224483 0 0 0
523 175 2 -1.1794 -11.554559729677488 8.61763109410639 6.33111907893802 1 0 0
519 173 1 0.5897 -16.228434073482326 7.429878516813943 6.346554430830568 1 0 0
628 210 2 -1.1794 -13.457474444333736 9.546615583018667 8.126899381870953 1 0 0
634 212 2 -1.1794 -15.563518253230267 8.159026129141939 9.21563582131872 1 0 0
458 153 1 0.5897 -10.205085990194389 2.8800750504466652 9.810823034057494 0 0 0
538 180 2 -1.1794 -15.351405244405523 4.86432767217214 8.423808867330527 1 0 0
565 189 2 -1.1794 -13.122983061512052 10.108746947454012 10.841141599734236 0 0 0
617 206 1 0.5897 -17.111361418574816 12.8114744750488 7.701658607602157 1 0 0
567 189 1 0.5897 -13.001460497153293 11.05729240208748 10.802394713059444 0 0 0
640 214 2 -1.1794 -13.943905824114632 11.967104278852606 6.977214663482648 1 0 0
642 214 1 0.5897 -14.82062380457425 12.351122839872161 6.964733778894722 1 0 0
630 210 1 0.5897 -12.800597066612305 9.169802546168313 7.541390338315688 1 0 0
635 212 1 0.5897 -14.838801830705087 8.615579439529025 8.788302304717307 1 0 0
629 210 1 0.5897 -13.648308607683816 10.406214144887901 7.751724778818561 1 0 0
566 189 1 0.5897 -13.141885052825053 9.831654857380741 9.925032166098559 0 0 0
533 178 1 0.5897 -10.254142181546486 5.704981390753794 6.965772513105133 1 0 0
520 174 2 -1.1794 -10.422998846811087 2.5606050584371225 8.095061828986942 1 0 0
518 173 1 0.5897 -16.49006879952598 7.483500102483642 7.8368743798523655 1 0 0
327 109 1 0.5897 -13.563258066309572 13.106411038548092 9.837223329117512 0 -1 0
641 214 1 0.5897 -13.354508013881016 12.71683829213157 7.058693431947687 1 0 0
945 315 1 0.5897 -14.102519159852346 7.005473738523655 12.003082581999045 1 0 0
900 300 1 0.5897 -14.52196306595648 7.59745820530075 14.281434893503677 0 0 0
899 300 1 0.5897 -13.653783437815772 6.3686682072432 14.114369226355722 0 0 0
898 300 2 -1.1794 -13.799035532232846 7.246391276058869 13.761415036117345 0 0 0
874 292 2 -1.1794 -13.380949169166918 4.796983254478979 14.923975957641657 0 0 0
848 283 1 0.5897 -13.756744301523664 3.689208249978991 11.992543065805346 1 0 0
887 296 1 0.5897 -10.245863974140132 4.007527191323069 14.107674170190991 0 0 0
876 292 1 0.5897 -12.518055633855514 4.400693012648297 14.803033150517518 0 0 0
869 290 1 0.5897 -12.447707877246195 8.162862006737456 13.103211619019357 0 0 0
886 296 2 -1.1794 -10.964656137176013 3.5826409771226118 14.575744652590837 0 0 0
875 292 1 0.5897 -13.987473987375173 4.0565353065355545 14.923226436046232 0 0 0
944 315 1 0.5897 -14.341121503575021 5.767401440845754 11.165282979292313 1 0 0
943 315 2 -1.1794 -14.163671972062412 6.705348007130841 11.096123355023343 1 0 0
658 220 2 -1.1794 -16.430434382564943 11.782820549345676 14.915864929752912 0 -1 0
728 243 1 0.5897 -17.35315034515522 12.632412650741681 11.222646246725178 1 -1 0
659 220 1 0.5897 -17.032928289235457 11.043751966500757 14.832711925934891 0 -1 0
660 220 1 0.5897 -15.559280945872546 11.388586583034012 14.871901119101357 0 -1 0
670 224 2 -1.1794 -13.975490876123278 10.626458480895234 14.520414361464185 0 -1 0
671 224 1 0.5897 -13.248536263377886 11.113548371643446 14.132425067403984 0 -1 0
672 224 1 0.5897 -13.563007494255078 10.055946914632457 15.168984022934207 0 -1 0
956 319 1 0.5897 -16.825337269858544 10.57482874561234 11.981616129622799 1 0 0
879 293 1 0.5897 -14.656747902853645 9.772683053704444 11.706422852038726 0 0 0
878 293 1 0.5897 -14.956413955083203 9.863477483365905 13.187750630324592 0 0 0
868 290 2 -1.1794 -11.751953519097166 8.618984680150511 12.629766045774806 0 0 0
683 228 1 0.5897 -16.79638897034979 13.365178447743958 14.087506017341209 0 -1 0
870 290 1 0.5897 -12.211568708817786 9.140931560214714 11.972032570955998 0 0 0
680 227 1 0.5897 -11.086811312109502 9.44334583776396 15.442918489628166 0 -1 0
877 293 2 -1.1794 -15.357409137700799 9.645754821032096 12.346202044887354 0 0 0
649 217 2 -1.1794 -15.77584800073323 8.212907754623508 15.410697690468332 0 -1 0
650 217 1 0.5897 -15.480045992423548 8.73990060514041 16.153043699744742 0 -1 0
847 283 2 -1.1794 -14.586349281162407 4.064332983845912 11.69703546179297 1 0 0
1018 340 2 -1.1794 -11.877617491726395 7.150282341964104 20.15052117137333 0 -1 0
1019 340 1 0.5897 -12.502925928673122 6.425779416747279 20.135577151373415 0 -1 0
1020 340 1 0.5897 -11.020891294808582 6.729601329670121 20.077705492535717 0 -1 0
1043 348 1 0.5897 -12.121029585909694 8.732368386899186 19.30180405984272 0 -1 0
1030 344 2 -1.1794 -9.394415151614846 6.006879220526342 19.86828347395157 0 -1 0
1032 344 1 0.5897 -8.955024964935772 5.442350542942336 20.50429529985878 0 -1 0
1208 403 1 0.5897 -12.182584006839186 6.061412175762092 17.37467934096435 0 0 0
1238 413 1 0.5897 -10.317438126401417 5.196072475520612 18.49539382795859 0 0 0
1237 413 2 -1.1794 -10.769625386786736 5.0295632264294134 17.66822796132652 0 0 0
1207 403 2 -1.1794 -13.005530938980227 6.444659433621023 17.07109000129966 0 0 0
990 330 1 0.5897 -14.292023982699337 7.008867354181493 18.210529045313777 0 -1 0
1239 413 1 0.5897 -10.116104590863984 5.219217237347397 16.99495528658269 0 0 0
1003 335 2 -1.1794 -13.445786702623277 4.879606622307195 20.028709954039858 0 -1 0
989 330 1 0.5897 -15.122483423127346 8.263895548972346 18.3742042997301 0 -1 0
1034 345 1 0.5897 -14.691730673697622 7.676287954364707 20.520565173436708 0 -1 0
980 327 1 0.5897 -12.74503526385596 8.12761335571567 16.41449706885647 0 -1 0
1035 345 1 0.5897 -14.5229494618969 8.898163204820833 21.398187745781843 0 -1 0
1033 345 2 -1.1794 -14.64834589616342 7.950117449825381 21.436826151172372 0 -1 0
1118 373 1 0.5897 -13.958438692439522 11.16298147517054 21.486973564307828 0 -1 0
1002 334 1 0.5897 -16.22803840410643 10.31295215095047 17.613016601475596 0 -1 0
988 330 2 -1.1794 -15.00562700547199 7.382235889814233 18.72788150773833 0 -1 0
1022 341 1 0.5897 -13.392853239485971 12.337838079813956 18.58319525234968 0 -1 0
979 327 2 -1.1794 -12.63392852884446 9.075568459772722 16.343467540671558 0 -1 0
1119 373 1 0.5897 -15.035310185821974 10.981717384954834 20.438273831689244 0 -1 0
1117 373 2 -1.1794 -14.227354174765313 10.589433065499811 20.76933754623147 0 -1 0
1098 366 1 0.5897 -17.255135621125792 14.126195373781911 18.214451213480118 0 -1 0
1042 348 2 -1.1794 -12.265210442751435 9.623415049121451 18.983517713761067 0 -1 0
1044 348 1 0.5897 -12.944631254562376 9.976379464715045 19.55806232423308 0 -1 0
981 327 1 0.5897 -12.606404540776571 9.382485924601877 17.24979689188174 0 -1 0
991 331 2 -1.1794 -16.011396246782798 13.569174820178027 16.99087029728288 0 -1 0
1023 341 1 0.5897 -13.102327831036302 12.243725667503671 17.100254717001143 0 -1 0
1111 371 2 -1.1794 -16.470844896326092 11.98720326068786 20.026629542537606 0 -1 0
992 331 1 0.5897 -15.249780315765332 13.15746614505948 17.399195683720347 0 -1 0
1000 334 2 -1.1794 -15.388334768113861 9.855169940171862 17.573329484854487 0 -1 0
1001 334 1 0.5897 -14.73290350223304 10.550434381041018 17.629680124593285 0 -1 0
1126 376 2 -1.1794 -14.875009343603605 14.278012295508198 20.101985762852685 0 -1 0
1021 341 2 -1.1794 -13.800636328265977 12.123850850582517 17.743955014632448 0 -1 0
1140 380 1 0.5897 -11.93232686206764 12.521521430773927 20.44008257720587 0 -1 0
1138 380 2 -1.1794 -12.393597368553127 13.113181285571365 19.845592048269914 0 -1 0
1128 376 1 0.5897 -14.026830220646673 13.834459147361645 20.09219392879323 0 -1 0
1127 376 1 0.5897 -15.516990734462302 13.569636795363973 20.054884608800137 0 -1 0
1013 338 1 0.5897 -10.865889842227272 10.486555691037719 18.267008996813573 0 -1 0
993 331 1 0.5897 -16.282438368118413 12.952045905667227 16.31121216614864 0 -1 0
1209 403 1 0.5897 -13.300624268394696 5.85865133179075 16.374108435900688 0 0 0
25 9 2 -1.1794 -4.144119411485344 0.6154310289350473 5.573410799101512 0 0 0
311 104 1 0.5897 -2.7283452410371156 -7.891222511075422 3.435944505451448 1 1 0
293 98 1 0.5897 -4.979263125628562 -3.7693057321583243 2.4879818018891386 1 1 0
242 81 1 0.5897 -1.1595736807302135 -6.6371648541323225 4.547276918077619 0 1 0
243 81 1 0.5897 -0.8940925852185053 -5.440153715922703 5.435194082742652 0 1 0
306 102 1 0.5897 -0.6459967365424681 -7.299526700109732 2.1741430225887317 1 1 0
304 102 2 -1.1794 -1.3326887922757127 -6.969296784631808 2.7535462894378666 1 1 0
316 106 2 -1.1794 -1.797640935627049 -4.4616316982160535 1.709707081742453 1 1 0
310 104 2 -1.1794 -3.4298939843164318 -8.309503035498809 3.93509941586802 1 1 0
318 106 1 0.5897 -2.6630316870969635 -4.061910442767763 1.7967682730817327 1 1 0
305 102 1 0.5897 -1.4895161748980765 -6.074005413848143 2.453690625292801 1 1 0
241 81 2 -1.1794 -1.1312115681024366 -6.366919932286345 5.4651892038529235 0 1 0
317 106 1 0.5897 -1.1866844075333152 -3.7274544166192847 1.7717983498404624 1 1 0
3 1 1 0.5897 -1.352195136563049 -3.318957011706509 4.511730014714969 0 0 0
105 35 1 0.5897 -3.317395752187082 -2.4647284068001847 3.426845358170306 1 0 0
104 35 1 0.5897 -3.447965385462701 -2.4106424050198116 4.9343007651177455 1 0 0
95 32 1 0.5897 -5.748642993689356 -0.9171474727172644 3.4857535635411625 1 0 0
292 98 2 -1.1794 -4.25684175877252 -3.2732979364354584 2.1028400949628043 1 1 0
88 30 2 -1.1794 -4.37304829463559 0.04598061334575654 2.871387662537881 1 0 0
26 9 1 0.5897 -4.1925982278718115 0.290954829586493 4.674107348406377 0 0 0
303 101 1 0.5897 -7.120057770337908 -2.094292307202071 1.1128702233923746 1 1 0
27 9 1 0.5897 -4.013516456298744 1.5590697857899034 5.481224463240645 0 0 0
96 32 1 0.5897 -6.002177436144442 -1.9114181757906286 4.598897589661082 1 0 0
90 30 1 0.5897 -3.705619658941912 -0.2816488291573922 2.2684720850479656 1 0 0
294 98 1 0.5897 -4.671095752499142 -2.723128133040129 1.4380213247659621 1 1 0
103 35 2 -1.1794 -2.8224822640482543 -2.271406422422859 4.223140171211758 1 0 0
94 32 2 -1.1794 -6.452160329344283 -1.3248310535734342 3.990875622185701 1 0 0
89 30 1 0.5897 -4.578977866018144 0.9228603890794442 2.5477460184941125 1 0 0
302 101 1 0.5897 -7.379034969286942 -2.0251749551028784 2.6030156697856643 1 1 0
309 103 1 0.5897 -2.660039897581993 -1.4851308430617198 0.3301199766849792 1 1 0
307 103 2 -1.1794 -2.4291660468695824 -0.9071029510444681 1.0573441193374788 1 1 0
199 67 2 -1.1794 0.5486273675012221 -7.849099319020739 0.9965690929958849 1 1 0
1046 349 1 0.5897 -5.122871112289637 1.4372162642240216 0.3991849485020539 0 -1 1
201 67 1 0.5897 0.3051053637251826 -8.482951076999045 0.32190497297424636 1 1 0
631 211 2 -1.1794 -5.405603822644674 -5.472488407129158 6.389028347470792 1 1 0
456 152 1 0.5897 -4.401007743393389 0.6621484268246505 9.948814056939346 0 0 0
404 135 1 0.5897 -5.138871511074614 -3.769384265955736 5.898387993514233 1 0 0
555 185 1 0.5897 -2.577573780216036 -6.83052931456194 6.410398498544966 0 1 0
553 185 2 -1.1794 -3.2256395860074303 -6.922661333808043 7.108887824749245 0 1 0
544 182 2 -1.1794 0.3551806220187004 -7.831997759374008 7.335772806635119 0 1 0
334 112 2 -1.1794 -4.263198876468632 -4.750720790176908 9.566202248000293 0 0 0
348 116 1 0.5897 -1.3747393544579118 -6.49328156663762 9.910533009607224 0 0 0