LAMMPS data file via write_data, version 30 Jul 2021, timestep = 2250000

864 atoms
2 atom types
576 bonds
1 bond types
288 angles
1 angle types

0.20812012294080873 17.999452277059056 xlo xhi
1.3366692845132881 22.29250851548835 ylo yhi
0.25390606387899695 21.959289736121242 zlo zhi

Masses

1 1.00794
2 15.9994

Pair Coeffs # lj/cut/tip4p/long/omp

1 0 0
2 0.21084 3.1668

Bond Coeffs # harmonic/omp

1 450 0.9572

Angle Coeffs # harmonic/omp

1 55 104.52

Atoms # full

228 1 1 0.5897 1.3491804274860193 2.1981258933200776 2.165148623086716 2 -2 0
392 1 1 0.5897 2.2309951191738784 4.546208664008168 2.766909932505647 4 -2 0
495 1 1 0.5897 1.6332533767606483 3.7816909495242466 0.4716146784997385 -1 -1 0
341 1 1 0.5897 2.8701649122625668 5.578903063481759 4.794257467523727 2 4 3
391 1 2 -1.1794 2.8109948949406567 5.258144503952467 3.0371173559474625 4 -2 0
226 1 2 -1.1794 1.2036964818760296 3.1442285490066375 2.166457235841226 2 -2 0
393 1 1 0.5897 3.582906222563956 5.1637960099208655 2.478969742016362 4 -2 0
227 1 1 0.5897 0.5805465405406625 3.2902220741493124 2.878239224203207 2 -2 0
307 1 2 -1.1794 4.631659878615069 2.4297629486489614 4.6934833955211905 0 4 -1
377 1 1 0.5897 2.5597997112584787 1.9240822864742122 8.038703834588581 1 4 4
376 1 2 -1.1794 1.7597497409492031 2.351040532013323 8.345127827752297 1 4 4
378 1 1 0.5897 1.3084762315510705 1.6778858108818575 8.854516740128226 1 4 4
282 1 1 0.5897 3.5747512261091257 4.469350539933584 10.274380901211412 -3 0 2
342 1 1 0.5897 2.1394890434495166 5.243013646789453 6.076947566441975 2 4 3
600 1 1 0.5897 1.8063181477728372 3.8726409581367283 9.390193823429737 0 -3 -4
753 1 1 0.5897 4.334601635689318 4.99438679807242 6.737913834199687 3 1 0
598 1 2 -1.1794 1.8375961926223816 4.767807100918373 9.727816562656697 0 -3 -4
599 1 1 0.5897 1.6255603697875791 4.681303502210822 10.657237568263763 0 -3 -4
739 1 2 -1.1794 0.664830430294752 4.268229786051004 6.662049375627099 -1 0 3
741 1 1 0.5897 0.9820474920361592 3.523487542873295 7.172957834139096 -1 0 3
340 1 2 -1.1794 2.9261681978269882 5.675664626456245 5.744951027207969 2 4 3
280 1 2 -1.1794 4.278041533000846 4.156931519902302 10.843636034828004 -3 0 2
296 1 1 0.5897 3.008814288331673 1.6303467508663665 5.701943053072563 0 4 1
670 1 2 -1.1794 1.51306145998107 4.339840515800712 12.425438277082932 6 2 1
671 1 1 0.5897 1.4247528453867575 3.4662523921147605 12.806661573410231 6 2 1
590 1 1 0.5897 4.005827974883033 5.6263309784685 13.903835851336122 2 5 2
672 1 1 0.5897 2.151168896651882 4.782491285145609 12.985038925300318 6 2 1
247 1 2 -1.1794 1.1971840083059129 1.9097136799081107 13.738817453813917 -3 3 -3
248 1 1 0.5897 1.5820025546540994 1.5958976571311974 14.557175124300018 -3 3 -3
589 1 2 -1.1794 3.1534459980266 6.01485041930074 13.706968115796421 2 5 2
140 1 1 0.5897 3.0680829224939363 4.469262854889706 15.662847498894335 0 -1 0
614 1 1 0.5897 4.143028902867913 2.3692199553001028 11.859748002463224 -5 2 3
543 1 1 0.5897 0.3347254672433103 5.232886214997652 13.616336026336816 -4 1 2
613 1 2 -1.1794 4.223995162982988 1.4690755629684513 12.175125865135412 -5 2 4
127 1 2 -1.1794 2.2599147302150113 1.643470804595541 16.495463650707208 -1 1 -5
591 1 1 0.5897 2.924282023764415 6.5038319830828355 14.497309950430585 2 5 2
416 1 1 0.5897 4.039190029531509 6.202120355832156 21.085731745007212 0 -2 -1
864 1 1 0.5897 2.604203038319239 2.4400935627378804 20.261108789719618 0 -1 1
494 1 1 0.5897 2.2032892592676183 4.762475886813412 21.17445979241623 -1 -1 -1
415 1 2 -1.1794 3.120481399492913 6.454556597783149 21.17806502985577 0 -2 -1
862 1 2 -1.1794 2.9177209256025796 1.6954127807055075 19.74786187676555 0 -1 1
749 1 1 0.5897 0.2844404531431777 3.758001051094069 20.332699074086836 2 5 0
493 1 2 -1.1794 1.8835643721560138 3.8639897406708212 21.25674907852788 -1 -1 -1
129 1 1 0.5897 1.5814131202598283 1.4445712750382667 17.140710272309537 -1 1 -5
128 1 1 0.5897 2.524825756276181 2.5414408033850022 16.69480932703412 -1 1 -5
270 1 1 0.5897 0.9775814936048564 4.422553132385966 16.790856172964133 2 5 6
141 1 1 0.5897 2.942092044994019 5.070009075591013 17.046765717961133 0 -1 0
139 1 2 -1.1794 2.7897926977549496 4.262911360643773 16.55517380163452 0 -1 0
327 1 1 0.5897 0.29807721120317154 1.8211265353858805 19.00989105072475 0 -1 -2
437 1 1 0.5897 1.4479829150301418 8.3641201976206 1.8299299592892608 -1 5 1
644 1 1 0.5897 2.986639094239618 11.061280388911483 5.018183949685608 3 -3 0
15 1 1 0.5897 3.834216693907633 7.323659652508529 5.079183493885716 0 -4 -3
357 1 1 0.5897 3.5096695849644606 8.043287436824087 2.9330580551075385 1 -1 4
436 1 2 -1.1794 0.5921988587596743 8.79207642062444 1.8577790675772894 -1 5 1
14 1 1 0.5897 4.000256586682038 8.80054270880218 5.367756366990915 0 -4 -3
356 1 1 0.5897 3.4708935669621774 7.407505833582393 1.5596396041272245 1 -1 4
13 1 2 -1.1794 4.158649942082667 8.138210083664084 4.695076498943161 0 -4 -3
355 1 2 -1.1794 3.319131168665253 8.235717054904065 2.0149431418651433 1 -1 4
72 1 1 0.5897 3.481296129676493 9.564031838100469 0.8788196094457735 5 2 -4
438 1 1 0.5897 0.7913859387941049 9.718324276986253 1.9945006888308217 -1 5 1
532 1 2 -1.1794 0.6337063589717826 11.493556089604656 2.4578667617229417 -6 -2 -1
18 1 1 0.5897 1.4913769015075242 6.591829907289051 9.399854447393446 -2 3 3
796 1 2 -1.1794 2.8318559461696053 9.437785738448818 10.41468781102644 0 -5 -2
126 1 1 0.5897 1.7501907064730464 9.045917950373315 6.341565582372137 1 0 2
17 1 1 0.5897 1.5888276321377883 7.523211422452544 8.21029733808751 -2 3 3
16 1 2 -1.1794 1.4470686595697935 7.516656256767828 9.156943689355977 -2 3 3
797 1 1 0.5897 2.4829847639481284 8.755204358658869 9.841421487236545 0 -5 -2
125 1 1 0.5897 1.8558102658298883 7.628747750208697 5.819566635969963 1 0 2
124 1 2 -1.1794 1.3768252643864352 8.17078569232742 6.446496515103986 1 0 2
643 1 2 -1.1794 2.6481291699657823 10.58883916549727 5.778764190785371 3 -3 0
47 1 1 0.5897 3.3059815800912884 11.196998323273467 10.560786769759622 3 -2 -1
645 1 1 0.5897 3.3218029169565284 10.699942788293534 6.449644666714779 3 -3 0
684 1 1 0.5897 1.3034571753265929 11.507706493988017 6.672579141730672 5 0 -5
798 1 1 0.5897 3.36316893506716 8.964826084747054 11.05522308434222 0 -5 -2
762 1 1 0.5897 3.934607554813279 10.530783165682102 8.554994374663611 1 -4 -1
760 1 2 -1.1794 4.405073710496643 10.846837821431293 7.783606217614657 1 -4 -1
680 1 1 0.5897 1.484418707672326 8.046180967851662 15.244718287205625 -6 -5 0
681 1 1 0.5897 2.8213323073969665 8.734528885339298 15.069019857139622 -6 -5 0
633 1 1 0.5897 2.5374174679424413 10.894968276216073 15.696855763372628 5 5 4
706 1 2 -1.1794 4.5930340244581265 8.31207289186117 12.24762571175034 0 -2 -7
708 1 1 0.5897 4.089050481217285 7.678816522523557 12.758752776435658 0 -2 -7
631 1 2 -1.1794 2.837653846602347 10.64932333337448 14.821756069493517 5 5 4
290 1 1 0.5897 1.1408291612209172 11.37478980353234 12.59399869029555 -6 -5 -7
679 1 2 -1.1794 2.4112811559957614 7.968721357700469 15.471084420132076 -6 -5 0
632 1 1 0.5897 3.647557282427176 11.144358157002333 14.69815284656455 5 5 4
525 1 1 0.5897 1.3009583217837901 9.970632030508574 11.478490430277306 3 0 3
523 1 2 -1.1794 0.5045811822672104 9.845056117624422 11.994537514645375 3 0 3
577 1 2 -1.1794 2.8801178434121324 8.519945412796618 19.454515410312375 2 1 -2
501 1 1 0.5897 3.361747275849523 7.078202047190406 16.63686044815731 0 -1 -3
579 1 1 0.5897 2.0635821689321476 8.909051924280408 19.141212691067135 2 1 -2
417 1 1 0.5897 2.973236542161429 7.0861983026078335 20.474064903298043 0 -2 -1
500 1 1 0.5897 3.248354067580398 7.170626453986317 18.143702175651846 0 -1 -3
110 1 1 0.5897 3.890295916859542 11.737019711127434 18.421016130576145 -1 -1 -8
578 1 1 0.5897 3.0958819051626674 9.017474607190191 20.243296697137147 2 1 -2
427 1 2 -1.1794 0.45305516248150224 9.483598558370181 19.04455477960307 2 0 -3
109 1 2 -1.1794 4.613052603819738 11.74033350701581 19.04865240180058 -1 -1 -8
499 1 2 -1.1794 3.6420133184612187 6.648230406751477 17.44484656104951 0 -1 -3
70 1 2 -1.1794 3.437027432587814 10.102803794644505 21.79424998783012 5 2 -5
71 1 1 0.5897 4.337830116649187 10.393153860588058 21.650997976929023 5 2 -5
807 1 1 0.5897 1.9937273886926627 16.749379150236855 0.6590987951350888 2 -1 -3
59 1 1 0.5897 2.6426508881910142 15.110464580886529 2.4602608379209743 4 -2 -2
704 1 1 0.5897 2.9667000182049974 15.177751791671971 5.383041523722458 3 -2 -1
58 1 2 -1.1794 2.8020090620232274 15.026725556854945 3.400398400343053 4 -2 -2
60 1 1 0.5897 3.7416693279429882 15.180202156759107 3.499147894842465 4 -2 -2
534 1 1 0.5897 0.421897475622243 12.001024257179061 1.6743665535782728 -6 -2 -1
87 1 1 0.5897 3.356619444992972 12.937448712086777 4.0199441069754425 -1 5 2
86 1 1 0.5897 4.418840459949969 11.900973833171864 3.7209849617108506 -1 5 2
431 1 1 0.5897 4.247054526420953 15.623384541652223 0.47608676218059565 -5 -2 -2
430 1 2 -1.1794 3.339688365475547 15.372847384650006 0.6498320953040634 -5 -2 -2
432 1 1 0.5897 3.275959505120971 14.47021600521498 0.33764565655718914 -5 -2 -2
85 1 2 -1.1794 3.4702858139962927 12.02605250917015 3.750317860837669 -1 5 2
533 1 1 0.5897 1.479491248991433 11.83758986525891 2.7452497636974806 -6 -2 -1
44 1 1 0.5897 2.542299236456647 15.24540534957979 8.843097300253133 2 6 -2
848 1 1 0.5897 2.3920358028724023 12.970553359157568 9.225368797314387 3 -2 5
849 1 1 0.5897 1.1435981642173565 13.823227949449223 9.14587797874304 3 -2 5
847 1 2 -1.1794 1.8755201189928692 13.501794911626462 8.619351151581121 3 -2 5
46 1 2 -1.1794 3.208349919265308 12.14870498517503 10.592263183816597 3 -2 -1
43 1 2 -1.1794 2.735988479646996 16.06225067674479 9.303054122179553 2 6 -2
703 1 2 -1.1794 3.269952435553881 15.281918845933006 6.2849635014202025 3 -2 -1
683 1 1 0.5897 0.5837662561894623 12.446857448877939 7.617077637543651 5 0 -5
68 1 1 0.5897 1.5539949343204704 15.748202841250238 6.215771512710621 5 -2 -4
45 1 1 0.5897 3.685276314260983 16.160216455922836 9.228712193359152 2 6 -2
705 1 1 0.5897 3.6789852905811444 16.147174889725502 6.302222931613305 3 -2 -1
854 1 1 0.5897 4.2990134184533755 14.433000691662699 7.599069975247656 -2 1 1
682 1 2 -1.1794 0.43537330749723724 11.853000943693585 6.881141937948595 5 0 -5
335 1 1 0.5897 1.8640113084372227 15.822455163412423 11.062115007997331 6 -1 2
67 1 2 -1.1794 0.6871101730353633 15.910335914252997 5.843592168425393 5 -2 -4
78 1 1 0.5897 0.2922224700160263 14.461016832617261 10.91978686014586 -5 -4 -4
334 1 2 -1.1794 1.5090368064553092 15.527144827581289 11.900594560493156 6 -1 2
315 1 1 0.5897 4.215628998063961 15.485028630366362 12.728757020529333 -1 -1 -1
366 1 1 0.5897 3.602453255187341 14.32418736365883 14.68981125205193 1 4 1
336 1 1 0.5897 2.2560170604568595 15.13472705440935 12.352590814176006 6 -1 2
314 1 1 0.5897 4.61876142939762 14.040799805981731 12.519697888120447 -1 -1 -1
313 1 2 -1.1794 3.935562167692995 14.58740271217428 12.907961475474549 -1 -1 -1
364 1 2 -1.1794 3.2953544302951268 13.943359254296036 15.512595895657798 1 4 1
365 1 1 0.5897 2.73599740292157 14.619091693200197 15.895744554409172 1 4 1
48 1 1 0.5897 2.7357660533639487 12.314635235200885 11.40798324193742 3 -2 -1
289 1 2 -1.1794 1.5997057145534446 12.16091629728279 12.890197354117662 -6 -5 -7
49 1 2 -1.1794 1.5868420505610914 16.113557970800013 16.460151593087446 7 1 -1
759 1 1 0.5897 0.2443478496653067 16.500810480282436 12.75343137023391 0 1 2
50 1 1 0.5897 1.5328490094519918 17.04102633569844 16.229582127257597 7 1 -1
291 1 1 0.5897 2.0644755941701396 11.88428903024242 13.67996255514156 -6 -5 -7
321 1 1 0.5897 2.754859759572021 12.50743722476423 16.524477993263865 2 -2 0
820 1 2 -1.1794 1.490457996135603 15.365512440208578 19.321978491420627 2 1 4
439 1 2 -1.1794 4.374146229120788 14.666544196056215 19.152218674351325 0 -1 -2
319 1 2 -1.1794 2.4982139643579453 11.886778891968877 17.206517808726897 2 -2 0
822 1 1 0.5897 2.3340982714683003 14.968151447440155 19.53796516035441 2 1 4
51 1 1 0.5897 1.4798586929878816 16.096069279640854 17.411208686793266 7 1 -1
821 1 1 0.5897 1.59374951616342 16.288617283902028 19.55321129934944 2 1 4
135 1 1 0.5897 1.2663857238751621 13.220124777142916 21.522828498763786 1 -5 -2
130 1 2 -1.1794 3.042826918816393 12.839112418877418 21.592325609417998 -4 2 0
132 1 1 0.5897 3.1706746645192627 12.831060321709348 20.643719801421383 -4 2 0
133 1 2 -1.1794 0.3642132893059613 13.047445166422508 21.79213571577509 1 -5 -2
320 1 1 0.5897 1.551820914727626 12.00205850078367 17.292126889297197 2 -2 0
131 1 1 0.5897 3.229598491261087 11.941453678502615 21.867276894590972 -4 2 0
440 1 1 0.5897 4.6419000354870565 15.216397731353347 18.415856282318117 0 -1 -2
441 1 1 0.5897 4.644793120708991 15.156689026015382 19.92860234351975 0 -1 -2
692 1 1 0.5897 4.420609302042289 21.69936012053509 0.38192243739641707 2 0 4
199 1 2 -1.1794 2.755709726342153 19.867691697608308 4.077904590074988 3 -3 0
200 1 1 0.5897 3.2769766643697045 19.33183797917572 3.4800747338744187 3 -3 0
201 1 1 0.5897 2.08647050185599 19.271145738423584 4.413340992281362 3 -3 0
743 1 1 0.5897 2.429900316527887 21.06868302339754 1.0008366077953992 -2 -1 1
744 1 1 0.5897 2.1899939883780926 21.16928417236411 2.4922457972691685 -2 -1 1
354 1 1 0.5897 0.28941786750003656 17.630112476594174 5.117577149390505 5 3 -2
742 1 2 -1.1794 1.7517353984390913 21.26642204311112 1.6468060008508165 -2 -1 1
509 1 1 0.5897 3.4976779132380305 17.725803272752145 1.594148148194394 4 -2 3
805 1 2 -1.1794 1.770599009759811 17.680005742379358 0.6372708508078295 2 -1 -3
297 1 1 0.5897 2.5174427692873738 21.28788602432905 5.0978424329509044 0 3 1
508 1 2 -1.1794 4.24122908588197 18.034788117736298 2.1117605354694433 4 -2 3
806 1 1 0.5897 0.924211477242646 17.73433251453055 1.0810659606631396 2 -1 -3
94 1 2 -1.1794 4.3026240523401125 21.816665242774672 8.046025809034685 -3 0 0
206 1 1 0.5897 3.233120729715246 19.2567817079931 10.056184787659797 -5 3 -3
792 1 1 0.5897 1.6850523376602087 19.231237900507736 7.7895695858435445 3 4 -1
790 1 2 -1.1794 1.7841500037875582 19.395415510631004 6.851755353639577 3 4 -1
791 1 1 0.5897 1.9916059189185282 20.327967869848592 6.79198652388459 3 4 -1
205 1 2 -1.1794 4.151145717083379 19.49534933785685 9.927439470812637 -5 3 -3
283 1 2 -1.1794 1.6309539319207078 18.623979326185054 9.445967505598064 7 0 -3
207 1 1 0.5897 4.584266662189357 18.67133027549307 9.704571897527432 -5 3 -3
285 1 1 0.5897 1.873885192634878 17.6983944377438 9.422705621224896 7 0 -3
552 1 1 0.5897 3.3270159770976275 18.52134199450134 6.354393769058003 -2 6 -4
96 1 1 0.5897 4.166724631456926 21.10279890474354 8.669071997726551 -3 0 0
550 1 2 -1.1794 4.108881184461724 17.97691656349058 6.26187533622641 -2 6 -4
284 1 1 0.5897 0.7617195615802124 18.633962704969832 9.846720101599042 7 0 -3
295 1 2 -1.1794 2.3252712410712544 21.921753212666935 5.788888012914296 0 3 1
53 1 1 0.5897 0.45555495952191233 21.754359567804443 5.693043161085496 -4 -2 3
353 1 1 0.5897 0.3567805962721002 18.995898442306533 5.76725018646647 5 3 -2
56 1 1 0.5897 2.678347576271779 21.389226519921955 11.85742988285829 -3 0 1
466 1 2 -1.1794 2.098008388290347 19.01391670396518 15.696231773879713 4 -2 6
529 1 2 -1.1794 2.1794341470072083 18.418467629635035 12.885382277970646 -2 -1 -5
531 1 1 0.5897 2.1243385290092727 19.31644410146273 12.558459942903385 -2 -1 -5
213 1 1 0.5897 3.6625077510336714 17.629725522351784 12.486596459598257 2 2 2
468 1 1 0.5897 2.2209149182526424 18.938257395638875 14.749961281932565 4 -2 6
530 1 1 0.5897 1.2687160346671447 18.131915620159962 12.954455446313842 -2 -1 -5
55 1 2 -1.1794 1.8700535225304984 20.90147058136632 12.015661525761196 -3 0 1
467 1 1 0.5897 2.940516463566699 19.329429186841597 16.02320055337885 4 -2 6
57 1 1 0.5897 1.2529669042624898 21.2432190803402 11.368607337354502 -3 0 1
249 1 1 0.5897 1.4118659902864932 22.188202892691624 13.097424269962001 -3 2 -3
211 1 2 -1.1794 4.55899712323349 17.367178558927126 12.27766927790844 2 2 2
567 1 1 0.5897 0.5551035363892237 20.021078672350168 16.21874087049721 0 4 -6
412 1 2 -1.1794 1.255719669300856 17.9953199882392 19.685922376859914 1 -2 3
691 1 2 -1.1794 3.8573540595668345 21.084893568752854 21.61673206584467 2 0 3
233 1 1 0.5897 3.5253403686863067 21.383005077635037 16.75881468792007 -2 1 0
446 1 1 0.5897 2.812239829898284 18.515057150641265 18.940372311956125 2 -1 -2
693 1 1 0.5897 4.379646988793501 20.28577273357157 21.546857412907944 2 0 3
445 1 2 -1.1794 3.74958207980064 18.53521609265752 18.747272202840236 2 -1 -2
447 1 1 0.5897 3.872941430160839 19.337524018712667 18.239931340179005 3 -1 -2
232 1 2 -1.1794 4.09955047622954 20.652700513475946 16.989490594495468 -2 1 0
413 1 1 0.5897 1.5136962896199238 17.996783178534084 20.607733585041178 1 -2 3
863 1 1 0.5897 3.310486025757863 22.063376212823165 20.3931548849162 0 -2 1
325 1 2 -1.1794 0.5489108065604518 21.902745504638563 18.711418349625173 0 -2 -2
326 1 1 0.5897 1.465631747628724 21.813966168690794 18.97219261317064 0 -2 -2
414 1 1 0.5897 0.31228552179565333 17.834093478320582 19.700966721796835 1 -2 3
167 1 1 0.5897 7.292766669997671 4.741707642317605 4.027592884992549 -3 0 3
548 1 1 0.5897 5.1659193477420455 1.4652512420127333 3.296841316277327 5 0 6
309 1 1 0.5897 5.061530256970628 3.2700126268192085 4.533934729538756 0 4 -1
168 1 1 0.5897 7.409141032144681 3.5847068008041227 3.0581734599668957 -3 0 3
166 1 2 -1.1794 6.806845326600086 4.26797841511973 3.3525212565383455 -3 0 3
549 1 1 0.5897 5.510916183589505 2.016595521673226 1.9297026576159042 5 0 6
390 1 1 0.5897 5.696602819616468 4.909957241448401 2.35778224341722 2 6 5
389 1 1 0.5897 5.213140776540823 4.747076610203097 0.9323756274882007 2 6 4
388 1 2 -1.1794 5.142370391140651 5.321617180185092 1.6947233071727708 2 6 5
308 1 1 0.5897 5.261461079480334 1.9334124782303257 5.216216515318734 0 4 -1
677 1 1 0.5897 8.932608454502954 2.939324306483409 2.130792163015991 2 1 -2
655 1 2 -1.1794 8.499794732159755 3.4170656131813884 0.573922539873766 0 2 0
676 1 2 -1.1794 8.943987747634402 2.5849225047869293 3.01994090568466 2 1 -2
520 1 2 -1.1794 5.859735523123279 3.0771184173221227 0.28176369438566434 -3 0 -2
521 1 1 0.5897 6.810009795152107 3.0984884598575517 0.39483739519124733 -3 0 -2
722 1 1 0.5897 7.638364015617658 6.534753846351184 5.284598617089319 1 0 -1
829 1 2 -1.1794 8.244009446362764 3.266470252655522 10.326913115245599 4 4 4
752 1 1 0.5897 5.804192780116966 5.288196320925675 6.523491879417618 3 1 0
281 1 1 0.5897 4.884239746925581 3.709901048062735 10.252918566350527 -3 0 2
723 1 1 0.5897 8.16300730868241 5.305664181031716 5.996000784778336 1 0 -1
831 1 1 0.5897 7.68607962520656 2.8099356379498044 9.697190098896227 4 4 4
817 1 2 -1.1794 5.9114085178577715 2.8378816330132923 8.896438830687467 3 -1 1
819 1 1 0.5897 5.4028699914870035 2.0730170786420814 8.626926287602226 3 -2 1
634 1 2 -1.1794 8.998918562774817 1.4546907612938806 6.963647919764808 -8 1 1
474 1 1 0.5897 8.719890847545479 4.877424564201101 8.038113064216649 0 1 -2
721 1 2 -1.1794 7.352111124940727 5.7268566175937305 5.710856217060326 1 0 -1
818 1 1 0.5897 5.774252655242919 3.4761333138431567 8.196343614830301 3 -1 1
636 1 1 0.5897 9.091959987875923 2.3899289330851365 7.145165478109328 -8 1 1
751 1 2 -1.1794 5.197183442961964 4.869103286238647 7.133552535331436 3 1 0
491 1 1 0.5897 8.425464396208929 5.074839259734122 9.793406054689846 0 4 3
537 1 1 0.5897 6.731445921839624 6.246999653261437 10.390352104384565 5 6 4
490 1 2 -1.1794 8.334385584892013 6.027458012863335 9.815873831078175 0 4 3
492 1 1 0.5897 9.075468644512224 6.32703247836438 10.342478649545981 0 4 3
535 1 2 -1.1794 5.981701562541497 6.395858532231794 10.96654188151943 5 6 4
138 1 1 0.5897 8.447250886007065 2.3726089140595894 11.859556393305299 5 -6 0
485 1 1 0.5897 5.892059363850416 3.0360929444025464 14.328838535656828 -1 3 -1
486 1 1 0.5897 6.9316685118135375 2.186052199286188 13.629832141188219 -1 3 -1
858 1 1 0.5897 6.2306459199825674 4.982419444197058 13.988869284874118 0 0 -3
615 1 1 0.5897 4.911283092203265 1.5086977018241978 12.840204473331415 -5 2 4
856 1 2 -1.1794 5.407674980892847 4.764828160206891 14.426627010322242 0 0 -3
484 1 2 -1.1794 6.084573057838333 2.134142914889545 14.072543098317242 -1 3 -1
857 1 1 0.5897 5.571732866667056 4.949227065483976 15.35147492601696 0 0 -3
421 1 2 -1.1794 7.483944502066932 5.445274192033042 13.092940549786759 -4 1 4
423 1 1 0.5897 8.328202663152807 5.854403544680394 13.282989023903006 -4 1 4
422 1 1 0.5897 7.141620437910644 5.936949616346246 12.346392499824345 -4 1 4
136 1 2 -1.1794 8.40527106429192 1.926126448741373 12.705222193974224 5 -6 0
536 1 1 0.5897 5.615291155892184 5.523878283438 11.113737676726826 5 6 4
522 1 1 0.5897 5.7289466167533405 3.146981645515615 21.04148740986336 -3 0 -3
292 1 2 -1.1794 5.801437879909765 4.853597698399282 17.148439277814536 -2 0 2
571 1 2 -1.1794 5.462737397242565 5.89319221144596 20.245774601545076 2 -3 -5
573 1 1 0.5897 6.3426921482526755 5.740122148573794 20.590023676852613 2 -3 -5
294 1 1 0.5897 5.467449863126849 4.157905596232664 17.714797128459733 -2 0 2
100 1 2 -1.1794 8.409346537261163 5.425276959876809 20.485599069530604 5 -5 -2
101 1 1 0.5897 8.391975104242546 5.196787073388497 19.55621691420286 5 -5 -2
255 1 1 0.5897 6.232593467254087 2.1990972410563376 18.84538611994852 2 8 -7
253 1 2 -1.1794 5.595337019407949 2.8622088967880615 19.110803011123235 2 8 -7
26 1 1 0.5897 7.52218330850474 5.230010303811051 17.494922049503785 -1 6 6
25 1 2 -1.1794 8.41945096685514 5.531656453301698 17.63706825335263 -1 6 6
656 1 1 0.5897 8.679158640082916 2.6561399625402697 21.72694894586233 0 2 -1
293 1 1 0.5897 5.208231303038819 5.589909579037336 17.297490323644542 -2 0 2
657 1 1 0.5897 8.45891172204031 4.152825319889379 21.668363157188104 1 2 -1
27 1 1 0.5897 8.966030138497134 4.790812438447379 17.375011286980843 -1 6 6
254 1 1 0.5897 4.787987818985101 2.3713649447112712 19.26422398202316 2 8 -7
572 1 1 0.5897 5.586359728079483 6.5379827273285205 19.549169293965083 2 -3 -5
147 1 1 0.5897 8.251200196137516 1.3769845551980815 18.002232431078554 0 2 -4
214 1 2 -1.1794 6.464230889302427 9.0642142427143 3.4137414966777695 -1 1 3
65 1 1 0.5897 6.319515028359402 10.990830949204371 3.4249113920702445 3 0 -3
159 1 1 0.5897 7.760086870990825 8.58266263195107 4.511198493383594 1 2 -2
216 1 1 0.5897 6.516328899211822 8.751787073053524 2.5104431906395797 -1 1 3
646 1 2 -1.1794 6.793182199378966 7.534798219266654 1.258656265242722 -6 0 0
215 1 1 0.5897 5.637950650415646 8.710315365437783 3.742805104050197 -1 1 3
648 1 1 0.5897 7.6830111297215185 7.228927814504821 1.4344699167600463 -6 0 0
157 1 2 -1.1794 8.300350597316735 8.31065788575729 5.253079093285833 1 2 -2
647 1 1 0.5897 6.239553275432671 6.772454062433242 1.4277472394951631 -6 0 0
583 1 2 -1.1794 8.623693754109926 9.204122921050612 9.566932176082668 2 -4 1
584 1 1 0.5897 8.327647282501461 8.808866222717947 10.386978180550702 2 -4 1
761 1 1 0.5897 5.183569984874079 10.29212873131805 7.733316034874993 1 -4 -1
123 1 1 0.5897 5.167979882732462 7.044335748221376 9.266379847861032 1 -2 0
35 1 1 0.5897 6.089846109076903 8.546468757712088 7.807781437195033 -4 2 -1
34 1 2 -1.1794 6.667181987667754 9.284336118886605 7.611526228816687 -4 2 -1
158 1 1 0.5897 7.851873645187054 8.66701550272724 6.0199799961479075 1 2 -2
36 1 1 0.5897 7.345154444942297 9.244634152904204 8.286099500858828 -4 2 -1
121 1 2 -1.1794 4.989632549002617 7.365390202278768 8.382406714822764 1 -2 0
585 1 1 0.5897 8.632258667941558 10.14490769453069 9.743334137513978 2 -4 1
122 1 1 0.5897 4.960279079035331 6.576008404371745 7.841775140963719 1 -2 0
528 1 1 0.5897 5.693161483964932 8.456812470173636 13.620013181171633 -2 -4 0
2 1 1 0.5897 7.810484176339622 9.637845125558652 12.565312368440896 2 -7 3
526 1 2 -1.1794 6.259404182977047 8.307317492628378 14.377179587891332 -2 -4 0
330 1 1 0.5897 6.491016745957644 9.384528316110002 15.83253017109665 3 5 0
527 1 1 0.5897 7.10089553410479 8.04989932925467 14.00046954150106 -2 -4 0
707 1 1 0.5897 5.253215806312854 7.785555730787296 11.796831562111377 0 -2 -7
1 1 2 -1.1794 8.22563949032839 8.817198227238762 12.299863745763952 2 -7 3
3 1 1 0.5897 8.997824974190388 8.746395369542348 12.86112342605586 2 -7 3
649 1 2 -1.1794 5.405123713795597 11.811394529112707 14.696725853846837 2 -1 -1
385 1 2 -1.1794 7.3745872947544955 11.484726174160816 12.779769003993362 -4 1 1
650 1 1 0.5897 5.7406676390462605 11.216839223634524 15.3676790114377 2 -1 -1
592 1 2 -1.1794 8.977256260285788 7.963969541580003 16.229103028991908 -1 0 -3
651 1 1 0.5897 5.934022866109882 11.621717020439858 13.921760221818472 2 -1 -1
767 1 1 0.5897 5.636546445992202 11.244138852881377 20.484676257105644 -2 -2 1
766 1 2 -1.1794 5.898569372035371 11.042589714612584 21.382997307547225 -2 -2 1
619 1 2 -1.1794 7.5622419543974395 8.892388942302997 20.69311451892241 1 -1 3
620 1 1 0.5897 7.01136561110012 8.803309139717458 19.915386619181938 1 -1 3
329 1 1 0.5897 7.499408738936974 10.157461796605476 16.655746108078866 3 5 0
98 1 1 0.5897 5.934705990991371 8.88522223628651 17.888553092611968 3 -7 5
97 1 2 -1.1794 5.696351574856425 8.443155958206304 18.703446682058335 3 -7 5
768 1 1 0.5897 6.553031248273497 10.349960251518723 21.29242785421285 -2 -2 1
328 1 2 -1.1794 6.558333033771756 10.027591574177222 16.53836160776258 3 5 0
621 1 1 0.5897 7.143089918444843 8.335468144723194 21.34917193415298 1 -1 3
597 1 1 0.5897 8.217066212926861 11.5770864856169 18.5101859543691 0 -4 1
594 1 1 0.5897 8.796338253676145 7.2122708077523985 16.7934440546136 -1 0 -3
99 1 1 0.5897 4.784555995237007 8.692632942337163 18.85399292071454 3 -7 5
596 1 1 0.5897 6.709127464512195 11.56711847406851 18.375913594536957 1 -4 1
458 1 1 0.5897 6.024387678635319 15.411817333304581 5.2794761374503905 0 -1 -2
381 1 1 0.5897 7.927992136629318 14.912393153773053 2.327787936188222 8 3 0
844 1 2 -1.1794 5.376238610309072 15.916529965550895 3.7003449065571528 -1 0 4
824 1 1 0.5897 6.48589194295286 12.51147083710005 0.707042458444695 -2 4 3
846 1 1 0.5897 6.255840692699678 15.788749356641826 3.345052349932509 -1 0 4
379 1 2 -1.1794 8.002701109505587 15.713312743486792 2.846643895863001 8 3 0
66 1 1 0.5897 6.13661180065717 12.390445012982113 2.8774448697003057 3 0 -3
823 1 2 -1.1794 7.214740661287506 12.97855528536791 1.1155935697026376 -2 4 3
64 1 2 -1.1794 6.130371679266562 11.889936398494864 3.693423947396572 3 0 -3
825 1 1 0.5897 7.843037678105193 12.29255990239666 1.34126513429637 -2 4 3
351 1 1 0.5897 7.235674418704069 12.330175997465624 5.118042352324342 -10 1 -2
380 1 1 0.5897 8.925137244648509 15.959307166243736 2.7768637670225673 8 3 0
845 1 1 0.5897 5.057502985510278 16.71104255663643 3.2720670978269646 -1 0 4
349 1 2 -1.1794 7.815854169381977 12.865806160102546 5.659148134426516 -10 1 -2
176 1 1 0.5897 6.860135289204237 14.74955052240638 8.964902132906408 -1 -3 6
810 1 1 0.5897 8.73127622797866 12.929664070050881 9.794145014392406 4 0 -2
457 1 2 -1.1794 6.472999792945896 15.274706262472623 6.1139028091319165 0 -1 -2
175 1 2 -1.1794 7.556307028668198 14.602959833396488 9.605304359052782 -1 -3 6
855 1 1 0.5897 4.861808075847226 13.160863694194678 8.1964955706037 -2 1 1
177 1 1 0.5897 7.662945503863048 15.448269586008877 10.041586946354634 -1 -3 6
853 1 2 -1.1794 5.009091931515161 14.105601924340313 8.1512187077472 -2 1 1
459 1 1 0.5897 5.83300165400921 14.81556193710132 6.65782502124736 0 -1 -2
836 1 1 0.5897 6.08753045129606 13.683249816148493 10.60960237032823 -1 1 -2
837 1 1 0.5897 4.9012677999931675 12.76785599462488 10.826055008948929 -1 1 -2
350 1 1 0.5897 7.309054240409873 13.65644619105144 5.844429470301997 -10 1 -2
245 1 1 0.5897 7.739830997184426 16.65495046219709 5.904718798485218 -3 3 -2
808 1 2 -1.1794 9.01290741821731 12.022502102864044 9.912602708481698 4 0 -2
697 1 2 -1.1794 7.168672839827264 16.831399364610192 11.369375990259774 -2 3 -4
699 1 1 0.5897 7.317636421188226 16.38754095183054 12.204280614687836 -2 3 -4
209 1 1 0.5897 8.626773854802558 16.060451306004744 14.080922934148408 1 -2 2
24 1 1 0.5897 5.972167500311302 13.435542805767549 15.073753851275464 -4 3 2
22 1 2 -1.1794 6.048419158068371 14.363991054916822 15.293837197305582 -4 3 2
210 1 1 0.5897 7.388400070892942 15.209161357211931 14.264566602669976 1 -2 2
208 1 2 -1.1794 7.941277770011331 15.605844284171267 13.591338912007306 1 -2 2
23 1 1 0.5897 5.175173628604465 14.610959427671052 15.59832817240018 -4 3 2
835 1 2 -1.1794 5.691531809890696 13.096961455385237 11.254373601016555 -1 1 -2
386 1 1 0.5897 8.169413715719823 11.941482570726391 13.0552506915374 -4 1 1
387 1 1 0.5897 6.965368282081084 12.075329165419662 12.147314753308649 -4 1 1
236 1 1 0.5897 9.081725502450734 14.276850604569034 13.408647749878059 0 -2 -4
595 1 2 -1.1794 7.443697147414375 12.130566962958822 18.619232456752425 0 -4 1
851 1 1 0.5897 7.927429761463789 13.638422158824302 17.678612162850886 -6 0 -3
788 1 1 0.5897 6.468315708651412 15.16448789252899 20.928290010087345 3 -2 5
374 1 1 0.5897 6.189035305862809 16.652819594853682 17.7147434651396 4 4 -1
251 1 1 0.5897 7.693957691721155 13.560485962771725 19.862374221333138 4 -4 1
252 1 1 0.5897 7.774469910219825 13.70393042781877 21.367335336344873 4 -4 1
611 1 1 0.5897 8.485921847026253 16.279806383209745 17.43327802064639 3 2 -1
787 1 2 -1.1794 5.819576287664518 15.759656397212693 21.304041280624173 3 -2 5
373 1 2 -1.1794 5.296083458068879 16.554570602788765 17.38421494981499 4 4 -1
250 1 2 -1.1794 7.910913990285871 14.187326081736847 20.55249062536824 4 -4 1
850 1 2 -1.1794 8.118687470520388 14.331510383049258 17.04670293968744 -6 0 -3
789 1 1 0.5897 6.321197775830567 16.536767029454325 21.550548090959776 3 -2 5
111 1 1 0.5897 4.935056841930432 12.64171643624547 19.039130809291805 -1 -1 -8
852 1 1 0.5897 7.298460970352241 14.453316830064699 16.568501152109853 -6 0 -3
409 1 2 -1.1794 6.216781680713763 19.071529247732062 4.708768727326396 3 2 -5
842 1 1 0.5897 6.240371242517892 20.593934805496087 2.039195688062251 -2 1 1
841 1 2 -1.1794 6.728410500504449 19.772068710232933 2.090371549631746 -2 1 1