LAMMPS (30 Jul 2021)
Processor partition = 0
  using 2 OpenMP thread(s) per MPI task
using multi-threaded neighbor list subroutines
variable        pid world 0 1
variable        phase world IceIh IceIII

shell cd ${phase}
shell cd IceIh
include Restart.lmp
echo both
log log.lammps
#include		in.partitions
include		in.temp
variable        temperature equal 90.22
variable	tempDamp equal 100.0
include		in.pressure
variable        pressure equal 2063.3
variable        pressureDamp equal 1000.0 # This is 1 ps
include		in.seed
variable        seed equal 745823

units		real
atom_style	full
#include		in.box
read_restart	restart.lmp.${pid}
read_restart	restart.lmp.0
Reading restart file ...
  restart file = 30 Jul 2021, LAMMPS = 30 Jul 2021
  restoring atom style full from restart
  orthogonal box = (0.19730965 0.14005563 0.10011104) to (18.010263 23.489122 22.113085)
  2 by 4 by 4 MPI processor grid
  restoring pair style lj/cut/tip4p/long/omp from restart
  restoring bond style harmonic/omp from restart
  restoring angle style harmonic/omp from restart
  864 atoms
  576 bonds
  288 angles
Finding 1-2 1-3 1-4 neighbors ...
  special bond factors lj:    0        0        0       
  special bond factors coul:  0        0        0       
     2 = max # of 1-2 neighbors
     1 = max # of 1-3 neighbors
     1 = max # of 1-4 neighbors
     2 = max # of special neighbors
  special bonds CPU = 0.003 seconds
  read_restart CPU = 0.010 seconds
include 	in.setup
variable	out_freq equal 1000
variable	out_freq2 equal 10000
variable	out_freq3 equal 1000

timestep	2.0

neigh_modify    delay 7 every 1

include		in.tip4p
# This is TIP4P/Ice

# create groups ###
group ox type 2
288 atoms in group ox
group hy type 1
576 atoms in group hy

# set charges - beside manually ###
set group ox charge -1.1794
Setting atom values ...
  288 settings made for charge
set group hy charge 0.5897
Setting atom values ...
  576 settings made for charge

# ### TIP3P Potential Parameters ###
pair_style lj/cut/tip4p/long/omp 2 1 1 1 0.1577 8.5
pair_coeff 1 1*2 0.000 0.000
pair_coeff 2 2 0.21084 3.1668
bond_style  harmonic
bond_coeff  1 450 0.9572
angle_style harmonic
angle_coeff 1 55 104.52
kspace_style pppm/tip4p/omp 1.0e-5
pair_modify tail yes

thermo          ${out_freq}
thermo          1000
thermo_style    custom step temp pe etotal epair emol press lx ly lz vol pxx pyy pzz pxy pxz pyz enthalpy

restart 	${out_freq3} restart.lmp.${pid} restart2.lmp.${pid}
restart 	1000 restart.lmp.${pid} restart2.lmp.${pid}
restart 	1000 restart.lmp.0 restart2.lmp.${pid}
restart 	1000 restart.lmp.0 restart2.lmp.0


include         in.dump
dump            myDump all atom ${out_freq2} dump.water.${pid}
dump            myDump all atom 10000 dump.water.${pid}
dump            myDump all atom 10000 dump.water.0
dump            myDump2 all dcd ${out_freq2} dump.dcd
dump            myDump2 all dcd 10000 dump.dcd
dump_modify     myDump append yes
dump_modify     myDump2 append yes


variable natoms 	equal  "count(all)"                        # NUMBER ATOMS
variable H      	equal  "enthalpy/v_natoms"                 # ENTHALPY-per-atom
variable Vol      	equal  "vol/v_natoms"                 # volume-per-atom
fix AVG all 		ave/time ${out_freq} 1 ${out_freq} v_Vol v_H file vol_enthalpy.dat
fix AVG all 		ave/time 1000 1 ${out_freq} v_Vol v_H file vol_enthalpy.dat
fix AVG all 		ave/time 1000 1 1000 v_Vol v_H file vol_enthalpy.dat


timer           timeout 23:50:00 every 1000
New timer settings: style=normal  mode=nosync  timeout=23:50:00

fix 		1 all shake 1e-6 200 0 b 1 a 1
Finding SHAKE clusters ...
       0 = # of size 2 clusters
       0 = # of size 3 clusters
       0 = # of size 4 clusters
     288 = # of frozen angles
  find clusters CPU = 0.001 seconds
fix             2 all nph aniso ${pressure} ${pressure} ${pressureDamp}
fix             2 all nph aniso 2063.3 ${pressure} ${pressureDamp}
fix             2 all nph aniso 2063.3 2063.3 ${pressureDamp}
fix             2 all nph aniso 2063.3 2063.3 1000
fix             3 all temp/csvr ${temperature} ${temperature} ${tempDamp} ${seed}
fix             3 all temp/csvr 90.22 ${temperature} ${tempDamp} ${seed}
fix             3 all temp/csvr 90.22 90.22 ${tempDamp} ${seed}
fix             3 all temp/csvr 90.22 90.22 100 ${seed}
fix             3 all temp/csvr 90.22 90.22 100 745823


run             250000
PPPM initialization ...
  extracting TIP4P info from pair style
  using 12-bit tables for long-range coulomb (../kspace.cpp:340)
  G vector (1/distance) = 0.37192924
  grid = 24 27 25
  stencil order = 5
  estimated absolute RMS force accuracy = 0.0031405781
  estimated relative force accuracy = 9.4577576e-06
  using double precision FFTW3
  3d grid and FFT values/proc = 4410 672
Last active /omp style is kspace_style pppm/tip4p/omp
Neighbor list info ...
  update every 1 steps, delay 7 steps, check yes
  max neighbors/atom: 2000, page size: 100000
  master list distance cutoff = 10.8154
  ghost atom cutoff = 10.8154
  binsize = 5.4077, bins = 4 5 5
  1 neighbor lists, perpetual/occasional/extra = 1 0 0
  (1) pair lj/cut/tip4p/long/omp, perpetual
      attributes: half, newton on, omp
      pair build: half/bin/newton/omp
      stencil: half/bin/3d
      bin: standard
Setting up Verlet run ...
  Unit style    : real
  Current step  : 32750000
  Time step     : 2
  Walltime left : 23:49:59.92
Per MPI rank memory allocation (min/avg/max) = 10.19 | 10.21 | 10.23 Mbytes
Step Temp PotEng TotEng E_pair E_mol Press Lx Ly Lz Volume Pxx Pyy Pzz Pxy Pxz Pyz Enthalpy 
32750000    91.616672   -4568.6552   -4411.6273   -4568.6552            0    2499.1864    17.812953    23.349067    22.012974    9155.5442    3314.8133    2293.8054    1888.9405    821.77326    38.866459      182.841   -4077.9254 
32751000    95.071098   -4585.2623   -4422.3137   -4585.2623            0    2568.2778    17.877054    23.296232    21.928264    9132.4202    2519.3762    1913.4678    3271.9894    52.565342   -100.91634    -235.3384   -4080.2525 
32752000    90.533374   -4582.1593   -4426.9882   -4582.1593            0    1938.3933    17.945869    23.304279    21.956392    9182.5039    1383.8437    2483.8873    1947.4488   -157.53368   -251.37286      551.741   -4167.4036 
32753000    90.104389    -4581.302   -4426.8662    -4581.302            0    2475.5722    17.928766    23.304189     21.89777    9149.2246    2330.7364    3496.2853    1599.6949    63.325025    360.83871    285.31591   -4096.5455 
32754000    84.250384   -4582.9296   -4438.5274   -4582.9296            0    1376.7505    17.983882     23.44545    21.837619     9207.618    1035.4786    1628.0486    1466.7242   -64.468762    44.309399    187.18061   -4253.6523 
32755000    93.152463   -4579.5663   -4419.9062   -4579.5663            0    2596.7237    17.909006    23.389741    21.834612    9146.2353    2839.9857     2252.128    2698.0572   -93.092958   -11.888577    88.573541   -4073.5332 
32756000    90.281686   -4573.2348   -4418.4951   -4573.2348            0    1977.7162    17.965072    23.307248    21.900985    9170.3013    1297.6036    2295.4903    2340.0547    114.75322   -55.581782    249.67056   -4153.9965 
32757000    93.858014   -4583.7382   -4422.8687   -4583.7382            0    2525.0016    17.824587    23.392831    21.954483    9154.3072    3359.1235    2013.6171    2202.2644    122.49849    345.89642   -345.29622   -4085.7654 
32758000     93.58092   -4579.4657   -4419.0712   -4579.4657            0    2557.1781    17.883408    23.322206    21.884208     9127.477    2937.3847    2174.6396    2559.5101    67.921453   -213.71665   -397.93762   -4078.6727 
32759000    100.35769   -4584.8137   -4412.8041   -4584.8137            0    2651.9713    17.905113     23.19184    22.008637     9139.142     2026.303     3161.245    2768.3661    12.585613    24.778836    104.96093   -4059.3361 
32760000    93.666149   -4582.5546    -4422.014   -4582.5546            0    1695.6436    17.947947    23.347101    21.877029    9167.1871    1623.0264     878.3816    2585.5227    270.68995    14.367933   -314.67369   -4195.3166 
32761000    90.906525   -4579.9591   -4424.1484   -4579.9591            0    2591.8635     17.92778    23.266835    21.894648    9132.7546    1983.5894    3281.1439    2510.8572    -26.41541     213.7525    35.073683   -4078.9333 
32762000     97.08306   -4574.6071     -4408.21   -4574.6071            0     1720.861    17.876786    23.334503    22.007235    9180.2278    1795.8077    1408.0964    1958.6788    621.09432   -263.71694   -437.33293   -4177.8139 
32763000    93.091347   -4576.0975   -4416.5421   -4576.0975            0     2036.904     17.97351    23.265258    21.922059    9166.8915    1749.9539    2845.2964    1515.4616    600.00749    572.48154    339.47286    -4144.229 
32764000    88.840267   -4583.7457   -4431.4765   -4583.7457            0    1380.3585    18.079603    23.276059    21.834255    9188.3329    928.47731    567.66401    2644.9341   -59.353309    216.33672    -45.48911   -4246.5051 
32765000    93.102791   -4581.4844   -4421.9094   -4581.4844            0    2896.2486     17.91848    23.243893    21.907265    9124.2717    2598.0683     3358.963    2731.7145   -64.441854   -348.61606    545.52825    -4036.511 
32766000    93.831459   -4585.8997   -4425.0758   -4585.8997            0    1328.6242    17.944243    23.372833    21.920304    9193.5461    1639.4102    868.85851    1477.6039    336.28612    4.4880165    59.521851    -4246.936 
32767000    93.374698   -4580.9943   -4420.9532   -4580.9943            0    2303.1686    17.832213    23.306107     22.06029    9168.2448    2905.5261    2401.9211    1602.0586   -143.97964    598.86667   -27.385863   -4112.9978 
32768000    89.954885   -4588.6373   -4434.4577   -4588.6373            0    1927.6201    17.794235     23.51672    21.893458    9161.5809    1655.8637    2410.0469    1716.9497    58.165006    196.29339   -255.17347    -4176.904 
32769000    92.385877    -4584.515   -4426.1688    -4584.515            0    1446.2527    17.856441    23.524918    21.874141    9188.6992    1555.5868    861.05391    1922.1175    279.79399    180.71187    213.36074   -4232.3597 
32770000    87.083966   -4579.7299   -4430.4709   -4579.7299            0    1911.6592    17.850063    23.371847    21.982022     9170.656    2448.0586    2140.3223    1146.5967    134.42509    -151.9392   -45.781927   -4174.7968 
32771000      86.9911   -4581.6358   -4432.5361   -4581.6358            0    1753.0942    17.800156    23.549307    21.891454    9176.4895     1660.327    2012.6646     1586.291    295.24129   -58.010298    399.44819     -4197.92 
32772000    89.502873   -4570.1142   -4416.7093   -4570.1142            0    1883.8991     17.89068    23.450633    21.904663    9190.0524    1612.0249    2572.5469    1467.1255   -953.07818   -41.737867   -205.15763   -4164.2151 
32773000    89.410431   -4584.7058   -4431.4593   -4584.7058            0     2827.168    17.836284    23.325512    21.946262    9130.5328     2819.273    2885.4512    2776.7799   -3.5433136    6.9425355    340.91118   -4054.9952 
32774000    92.199837   -4564.1341   -4406.1067   -4564.1341            0    2281.5041    17.973716    23.358913    21.821706    9161.7661    2119.3859    1858.0139    2867.1124    73.521064    180.57335    151.73498   -4101.2637 
32775000    89.664325   -4575.1332   -4421.4516   -4575.1332            0    1209.3981    17.926772     23.36516    21.963079     9199.497    875.14408    2143.0857    609.96445   -41.782705   -308.31741   -304.46765   -4259.1924 
32776000    95.172541   -4576.8936   -4413.7711   -4576.8936            0    2906.2328    17.968737    23.265115    21.848464    9133.6355     2574.586     2882.987    3261.1254   -330.89872   -64.685968    746.15956   -4026.6472 
32777000    91.600406   -4575.3286   -4418.3287   -4575.3286            0    1449.2395    18.023158    23.289396    21.911116    9197.1574    1027.1037    1314.1545    2006.4604   -102.73269   -28.344857   -699.13337   -4223.9406 
32778000    89.369026   -4582.0519   -4428.8764   -4582.0519            0    2147.9468    17.938729    23.245595    21.977487    9164.5338    2116.0251    2137.7816    2190.0336    532.52748   -138.84226   -97.581099   -4141.7919 
32779000    85.747724   -4581.9902   -4435.0215   -4581.9902            0    1933.7919    17.919791    23.431301    21.829855    9166.0074    1977.7252    1218.5471    2605.1033    83.591372    64.793483    344.11049   -4176.5184 
32780000    91.533222   -4575.4374   -4418.5526   -4575.4374            0    1487.1667    17.822199    23.397093    22.051319    9195.1274    1877.7698    1726.0584    857.67198   -57.021457     169.0596   -699.73058   -4219.1213 
32781000    90.862257   -4566.9986   -4411.2638   -4566.9986            0    2835.0145    17.865091    23.278795    21.928025    9119.3785    3941.1253    3227.3495    1336.5688   -742.46583     629.7109   -232.34585   -4034.2159 
32782000    91.541681   -4576.1568   -4419.2575   -4576.1568            0    2677.1358    18.001886     23.26904    21.862104    9157.7421    2110.4571    3128.7817    2792.1687   -61.529142   -296.42437     31.47651   -4061.7092 
32783000    87.571969   -4571.2768   -4421.1815   -4571.2768            0     2174.516    17.922496    23.304919    21.938802    9163.4499    1513.4062    3438.5676    1571.5742    116.18126   -269.21268    43.597933   -4130.5802 
32784000    89.050103   -4586.3991   -4433.7703   -4586.3991            0    2083.5741    18.051606    23.210554    21.905338     9178.069    1175.9966    2383.1107    2691.6149   -388.17637    188.60618   -154.09149   -4154.8782 
32785000    87.414092   -4587.1772   -4437.3524   -4587.1772            0    1651.6511    17.984993     23.19804    21.979396    9170.1682    1413.9014    1709.2488    1831.8033   -323.07847   -167.91478   -150.52178   -4216.4647 
32786000    85.793537   -4578.2199   -4431.1727   -4578.2199            0    1655.3476    17.960908    23.264356    21.995691    9190.8767    1775.5877    2202.3043    988.15064   -81.906994     712.4769    299.26362   -4209.2907 
32787000    91.738851   -4577.1336   -4419.8963   -4577.1336            0    2579.6294    17.903934    23.200256    22.054186    9160.7762    2590.5552    3257.3068    1891.0263   -41.940725   -110.53465   -574.63305   -4075.2565 
32788000    93.164172   -4583.9808   -4424.3006   -4583.9808            0      2073.83    17.919025    23.377389    21.895722    9172.1182    2162.2412    1852.3732    2206.8756   -409.78808   -533.09508   -256.13504   -4146.8928 
32789000    91.343842    -4578.915   -4422.3548    -4578.915            0    2297.8832    17.855223    23.304955    21.993265    9151.7311    2328.6845    2544.1098    2020.8552   -25.656838    540.33532    493.13784   -4115.6595 
32790000    88.945449   -4578.8142   -4426.3647   -4578.8142            0    1081.1646    17.969872    23.406816    21.880894    9203.4868    228.76965    1685.8495    1328.8747    287.66834   -123.34382   -562.98752   -4281.2471 
32791000    87.496405   -4577.0068   -4427.0409   -4577.0068            0    2875.1027    17.935012    23.340364    21.847148    9145.4286    2476.8806    2705.9867    3442.4407    577.57732    50.706453    378.52841   -4043.5692 
32792000    89.101137   -4579.3835   -4426.6672   -4579.3835            0    1748.9508    17.988485    23.295461    21.904629    9179.1357    1242.8583    2363.7296    1640.2645    445.83499   -689.27827    -162.3474   -4192.5382 
32793000    86.955288   -4569.2593   -4420.2209   -4569.2593            0    1772.7382    17.891636    23.361546    21.995018    9193.3955    1608.8607    1749.3431    1960.0109   -30.512094   -391.26172    4.8136309   -4182.5388 
32794000    91.412627   -4578.1817   -4421.5036   -4578.1817            0    3008.4508     17.92739    23.240612    21.915124    9130.7938    2913.9202    2929.9035    3181.5286    -130.4217   -87.168167   -72.262702   -4020.8884 
32795000    84.862298   -4586.0162   -4440.5651   -4586.0162            0    1876.4203    17.935896    23.164276    22.047893    9160.2828    955.17635     1766.505    2907.5796   -332.83413   -316.35228   -26.633179   -4189.8879 
32796000    92.711047   -4577.2698   -4418.3662   -4577.2698            0    1873.0406    18.046663    23.318376    21.817211    9181.0944    2175.6408    1549.6298    1893.8513   -130.30465    548.65921    43.564355    -4167.572 
32797000    84.852909   -4574.6562   -4429.2212   -4574.6562            0     2601.651    17.937633    23.248178    21.891494    9129.1314    2201.8284    3242.6977    2360.4268    295.48477    32.365378   -412.39578   -4082.8399 
32798000    87.530419   -4572.5671   -4422.5429   -4572.5671            0    2149.9571    17.941039    23.268419    21.953813    9164.8304    1585.3173    2939.1823    1925.3719    257.95033   -291.88966    571.84187   -4135.1804 
32799000    92.277185   -4576.7837   -4418.6237   -4576.7837            0     1906.009    18.007418    23.276873    21.869316    9166.6632     1960.905     1964.071    1793.0511    300.90148   -120.29994   -336.66756   -4163.8163 
32800000    91.787983   -4585.5009   -4428.1794   -4585.5009            0    1650.5942    18.008196    23.331443    21.858792    9184.1289    1616.5723    1417.9377    1917.2726    84.728855    -213.3436   -44.146681    -4207.097 
32801000     90.38136   -4572.5504   -4417.6398   -4572.5504            0    1331.1234    17.911701    23.447905    21.889847     9193.558    2046.8073    1139.6243    806.93866    28.662105   -87.776882     373.6578   -4239.1646 
32802000    87.452596   -4574.1673   -4424.2766   -4574.1673            0     2223.508    17.982205    23.286078    21.865758    9155.9587    2288.8982     2725.909    1655.7168    20.064665     210.2239   -183.57938   -4127.3709 
32803000    89.373366   -4585.0738   -4431.8909   -4585.0738            0    1483.2263    17.984953    23.338776    21.915988    9199.1658    1213.3178    1757.5565    1478.8046   -210.20228   -429.63323    247.04941   -4232.9007 
32804000    91.903337    -4574.118   -4416.5989    -4574.118            0    2672.5427    17.978036    23.276117      21.8429    9140.3554    2800.8131    2296.4798    2920.3351    74.446605   -273.00298    337.05883   -4060.3417 
32805000    89.034459   -4578.8113   -4426.2093   -4578.8113            0    2215.5427    18.019841    23.262332    21.853201    9160.5016     2173.216    1907.9373    2565.4748    485.66616   -131.20553   -497.61173   -4130.2205 
32806000    90.864779   -4566.9577   -4411.2185   -4566.9577            0    1753.4912    17.924283    23.349184    21.940761    9182.5899    2140.2093    1717.4613     1402.803   -959.24816   -287.32195    167.92707   -4176.3934 
32807000    87.448191    -4572.098   -4422.2148    -4572.098            0     2959.797    17.831259    23.437131    21.839011    9126.8187    2586.7245    3063.9984     3228.668   -111.62441    560.48975    64.433081   -4028.2502 
32808000    90.942538   -4579.3388   -4423.4664   -4579.3388            0    2169.2249    17.812702    23.387291    22.006617    9167.7553    3217.4836     1593.729    1696.4621    41.823851    290.47263    293.58817   -4133.4361 
32809000    90.875465   -4578.8285    -4423.071   -4578.8285            0    2449.3764    17.917733    23.353509    21.884693    9157.4731    2273.3566    1970.2006    3104.5719   -416.50673   -231.83741    202.70205   -4095.9511 
32810000    88.435197   -4589.8464   -4438.2715   -4589.8464            0    1645.0121    17.935141    23.255901    22.008154    9179.5539    1542.2988    2106.9388    1285.7986    288.57242   -736.94728    285.63087   -4218.0465 
32811000    88.775855   -4577.3027    -4425.144   -4577.3027            0    2474.1861    17.959939    23.248198    21.906662     9146.825    2693.6238    2659.5562    2069.3782    378.26443   -77.474228   -112.48683   -4095.0948 
32812000    87.274881    -4567.826   -4418.2398    -4567.826            0    1737.2892    17.956673    23.327026    21.930397    9186.1121     2204.581    1812.4593    1194.8273   -1069.2553   -210.58111   -730.32562   -4185.4951 
32813000     94.77096   -4576.0245   -4413.5903   -4576.0245            0    1535.8129    18.014175    23.177758    22.005988    9188.1201    1576.3319    2318.9691    712.13769   -205.03355   -576.61959   -40.585348   -4207.7925 
32814000    93.150159   -4584.9932    -4425.337   -4584.9932            0    2089.0184    17.991048    23.318567    21.837378    9161.3359    1386.1788    1771.2042    3109.6723   -303.21739    -228.9116    484.06745    -4146.226 
32815000    85.927611   -4580.5438   -4433.2669   -4580.5438            0    1838.1087    17.896402    23.345999    21.902341    9151.0035    1980.0767    1277.4949    2256.7545   -59.532482   -321.29628    442.65147   -4187.9565 
32816000    89.866901   -4568.8722   -4414.8434   -4568.8722            0    2035.5536     17.83065    23.408077    21.958167    9164.9267    2694.3176    1002.5236    2409.8198   -715.69271   -506.42698     275.3481   -4142.7691 
32817000    81.318578   -4576.3767   -4436.9994   -4576.3767            0    2880.1561    17.874541    23.303762    21.908761    9125.9643    2551.9673     2774.903    3313.5979    -382.1392    173.97284    151.88604   -4053.6713 
32818000    91.341866   -4582.8869   -4426.3301   -4582.8869            0     1761.725    17.887921    23.334561    21.954833    9164.0964    1846.7688     1385.144    2053.2622    436.51484    -132.5116    637.45059   -4190.8774 
32819000    90.416195   -4595.1092   -4440.1389   -4595.1092            0    1414.7032    17.954927    23.340517    21.953253    9200.1096    1383.0526    2079.3243    781.73253     10.31088   -446.22351     134.4081   -4250.3223 
32820000     89.89194   -4577.9736   -4423.9019   -4577.9736            0    1924.8246    17.977838    23.388264    21.817143    9173.4632    2812.9784    2154.7501    806.74536    415.89043    415.37252     35.67088   -4166.3881 
32821000    92.097499   -4583.9263   -4426.0743   -4583.9263            0    2201.4605    17.864536    23.343683    21.952879    9154.8787    2880.2265    2399.4801    1324.6749    133.70713   -462.82381   -383.05763   -4132.1474 
32822000    93.076602   -4562.8484   -4403.3183   -4562.8484            0    2662.8072    17.850461     23.35843    21.937468    9147.0196    3482.8313    2397.1973    2108.3931    263.40665   -25.629965    152.84417   -4048.1001 
32823000    87.263956    -4587.599   -4438.0316    -4587.599            0    1617.5199    18.071075    23.172387    21.923992    9180.6704    1719.5569    1443.1772    1689.8257   -309.98286   -606.69824    439.71202   -4221.4608 
32824000    90.525094   -4582.1849    -4427.028   -4582.1849            0    2608.3435    17.875758    23.242629    21.983139    9133.5461    2284.7836    3412.8627    2127.3841   -411.10482   -549.10743    355.25223   -4079.5878 
32825000    87.796195   -4579.9359   -4429.4562   -4579.9359            0    1409.0181    17.954045    23.398822    21.890069    9196.0946    1368.7124     1315.359    1542.9828   -134.91625    312.73901    452.13951   -4240.4849 
32826000    84.829269   -4572.5019   -4427.1074   -4572.5019            0    2180.9347     17.90289    23.401281    21.884609    9168.5693    2324.2817    1865.7732    2352.7492   -660.46628   -318.74115    218.08339   -4135.4855 
32827000    88.911145   -4583.4957    -4431.105   -4583.4957            0    2246.7561    17.838861    23.352928    21.966391    9150.9707    3235.2183    1169.3706    2335.6793    116.12278   -340.25493   -276.35395   -4131.2585 
32828000    95.969077   -4573.2542   -4408.7664   -4573.2542            0    2663.2929    17.895842    23.313471    21.876118    9127.0268    2464.8057    3042.5132    2482.5598   -201.93973    210.40226    195.50681     -4054.26 
32829000    91.727762   -4584.3884   -4427.1701   -4584.3884            0    1720.4885    17.860931    23.313525    22.024383    9170.9809    1534.2229      2515.13    1112.1126   -402.69383     336.2948     19.58435   -4197.0559 
32830000    95.754039   -4575.3915   -4411.2723   -4575.3915            0    1989.9579    17.849611    23.428926    21.905033    9160.6238    1923.2679    1331.9063    2714.6996    633.61831    -380.3287    -498.9306   -4145.4173 
32831000    86.408447   -4568.6298   -4420.5286   -4568.6298            0    3479.9481    17.968986    23.174688     21.83323    9091.9164    3251.8459    3309.2277    3878.7706    283.72015    82.312095   -34.996635   -3959.1005 
32832000    88.766956   -4586.1887   -4434.0451   -4586.1887            0    2441.7182    17.826568    23.428168     21.90089    9146.7719    2669.9343    1639.2321    3015.9882    335.04981   -91.712821    -86.48641    -4108.329 
32833000      88.7057   -4585.5567   -4433.5182   -4585.5567            0     2336.274     17.92878    23.328574    21.849194    9138.4878    2295.9056     1469.439    3243.4774   -167.25292   -169.42253    -179.9003   -4122.1501 
32834000    99.577056   -4582.7774   -4412.1058   -4582.7774            0      2431.22    17.792753    23.435361    21.951428    9153.2978    2411.3831    1862.5466    3019.7303    237.42475   -298.63356    104.93743   -4087.5587 
32835000    88.276937   -4575.3539   -4424.0502   -4575.3539            0    2517.6435    17.911416    23.316903    21.933084    9160.1059    2432.4539    2526.2728    2594.2039   -10.035245   -387.34176    478.37605   -4087.7163 
32836000    85.282804    -4572.303   -4426.1312    -4572.303            0    1940.6554    17.871707    23.449365    21.912123    9182.9365    1407.6882    2033.5773    2380.7006   -421.26593    37.532595    33.797041   -4166.2315 
32837000    88.615373   -4580.0724   -4428.1887   -4580.0724            0    1956.9465    17.781444    23.458849    21.964413    9162.0641    2499.4457    1666.7211    1704.6728   -302.74858   -502.24914   -137.39785   -4166.7029 
32838000    94.711861   -4578.7013   -4416.3684   -4578.7013            0     2178.737     17.94823    23.368022    21.862343    9169.3865     1523.006    2180.4921     2832.713    450.72358   -249.12107   -306.82035   -4125.0144 
32839000    86.930842   -4582.3584   -4433.3619   -4582.3584            0    2250.4427    17.873298    23.415794    21.886292    9159.7953     1810.366    1809.6229    3131.3391   -367.34271    51.145454    608.32459   -4132.7338 
32840000    93.015115   -4579.1478   -4419.7231   -4579.1478            0     2969.099    17.840345    23.334848     21.92777    9128.5688    2947.3756    2354.6045    3605.3169    401.89278   -331.02131   -293.70042   -4024.4446 
32841000    86.761075   -4580.8837   -4432.1782   -4580.8837            0    3260.1904    17.715188    23.471161    21.863508    9090.7599    4208.7204    2598.0972    2973.7537   -252.91681   -213.91349     20.82616   -3999.9441 
32842000    92.025408   -4576.5836   -4418.8552   -4576.5836            0    1924.7414    17.927975    23.335248    21.921374    9170.8889    2263.4336    2991.6767    519.11382   -384.34612    329.25111    -339.0928   -4161.4249 
32843000    87.346033   -4582.9116   -4433.2035   -4582.9116            0    2275.7247    17.860711    23.340442    21.908349    9133.0849    2720.2158    2059.3595     2047.599    374.81332     32.48263    439.77513   -4130.0845 
32844000    88.722692   -4578.6646   -4426.5969   -4578.6646            0    2655.4194    17.930156    23.296475     21.88492    9141.5377    2121.4916    2652.8603    3191.9063    143.56184    1.3414529    474.28925   -4072.5765 
32845000    90.380979   -4587.3986   -4432.4887   -4587.3986            0    1658.8712    17.925587    23.410425    21.865634    9175.8169    934.70734    1986.3995    2055.5069    925.96789   -316.57087   -708.51142   -4210.4987 
32846000    93.594102   -4579.2951    -4418.878   -4579.2951            0     2737.365    17.833906    23.351585     21.91742    9127.5093    3015.7918    2615.4043     2580.899   -310.48506    4.9670188   -216.21481   -4054.4927 
32847000    90.084812   -4576.5738   -4422.1716   -4576.5738            0    2959.9686    17.960297     23.35168    21.759787    9126.1224    3211.8832    3366.4358    2301.5867    513.78515    675.78791    305.35442   -4028.2141 
32848000    88.553638   -4587.4649   -4435.6869   -4587.4649            0    2265.5997    17.932577    23.222952    21.934192    9134.4371    2078.8997    2995.8175    1722.0817    71.004875   -353.08792   -260.43565   -4133.8719 
32849000    90.847843   -4576.2593   -4420.5492   -4576.2593            0     2803.227    18.128377    23.054926    21.826338    9122.2828    2072.7776    3343.2372    2993.6662    179.00904    554.70555   -30.514649   -4047.6103 
32850000    86.663204    -4578.674   -4430.1362    -4578.674            0    1901.9067    17.876395    23.236081     22.07522    9169.5465    2117.5907    1888.1094      1700.02   -713.84377   -634.81379    16.070674   -4175.7972 
32851000    88.673445   -4589.4702    -4437.487   -4589.4702            0    2382.4681    17.917223    23.303302    21.916958    9150.9973    2971.8059    1874.4192    2301.1791   -536.22437   -20.252774   -233.15181   -4119.5278 
32852000     88.33046   -4572.9212   -4421.5258   -4572.9212            0     1493.414    17.888515    23.465427    21.915768    9199.3992    1302.3583    1690.6666    1487.2172   -45.451793    28.087001   -90.956907   -4221.1637 
32853000    96.961474   -4584.2855   -4418.0968   -4584.2855            0    2433.4636    17.761765      23.4259    21.982927    9146.7736    2825.2369    2058.7401    2416.4138   -154.38906   -292.03436    39.187822   -4093.4818 
32854000    89.018247   -4576.2661   -4423.6918   -4576.2661            0    2714.7105    17.803676    23.367793    21.904719    9113.0775    3229.5394    1915.9211    2998.6711    408.16511   -57.727647    409.78896   -4062.8935 
32855000    92.844007   -4576.3518   -4417.2203   -4576.3518            0    1839.1844     17.91035    23.270169    21.999206    9168.7602    2405.2199    2101.9122    1010.4212   -529.47422   -36.393656    121.55165   -4171.2902 
32856000    88.025933   -4584.7177   -4433.8442   -4584.7177            0    1337.0094    18.017175     23.42064     21.78184    9191.3655    1122.3672    1237.0721    1651.5888    356.84105    -73.64066    411.20113   -4254.6226 
32857000    91.579543   -4588.1859   -4431.2217   -4588.1859            0    2086.4736     17.85371    23.419787    21.905611    9159.3952    1604.3402    2777.9438    1877.1368    212.32189   -246.57759    234.26068   -4152.5098 
32858000    86.531144   -4572.8509   -4424.5395   -4572.8509            0    1733.6477    17.890148    23.418202    21.852554     9155.239    2165.2796    2191.7391    843.92456    196.83799    395.47343    319.75487   -4193.0633 
32859000    88.847162   -4577.7285   -4425.4475   -4577.7285            0    2355.5516    17.935545    23.321154    21.839624    9135.0257    2574.6222    2352.5461    2139.4864   -170.83795     514.2552    422.87938   -4111.6292 
32860000     88.22127   -4578.1728   -4426.9645   -4578.1728            0     2155.436    17.907575    23.408162      21.8198    9146.4982    1896.8124    1738.6087    2830.8871    179.95019    -553.5541   -151.50113    -4139.446 
32861000     94.13835   -4582.6267   -4421.2767   -4582.6267            0    1720.4188    17.977287    23.392925    21.787864    9162.6976    1905.8142    1539.4381     1716.004   -396.20709    157.51925    454.86309   -4191.3797 
32862000    92.651624   -4582.9727    -4424.171   -4582.9727            0    2408.7858    17.829624    23.365443    21.920639     9132.074    3263.7793    2173.7611     1788.817   -524.30216    50.575314   -7.4276631   -4103.3643 
32863000     89.70589   -4581.8122   -4428.0593   -4581.8122            0    1438.2317    17.842512    23.379277    22.031418    9190.2965    1893.8465    502.59405    1918.2546   -295.44361    153.69777    172.97419   -4235.2916 
32864000    89.969663   -4564.2245   -4410.0196   -4564.2245            0    2484.4938    17.940817    23.379138    21.840899    9160.9651    2708.3897    3337.1466    1407.9452    659.00182   -100.52313   -218.79908   -4078.0831 
32865000    90.550176   -4569.3558   -4414.1559   -4569.3558            0    2965.4644    17.848935    23.362423    21.895569    9130.3292    3615.3585    3355.0702    1925.9646    41.989292    328.48008    472.74294    -4019.285 
32866000    86.646861   -4580.6277    -4432.118   -4580.6277            0    1993.0363    17.859746    23.321552    22.016275    9170.1531    2851.0184    2138.0993    989.99126   -763.65231   -120.97998   -327.84948   -4165.5747 
32867000    88.883223   -4589.9098    -4437.567   -4589.9098            0     2650.734    17.860478    23.345485    21.918641    9139.2299    2319.2374    2145.1895     3487.775     279.6127   -180.83418   -48.912271   -4084.2605 
32868000    92.212217    -4588.284   -4430.2355    -4588.284            0    2069.0502    17.745144     23.56487    21.866801    9143.8657    1812.4913    1021.7244    3372.9348    620.20076     69.84109     225.9278   -4154.3195 
32869000    91.850133   -4578.1525   -4420.7245   -4578.1525            0    2177.2513    17.837135    23.307832    21.995023    9144.3198    1892.2937    1623.1169    3016.3433   -189.63925    163.43939   -16.683356   -4130.3651 
32870000     86.36763   -4579.5828   -4431.5516   -4579.5828            0    1987.0826    17.937393    23.320453    21.904415    9162.7949    1512.4695    1710.2488    2738.5295    263.98042   -440.81804    84.479407   -4166.0178 
32871000    90.815179   -4586.3837   -4430.7296   -4586.3837            0    2289.3651     18.02351    23.152493    21.923795    9148.5628    2009.4145    2625.2881    2233.3928    720.58251   -61.548615    139.71198    -4125.277 
32872000    93.772841   -4573.5747   -4412.8513   -4573.5747            0    2008.1771    18.021032    23.262294    21.848799    9159.2471    1851.6216    1647.1221    2525.7877   -523.45804   -291.02965    329.14508   -4144.6025 
32873000     88.65775   -4588.5766   -4436.6202   -4588.5766            0    2090.4906    18.061495    23.181893    21.866828     9155.633    2444.0857    2428.1668    1399.2192   -389.63559    90.135695   -221.42051   -4157.4864 
32874000     89.14358   -4570.8491   -4418.0601   -4570.8491            0    1883.1449    18.036058     23.35844    21.745392    9161.2072    1796.7628    1538.0237    2314.6482    112.34817    104.99911   -188.98772   -4166.4591 
32875000     95.19712   -4576.2499   -4413.0853   -4576.2499            0     2514.179    17.860427    23.292314    21.956347    9134.0749    3057.6861     2421.754    2063.0971   -304.45558    89.646016    661.17638   -4078.1687 
32876000    91.255025   -4584.0478   -4427.6398   -4584.0478            0    2420.8022    18.014858    23.294638     21.82507    9158.8815    2014.3991    2559.8351    2688.1722   -413.59649   -401.04963    268.07239   -4104.2863 
32877000    90.764896     -4576.99   -4421.4221     -4576.99            0    2231.8125    17.960868    23.299129     21.86364     9149.334    825.59338    2875.0645    2994.7798    -467.4288     160.6224   -140.90766   -4123.6232 
32878000     95.20807   -4585.8043   -4422.6209   -4585.8043            0     1638.942    17.859059    23.369603    22.030279    9194.5379    1900.8026    2050.0045      966.019   -238.18962    140.17606   -44.454608   -4202.8504 
32879000    94.262387   -4575.5954   -4414.0329   -4575.5954            0    2610.0933    17.846139    23.423467     21.85893    9137.4361     3125.101    2249.1527    2456.0262    35.112598    101.58079    663.15317   -4066.2116 
32880000    88.224937   -4583.0843   -4431.8697   -4583.0843            0    2389.6016     17.75262    23.466644    21.938617    9139.5053    3258.9444    2176.4943    1733.3661   -282.87629     62.94776    250.94612    -4113.359 
32881000     84.25807   -4580.3256   -4435.9101   -4580.3256            0    2824.6994     17.79279    23.446035    21.902616    9137.1227    3466.0767    2638.7928    2369.2286   -760.77298   -350.51408     191.5355   -4059.5032 
32882000     92.02265   -4571.5634   -4413.8397   -4571.5634            0    2393.1657    17.838402    23.336947    21.965227    9143.9885    3022.3376     2606.699    1550.4605    593.82691   -488.28075    157.50908   -4094.6975 
32883000    93.621091   -4589.5722   -4429.1088   -4589.5722            0    2856.7475    17.828316    23.225914    22.029006    9121.7471    3411.3014    3273.9344    1885.0067    144.95031    126.43986   -260.28733   -4049.0719 
32884000    86.234584   -4583.7889   -4435.9858   -4583.7889            0    1883.3027     17.99306    23.257581    21.920194    9173.0543    2136.1943    1881.9475    1631.7661   -136.08779   -122.80832   -26.543605   -4184.0383 
32885000    85.993067   -4584.4496   -4437.0604   -4584.4496            0    1658.9301    17.981528    23.263328    21.945036    9179.8321    1714.2072    1459.4437    1803.1392   -42.007274   -302.58234   -200.09332   -4214.9655 
32886000    88.124314   -4576.7895   -4425.7474   -4576.7895            0    1819.0482    17.947214    23.196576    22.036956    9174.2916    1925.4307    2420.2399    1111.4739    40.001515    204.36852   -143.52397   -4182.3631 
32887000    86.226765    -4579.413   -4431.6233    -4579.413            0    2351.6733    18.012975    23.437008    21.658556    9143.5981    2534.1512    1781.6933    2739.1755    942.05163     185.7669    157.17511   -4118.0277 
32888000    91.610359   -4583.1771   -4426.1601   -4583.1771            0    2056.1886    17.896828    23.398124    21.889518    9166.2837    2621.4571    2297.9972    1249.1115   -798.96425    1.2177057    386.81345   -4151.2871 
32889000    84.665665    -4587.816    -4442.702    -4587.816            0    1688.7827    17.882897    23.314496    21.978655    9163.5768    2591.6668    1283.7255    1190.9557   -213.65372    61.118149   -75.514483   -4217.0107 
32890000    90.736789   -4580.8883   -4425.3686   -4580.8883            0    1833.5479    18.075942    23.123088    21.962567    9179.7293    1588.7954    3044.8014    867.04672   -64.723505   -23.787263    258.60628   -4179.8988 
32891000     89.45299   -4587.5829   -4434.2635   -4587.5829            0    2457.8899    17.966418    23.019292    22.055932    9121.7649    3475.4174    2186.6062    1711.6461   -501.89597    713.60375  -0.92966672   -4107.2865 
32892000     86.04506   -4580.4449   -4432.9666   -4580.4449            0    1772.3731    17.912811    23.280163    21.973402    9163.1982    2524.7813    1718.9228    1073.4151   -491.27914   -509.34904   -201.91642    -4196.114 
32893000    85.782912   -4577.4554   -4430.4264   -4577.4554            0    2236.0093    17.895638    23.304681    21.945636    9152.4746    2523.7747    2733.8544    1450.3987   -208.25713   -187.57485   -111.92074   -4131.9651 
32894000    86.994111   -4577.8635   -4428.7585   -4577.8635            0    2126.2396    17.889083    23.369952    21.888547    9150.8794    2157.6077    2876.4757    1344.6355    406.73319   -29.443511    136.37413   -4144.9987 
32895000    94.973123   -4579.0594   -4416.2787   -4579.0594            0    1928.5942    17.928633    23.147767    22.128175    9183.3656    1955.8839    1845.9841    1983.9146   -295.76174   -129.98753    315.89428   -4157.9821 
32896000    90.350955   -4586.6939   -4431.8355   -4586.6939            0     1552.413    17.957297    23.317311    21.942029    9187.4762     1074.212    1387.5038    2195.5232    173.24459   -391.80241    254.28441   -4223.8278 
32897000    88.285146    -4589.973   -4438.6553    -4589.973            0    1840.8258     18.07831    23.238548    21.857008    9182.4285    874.69389    2560.4498    2087.3337     287.7116   -20.303505    214.17659   -4192.1387 
32898000    89.504391   -4592.2796   -4438.8721   -4592.2796            0    1868.4792    17.829208    23.362094    22.037438    9179.2019    2392.1441    1730.6643    1482.6292   -318.23977   -153.53658    125.40541   -4188.7402 
32899000    92.965469   -4572.3911   -4413.0515   -4572.3911            0    1084.6132     17.88665    23.514587    21.908466    9214.6393    2049.2512    942.05311    262.53523     749.5135   -419.39552   -140.09509   -4267.2946 
32900000    84.963711    -4574.738   -4429.1131    -4574.738            0    1397.4212    17.952304    23.377551    21.917656    9198.4219    946.40561    2034.9344    1210.9235   -341.09172    449.51117    219.56954   -4241.6497 
32901000    90.905202     -4571.24   -4415.4316     -4571.24            0    2577.5596    17.947438    23.200793    21.953086    9141.1508    2846.6494    2755.9937    2130.0358   -7.6540317   -8.4251913   -88.584367    -4071.806 
32902000    89.006205    -4589.907   -4437.3534    -4589.907            0    2369.6923    17.933324    23.394123    21.796522    9144.3902    2095.1463    1614.1387    3399.7918    194.99951   -8.6903743     43.45617   -4121.3275 
32903000    90.477324    -4578.929   -4423.8539    -4578.929            0    1850.9232    17.924863    23.422669    21.849639    9173.5297    2484.8756    1913.7045    1154.1895    701.86858   -283.32331   -98.427144   -4176.2254 
32904000    85.886145   -4580.3435   -4433.1376   -4580.3435            0    2306.9254    17.985588     23.21958    21.928032    9157.5367    2621.3606    3221.9174    1077.4983    -260.3619    263.91878     83.87551   -4125.0401 
32905000    91.409726   -4583.9238   -4427.2507   -4583.9238            0    1582.1655    17.851489    23.366743    22.011839    9181.8234    1620.7353    1444.6295    1681.1317    304.01935    631.31872    321.61805   -4215.3869 
32906000    84.719366   -4589.2787   -4444.0726   -4589.2787            0    2225.9553    17.879229    23.449657    21.850821     9161.214    2082.6151    1672.1938    2923.0571     457.1235   -385.01423   -117.97284   -4146.6696 
32907000    91.260404   -4585.9469   -4429.5297   -4585.9469            0    2393.1716    17.808837    23.327231    22.002562    9140.5427     2681.255    1680.7222    2817.5375    9.8725365    253.50427   -99.637594   -4110.5069 
32908000    88.331808   -4581.0047    -4429.607   -4581.0047            0    2355.3864    17.885488    23.196904    22.058319    9151.7307    2391.4537    2584.3244    2090.3812     582.6728    441.18123    225.62552   -4115.2369 
32909000    90.026575   -4581.9248   -4427.6223   -4581.9248            0    2331.5875    18.044555    23.290498    21.774434    9151.0691    1857.9696    1689.1477    3447.6454     297.4797   -361.73226   -46.589961   -4116.4511 
32910000    93.674407   -4577.7061   -4417.1513   -4577.7061            0    1962.4934    18.017492    23.210288    21.948611    9178.7153    1476.2767    2100.9115    2310.2919    472.72901    162.03678    161.46519   -4154.4478 
32911000    87.484687   -4587.7376   -4437.7919   -4587.7376            0    1571.9545    18.035163    23.163794    21.980056    9182.4493    1800.9521    2230.2069    684.70439   -318.09725   -84.803376    -37.33716   -4227.2811 
32912000    88.594183   -4582.9437   -4431.0963   -4582.9437            0    2163.2409    18.002524    23.313784    21.785732    9143.6232     2414.755    2102.2464    1972.7214   -296.48539    210.09543   -300.85667   -4142.6273 
32913000    88.628197   -4577.2858   -4425.3801   -4577.2858            0    1967.6499    17.943788     23.35553    21.906112    9180.5598    799.21857    2758.6829    2345.0484   -584.66275   -217.78783    191.21139   -4161.9334 
32914000    90.450137    -4584.921   -4429.8926    -4584.921            0     2082.341    17.876216    23.344363    21.936284    9154.2059    2641.7187    1978.4918    1626.8125     643.6523   -562.99372   -173.51034   -4151.8903 
32915000    91.039084    -4580.842   -4424.8041    -4580.842            0    3099.4314    17.968732    23.151386    21.914264    9116.3569    3558.1166    3756.5009    1983.6766   -627.34795    324.38394     369.2354   -4012.7263 
32916000    86.946885   -4571.2892   -4422.2653   -4571.2892            0    1716.5406    17.863552    23.314238    22.048377    9182.6001    1731.0395    1707.1489    1711.4333   -963.95962   -219.01907    -186.7273   -4192.3882 
32917000    89.121667    -4588.354   -4435.6025    -4588.354            0    2655.8421    17.805584    23.312725     21.99099    9128.3867    3162.4314    2827.7986    1977.2964   -1176.6328   -507.05832    480.58159   -4082.0351 
32918000    93.923457   -4572.4296    -4411.448   -4572.4296            0    1557.0853    17.883194    23.247239    22.079098    9179.0511    1064.7304    2148.3367    1458.1889    403.20767   -174.46528     372.2185   -4203.0056 
32919000    95.267405   -4578.0415   -4414.7564   -4578.0415            0    1737.2706    17.932219    23.410952    21.880099    9185.4912    2037.1979     2213.536      961.078   -177.75236    193.87945   -53.903165   -4182.0299 
32920000    88.096678    -4579.697   -4428.7023    -4579.697            0     2057.708    17.980254    23.451902    21.726625    9161.4912    1880.2722    1232.0168     3060.835   -28.017767   -438.13576    -161.8532     -4153.77 
32921000    89.935371   -4580.4144   -4426.2682   -4580.4144            0    2392.8047     17.95245    23.285187    21.873167    9143.5556    2052.9887    2603.1586    2522.2668   -645.91896    24.991981    557.65809   -4107.1892 
32922000    88.952626   -4580.8914   -4428.4297   -4580.8914            0    2494.3276     17.98323     23.43044    21.717608    9150.8224    1565.4867    1416.4223    4501.0738   -208.09252   -311.92513   -200.23107   -4095.5483 
32923000    85.223522   -4575.4324   -4429.3622   -4575.4324            0    2399.9928    17.992276    23.158181    21.992081     9163.405    2330.0806    3448.2545    1421.6431   -286.26582     -207.289   -168.96069   -4108.6299 
32924000    86.002488   -4580.3839   -4432.9786   -4580.3839            0    2311.7574     17.88705    23.328845    21.942412    9156.2227    2480.8027    2240.8002    2213.6693   -320.83368    419.61998    14.309799   -4124.2801 
32925000    89.128673   -4573.0002   -4420.2367   -4573.0002            0    2752.0003    17.925805    23.375438     21.79369    9132.0692    3089.9835    1948.7275    3217.2898    164.98571    80.015244    219.77729   -4053.7202 
32926000    90.108658   -4585.2091    -4430.766   -4585.2091            0    2711.2925    17.809496    23.267358    22.047539    9136.0578    3532.6729    3192.9799    1408.2245    -186.2176   -305.60239    -200.3908   -4069.5133 
32927000    87.851689   -4564.6341   -4414.0593   -4564.6341            0    1911.4032    18.025545    23.141241     22.01924    9184.9627    2048.8164    2304.2646    1381.1286   -84.759781   -293.73579   -157.11947   -4158.0206 
32928000    87.845858   -4567.5335   -4416.9687   -4567.5335            0    2544.6362    17.818458    23.377656    21.943807    9140.7761    3379.5614    2340.3317    1914.0155   -143.79878    -520.9236    45.050216   -4077.7462 
32929000    87.617382   -4578.7738   -4428.6006   -4578.7738            0     1748.791    17.964805    23.248985    21.952957    9168.9486    949.92939    2085.4607    2210.9829   -311.84138   -311.71333    47.185763   -4194.7528 
32930000    87.527662   -4577.8182   -4427.7987   -4577.8182            0    2068.8952    17.954721    23.161492    22.026869    9160.0526    2249.9614    2845.6733    1111.0509   -402.10062    -158.3297   -246.92963   -4151.4151 
32931000    88.336066   -4575.9673   -4424.5623   -4575.9673            0    1228.7122    18.020281    23.257655     21.97407    9209.5411    760.04673     2094.792    831.29792   -165.25139   -52.375375   -528.83485   -4259.5319 
32932000    95.304918   -4574.9269   -4411.5775   -4574.9269            0    2145.4916    18.006879    23.208077    21.920294     9160.601     1789.914    2094.1166    2552.4443   -425.06576    157.23426    139.75296   -4124.9442 
32933000    90.669608   -4586.2584   -4430.8538   -4586.2584            0     2451.027    17.935815     23.15754    21.998277    9136.9701    3162.7327    2296.9981    1893.3503    341.30646    333.64902    830.95151   -4104.2462 
32934000    90.636045   -4589.9529   -4434.6058   -4589.9529            0    1757.9746     18.08023    23.225996    21.860163    9179.7675    1209.8855    894.35162    3169.6867   -112.09158   -59.040223    -438.1578   -4199.2526 
32935000    91.995405   -4574.2123   -4416.5353   -4574.2123            0    2846.3576    17.873924    23.268935    21.949837    9129.0948    3546.7874    2564.5719    2427.7133    2.8280927    263.61165   -239.13674   -4037.5756 
32936000    91.421152   -4573.9643   -4417.2716   -4573.9643            0     2807.055    17.923029    23.231581    21.894012    9116.2351     3234.764    3668.6289     1517.772   -434.91766   -554.34378   -219.60812    -4044.071 
32937000     91.61572   -4587.9083    -4430.882   -4587.9083            0    1592.9561    17.847511    23.367144    22.017558    9182.3203    2239.9237    1235.4421    1303.5024    156.89899    6.3517236    122.79244   -4217.5618 
32938000    94.199139   -4575.6197   -4414.1656   -4575.6197            0    1468.7676    17.803614    23.450787    22.012645    9190.4721    2089.9771     836.0592    1480.2664   -446.16146   -464.42878    -384.6715   -4217.3014 
32939000     86.04276   -4582.3483    -4434.874   -4582.3483            0    1865.1813    17.831183    23.402524    21.937675    9154.4752    1632.4195    732.09471    3231.0297   -79.923719   -10.363883    151.66707   -4185.8562 
32940000    94.988651   -4573.7047   -4410.8974   -4573.7047            0    1327.8095    17.957469    23.291908    21.989755    9197.5165    1361.3798     1488.175    1133.8735    85.340988    628.64444   -352.07089   -4232.7899 
32941000    91.046637   -4578.5621   -4422.5112   -4578.5621            0    2852.2038    17.983478    23.140877    21.929896    9126.2019    2218.0744    3466.7809     2871.756   -367.16159   -70.556468    123.04005   -4042.8935 
32942000    93.253848   -4581.6748   -4421.8409   -4581.6748            0    2215.4583    18.045853    23.153486    21.914359    9156.3542    983.63808    2934.8268      2727.91    474.75671   -215.76055   -5.0456363   -4125.9974 
32943000        92.67   -4583.4721   -4424.6389   -4583.4721            0    1602.0067    18.051933    23.234443    21.913408    9191.0661    405.56115    1855.7265    2544.7323    100.34366    254.05668    503.34449   -4209.9023 
32944000    93.127949   -4572.0482   -4412.4301   -4572.0482            0    2792.3694    17.820779    23.277219     21.98963    9121.6978    2793.1143    3100.6908    2483.3031     13.20014   -277.58993    173.81464   -4040.9595 
32945000    89.333135   -4579.6039     -4426.49   -4579.6039            0    2176.6812    17.903979    23.323931    21.945318    9164.1706    2371.4221    1194.8451    2963.7765     449.5519   -87.276764   -76.854594   -4135.5765 
32946000    92.556688   -4581.8254   -4423.1864   -4581.8254            0    2451.8565    17.781311    23.464732    21.868773    9124.3892    2256.6311     2139.311    2959.6273   -693.13777   -712.26157    132.03253   -4096.9182 
32947000     87.66768   -4574.9716   -4424.7122   -4574.9716            0    1556.6689    17.874899    23.422712    21.927791    9180.6973    1020.1487    1219.3419    2430.5162   -426.14412    274.57698   -254.46623   -4216.2882 
32948000    88.115918   -4571.3509   -4420.3232   -4571.3509            0    2378.1714    17.891185    23.346516    21.867813     9134.116    2402.6892    2135.2601    2596.5648    48.177148    -454.6089     87.14704   -4103.5229 
32949000    96.450042   -4583.0626   -4417.7505   -4583.0626            0    1706.3956    17.863539    23.475447    21.875662    9173.6588    2458.3306     808.9421     1851.914    541.02385   -186.09079    264.57464   -4189.4546 
32950000     88.36116   -4580.0241   -4428.5761   -4580.0241            0    1291.7644    17.955542    23.392932    21.917085    9205.8939    2059.9433    1010.7363    804.61354   -665.10221   -726.94175   -61.275066   -4255.1457 
32951000    89.219952   -4577.1675   -4424.2475   -4577.1675            0    1678.8347    17.947342    23.389517    21.841826    9168.7546     1077.386    1567.3726    2391.7456   -135.29859    -601.5784    232.29478    -4199.759 
32952000    91.366322   -4577.7028    -4421.104   -4577.7028            0    2782.1262    17.858259    23.395435    21.819558    9116.2495     3393.951    2142.7726     2809.655    520.08519     212.8561   -277.25169   -4051.2171 
32953000     88.04248   -4583.5628    -4432.661   -4583.5628            0    1932.4211    17.997065    23.203887    21.952581    9167.4385    1552.0301    2742.0147    1503.2183   -458.26899   -161.16906   -413.09214   -4174.3007 
32954000    89.549092   -4585.1419   -4431.6578   -4585.1419            0    2344.3503    18.005957    23.132733    21.948509    9142.1462    1602.3756    2593.5094    2837.1659   -859.26157   -238.42116    218.12688   -4119.0884 
32955000    83.516072   -4579.8863   -4436.7426   -4579.8863            0    1817.9994     17.96046    23.260108    21.949906    9169.8421    2144.5016    1755.0628    1554.4338   -389.82897   -15.949951   -20.444555   -4193.6166 
32956000    86.667102   -4583.9201   -4435.3756   -4583.9201            0    2081.4782    17.993779    23.244526     21.91698    9166.9278    1826.6607    2149.3531    2268.4208   -369.12984   -43.833743    305.08229   -4157.1023 
32957000    87.678197   -4578.6377   -4428.3603   -4578.6377            0    1503.7976    17.864878    23.344591    22.025066    9185.5158    2037.9599    1574.8193    898.61337   -344.75673    141.16508    54.035291   -4226.9096 
32958000    87.390034   -4570.6152   -4420.8316   -4570.6152            0    1687.3803    17.871773    23.429214    21.929023    9182.1554    1866.8755    213.75041    2981.5151   -225.06097    -67.95045    345.71766   -4194.8706 
32959000    88.785674   -4577.7673   -4425.5917   -4577.7673            0    1740.8976    17.991439    23.165557    22.029667    9181.5622    1657.5393    1433.9045    2131.2489    -223.1131   -88.026618    640.12155   -4192.4791 
32960000    94.438726   -4577.2318    -4415.367   -4577.2318            0    1698.6717    17.933821    23.285664    22.012866    9192.5937    1726.8945    1954.4702    1414.6503   -5.8834622    47.300555   -306.18086   -4187.6354 
32961000    89.016842   -4581.8909   -4429.3191   -4581.8909            0    2469.9142    17.759531    23.406733    21.977847    9136.0286    3604.3135    1613.9981    2191.4311    -379.1434    376.74566    365.59532   -4100.2287 
32962000     90.41729   -4579.6238   -4424.6516   -4579.6238            0     2165.711    17.827577    23.392298    21.955116    9155.8978    2497.1473    2108.1789    1891.8067    792.59787   -429.11013   -466.03652   -4135.4656 
32963000    94.394342   -4581.9372   -4420.1485   -4581.9372            0    2178.7843    18.047461    23.353142    21.741379    9163.2284    1853.4918    1669.7275    3013.1336    214.75379   -187.21436    329.66996   -4128.9839 
32964000    90.350283   -4585.1858   -4430.3285   -4585.1858            0    867.08684    17.969311    23.308258    22.040764    9231.4065    531.96259    968.22987    1101.0681    144.60555    265.72176   -78.446438   -4313.5921 
32965000    83.964819   -4587.1558    -4443.243   -4587.1558            0     2435.496    17.980577    23.294401     21.83653    9146.1601    2425.0697     2704.452    2176.9663    440.35856    17.358417   -96.592883   -4118.3786 
32966000    86.735229   -4580.3187   -4431.6575   -4580.3187            0    2044.6236    18.035376    23.201282    21.863122    9148.4885    1731.9695    1988.5131    2413.3882    83.102516   -296.04614   -367.92847   -4158.8611 
32967000    87.023426   -4583.4695   -4434.3144   -4583.4695            0      2134.97    17.959076    23.199498    21.977898    9156.9056    2021.8403    2485.2808    1897.7889    412.62871    79.156208    83.849146   -4149.2018 
32968000    89.623024   -4577.5329   -4423.9221   -4577.5329            0    3156.1584     17.95042    23.273678    21.807745     9110.672    3277.2477    3766.3054    2424.9223    388.51481   -249.16889    540.20291   -4004.5639 
32969000    94.547009   -4584.6314    -4422.581   -4584.6314            0    2119.0289    18.022597    23.391556    21.742884    9166.2905    2622.0975    2261.2743    1473.7149   -431.90256   -294.07634     278.6668   -4139.3072 
32970000    86.967592   -4583.6019   -4434.5424   -4583.6019            0    2595.2402    17.984839    23.099358    21.982831    9132.5085    2862.7528    2883.4434    2039.5245   -179.32655   -308.07222   -414.47425   -4088.8869 
32971000    88.707891   -4581.0647   -4429.0224   -4581.0647            0    1151.2722    18.002516    23.330222    21.937434    9213.7815    245.44471     879.3226    2329.0493   -309.01024    294.57226    217.45147   -4274.3219 
32972000    89.132252   -4585.5537   -4432.7841   -4585.5537            0      1815.71    17.915925    23.221641    22.042436    9170.4731    997.91415     1961.578     2487.638   -91.352077    224.84075   -577.49086   -4189.9475 
32973000    85.402318   -4577.7587    -4431.382   -4577.7587            0     1378.375     17.86477    23.394168    21.993525    9191.7853    2033.5602    219.81042    1881.7544     260.1731    374.58349    31.046908   -4246.6071 
32974000    91.976855   -4582.5886   -4424.9435   -4582.5886            0    2250.0746    17.970129    23.188174    21.985542     9161.254    2646.6067      2021.46    2082.1572    230.68139   -295.94264      506.401   -4124.3166 
32975000    82.024273   -4573.7341   -4433.1473   -4573.7341            0     2837.262    17.961227    23.266829    21.828068    9121.9668     2031.536    2298.5477    4181.7022    197.00516   -217.82074   -95.916336   -4055.6935 
32976000    90.174959   -4581.0811   -4426.5243   -4581.0811            0    1961.7654    17.997313    23.142506    22.008839    9166.7457     1181.074    1850.3608    2853.8614    325.47955    292.82369    472.57169   -4164.2606 
32977000    98.504058   -4574.4815   -4405.6489   -4574.4815            0    1173.5775    17.989852     23.23215    22.028622    9206.7068    893.67617    1265.9974    1361.0589    849.69263    332.18256    55.800303   -4248.0722 
32978000    93.760684   -4576.7703   -4416.0677   -4576.7703            0    3210.8985    17.924481    23.306579    21.829541    9119.4729    3230.6545    2628.3727    3773.6682    -19.71712   -138.42543   -15.542088   -3989.0241 
32979000    88.581784    -4573.991   -4422.1648    -4573.991            0    1862.2519    17.941591    23.316238    21.950011    9182.3569    1589.2639    2172.6986    1824.7931    6.8150974    137.12049   -239.13714   -4172.7809 
32980000    91.981435   -4571.1538   -4413.5008   -4571.1538            0     1994.526    17.933313    23.396813    21.826651    9158.0779    2368.0477     1515.421    2100.1094   -125.39239    80.578455     280.1633   -4147.1095 
32981000    95.612185   -4583.4281   -4419.5521   -4583.4281            0    2131.5262    17.873361    23.413763     21.87527    9154.4211    1654.8051     2402.757    2337.0165    57.879722   -136.81606   -154.37933   -4134.9766 
32982000    90.336727   -4578.6528   -4423.8187   -4578.6528            0    1605.6232    17.966837    23.385369    21.882564    9194.2026    924.29437    2532.0766    1360.4987    1030.9783    96.336019    366.22066   -4208.5239 
32983000    87.542964   -4581.3692   -4431.3235   -4581.3692            0    2425.6023    17.849866    23.353952    21.966366    9157.0073    2407.0606    2630.8546    2238.8916    357.85324     40.39402    275.02831   -4107.3951 
32984000    93.596583   -4579.0164   -4418.5951   -4579.0164            0    2481.9058    17.850381    23.228317    22.053998    9144.3446    2615.7982    3130.6717    1699.2474    115.63651    4.4806565    371.08633   -4087.6059 
32985000    85.765065   -4579.6101   -4432.6117   -4579.6101            0    2402.9605    17.873124    23.242229     21.99449    9136.7585    2473.8833    2146.1248    2588.8732    23.452017   -389.19641   -125.74449   -4112.4166 
32986000      90.7559   -4583.0255    -4427.473   -4583.0255            0     2760.107    17.798098    23.223704    22.086117    9129.0261    2662.9217    2598.8992    3018.5002    296.85699   -102.81363    494.95573   -4059.9993 
32987000    90.163829   -4583.5504   -4429.0127   -4583.5504            0    2370.8298    17.962335    23.275903    21.874124    9145.3429    2116.3645    2214.0326    2782.0924    57.545275   -178.27499   -90.581542   -4112.8022 
32988000    89.983009   -4574.2792   -4420.0514   -4574.2792            0    2431.0766    17.937046    23.397905    21.794574    9146.9494    3084.2949    1193.8038     3015.131   -254.35567   -318.70896     360.1705   -4095.7485 
32989000    87.670592   -4574.1287   -4423.8644   -4574.1287            0    1569.6776    17.915413    23.397446    21.929028    9192.0985    2022.9084    1352.1623     1333.962    177.17218    499.87288    354.98064   -4213.4376 
32990000    88.805359    -4574.885   -4422.6756    -4574.885            0    2619.3363    17.869233    23.282827    21.951642    9132.8985    2604.8955    2947.1876    2305.9258    109.54817    55.163166    131.55362   -4073.7959 
32991000    85.803278   -4580.2988    -4433.235   -4580.2988            0    2490.1755    17.912787    23.219981    21.979051    9141.8469    2857.4495    2750.5418    1862.5353   -197.71513   -39.287565   -58.096337   -4101.2336 
32992000    89.425471    -4577.405   -4424.1328    -4577.405            0    2632.5283    18.069788     23.15343    21.859672    9145.5967    2371.9355    2658.1815     2867.468     89.15927    278.78107    -239.4049   -4073.0084 
32993000    92.882808   -4574.8282   -4415.6302   -4574.8282            0    2310.0273    18.040037    23.140546    21.895595     9140.454    2060.6434    1815.8466    3053.5918    -39.25189   -273.83731   -51.639869    -4107.694 
32994000    91.701371   -4576.3068   -4419.1337   -4576.3068            0    1322.3962    18.113557    23.224614    21.833833    9185.0651    533.05343    1490.8252    1943.3099    835.07134   -144.16984   -725.50125   -4241.9925 
32995000    94.297595   -4579.1569   -4417.5341   -4579.1569            0    1954.4844    17.944752    23.279678    21.958709    9173.2077    2599.0322    2346.8874    917.53351   -165.57828   -101.75777    224.88453   -4156.0596 
32996000    87.510543   -4576.0993   -4426.1092   -4576.0993            0    2026.7306    17.856768    23.338528    21.993923    9165.9826    2992.0251     1485.329    1602.8378   -111.34722    372.16911    412.95392    -4155.183 
32997000    85.775945   -4574.2927   -4427.2757   -4574.2927            0    1917.2675    17.949199    23.260299    21.956572    9166.9506    2033.5568    2336.5205    1381.7251   -74.433199   -484.64093     84.35207   -4170.9551 
32998000     92.45206   -4575.9719   -4417.5122   -4575.9719            0    1322.0854    17.927903    23.300011    22.043165    9207.8778     1437.654    1173.0728    1355.5293   -135.72601    262.15269    507.95214   -4239.9728 
32999000    93.289394   -4592.3666   -4432.4718   -4592.3666            0    2843.9254    17.981714    23.230231    21.831537    9119.4559    1732.9764    3493.8356    3304.9642   -829.25814   -254.20407   -249.38458   -4054.2357 
33000000    91.776055   -4569.9093   -4412.6083   -4569.9093            0    1741.4465    17.939309    23.313614     21.93466    9173.7358    1863.6967    610.89677    2749.7462    57.228144   -230.98296   -343.73021    -4179.621 
Loop time of 360.052 on 64 procs for 250000 steps with 864 atoms

Performance: 119.983 ns/day, 0.200 hours/ns, 694.344 timesteps/s
194.1% CPU use with 32 MPI tasks x 2 OpenMP threads

MPI task timing breakdown:
Section |  min time  |  avg time  |  max time  |%varavg| %total
---------------------------------------------------------------
Pair    | 18.106     | 25.167     | 33.473     | 103.3 |  6.99
Bond    | 0.90063    | 1.2221     | 1.6771     |  15.4 |  0.34
Kspace  | 180.36     | 190.36     | 200.06     |  41.6 | 52.87
Neigh   | 0.33934    | 0.38658    | 0.41462    |   3.2 |  0.11
Comm    | 51.507     | 57.393     | 62.387     |  33.5 | 15.94
Output  | 0.56259    | 0.5629     | 0.5645     |   0.0 |  0.16
Modify  | 65.652     | 68.253     | 72.449     |  21.3 | 18.96
Other   |            | 16.71      |            |       |  4.64

Nlocal:        27.0000 ave          39 max          19 min
Histogram: 5 7 3 2 2 2 3 1 5 2
Nghost:        2149.88 ave        2262 max        2040 min
Histogram: 8 4 4 0 0 0 0 3 6 7
Neighs:        6619.19 ave        9647 max        4520 min
Histogram: 6 5 4 2 3 2 3 2 4 1

Total # of neighbors = 211814
Ave neighs/atom = 245.15509
Ave special neighs/atom = 2.0000000
Neighbor list builds = 1324
Dangerous builds = 0

unfix		3
unfix		2
unfix		1

write_data	data.final.${pid} nocoeff
write_data	data.final.0 nocoeff
System init for write_data ...
PPPM initialization ...
  extracting TIP4P info from pair style
  using 12-bit tables for long-range coulomb (../kspace.cpp:340)
  G vector (1/distance) = 0.37200473
  grid = 24 27 25
  stencil order = 5
  estimated absolute RMS force accuracy = 0.0031246625
  estimated relative force accuracy = 9.4098282e-06
  using double precision FFTW3
  3d grid and FFT values/proc = 4410 672
Last active /omp style is kspace_style pppm/tip4p/omp

write_restart   restart.lmp.${pid}
write_restart   restart.lmp.0
System init for write_restart ...
PPPM initialization ...
  extracting TIP4P info from pair style
  using 12-bit tables for long-range coulomb (../kspace.cpp:340)
  G vector (1/distance) = 0.37200473
  grid = 24 27 25
  stencil order = 5
  estimated absolute RMS force accuracy = 0.0031246625
  estimated relative force accuracy = 9.4098282e-06
  using double precision FFTW3
  3d grid and FFT values/proc = 4410 672
Last active /omp style is kspace_style pppm/tip4p/omp
Total wall time: 0:06:00
