#include		in.partitions
include		in.temp
variable        temperature equal 10.22
variable	tempDamp equal 100.0
include		in.pressure
variable        pressure equal 2208.0
variable        pressureDamp equal 1000.0 # This is 1 ps
include		in.seed
variable        seed equal 745823

units		real
atom_style	full

read_restart	restart.lmp.${pid}
read_restart	restart.lmp.1
Reading restart file ...
  restart file = 30 Jul 2021, LAMMPS = 30 Jul 2021
  restoring atom style full from restart
  orthogonal box = (0.081537094 0.082704591 0.023344670) to (19.918464 19.917296 20.676653)
  4 by 2 by 4 MPI processor grid
  restoring pair style lj/cut/tip4p/long/omp from restart
  restoring bond style harmonic/omp from restart
  restoring angle style harmonic/omp from restart
  972 atoms
  648 bonds
  324 angles
Finding 1-2 1-3 1-4 neighbors ...
  special bond factors lj:    0        0        0       
  special bond factors coul:  0        0        0       
     2 = max # of 1-2 neighbors
     1 = max # of 1-3 neighbors
     1 = max # of 1-4 neighbors
     2 = max # of special neighbors
  special bonds CPU = 0.002 seconds
  read_restart CPU = 0.008 seconds
include 	in.setup
variable	out_freq equal 1000
variable	out_freq2 equal 10000
variable	out_freq3 equal 1000

timestep	2.0

neigh_modify    delay 7 every 1

include		in.tip4p
# This is TIP4P/Ice

# create groups ###
group ox type 2
324 atoms in group ox
group hy type 1
648 atoms in group hy

# set charges - beside manually ###
set group ox charge -1.1794
Setting atom values ...
  324 settings made for charge
set group hy charge 0.5897
Setting atom values ...
  648 settings made for charge

# ### TIP3P Potential Parameters ###
pair_style lj/cut/tip4p/long/omp 2 1 1 1 0.1577 8.5
pair_coeff 1 1*2 0.000 0.000
pair_coeff 2 2 0.21084 3.1668
bond_style  harmonic
bond_coeff  1 450 0.9572
angle_style harmonic
angle_coeff 1 55 104.52
kspace_style pppm/tip4p/omp 1.0e-5
pair_modify tail yes

thermo          ${out_freq}
thermo          1000
thermo_style    custom step temp pe etotal epair emol press lx ly lz vol pxx pyy pzz pxy pxz pyz enthalpy

restart 	${out_freq3} restart.lmp.${pid} restart2.lmp.${pid}
restart 	1000 restart.lmp.${pid} restart2.lmp.${pid}
restart 	1000 restart.lmp.1 restart2.lmp.${pid}
restart 	1000 restart.lmp.1 restart2.lmp.1


include         in.dump
dump            myDump all atom ${out_freq2} dump.water.${pid}
dump            myDump all atom 10000 dump.water.${pid}
dump            myDump all atom 10000 dump.water.1
dump            myDump2 all dcd ${out_freq2} dump.dcd
dump            myDump2 all dcd 10000 dump.dcd
dump_modify     myDump append yes
dump_modify     myDump2 append yes


variable natoms 	equal  "count(all)"                        # NUMBER ATOMS
variable H      	equal  "enthalpy/v_natoms"                 # ENTHALPY-per-atom
variable Vol      	equal  "vol/v_natoms"                 # volume-per-atom
fix AVG all 		ave/time ${out_freq} 1 ${out_freq} v_Vol v_H file vol_enthalpy.dat
fix AVG all 		ave/time 1000 1 ${out_freq} v_Vol v_H file vol_enthalpy.dat
fix AVG all 		ave/time 1000 1 1000 v_Vol v_H file vol_enthalpy.dat


timer           timeout 02:55:00 every 1000
New timer settings: style=normal  mode=nosync  timeout=02:55:00

fix 		1 all shake 1e-6 200 0 b 1 a 1
       0 = # of size 2 clusters
       0 = # of size 3 clusters
       0 = # of size 4 clusters
     324 = # of frozen angles
  find clusters CPU = 0.000 seconds
fix             2 all nph aniso ${pressure} ${pressure} ${pressureDamp}
fix             2 all nph aniso 2208 ${pressure} ${pressureDamp}
fix             2 all nph aniso 2208 2208 ${pressureDamp}
fix             2 all nph aniso 2208 2208 1000
fix             3 all temp/csvr ${temperature} ${temperature} ${tempDamp} ${seed}
fix             3 all temp/csvr 10.22 ${temperature} ${tempDamp} ${seed}
fix             3 all temp/csvr 10.22 10.22 ${tempDamp} ${seed}
fix             3 all temp/csvr 10.22 10.22 100 ${seed}
fix             3 all temp/csvr 10.22 10.22 100 745823


run             250000
PPPM initialization ...
  extracting TIP4P info from pair style
  using 12-bit tables for long-range coulomb (../kspace.cpp:340)
  G vector (1/distance) = 0.37182667
  grid = 24 24 24
  stencil order = 5
  estimated absolute RMS force accuracy = 0.0035569825
  estimated relative force accuracy = 1.0711747e-05
  using double precision FFTW3
  3d grid and FFT values/proc = 3211 432
Last active /omp style is kspace_style pppm/tip4p/omp
Neighbor list info ...
  update every 1 steps, delay 7 steps, check yes
  max neighbors/atom: 2000, page size: 100000
  master list distance cutoff = 10.8154
  ghost atom cutoff = 10.8154
  binsize = 5.4077, bins = 4 4 4
  1 neighbor lists, perpetual/occasional/extra = 1 0 0
  (1) pair lj/cut/tip4p/long/omp, perpetual
      attributes: half, newton on, omp
      pair build: half/bin/newton/omp
      stencil: half/bin/3d
      bin: standard
Per MPI rank memory allocation (min/avg/max) = 10.19 | 10.19 | 10.19 Mbytes
Step Temp PotEng TotEng E_pair E_mol Press Lx Ly Lz Volume Pxx Pyy Pzz Pxy Pxz Pyz Enthalpy 
48750000    10.347224   -5230.0549   -5210.0994   -5230.0549            0    2455.1496    19.836927    19.834592    20.653309     8126.196    2666.8564    2560.8304     2137.762   -198.66442    293.41328     40.59065   -4919.1341 
48751000    10.164904   -5232.6666   -5213.0627   -5232.6666            0    2248.7562    19.874472    19.858066    20.634395    8143.7474    2422.9837    2063.6137    2259.6712   -97.172714    181.92906    11.032451    -4945.982 
48752000    10.152561   -5231.9218   -5212.3418   -5231.9218            0    2073.9423    19.854891     19.88858    20.639377    8150.1926    2283.9687    1956.9566    1980.9015   -140.13668    234.80143   -19.164235   -4965.8284 
48753000    9.8541481   -5232.1645     -5213.16   -5232.1645            0    2153.3245    19.941419     19.88769    20.545843    8148.2501    1769.1768    2223.4041    2467.3925   -158.38341    379.54685   -22.679043   -4957.2721 
48754000    9.7772063   -5232.6224   -5213.7662   -5232.6224            0       2173.1    19.908176    19.880626     20.58146    8145.8746    1952.7838    2109.6188    2456.8973   -245.19545   -109.01652    -269.8612   -4955.6037 
48755000    10.191359   -5231.9574   -5212.3025   -5231.9574            0    2298.9229    19.884103    19.874572    20.580075    8132.9995    2385.0473    2258.5421    2253.1794   -15.525938    109.24607    347.14227    -4939.624 
48756000    10.435369   -5232.3727   -5212.2473   -5232.3727            0    2125.7172    19.888585    19.862051    20.632265    8150.3242     2201.652    2061.6747    2113.8249   -88.824975    557.93044    5.5081093   -4959.5757 
48757000    9.8193392   -5231.6497   -5212.7123   -5231.6497            0    2066.1659    19.898502    19.825971    20.661712    8151.1928    1955.8976    2489.5298    1753.0704   -41.373834    330.33239    213.84438   -4967.0931 
48758000    10.203955   -5230.7364   -5211.0572   -5230.7364            0    2351.9052    19.872015    19.842923    20.612445     8127.876    2386.6297    2317.6358    2351.4501   -92.058336    344.87033    48.444182     -4932.27 
48759000    10.782601   -5232.0813   -5211.2861   -5232.0813            0    2249.1817     19.87144    19.882957    20.596993    8137.9336    2229.9126     2275.252    2242.3805   -123.23445    191.29762    337.61977   -4944.3456 
48760000    10.007765   -5231.2819   -5211.9811   -5231.2819            0     2360.073    19.877782    19.878162    20.561771    8124.6501      2113.45    2419.2314    2547.5377   -111.76177    221.92559   -29.825686   -4932.3368 
48761000    10.227583   -5232.7424   -5213.0176   -5232.7424            0    2297.4602     19.89639    19.895868    20.543753    8132.3668    2188.2427    2414.8737    2289.2643   -179.77845    107.65952   -107.08095   -4940.5337 
48762000    10.822224   -5231.5483   -5210.6767   -5231.5483            0    1967.3384    19.904771    19.853589    20.612731    8145.7627    1905.4851    1808.5269    2188.0033   -143.47096    281.61146   -20.234684   -4976.9617 
48763000    10.668885   -5231.4563   -5210.8805   -5231.4563            0    2153.9341    19.874547    19.869007    20.627324    8145.4728    2271.8764    1952.1436    2237.7824   -141.48597    378.07375    448.70911   -4955.0074 
48764000    10.161912   -5231.9273   -5212.3292   -5231.9273            0    2217.9663    19.876136    19.864384    20.603431    8134.7954    2348.6568    2122.4796    2182.7625   -18.424968    218.86778   -84.324413   -4949.1949 
48765000    10.303821    -5233.006   -5213.1342    -5233.006            0    2161.9726    19.877859    19.840645    20.657089    8146.9398    2146.9756    2352.6425    1986.2996   -30.680593   -2.6188904    60.468746   -4956.2599 
48766000    10.218859   -5231.7961   -5212.0882   -5231.7961            0    2117.6201    19.882314    19.820171    20.663853    8143.0223    2337.3807    2162.7098    1852.7698   -237.68525    356.92164    -59.95987   -4960.6047 
48767000    10.370856   -5231.3588   -5211.3577   -5231.3588            0    2346.6571     19.87991    19.821639     20.60971    8121.3054     2562.556    2618.7167    1858.6987   -215.22142    440.47826    219.61655   -4933.4175 
48768000    9.8374124   -5232.3766   -5213.4043   -5232.3766            0    2142.1355    19.886105      19.8646    20.624751    8147.3856    2091.5873    2255.4557    2079.3636   -90.165081    416.68254   -31.903794   -4958.8731 
48769000    9.9032729   -5232.3047   -5213.2054   -5232.3047            0    1991.3578     19.87551    19.849201    20.623773    8136.3462    1942.8554    2152.3763    1878.8419   -15.973594    617.27518   -321.64822   -4976.9104 
48770000    9.8179841   -5232.1455   -5213.2107   -5232.1455            0    2197.3102    19.904611    19.878181    20.581612    8143.4738    2096.7877    2259.8617    2235.2812   -183.55976     244.8135   -216.25925   -4952.2489 
48771000    10.335516   -5232.9605   -5213.0276   -5232.9605            0    2394.2947    19.878048    19.839391    20.600113    8124.0331    2278.9372    2512.5041    2391.4427   -44.790351    271.70755    242.15259   -4929.3499 
48772000    10.423745   -5232.2614   -5212.1584   -5232.2614            0    2108.8099    19.870437    19.854167    20.621919    8135.5732    2056.0601    2025.4874    2244.8822    14.912734    145.94754    259.78222   -4961.9502 
48773000    10.051971   -5232.1619   -5212.7759   -5232.1619            0    2307.9802    19.854055    19.819189     20.65862    8128.9867    2235.3842    2612.0206    2076.5359   -265.66676   -1.1239553   -120.02589    -4939.158 
48774000    11.328278   -5231.9289   -5210.0814   -5231.9289            0    2069.3402    19.861075    19.851245     20.66149    8146.1453    1918.2687    2347.4725    1942.2794   -238.26898    92.910157    103.21382   -4964.2372 
48775000    10.803973   -5232.3388   -5211.5024   -5232.3388            0    2364.6015     19.88146    19.882162      20.5834    8136.3384     2423.015     2251.742    2419.0475   -150.88401    7.4342306    501.44057   -4930.9185 
48776000    10.598169   -5231.0446   -5210.6052   -5231.0446            0    2236.5863    19.866354    19.860524    20.608567    8131.2378    2445.1057    1921.8338    2342.8194   -144.84066   -102.89631   -329.79935   -4945.3779 
48777000    10.699062   -5231.5644   -5210.9304   -5231.5644            0     2044.326    19.868959    19.887464    20.633675    8153.2567    2121.0531    2202.6833    1809.2417   -276.92172    608.45107   -252.51313   -4967.8459 
48778000    10.060126   -5233.1701   -5213.7683   -5233.1701            0    2019.7101    19.904518    19.822048    20.638037    8142.7027    1861.7092    2303.5083    1893.9129   -23.354658    439.75457    -11.55838   -4973.9217 
48779000    10.338357   -5231.7676   -5211.8292   -5231.7676            0    2123.0013    19.858868    19.836813    20.658125    8137.9925    2106.3135    2359.0304    1903.6601    -52.43976    544.07286   -96.432293   -4959.8624 
48780000    10.149788   -5231.3376   -5211.7629   -5231.3376            0    2248.2626    19.862129    19.854074    20.661706    8147.8232    2076.0408     2348.465    2320.2821       27.097    229.27553   -52.694442   -4944.6071 
48781000    11.170759     -5233.59   -5212.0463     -5233.59            0    2172.9561     19.86708     19.88787    20.597532    8138.3712    2226.7792    2106.6737    2185.4154   -95.831642   -127.83366    48.251807   -4954.1385 
48782000     10.58073   -5232.6453   -5212.2395   -5232.6453            0    2215.5231    19.890168    19.852843    20.600858    8134.7922    2036.3767    2225.9975    2384.1952    92.363193   -95.858521    26.290816   -4949.3952 
48783000     10.58975   -5232.4566   -5212.0334   -5232.4566            0    2219.1825    19.939995    19.854582    20.562279    8140.6118    2312.5342     2203.322    2141.6913   -302.09474    453.16502   -169.75326   -4948.5665 
48784000    9.9495839   -5232.5212   -5213.3326   -5232.5212            0     2048.588    19.894986    19.841225    20.609768    8135.5182    1948.8534    2266.1663    1930.7442   -109.27175    471.97209    33.427916   -4970.2713 
48785000    9.4705272   -5232.2794   -5214.0147   -5232.2794            0    2409.7181    19.871535    19.868878    20.614239    8139.0192    2569.6008    2443.3098    2216.2436     -130.448    392.02604    151.64198   -4927.9829 
48786000    10.283127   -5233.1337   -5213.3018   -5233.1337            0    2285.1659    19.895008    19.811346    20.635208    8133.3026     2417.605    2361.8917    2076.0011   -51.457326   -1.4421384   -100.38005   -4942.2449 
48787000     10.18133   -5232.1689   -5212.5334   -5232.1689            0    2113.0917    19.911914    19.836822    20.629394    8148.3856    1908.4375     2393.697    2037.1405   -169.38861    360.84387    -161.7171   -4961.4223 
48788000    10.368201   -5232.5843   -5212.5883   -5232.5843            0    2145.9452    19.858784    19.868336     20.62169    8136.5144    2211.1819    1984.5057     2242.148   -91.115384   -258.56711    164.07896   -4957.9446 
48789000    10.304806   -5233.4758   -5213.6021   -5233.4758            0    2131.4738    19.877547    19.868046    20.623198    8144.6784    2058.1943    2098.8967    2237.3304   -168.29939    328.26521   -46.427176   -4960.4219 
48790000    9.9455943   -5231.1078   -5211.9269   -5231.1078            0    2316.4656    19.926636     19.86295    20.528489    8125.2124    1875.5605     2444.229    2629.6073   -149.45698     383.6639    135.39083   -4937.4306 
48791000    10.054083   -5231.2466   -5211.8564   -5231.2466            0    2160.5633    19.920067    19.858632    20.557424    8132.2148    2042.5812    2089.5274    2349.5813   -30.887722    459.51289   -120.49221   -4955.6136 
48792000    10.079109   -5232.6945    -5213.256   -5232.6945            0    2351.7127     19.84082    19.880645    20.628415     8136.843    2473.3575     2256.722    2325.0585   -220.82236    332.28719    147.39987   -4934.1842 
48793000    10.738382   -5232.9607   -5212.2508   -5232.9607            0    2036.0798    19.862195    19.830699    20.689753    8149.3051    2088.6904    1896.9872    2122.5617   -178.08336    362.46448   -95.855499   -4970.2642 
48794000    9.6599227   -5231.9639   -5213.3339   -5231.9639            0    2184.0679    19.896408    19.823065    20.633335    8137.9483    2290.1137     2263.271    1998.8191    -79.75451     647.5367   -35.070029   -4954.1208 
48795000    9.7151482   -5232.4505    -5213.714   -5232.4505            0    2277.6245    19.904367    19.828411    20.593791    8127.7921    2143.8299    2379.2368    2309.8067    45.003529    286.04939    -201.9091   -4943.7346 
48796000    9.8040603   -5231.6015   -5212.6936   -5231.6015            0    2314.9368    19.885827    19.879127    20.564893     8129.567    2474.9943    2138.1144    2331.7017   -64.771212      265.529    58.013444   -4938.2314 
48797000    10.087403     -5232.26   -5212.8056     -5232.26            0    2235.2267    19.887665     19.91414    20.551733    8139.4265    2366.9511    1833.1172    2505.6117   -135.20336    262.01598   -20.405376   -4947.4726 
48798000    10.077804   -5233.3644   -5213.9286   -5233.3644            0    2153.4035    19.916318    19.897072    20.545962    8141.8801    2145.5082     1982.702    2332.0004   -155.61462    481.03174   -165.89566   -4958.2313 
48799000    10.393902   -5232.9161   -5212.8706   -5232.9161            0     2348.797    19.871604    19.862337     20.62908    8142.2255    2306.4903    2434.1118    2305.7889   -197.91932     308.2822    16.348099   -4933.9603 
48800000    10.126261   -5232.9239   -5213.3945   -5232.9239            0    2207.3115    19.859121    19.826308    20.660211    8134.6078     2143.722     2334.744    2143.4685   -233.03329    155.21669    270.18973   -4951.5303 
48801000    11.084561   -5231.8216   -5210.4441   -5231.8216            0    2045.4154    19.864466    19.825608    20.704811    8154.0748    2073.5009     2332.089    1730.6563   -93.149525    59.985936    77.040931   -4967.2057 
48802000    10.143788   -5231.5795   -5212.0163   -5231.5795            0    2223.1198    19.873516    19.857545    20.609257    8133.2211    2423.6836    2212.7138    2032.9618   -70.682786   -37.962956   -43.252674   -4948.3217 
48803000    9.6868859   -5231.8929    -5213.211   -5231.8929            0    2273.6461    19.878977    19.873881    20.580069    8130.6177    2383.0776    2033.1564    2404.7043   -143.46912    101.98636    140.34004   -4943.6095 
48804000    10.975479   -5233.2072   -5212.0401   -5233.2072            0    2192.3854     19.90188    19.882545     20.55998    8135.5844    1964.1612    2080.7054    2532.2897   -285.00244    256.33188    46.868338   -4951.9154 
48805000    9.9776455   -5232.0545   -5212.8118   -5232.0545            0    2333.6716    19.889031    19.857174    20.617165    8142.5422    2281.7648      2243.82      2475.43   -130.27462    488.58009    177.96065   -4935.6868 
48806000    10.553446   -5230.6604   -5210.3072   -5230.6604            0     2195.956    19.852423    19.841545    20.647395    8133.0654    2306.5458    2277.2704    2004.0518   -112.97485    190.81498   -187.10387   -4949.8396 
48807000    9.8441625   -5232.4378   -5213.4525   -5232.4378            0    2230.1727    19.866661    19.841883    20.622794    8129.3395     2353.037    2298.7226    2038.7586   -122.70368    550.37426    15.206501   -4949.0476 
48808000    10.419803   -5232.8102   -5212.7148   -5232.8102            0     2176.823    19.896101    19.843422     20.59211    8129.9031    2253.0437    1959.8699    2317.5555   -119.44021    344.31527   -108.36546   -4954.6169 
48809000    10.177127   -5232.9553   -5213.3278   -5232.9553            0    2361.5252    19.926424    19.835576    20.596965    8140.9938    2208.2158    2694.1355    2182.2244   -54.673606    193.06526   -96.611591   -4932.9486 
48810000    10.226558   -5232.6099   -5212.8871   -5232.6099            0    2165.0584    19.923684    19.855273    20.597652    8148.2291      2050.91    2092.9467    2351.3187   -96.336636    392.30014    -85.77168   -4955.6055 
48811000    10.449355   -5231.4867   -5211.3342   -5231.4867            0    2301.2037    19.886381    19.849238    20.579541    8123.3522    2097.0845    2383.8063    2422.7201   -54.569057    591.62269   -211.42333   -4938.7089 
48812000    10.710237   -5231.2977   -5210.6421   -5231.2977            0    2282.5342    19.888541    19.827231    20.641062    8139.4866    2498.3431    2246.0111    2103.2485     7.727229    -7.303695    303.43294   -4939.6914 
48813000    10.655007   -5231.0948   -5210.5458   -5231.0948            0    2290.3303    19.866035    19.831416    20.638689    8131.0576     2538.756    2385.6709    1946.5641    -87.41985    467.49902    -303.5958   -4938.9512 
48814000    10.158829    -5232.361   -5212.7688    -5232.361            0    2091.0467    19.870463     19.86829    20.605904    8135.0486    2023.9762    1978.5076    2270.6561   -209.53482    336.19186    213.94149   -4964.6842 
48815000    10.298788   -5232.5567   -5212.6946   -5232.5567            0    2258.0163    19.905349    19.856507    20.553666    8123.8508    2234.7835    2231.9004    2307.3652    -9.941996    222.61164    1.1307267   -4945.1693 
48816000    10.465861   -5231.2628   -5211.0785   -5231.2628            0    2103.2867    19.875564    19.888105    20.595605    8141.1814    2082.2561    1871.7852    2355.8188    37.946677    217.56151    109.42195   -4961.3537 
48817000    10.269161   -5233.1982   -5213.3933   -5233.1982            0    2062.2406    19.893588     19.87143    20.587665    8138.5927    2066.0683    1952.0946    2168.5587   -68.576931    39.794436    97.618516   -4968.6197 
48818000    10.395241   -5232.7383   -5212.6902   -5232.7383            0     2272.519    19.867992     19.87603    20.586337    8129.4788    2284.1894    2259.7732    2273.5942   -9.0254032    327.70838    133.69684   -4943.2601 
48819000    10.395847   -5234.3842    -5214.335   -5234.3842            0    2107.9578    19.856276    19.850868    20.669587    8147.2138    2380.8106    2025.9336    1917.1293   -150.22744    274.63104    60.463663   -4963.8701 
48820000    10.366524   -5231.8492   -5211.8565   -5231.8492            0    2276.9886    19.849469    19.860008    20.634748    8134.4368    2421.3767     2378.289    2031.3003   -86.546056    143.26602    54.856383   -4941.7318 
48821000    10.509767   -5232.3081   -5212.0391   -5232.3081            0    2264.5114    19.833227    19.878551    20.629651    8133.3597    2379.7114    2264.4411    2149.3817   -55.058772     384.7443   -77.791814   -4943.4302 
48822000    10.897133   -5231.2876   -5210.2716   -5231.2876            0    2108.5914    19.910399    19.871098    20.578991    8141.9031    1884.9245    2154.7576    2286.0921   -105.47722     366.7612   -393.62575   -4959.8947 
48823000    9.9336603   -5233.7804   -5214.6225   -5233.7804            0    2465.3354    19.903669    19.884624    20.562203    8138.0467    2466.7246    2125.1656    2804.1161    62.915771    368.93738    174.41196    -4922.024 
48824000    10.136072   -5232.8577   -5213.3095   -5232.8577            0    2234.8941    19.908794    19.860016     20.60449    8146.7879    2234.3943    2447.6515    2022.6365   -59.257962    292.93554    461.37845    -4947.776 
48825000    10.263539    -5232.318   -5212.5239    -5232.318            0    2290.1914    19.864693    19.840977    20.639254    8134.6506    2335.0136    2497.7627    2037.7979    20.189081    278.49908    -180.1766   -4940.8258 
48826000    10.166545   -5231.8783   -5212.2713   -5231.8783            0    2266.7503    19.880973    19.819592    20.650318    8136.9023     2252.711    2441.9142    2105.6256   -201.45377    400.08993    214.74252   -4943.2797 
48827000    10.271396   -5234.6493   -5214.8401   -5234.6493            0    2195.1954    19.888335    19.813265    20.669314    8144.8023    2330.6572     2338.088    1916.8409   -234.60331    201.36456    -11.35908   -4954.0869 
48828000    10.522219    -5231.282    -5210.989    -5231.282            0       2253.7    19.890901     19.85792    20.592939    8134.0447      2434.05     2099.769    2227.2808     -56.4928    323.33291   -27.626319     -4943.64 
48829000     10.14737   -5233.1057   -5213.5357   -5233.1057            0     2299.784    19.897817    19.881102    20.563548    8134.7447    2087.6033    2328.2208     2483.528   -57.873911   -60.264535    155.73691   -4940.6964 
48830000    10.184655   -5231.1594   -5211.5175   -5231.1594            0    2298.2975    19.908007    19.877198    20.561034    8136.3177    2294.3692    2216.3784    2384.1448   -66.624173    365.45477   -152.02342   -4938.8019 
48831000    10.066803   -5231.0172   -5211.6025   -5231.0172            0    2408.5452    19.911951    19.853014    20.567386    8130.5399    2333.3757    2439.5173    2452.7425   -37.795982    64.958948    209.64002   -4926.0078 
48832000    9.7073949   -5232.7494   -5214.0278   -5232.7494            0    2193.2851    19.895509    19.828888    20.659971    8150.4789    2068.3791     2572.699    1938.7772    55.404854    655.09976     86.14723     -4953.32 
48833000    10.887665   -5232.5086   -5211.5108   -5232.5086            0    2091.4733    19.909812    19.827552    20.615893    8138.3882    2168.2066    2140.2938    1965.9195    -68.49433    360.53033    70.205309   -4963.2737 
48834000    10.818296    -5232.925    -5212.061    -5232.925            0    2054.7873    19.881398    19.818036    20.685262    8150.2056    2145.1454    2149.0678    1870.1486   -42.714411     604.6782    63.437837   -4967.8241 
48835000    9.9763845   -5232.4949   -5213.2546   -5232.4949            0    2195.5489    19.889071    19.846099    20.620608    8139.3759    2270.9862    2271.9246    2043.7357   -265.78816    505.54607   -40.962127   -4952.6332 
48836000    9.9571045   -5231.8094   -5212.6063   -5231.8094            0     2092.165    19.913892    19.861901    20.580935    8140.3308    1756.0696    2278.2834    2242.1419   -173.51272    154.11737    157.46155   -4964.2279 
48837000    10.145774   -5232.3646   -5212.7977   -5232.3646            0     2325.697      19.9286     19.87031    20.550595    8137.7783    1818.8901    2525.6593    2632.5417   -194.76029    200.86189     48.22963   -4936.7813 
48838000    10.033548    -5231.067   -5211.7165    -5231.067            0    2062.2928    19.897206    19.854113    20.595662     8136.139    2131.7869    2121.3128    1933.7786   -99.035858   -72.951874    66.521697   -4967.0105 
48839000    9.6665866   -5233.4526   -5214.8098   -5233.4526            0    2092.9373    19.853065    19.875935    20.632055    8141.3723    2180.1838     2085.596     2013.032   -131.39877    230.24972     2.116371   -4966.3078 
48840000    10.308522   -5232.7807   -5212.8999   -5232.7807            0    2251.9805    19.831894     19.87184    20.642633    8135.1837    2667.5168    1953.0363    2135.3885   -159.66596    442.04673   -58.197183   -4945.7175 
48841000    10.211362   -5232.9554   -5213.2619   -5232.9554            0    2282.1743    19.836876    19.858774    20.637992     8130.049    2293.1382    2268.3176    2285.0671   -97.866189    99.191807   -118.05166   -4942.6681 
48842000     9.998609   -5232.2669   -5212.9838   -5232.2669            0    2099.3648    19.887178    19.862922    20.596465    8135.9633    2108.8434     2083.682    2105.5692   -105.26006   -149.20443    275.52334   -4963.8843 
48843000    10.795301   -5232.5725   -5211.7529   -5232.5725            0      2239.94    19.887904    19.869409    20.572345     8129.386    1960.7797    2449.7099    2309.3306   -116.04881    438.07017   -79.019631   -4946.1883 
48844000    9.8867949   -5232.0915    -5213.024   -5232.0915            0    2225.5977    19.885346    19.891112    20.580871    8140.5918    2160.8116    2000.1388    2515.8427   -63.495208    273.70874    152.79943   -4948.7962 
48845000    10.049565   -5233.6424    -5214.261   -5233.6424            0    1980.7839    19.903173    19.863226    20.583847    8137.6433    2063.6979     1882.094    1996.5598   -63.211176    153.08213    332.64704   -4979.1831 
48846000    10.512447   -5232.7929   -5212.5187   -5232.7929            0    2274.3038    19.909961    19.824782    20.638608    8146.2783    2175.3389    2291.3399    2356.2326   -124.28304    455.37134    -217.0159   -4942.3198 
48847000    10.475137    -5231.813   -5211.6108    -5231.813            0    2303.9089    19.882143    19.826348    20.663538    8145.3663    2390.8991    2387.9887    2132.8388   -97.527017    266.58473    45.714644   -4937.9253 
48848000    9.9919649   -5232.1822   -5212.9118   -5232.1822            0    2183.1132    19.870228    19.842875    20.656382    8144.4486    2277.4883    2127.9525    2143.8988   -197.62175    244.21029   -324.28269   -4953.6051 
48849000    10.488831   -5233.3002   -5213.0716   -5233.3002            0    2206.4626    19.895856     19.83516    20.616996    8136.2394    1951.6953    2304.5621    2363.1304   -90.487512    249.59963    -11.87321   -4951.2556 
48850000    10.008469     -5232.26   -5212.9579     -5232.26            0    2155.5071    19.914862    19.842433    20.607412    8143.2111    1935.1661    2330.1452      2201.21   -172.90306    184.37254   -108.33159    -4956.969 
48851000    9.8426558   -5233.5109   -5214.5285   -5233.5109            0    2248.2227    19.911283    19.925041    20.516872    8139.7229    2181.8306    1890.7397    2672.0978   -150.38263    502.41913    183.89282   -4947.6431 
48852000    10.054732   -5232.3404    -5212.949   -5232.3404            0    2224.5834      19.8972    19.839076    20.613731     8137.107    2133.3696    2139.0654    2401.3152   -27.533613    45.806161   -199.01324   -4948.9547 
48853000    10.476708   -5230.8375   -5210.6323   -5230.8375            0    1936.6729    19.899133    19.849681    20.605389    8138.9526    1833.8936    2312.0269    1664.0983   -151.54279    346.25878    112.18838   -4980.7526 
48854000    10.509778   -5231.7823   -5211.5133   -5231.7823            0     2211.269     19.86682    19.823899    20.642414    8129.7637    2096.8384    2386.4913    2150.4774   -61.897601    462.60058     187.7836   -4949.3358 
48855000    10.974841   -5231.3621   -5210.1962   -5231.3621            0    2277.8891    19.848188    19.844635    20.626293    8124.2854    2513.1954    2260.3468    2060.1251    1.8420487    38.692579    116.90123    -4940.302 
48856000    9.9680898   -5233.1225   -5213.8982   -5233.1225            0    2112.0836    19.870059     19.83215    20.665639    8143.6256    2154.5457    2171.4079    2010.2973   -91.099878    257.11313   -84.003122   -4963.0536 
48857000    10.460961   -5232.7347   -5212.5598   -5232.7347            0    2134.2659    19.902833    19.872133    20.576108    8138.0928    2060.7206    1986.7507    2355.3264   -212.64011    164.65961    317.22035   -4959.2529 
48858000     10.20992   -5230.9855   -5211.2948   -5230.9855            0    2409.8002    19.865869    19.868528    20.621768    8139.5271    2337.6847    2624.1149    2267.6011    24.196057    301.90927     153.4701   -4925.2355 
48859000    9.7993432   -5231.0262   -5212.1273   -5231.0262            0    2324.7527    19.911334    19.873556    20.564706    8137.6393    2234.4085    2359.4334    2380.4163   -9.1652541    296.42618   -159.66179   -4936.2277 
48860000    10.342322   -5231.3662   -5211.4202   -5231.3662            0    2275.5679    19.872581    19.826087      20.6276    8127.1819    2287.3719     2308.701    2230.6309   -78.495247    397.26627   -7.6591619   -4941.7048 
48861000    10.617635   -5231.7025   -5211.2255   -5231.7025            0    2163.8098    19.875475    19.848125    20.606867    8129.2217    2438.7316    1931.1603    2121.5375   -77.804122    237.73178    -187.9093   -4954.6921 
48862000    10.653608   -5232.1446   -5211.5982   -5232.1446            0    2241.1179    19.880177      19.8241      20.6423    8135.2673     2134.758    2437.8306    2150.7651    -64.00078    328.29991    99.899983   -4945.7019 
48863000    10.053124   -5232.8937   -5213.5054   -5232.8937            0    2249.9218    19.866222     19.84666    20.636069    8136.3515    2342.8727    2360.8131    2046.0797   -80.634851    195.60926    139.57903   -4946.5289 
48864000    10.432136   -5231.9502   -5211.8309   -5231.9502            0    2224.4437    19.903053    19.840273    20.629752    8146.3182     2165.125    2227.7114    2280.4946   -74.346648    426.66913    20.470223   -4947.5544 
48865000    10.294105   -5231.3669   -5211.5138   -5231.3669            0      2224.33    19.895635    19.905683    20.535362     8132.747    2018.9486    2194.4206    2459.6209   -200.29425    365.73955    47.138595    -4947.691 
48866000    9.6619713   -5232.0334   -5213.3995   -5232.0334            0    2147.1575     19.88789    19.851769    20.592347    8130.0604    2116.9779    2126.8098    2197.6849   -217.95256    192.43537    113.29261    -4958.814 
48867000    9.9104533   -5232.4318   -5213.3186   -5232.4318            0    2031.7466    19.869004    19.852558    20.645624    8143.6777    2204.9791    2019.0874    1871.1734   -137.48821      43.3992    43.769725   -4972.0138 
48868000    10.062642   -5232.7925   -5213.3859   -5232.7925            0    2331.4612    19.884012    19.827519    20.667634    8148.2272    2240.1281    2439.0825     2315.173   -224.30806    263.17741    2.3395845   -4936.3301 
48869000    9.4844515   -5232.0086    -5213.717   -5232.0086            0    2278.1086    19.851408    19.847775    20.644085     8133.899    2278.4631    2405.1295    2150.7331   -43.688494    145.60394    105.73296   -4943.4774 
48870000    10.361492   -5232.8877   -5212.9047   -5232.8877            0    2181.9905    19.880125    19.841308    20.637913    8140.5768    1945.3664    2522.3432     2078.262   -162.88279    396.74255     282.5304   -4953.8545 
48871000    9.9917408   -5234.1286   -5214.8587   -5234.1286            0    2255.7459    19.909258    19.863194    20.590992    8142.9438    2147.0628    2271.4062    2348.7687   -206.91076    232.87832    216.09211   -4946.9743 
48872000    10.811216   -5232.1248   -5211.2745   -5232.1248            0    2291.5189    19.901098    19.898429    20.527663    8128.9667    2456.3196    2020.1079    2398.1294   -205.00486    50.979664    293.27072   -4939.6088 
48873000    10.242383   -5232.6468   -5212.8935   -5232.6468            0    2256.6579    19.854951    19.906083     20.58176    8134.6171    2276.0087    2037.8119    2456.1531   -100.26519    102.04707    96.546703   -4945.1748 
48874000    10.112341   -5231.4611   -5211.9586   -5231.4611            0    2167.9064    19.898993     19.85932    20.581325    8133.3375    2190.5281    2186.1461    2127.0451   -10.039757    370.12723   -231.25639   -4954.8094 
48875000    10.675733   -5232.2313   -5211.6423   -5232.2313            0    2222.4662    19.874058    19.829475    20.646898    8136.7801    2222.8635    2352.5488    2091.9863    -41.03715    344.96772    131.02706   -4947.9098 
48876000    9.7988933   -5232.7397   -5213.8417   -5232.7397            0    2179.0005    19.863211    19.846454    20.627442    8131.6328    2338.6342     2062.638    2135.7293   -1.9870274    160.81933    87.522291   -4955.4307 
48877000    9.9856811   -5232.8253    -5213.567   -5232.8253            0    2185.7556    19.867393    19.885671    20.641446    8154.9488    2373.6714    2051.6901    2131.9054    -222.8272    97.046621   -152.68125   -4953.6117 
48878000    9.8637584   -5231.9793   -5212.9562   -5231.9793            0    2267.3864    19.883161    19.895358     20.56512    8135.2036    2342.0227    2031.2753    2428.8614   -176.34078    267.27409   -78.248031   -4943.9453 
48879000    10.671999   -5230.7703   -5210.1885   -5230.7703            0    2185.2411    19.903081    19.872752    20.571643    8136.6814    2161.3112    2343.7186    2050.6935   -141.72416    300.33787    433.27295   -4950.8765 
48880000    9.6953081   -5232.6845   -5213.9863   -5232.6845            0    2290.9254    19.880676    19.858205    20.601612    8133.4041    2396.1904    2269.4247    2207.1612   -339.53074    49.439034   -70.991222   -4942.2428 
48881000    10.014875   -5232.3179   -5213.0034   -5232.3179            0     2321.739    19.873493    19.827588    20.627174    8128.0026    2689.3682    2309.8064    1966.0424   -97.993168    124.24679    225.55193   -4937.7878 
48882000    10.179504   -5230.9777   -5211.3457   -5230.9777            0    2244.0502    19.877399    19.810937    20.676703     8142.277    2077.2694    2499.9562    2154.9251    -198.3355    110.76535   -187.65256    -4944.872 
48883000    10.522694   -5231.8626   -5211.5687   -5231.8626            0    2119.4115    19.912181     19.85088    20.605367    8144.7723    2208.0921    1958.6104     2191.532    -18.74118    172.72565   -51.087949   -4959.8183 
48884000    10.269255     -5233.13   -5213.3249     -5233.13            0     2247.978     19.88584    19.901175     20.58389     8146.107    2147.0785    2119.6833    2477.1721   -197.97897    244.21402   -191.70825   -4946.2592 
48885000    10.176373   -5231.8465   -5212.2205   -5231.8465            0    2290.8383    19.904316    19.916804    20.538549    8142.1044    2210.6244    1991.7999    2670.0904   -15.981982    81.078237    138.10569   -4940.1967 
48886000    10.425601   -5231.9496   -5211.8429   -5231.9496            0    2237.7557    19.881874    19.860618     20.59708    8133.0927    2202.3201    2201.4665    2309.4805   -86.213641    47.518813    1.1141514   -4946.4164 
48887000    9.8977004   -5232.2605    -5213.172   -5232.2605            0    2281.0511    19.847821    19.858101    20.619382    8126.9235    2430.0011    2313.9437    2099.2085   -186.89126    437.48927   -105.55147   -4942.8153 
48888000    10.153063   -5233.2595   -5213.6785   -5233.2595            0    2071.9564    19.855409    19.860132    20.667495    8149.8352    2308.3741     1956.532    1950.9632   -229.31538    246.37601    234.90193    -4967.412 
48889000    9.6201801   -5233.2398   -5214.6864   -5233.2398            0    2124.3549    19.863247    19.834544    20.666885    8142.3071     1938.464    2458.1339    1976.4669   -334.28972    90.781187    53.261002   -4962.4252 
48890000     10.45526   -5232.4141   -5212.2503   -5232.4141            0    2284.9469    19.895226    19.850095    20.602629    8136.4337    2053.9504    2524.3893    2276.5009   -58.999222    284.02603    215.45352   -4941.1149 
48891000    10.105855   -5231.9964   -5212.5065   -5231.9964            0     2159.277    19.880448    19.875388    20.596465    8138.3147     2008.771    2443.9872    2025.0729   -119.55659    321.97189   -246.53582   -4956.2241 
48892000    10.033727   -5230.9938    -5211.643   -5230.9938            0    2198.3696    19.834145    19.924101    20.576144    8131.2295    2369.5224    1945.1271    2280.4592    51.828423    118.49933    150.72615   -4950.9479 
48893000    10.029231   -5232.9186   -5213.5764   -5232.9186            0    2240.6934    19.840352    19.888373    20.635932    8142.7802    2349.0277    2157.9081    2215.1443   -179.50886    -100.6196    419.32565   -4947.4848 
48894000    10.165466   -5232.1673   -5212.5623   -5232.1673            0    2133.5575    19.853048    19.874036    20.639791    8143.6399    2318.9692    1937.9408    2143.7626   -33.949994    44.814954    207.74722   -4959.1669 
48895000    10.012184   -5231.6931   -5212.3838   -5231.6931            0    2159.0741    19.870552     19.80201    20.676746    8135.8218    2297.6844    2499.9439    1679.5941   -168.00429    252.11019   -22.979841    -4956.204 
48896000    10.145546   -5233.1337   -5213.5672   -5233.1337            0    2333.9608    19.884331    19.858958     20.61145    8139.0925    2425.7955    2304.0622    2272.0248   -169.50537     305.4763    69.903131   -4936.5253 
48897000    9.7991548   -5232.8107   -5213.9122   -5232.8107            0     2190.843    19.879784    19.886907    20.574683    8134.1478     1970.247    2239.8272    2362.4549    41.087128    230.37753   -322.24171   -4954.0164 
48898000    9.8706155    -5232.448   -5213.4117    -5232.448            0    2096.8459    19.916938    19.903004    20.544245    8143.8801    2238.6641    1777.0069    2274.8665   -91.980878    243.84775    214.08284    -4964.369 
48899000     10.60486   -5232.0498   -5211.5974   -5232.0498            0    2158.6237    19.919994    19.823534    20.603833    8136.1377    2085.5267    2123.2787    2267.0657   -104.91061    219.69777    40.298571   -4955.4611 
48900000    10.181442    -5232.431   -5212.7952    -5232.431            0    2137.7211    19.883565    19.842741    20.641265     8143.896    1942.7716    2272.9053    2197.4865   -170.31348    289.18756    23.765568   -4958.8973 
48901000    10.564441   -5231.6675   -5211.2931   -5231.6675            0    2176.3028    19.876388    19.832697    20.654309    8141.9777      2128.58    2320.7978    2079.5307   -81.363472     253.6753    119.81827   -4952.8737 
48902000    10.426099   -5233.2263   -5213.1187   -5233.2263            0    2007.5852     19.91686     19.83883    20.627335    8150.4215     2023.208    2190.0272    1809.5205   -126.69734    541.28672      80.4667    -4974.486 
48903000    9.7573957    -5231.883   -5213.0651    -5231.883            0    2244.5778    19.916609    19.869152    20.578842    8143.5858    2196.1218    2008.5148    2529.0969   -71.483591    317.30426   -156.61144   -4946.4859 
48904000    10.278825   -5232.0828   -5212.2592   -5232.0828            0    2166.0527    19.873536     19.90562    20.582944    8142.5111    2339.5768    2061.5936    2096.9876   -232.36947     86.16326    85.579514   -4955.0401 
48905000    9.6357027   -5230.8615   -5212.2783   -5230.8615            0    2289.1262    19.890714    19.856831    20.590982    8132.7487    2349.6053    2224.2092    2293.5642   -103.17865    179.50912   -154.03576   -4940.7701 
48906000    10.101106   -5233.5048    -5214.024   -5233.5048            0    2138.6442    19.887291    19.843938    20.623055    8138.7273    1963.4766    2324.1115    2128.3446   -45.993348    237.11723   -48.132643   -4960.1776 
48907000     10.75649   -5232.6885   -5211.9437   -5232.6885            0    2257.6848    19.872943    19.807323    20.665334    8134.4917    2080.5424     2727.015     1965.497    36.086277    325.62054    56.137715   -4944.1073 
48908000     10.15083   -5233.1677    -5213.591   -5233.1677            0     2232.034    19.864162    19.873234    20.591203    8128.6892    2526.4946    1992.5638    2177.0437   -104.93104    499.14441    151.56789   -4948.9865 
48909000    9.8719386    -5232.441   -5213.4021    -5232.441            0    2275.3961    19.865578    19.877085    20.594805    8132.2664    2351.2797    2107.4856     2367.423   -78.485038    369.29437   -281.86577   -4943.5384 
48910000    10.538983   -5232.0601   -5211.7348   -5232.0601            0    2271.0244    19.869685    19.910319    20.565975    8136.1417    2312.3014    2047.1626    2453.6094   -37.855086    284.55624    84.166372   -4942.2612 
48911000    9.7783411   -5232.3124   -5213.4541   -5232.3124            0     2202.365    19.882615    19.888712    20.571406    8134.7485    2261.0515    1988.9983    2357.0451   -124.02144    360.97257    10.707737   -4952.1722 
48912000    10.031635   -5231.8003   -5212.4534   -5231.8003            0    2238.6716    19.906249    19.822769    20.623001    8137.7741    2013.5151    2548.0095    2154.4902   -149.26682    24.629805   -52.309618   -4946.7654 
48913000    10.075104   -5231.4169   -5211.9862   -5231.4169            0    2293.9672    19.879164    19.812822    20.653718    8134.7215    1950.8962    2892.8389    2038.1666   -144.57969    217.07918   -109.52048   -4939.8378 
48914000    9.8620526    -5232.779   -5213.7592    -5232.779            0    2227.2326    19.862832    19.816191    20.694747    8145.5697    2552.2093    2077.5809    2051.9077   -226.20465    324.42457    182.44128   -4949.1756 
48915000    10.151962   -5232.4229    -5212.844   -5232.4229            0    2318.3237    19.862929    19.836757    20.657585     8139.421    2662.3474    2198.6167    2094.0069   -167.18278    381.13891   -18.492532   -4937.6471 
48916000    10.075835   -5230.8423   -5211.4102   -5230.8423            0    2179.6541    19.875398    19.862439    20.623563    8141.6438    2160.7479    2111.7833     2266.431    11.289613    80.534209   -43.217171   -4952.6035 
48917000    9.9547924   -5232.1333   -5212.9347   -5232.1333            0    2258.6573    19.929864    19.866438    20.574999    8146.3703    2152.7067    2232.6425    2390.6226   -162.37383   -228.18996    92.978893   -4944.5916 
48918000    10.300162   -5230.6593   -5210.7945   -5230.6593            0    2366.4649    19.892971    19.893116    20.542574    8129.3783    2348.0883     2098.196    2653.1105    30.309677     258.3872    32.753883   -4930.2297 
48919000    11.022814   -5232.1053   -5210.8469   -5232.1053            0    2178.4086    19.900028    19.868299    20.601749    8145.5136    2128.8655    2077.1634    2329.1969   -125.59877      294.771    60.311279   -4952.0651 
48920000    10.403822   -5232.0405   -5211.9758   -5232.0405            0    2317.9641    19.883461    19.833873    20.618825    8131.3646    2394.4657    2399.9624    2159.4642   -47.529035      460.728   -49.828855    -4937.094 
48921000    10.184543   -5231.3502   -5211.7085   -5231.3502            0    2260.4393    19.891687    19.815606    20.625876    8130.0157    2078.0072    2667.0136     2036.297   -55.667894    390.67485    95.812773   -4943.6929 
48922000    9.6944674   -5231.6417   -5212.9451   -5231.6417            0     2209.291     19.88754    19.798681    20.680104    8142.7302    2511.0537    2365.8186    1751.0006   -107.51069    189.98269    55.669618   -4950.5844 
48923000    10.011448   -5232.9536   -5213.6457   -5232.9536            0    2180.9417    19.897577    19.842428    20.619123    8140.7646    2179.4495    2246.5931    2116.7824   -196.53677    252.43126   -71.943689    -4954.714 
48924000    10.454856   -5232.5721   -5212.4091   -5232.5721            0    2223.9454    19.877219      19.8861    20.589712    8138.7089    2197.3668    2018.6619    2455.8075   -118.84013    252.79762   -88.315642   -4948.4385 
48925000    10.025451   -5232.3795   -5213.0446   -5232.3795            0    2215.3178    19.906476    19.919978    20.541538    8145.4708    1982.6414    2064.5146    2598.7975   -57.228338    216.28368    65.632109   -4949.8796 
48926000    9.9401194   -5232.3655   -5213.1951   -5232.3655            0    2080.3563    19.887207    19.881476    20.585322    8139.1689    1993.6833    1947.5034    2299.8821   -53.946796    399.85486   -95.963714   -4966.2538 
48927000    10.267982   -5231.5417   -5211.7391   -5231.5417            0    2184.0575    19.834707    19.892334    20.593461    8125.3273    2418.6446    2056.8174    2076.7106   -204.43362    220.28176     21.62723   -4952.9292 
48928000    10.209076   -5232.4044   -5212.7153   -5232.4044            0     2330.953    19.854179    19.818436    20.682109    8137.9707    2028.3863    2659.5969    2304.8759    63.996341    306.68354    314.46963   -4936.0686 
48929000    9.7836526   -5229.6743   -5210.8057   -5229.6743            0    2437.5001    19.849537    19.814448    20.654897     8123.728    2349.9183    2754.2991    2208.2829   -19.390367    15.487408   -298.72691   -4922.0199 
48930000     10.24016   -5231.8995   -5212.1505   -5231.8995            0    2485.7373      19.8466    19.861189     20.64078    8136.1221    2589.9088    2463.9946    2403.3084   -69.215651    299.64018    317.62563   -4917.2003 
48931000    9.7560503    -5231.515   -5212.6996    -5231.515            0    2428.7616    19.891227    19.869699    20.572464    8130.9101    2255.9148     2335.318    2695.0519   -66.706133    648.16305   -266.27839   -4924.6947 
48932000    9.9038556   -5231.6868   -5212.5864   -5231.6868            0     2007.823    19.904052    19.883004    20.548681    8132.1885    1681.7639    1853.0039    2488.7011    -53.68668    2.4214883    372.69832   -4974.4593 
48933000    10.010121   -5232.8434    -5213.538   -5232.8434            0    2253.8324    19.918376    19.878671    20.546973    8135.5913      2086.89    2112.9735    2561.6338    23.535478   -157.64125   -85.191818   -4946.1225 
48934000    9.9715139   -5233.4318   -5214.2009   -5233.4318            0    2112.8653    19.859239    19.872308    20.644438    8147.3052    2190.8252    2082.6113    2065.1594   -83.965852   -112.37888    340.68336   -4963.1501 
48935000    10.476583   -5231.8892   -5211.6842   -5231.8892            0    2175.3545    19.878559    19.799338    20.648011     8126.692    2096.9325    2483.9404    1945.1906   -196.34809    277.05226    539.00039   -4953.8623 
48936000    10.395791   -5231.2958   -5211.2467   -5231.2958            0    2392.3225    19.863686     19.85166    20.608821    8126.6176    2525.4913    2495.3032     2156.173     -85.4066    292.10598   -37.086464   -4927.7125 
48937000    10.433153   -5233.6401   -5213.5189   -5233.6401            0    2111.2479    19.897954    19.878569    20.580723    8140.5578    1916.8134    2173.2457    2243.6846   -270.14371    10.710522   -108.77047    -4962.868 
48938000    10.464822   -5232.2457   -5212.0635   -5232.2457            0     2227.672    19.900419    19.888503    20.547417    8132.4529    2040.2821    2116.6946    2526.0393   -254.90681    245.62757    287.37994   -4947.8538 
48939000    9.9459533   -5233.7076    -5214.526   -5233.7076            0      2210.08    19.901341    19.875129    20.587094    8143.0547    1976.1825     2364.711    2289.3466     -50.8312    64.394815   -220.20675    -4952.061 
48940000    10.281563   -5231.0721   -5211.2432   -5231.0721            0    2219.8635    19.914912    19.889332    20.551084    8140.1676    2059.2009    1997.5553    2602.8343     -172.982   -60.156617    124.57891   -4947.7099 
48941000     10.26648   -5232.3062   -5212.5064   -5232.3062            0     2083.941    19.876069    19.864859    20.628516    8144.8666     2140.358     2220.381     1891.084     -105.108    347.84795   -73.015674   -4964.9665 
48942000    10.308083   -5231.8984   -5212.0184   -5231.8984            0    2277.5647    19.864974    19.845599    20.631289    8133.5206    2112.2849    2322.5826    2397.8265   -79.585947    210.53128    254.53697   -4941.8558 
48943000     10.05399   -5232.0428   -5212.6529   -5232.0428            0      2157.27    19.889338    19.847624    20.639338    8147.5046    2174.0718    2149.9936    2147.7447   -75.765738    501.81001   -167.00649   -4956.3196 
48944000    10.430142   -5232.4534    -5212.338   -5232.4534            0    2267.1868    19.908092    19.845081    20.609238    8142.2505    2098.9938    2446.2875    2256.2791    1.0965073    433.11699    66.689437   -4943.1178 
48945000    10.427306   -5232.6537   -5212.5437   -5232.6537            0    2087.5298    19.888798    19.892667    20.571663    8138.9987    2225.2025    1834.3125    2203.0742   -96.109675    16.119982    133.21617   -4964.7562 
48946000    9.9471726   -5232.6703   -5213.4863   -5232.6703            0    2288.1157    19.901041    19.847411    20.612291     8141.528    2450.8526    2237.9563    2175.5383    1.5264077    326.96085   -89.316297    -4941.805 
48947000    10.215469   -5232.0258   -5212.3244   -5232.0258            0    2210.0936    19.918674    19.845907    20.569547    8131.2271    2158.9377     2039.402    2431.9411   -151.86865    385.74246    115.97473   -4950.2392 
48948000    10.588368   -5232.9857   -5212.5651   -5232.9857            0    2220.6891    19.857894    19.848292     20.65031    8139.2222     2236.958    2241.4218    2183.6874   -108.04472   -100.67755   -50.606134   -4948.9644 
48949000    10.222597   -5231.4569   -5211.7418   -5231.4569            0    2392.8303    19.844016    19.852279    20.649637    8134.9022    2506.8072    2407.5193    2264.1642   -95.226342    273.92833    82.146419   -4927.8583 
48950000    9.9950443   -5232.4028   -5213.1266   -5232.4028            0    2370.4083    19.867633    19.831632     20.64003     8132.328    2124.7045    2629.1051    2357.4152   -95.701801    153.95417    28.855301   -4931.9922 
48951000    10.419688   -5233.1173   -5213.0221   -5233.1173            0    2355.1696    19.908406    19.854257    20.585005    8136.5651    1979.4583    2697.6752    2388.3753    8.5904358    554.54322     -137.274   -4933.5495 
48952000    10.396203   -5231.9394   -5211.8894   -5231.9394            0    2340.1697    19.889484    19.864356    20.578693     8130.473     2189.609    2483.4384    2347.4618   -31.008045      307.835    119.85877   -4934.4047 
48953000    9.9374224   -5233.3588   -5214.1936   -5233.3588            0    1928.1015    19.893569    19.878443     20.62561    8156.4631    1673.0682    1938.3086    2172.9276   -87.328887    146.64329    220.52609   -4984.8389 
48954000    9.9026135   -5231.5352   -5212.4372   -5231.5352            0    2323.5582    19.857336    19.859086    20.582138    8116.5361    2510.6126    2264.5975    2195.4646   -196.48755    353.68108   -79.327913   -4937.3944 
48955000    9.6896897   -5232.6582   -5213.9709   -5232.6582            0    2218.1191    19.878695     19.81193    20.665161    8138.6701    2404.9449    2229.4119    2020.0004    -50.69534    172.69434    229.03473   -4950.6931 
48956000    9.5423942   -5231.9854   -5213.5821   -5231.9854            0    2219.8512    19.826884    19.871779    20.662067    8140.7609    2442.0908    2255.9598     1961.503   -256.31507   -161.24835   -38.773354    -4950.031 
48957000    10.436391   -5232.9654   -5212.8379   -5232.9654            0    2151.9646    19.878511    19.869645    20.614136    8142.1499    2286.8747    2107.3183    2061.7008   -114.75493    380.77046    295.50125   -4957.3031 
48958000    10.219407   -5231.8841   -5212.1751   -5231.8841            0    2203.5718    19.904442    19.858192    20.586145     8137.008     2129.363    2135.7255     2345.627   -81.875089    83.453359   -105.30823   -4950.6774 
48959000    10.295354   -5231.8752   -5212.0197   -5231.8752            0    2416.6686    19.896354    19.879355    20.543538    8125.5174    2191.1805    2212.9765     2845.849   -76.423261    167.82404    124.81874   -4925.6388 
48960000    10.664152   -5231.7975   -5211.2308   -5231.7975            0    2262.8532    19.879595    19.869551    20.609512    8140.7288    2244.2626    2245.5862    2298.7108   -109.26871    300.49363   -58.897592   -4942.5754 
48961000    10.243592   -5231.9109   -5212.1553   -5231.9109            0     2375.121    19.862957      19.8499    20.631272    8134.4507    2569.9218    2391.0167    2164.4245   -144.72968    5.6831284    278.60601   -4930.3884 
48962000    10.004964   -5231.6868   -5212.3914   -5231.6868            0    2298.2317     19.89283    19.812259    20.636604    8133.3375    2190.6376    2442.7273    2261.3301   -76.277564    125.70072   -32.464072   -4939.7834 
48963000    10.780367   -5232.8009     -5212.01   -5232.8009            0    2225.6468    19.834046    19.844368    20.686265    8141.9921    2255.2398    2545.9717    1875.7288   -121.03989   -156.41587   -235.67226    -4947.731 
48964000    10.548389   -5232.4145    -5212.071   -5232.4145            0    2160.8836    19.886649    19.846881    20.625416    8140.6032    2092.8635    2340.0773    2049.7099    56.328586    353.69367     107.6279   -4955.5258 
48965000    10.259866   -5233.9701   -5214.1831   -5233.9701            0    2296.0502    19.900932     19.87972    20.591852    8146.6507      2050.15    2487.3586    2350.6421    -90.34727    341.69987    17.243091   -4941.3881 
48966000    10.186578   -5232.0928   -5212.4471   -5232.0928            0    2246.6994    19.891316    19.886447    20.537581    8124.0015    2235.0016     2021.258    2483.8385   -197.34455    269.79461    157.46601   -4946.2576 
48967000    10.014951   -5233.5677    -5214.253   -5233.5677            0    2216.3038    19.908934     19.86923      20.5547    8130.9292    2152.8469    2079.4759    2416.5886   -200.47261    367.44034   -136.16911   -4951.4409 
48968000    10.301897   -5231.5608   -5211.6928   -5231.5608            0    2274.8071    19.846196    19.853373    20.635728    8130.7646    2507.4314    2230.6859    2086.3039   -181.18391   -3.2394935   -200.69502   -4941.9487 
48969000    9.9257996   -5231.4903   -5212.3475   -5231.4903            0    2184.7111    19.847714    19.837161    20.678038    8141.4045    2291.0297    2383.6935    1879.4101   -61.211895    183.07747    269.73104    -4952.948 
48970000    9.7010343   -5232.6044   -5213.8951   -5232.6044            0    2221.9198    19.875377    19.837595    20.640685    8138.2031     2431.639    2215.6401    2018.4802   -91.352942    412.45173    62.498312   -4950.1813 
48971000    10.338133   -5232.2011   -5212.2631   -5232.2011            0    2276.0072    19.886433    19.868651    20.583424    8132.8524    2550.7898    2029.4409     2247.791   -144.48896     416.3826    213.73459   -4942.3075 
48972000    9.9244981   -5232.7463   -5213.6061   -5232.7463            0    2259.8633    19.883477    19.884761    20.589077    8140.4716    2172.8845    2320.6298    2286.0755   -158.88178    270.31114   -129.17027   -4945.3141 
48973000    9.6431685   -5232.2487   -5213.6511   -5232.2487            0    2076.5171    19.886718    19.924929    20.561798    8147.4362    2071.3965    1926.8685    2231.2863    -87.38132    173.05684    5.2329406   -4966.9152 
48974000    9.9481067   -5232.0631   -5212.8774   -5232.0631            0    2141.5914    19.885283    19.872627    20.594246     8138.286    2173.7024    2025.8674    2225.2044   -184.25556   -111.18647   -239.06896    -4958.695 
48975000     9.769471   -5232.1524   -5213.3112   -5232.1524            0    2223.8965    19.896659      19.8308    20.619896    8135.9233    2185.8304    2498.7949     1987.064   -164.19899   -55.807574     207.2481   -4949.4367 
48976000    9.7852625   -5232.4698   -5213.5981   -5232.4698            0    2269.8013    19.862936    19.819496    20.653975    8130.9205    2330.1431     2364.567    2114.6938   -104.13759    386.58203    165.78202   -4944.4424 
48977000    11.203246   -5232.3102   -5210.7038   -5232.3102            0    2068.6039      19.8591     19.87725    20.624754    8141.5041    1978.3866    2148.1598    2079.2653   -190.72015     252.3679   -105.18726   -4965.0871 
48978000    10.764343   -5233.2441   -5212.4842   -5233.2441            0    2133.0168    19.865453    19.860381    20.639208    8142.8997    2043.5034    2362.7352    1992.8116   -25.401859    231.52536   -178.97452    -4959.176 
48979000    10.613608   -5232.3704   -5211.9012   -5232.3704            0    2256.5688    19.898737    19.883699    20.568243     8138.041     2211.579    2162.2893    2395.8382   -212.20367    150.71304    157.90688   -4944.0804 
48980000    10.363846   -5231.9018   -5211.9143   -5231.9018            0    2292.0732     19.90075    19.874223    20.567667    8134.7581    2057.4156    2388.0399    2430.7641    -251.7535     228.3483   -277.61374   -4939.9894 
48981000    10.195506   -5231.9726   -5212.3097   -5231.9726            0    2045.5564    19.878398    19.889776    20.601444    8145.3349    2090.2215    1817.7956    2228.6521   -114.62189   -14.098681    52.386549   -4969.3153 
48982000    10.330917   -5232.3895   -5212.4655   -5232.3895            0    2158.4742    19.884016    19.823087    20.651407    8140.0119     1954.535    2602.5692    1918.3184   -54.256506    200.82865    -198.9558    -4956.225 
48983000    9.9100383   -5232.4017   -5213.2893   -5232.4017            0    2132.9694    19.869586    19.837812    20.621345    8128.2972    2317.9214    2051.2801    2029.7068   -97.305816    491.84979    269.23289    -4960.441 
48984000    10.421569   -5232.6863   -5212.5875   -5232.6863            0     2194.851    19.887424    19.849344     20.64292    8148.8406    2117.2515    2480.5141    1986.7875   -140.23659    205.17884    119.90676   -4951.7459 
48985000    9.5945718   -5232.1755   -5213.6716   -5232.1755            0     2347.453    19.916968    19.841708    20.609701     8144.679    2266.2127    2401.3785    2374.7678   -95.454564    369.09086   -119.25833   -4934.8369 
48986000    9.5158783   -5231.5296   -5213.1775   -5231.5296            0     2250.963    19.911345     19.90701    20.526887     8136.352    2260.1721    1856.2716    2636.4453   -75.602936    159.41513   -98.390838   -4946.0774 
48987000    10.389436   -5233.3017   -5213.2648   -5233.3017            0    2220.2016    19.903028    19.876324    20.572639    8138.5162    2262.9585    2031.9979    2365.6484   -139.93208    348.00826    39.249132   -4949.7448 
48988000    10.201988   -5231.7572   -5212.0818   -5231.7572            0    2268.0857    19.863501    19.866699    20.612633    8134.2028    2113.7519    2473.6347    2216.8705   -115.19094    139.81637    228.03878   -4943.0211 
48989000    9.7490731   -5231.3361   -5212.5342   -5231.3361            0    2172.3409    19.883078    19.824336    20.622969    8128.9315    2130.1274     2373.144    2013.7513   -221.92802    374.91653    191.03902   -4954.9986 
48990000    10.428532   -5232.8647   -5212.7524   -5232.8647            0     2088.154      19.8407    19.856971    20.669828    8143.4201    2185.7602    2328.9212    1749.7807   -57.452445    272.01916    189.91899   -4964.7561 
48991000    9.8540817     -5232.21   -5213.2056     -5232.21            0    2027.2372    19.863593    19.883899    20.612482    8141.2233    2150.6596    2010.8457    1920.2063   -27.265564    669.69833   -204.25678   -4972.5089 
48992000    10.001608   -5232.4458   -5213.1568   -5232.4458            0    2149.5966    19.887591    19.898213    20.572263    8141.0103    2130.3971    2070.7117     2247.681    34.193885    60.463295   -109.05053   -4957.9389 
48993000    10.355442   -5231.7155   -5211.7442   -5231.7155            0    2209.2785    19.909386    19.879422    20.551445    8133.9967    2214.0176    2059.9133    2353.9046   -236.34286    260.90616   -117.20518   -4949.6663 
48994000    10.705231   -5232.3156   -5211.6697   -5232.3156            0    2074.1896    19.889399    19.842434    20.613595    8135.2398    2025.2131     2225.335    1972.0206   -14.970885    230.01359  -0.49811903   -4965.5793 
48995000     10.58747    -5231.058   -5210.6392    -5231.058            0     2236.928     19.86295    19.854069     20.65331    8144.8472    2323.2455    2153.6618    2233.8769    16.189741    -129.7502    53.752345   -4944.9274 
48996000    10.362474   -5232.3126   -5212.3277   -5232.3126            0    2260.4554    19.852197    19.835336    20.665786    8137.6696    2500.3879    2461.8033    1819.1749    -56.24544    520.75083    15.458894   -4944.0578 
48997000    10.095057    -5232.455   -5212.9858    -5232.455            0    2112.8129     19.88945    19.852806    20.608178    8137.3738    1953.2867    2160.5563    2224.5958    42.565793    1.8645837    140.82987   -4962.2472 
48998000    10.643502   -5232.5162   -5211.9893   -5232.5162            0    2025.2542    19.925643    19.893486    20.553125    8147.0637    1879.3785    1985.6014    2210.7826   -284.86419    154.51305   -453.81543   -4971.3556 
48999000    9.6761853   -5232.3038   -5213.6425   -5232.3038            0    2145.3222     19.93753    19.881216    20.559566    8149.4489    2112.8474    2023.5622    2299.5568   -118.73798    239.95859   -22.199919    -4958.668 
49000000    10.232531   -5230.8512   -5211.1169   -5230.8512            0    2232.5842    19.897272    19.869416     20.57142    8132.8529    2092.1424    2216.9306    2388.6796   -268.46344    232.61017    326.12534   -4946.3116 
Loop time of 374.211 on 64 procs for 250000 steps with 972 atoms

Performance: 115.443 ns/day, 0.208 hours/ns, 668.073 timesteps/s
191.6% CPU use with 32 MPI tasks x 2 OpenMP threads

MPI task timing breakdown:
Section |  min time  |  avg time  |  max time  |%varavg| %total
---------------------------------------------------------------
Pair    | 23.053     | 33.265     | 41.1       |  79.1 |  8.89
Bond    | 0.99698    | 1.1852     | 1.5138     |  10.0 |  0.32
Kspace  | 165.58     | 173.11     | 184.79     |  35.4 | 46.26
Neigh   | 0.070663   | 0.07682    | 0.081492   |   1.1 |  0.02
Comm    | 64.905     | 68.141     | 70.942     |  18.5 | 18.21
Output  | 0.62819    | 0.62863    | 0.63025    |   0.0 |  0.17
Modify  | 75.155     | 76.107     | 77.535     |   6.5 | 20.34
Other   |            | 21.7       |            |       |  5.80

Nlocal:        30.3750 ave          35 max          24 min
Histogram: 3 0 5 0 3 3 6 2 5 5
Nghost:        2686.41 ave        2716 max        2665 min
Histogram: 4 4 2 7 3 5 2 3 0 2
Neighs:        9690.69 ave       12334 max        6821 min
Histogram: 1 2 3 3 6 5 5 3 2 2

Total # of neighbors = 310102
Ave neighs/atom = 319.03498
Ave special neighs/atom = 2.0000000
Neighbor list builds = 250
Dangerous builds = 0

unfix		3
unfix		2
unfix		1

write_data	data.final.${pid}
write_data	data.final.1
System init for write_data ...
PPPM initialization ...
  extracting TIP4P info from pair style
  using 12-bit tables for long-range coulomb (../kspace.cpp:340)
  G vector (1/distance) = 0.37183517
  grid = 24 24 24
  stencil order = 5
  estimated absolute RMS force accuracy = 0.0035538958
  estimated relative force accuracy = 1.0702452e-05
  using double precision FFTW3
  3d grid and FFT values/proc = 3211 432
Last active /omp style is kspace_style pppm/tip4p/omp
WARNING: Not all mixed pair coeffs generated from mixing. Use write_data with 'pair ij' option to store all pair coeffs. (../write_data.cpp:312)

write_restart   restart.lmp.${pid}
write_restart   restart.lmp.1
System init for write_restart ...
PPPM initialization ...
  extracting TIP4P info from pair style
  using 12-bit tables for long-range coulomb (../kspace.cpp:340)
  G vector (1/distance) = 0.37183517
  grid = 24 24 24
  stencil order = 5
  estimated absolute RMS force accuracy = 0.0035538958
  estimated relative force accuracy = 1.0702452e-05
  using double precision FFTW3
  3d grid and FFT values/proc = 3211 432
Last active /omp style is kspace_style pppm/tip4p/omp
Total wall time: 0:06:14
