LAMMPS data file via write_data, version 30 Jul 2021, timestep = 15500000

972 atoms
2 atom types
648 bonds
1 bond types
324 angles
1 angle types

-0.07706228888178934 20.077063288871983 xlo xhi
-0.007372243361990272 20.007373243360437 ylo yhi
0.21583631178235585 20.484161688216535 zlo zhi

Masses

1 1.008
2 15.999

Pair Coeffs # lj/cut/tip4p/long/omp

1 0 0
2 0.21084 3.1668

Bond Coeffs # harmonic/omp

1 450 0.9572

Angle Coeffs # harmonic/omp

1 55 104.52

Atoms # full

16 6 2 -1.1794 4.04238546102208 3.6729479946367567 3.387930418637109 0 0 0
17 6 1 0.5897 4.4206223459485505 4.124009248106748 2.6331180034898325 0 0 0
236 79 1 0.5897 1.1165946389215362 0.10528177013267884 2.2364367198254085 0 1 0
10 4 2 -1.1794 1.1524694344033262 3.9044345051023774 3.817163300922339 0 0 0
31 11 2 -1.1794 0.650644190462484 2.0098069908191367 2.01203562217453 0 0 0
11 4 1 0.5897 0.7953716917259692 3.151492231426597 3.3461080608542946 0 0 0
33 11 1 0.5897 1.378101984518459 2.1192578342299595 1.3996083593224196 0 0 0
4 2 2 -1.1794 4.040892901610834 0.79707722818297 3.5479741392194253 0 0 0
12 4 1 0.5897 2.1016845727711075 3.798315261002702 3.7547579262335473 0 0 0
23 8 1 0.5897 2.516120038080459 0.9796300097294209 4.349286215906183 0 0 0
18 6 1 0.5897 4.0671112355932255 2.7458896649993183 3.1507316594892045 0 0 0
5 2 1 0.5897 4.067710833846274 0.07191530829260154 2.923646683984749 0 0 0
6 2 1 0.5897 4.81918383516286 0.6746437488697403 4.091581829566248 0 0 0
3 1 1 0.5897 3.58125077980113 2.203237668530785 0.4956044989809506 0 0 0
81 27 1 0.5897 -0.03723241387430446 4.338045515330771 5.255754096259192 1 0 0
22 8 2 -1.1794 1.797649097111085 0.9396401589270027 4.980509046746117 0 0 0
102 34 1 0.5897 0.1544103471683566 0.8231173635398656 5.260883575726346 1 0 0
357 119 1 0.5897 0.24431986234935704 2.1431436469434515 8.634479020885356 0 0 0
356 119 1 0.5897 1.7557354334070394 2.1346784710555062 8.54874393059085 0 0 0
355 119 2 -1.1794 1.0306074342288094 1.9593279017543996 9.14848347465809 0 0 0
325 109 2 -1.1794 2.8151541809320255 2.36755769103674 7.193096182731695 0 0 0
326 109 1 0.5897 2.661891574322496 1.8100099092922866 6.430239912490312 0 0 0
327 109 1 0.5897 3.763042056253062 2.34081775445805 7.323369887190529 0 0 0
335 112 1 0.5897 1.4335960647335573 3.258239073007218 10.265788053997982 0 0 0
27 9 1 0.5897 2.13678913777179 4.103944302433312 6.702830786520828 0 0 0
330 110 1 0.5897 4.055570164628812 0.5425385948959748 9.504219515471608 0 0 0
342 114 1 0.5897 4.609088315815882 4.280763229905716 9.362122525754964 0 0 0
328 110 2 -1.1794 3.901724670775971 1.1940366128931423 10.18847375187235 0 0 0
561 187 1 0.5897 0.8253355282194094 0.3164991764474715 8.943914999927763 0 1 0
341 114 1 0.5897 4.205612083424623 3.01783712213728 10.093176706918529 0 0 0
340 114 2 -1.1794 4.256916579516039 3.9682477668527003 10.195557867582608 0 0 0
24 8 1 0.5897 2.0310873714781703 0.2179536967880769 5.5644672096905845 0 0 0
350 117 1 0.5897 2.736792971639844 4.615608308020156 13.502639981647649 0 0 0
347 116 1 0.5897 0.9166227743460951 1.0574832603595417 11.677522240655769 0 0 0
650 217 1 0.5897 2.2564258755589965 2.1508722192326224 12.919695441468441 0 0 0
651 217 1 0.5897 2.003503484510394 2.5826652442995925 14.348533420251924 0 0 0
683 228 1 0.5897 4.235320665679258 2.514105622233352 13.926066769382945 0 0 0
329 110 1 0.5897 4.608257830725635 1.051926064970647 10.818424555761753 0 0 0
346 116 2 -1.1794 1.7838947203067348 0.703415767527925 11.874176279578249 0 0 0
649 217 2 -1.1794 2.4614120446799244 2.8423658473832534 13.549079019307174 0 0 0
348 116 1 0.5897 2.3158190034646076 0.934744657980355 11.112713399691398 0 0 0
336 112 1 0.5897 2.4273410302678182 4.244247184116896 10.842193880278902 0 0 0
405 135 1 0.5897 -0.061067735653710715 4.446283216017799 11.771438472076964 1 0 0
334 112 2 -1.1794 1.4938116420859644 4.033621719644581 10.82391027805694 0 0 0
680 227 1 0.5897 0.13449515056335637 1.7140215162980499 15.242806613518491 0 0 0
652 218 2 -1.1794 4.05665048751591 0.9668277281734505 17.000489456484907 0 0 0
653 218 1 0.5897 3.2508661476550915 0.6748846414622921 17.426775107753016 0 0 0
679 227 2 -1.1794 0.989593411092035 1.5166397078952456 15.624974426099564 0 0 0
670 224 2 -1.1794 1.9165203168277554 0.6406306154458311 18.538039883739614 0 0 0
658 220 2 -1.1794 1.2933630623018435 3.7114712328624972 17.37791354302395 0 0 0
681 227 1 0.5897 1.0335474177727733 2.062895252457314 16.409836622171547 0 0 0
664 222 2 -1.1794 3.966714954083171 3.6602551832972914 17.280608622059724 0 0 0
671 224 1 0.5897 0.9598707269735589 0.6347228976435949 18.569160971182868 0 0 0
666 222 1 0.5897 3.94862920966885 2.748677811625857 16.98891032316409 0 0 0
672 224 1 0.5897 2.1737677424209316 1.2943299623942788 19.18828598644123 0 0 0
665 222 1 0.5897 3.0671686437478605 3.8434083612620658 17.55167137182177 0 0 0
654 218 1 0.5897 4.217701644853798 0.31413663765560684 16.31905602766448 0 0 0
659 220 1 0.5897 0.7541570166667962 3.9911259129042946 18.117724715118705 0 0 0
660 220 1 0.5897 1.3056923123740254 4.467340533900032 16.790707523677597 0 0 0
2 1 1 0.5897 2.8554810826011234 3.348247685858141 20.08988620062358 0 0 -1
1 1 2 -1.1794 2.7554757399368435 2.4284231888723693 20.335426002751284 0 0 -1
114 38 1 0.5897 3.1907239892480055 7.442665380055475 3.797713843161299 0 0 0
674 225 1 0.5897 2.192811402884977 5.380750690421884 0.7074190625908878 0 0 1
113 38 1 0.5897 4.64460771795425 7.599204533302539 4.189566820697713 0 0 0
139 47 2 -1.1794 0.8598953487191335 8.923423056214174 2.4117660675435335 0 0 0
112 38 2 -1.1794 4.053312507533689 7.6503870335530415 3.438570899180739 0 0 0
21 7 1 0.5897 0.09487685823932762 6.022154369735301 1.651959267625995 0 0 0
15 5 1 0.5897 4.541314675837407 6.298326366661314 2.3342206070401046 0 0 0
14 5 1 0.5897 4.28075547229315 5.684409516691679 0.9750606427960169 0 0 0
141 47 1 0.5897 0.6399337590272661 8.00868096272025 2.5884918100705696 0 0 0
19 7 2 -1.1794 0.9601306773449549 6.182087559227943 2.0286821920117184 0 0 0
140 47 1 0.5897 0.8214225065457822 9.34929434443601 3.2681792025765617 0 0 0
110 37 1 0.5897 1.883766081263025 8.98053374186562 1.0507710946579127 0 0 0
13 5 2 -1.1794 4.927887475407994 5.716607160482423 1.6796402959687078 0 0 0
109 37 2 -1.1794 2.476386138383741 9.144362084502427 0.3171376019999449 0 0 0
111 37 1 0.5897 3.349503962380667 9.144544983771361 0.7093976754756621 0 0 0
126 42 1 0.5897 4.262427075517126 9.684298422117752 3.6235691651831954 0 0 0
130 44 2 -1.1794 1.8607041583077695 7.241957281414461 5.026137048196992 0 0 0
132 44 1 0.5897 0.9119735095481581 7.285072631681862 4.906831007756728 0 0 0
20 7 1 0.5897 1.0459776905275833 5.525488291387254 2.719937373504855 0 0 0
344 115 1 0.5897 0.9184900382982741 5.356539359818872 9.736282464564912 0 0 0
25 9 2 -1.1794 2.2645317506379397 5.046149141658996 6.592209019581212 0 0 0
343 115 2 -1.1794 0.5013057942749731 5.756113747238281 8.973006994596172 0 0 0
435 145 1 0.5897 2.5454103819298246 8.741840434757224 6.024297678465367 0 0 0
436 146 2 -1.1794 4.022691168808411 7.7258792836330095 10.029850137777975 0 0 0
433 145 2 -1.1794 2.5439088412053596 9.315640693787472 6.790510030598406 0 0 0
463 155 2 -1.1794 1.0080467912195474 8.416979188316054 8.970102479012695 0 0 0
337 113 2 -1.1794 4.642053369036157 5.876273523367812 8.031172798838998 0 0 0
437 146 1 0.5897 4.249434098643425 7.380352045376249 9.166427822661474 0 0 0
464 155 1 0.5897 1.6154797625181057 8.954608402167683 8.461917966798874 0 0 0
345 115 1 0.5897 0.8561940201705897 6.644663770081332 8.943135068771044 0 0 0
339 113 1 0.5897 4.248633173947051 5.431626899676289 7.280300060988452 0 0 0
468 156 1 0.5897 4.319811165802293 9.202280762026449 7.441820264355543 0 0 0
26 9 1 0.5897 1.6301218833268392 5.445889531176027 7.187192967366246 0 0 0
131 44 1 0.5897 2.0111489783361822 6.396798669632727 5.4497304372980535 0 0 0
438 146 1 0.5897 4.0663416331533035 8.676611349417852 9.92697095986005 0 0 0
465 155 1 0.5897 0.15807920688657168 8.555047965670203 8.552126117840169 0 0 0
533 178 1 0.5897 0.3354405626144463 7.664167842165916 12.19413069702798 1 0 0
668 223 1 0.5897 1.650139917089446 5.837912512808437 15.14222626340933 0 0 0
454 152 2 -1.1794 2.2744894548295047 7.584764817551016 12.140902977752265 0 0 0
455 152 1 0.5897 2.622352121157864 7.532685164319082 11.250638231646453 0 0 0
456 152 1 0.5897 2.6650002369662866 6.838166582565378 12.595238127031909 0 0 0
757 253 2 -1.1794 2.7309084431905135 9.116238720772085 14.2757853160535 0 0 0
759 253 1 0.5897 2.6587328342174192 8.57821438078511 13.487349200509152 0 0 0
792 264 1 0.5897 4.390514471571085 8.931851667644246 14.18742214655686 0 0 0
351 117 1 0.5897 3.8774956325483654 5.369965822055538 14.152039950681834 0 0 0
789 263 1 0.5897 1.1700627361728317 8.915665009715331 15.291666426231291 0 0 0
349 117 2 -1.1794 3.063570354951233 5.5005103866444465 13.665523564146458 0 0 0
443 148 1 0.5897 0.5901821057687542 9.66204603681895 10.399976234726351 0 0 0
788 263 1 0.5897 0.5439831884219075 9.200375141205418 16.64033502237465 0 0 0
780 260 1 0.5897 2.9131214863543975 7.706730017582778 17.894818403358983 0 0 0
778 260 2 -1.1794 2.339516716634188 7.287595229392904 18.536356057646366 0 0 0
669 223 1 0.5897 0.98951174763218 6.791957752435372 16.114545857813372 0 0 0
779 260 1 0.5897 2.1817310694575553 7.963908425405292 19.195175411450556 0 0 0
675 225 1 0.5897 2.678968048599682 6.010833795910713 19.687817329643025 0 0 0
762 254 1 0.5897 4.843147740592389 7.767719365452285 17.302107234048812 0 0 0
761 254 1 0.5897 4.112537283227862 8.937162213869966 16.677077803332473 0 0 0
760 254 2 -1.1794 4.134069668571926 7.9803066507889495 16.69528002143764 0 0 0
673 225 2 -1.1794 2.822327442340453 5.260530658495735 20.26474506411789 0 0 0
787 263 2 -1.1794 0.44987965792975704 8.649423801097363 15.863240117278629 0 0 0
858 286 1 0.5897 0.5820561043406842 6.953788999142563 19.074541858372825 1 0 0
667 223 2 -1.1794 0.9358361779183155 5.89797843262775 15.776585231025905 0 0 0
118 40 2 -1.1794 1.284399373986914 10.934219677638419 4.178161021023021 0 0 0
222 74 1 0.5897 4.18268032167835 13.475841369890043 2.6639970048575514 0 0 0
119 40 1 0.5897 1.1151182381324003 11.496455761703936 3.4221464602847127 0 0 0
240 80 1 0.5897 1.8955061456190543 14.376520106912817 4.416151302745936 0 0 0
125 42 1 0.5897 4.66816586690698 10.732362340140673 4.638022685623862 0 0 0
120 40 1 0.5897 2.2336755827922787 10.811469752366184 4.178164296677426 0 0 0
124 42 2 -1.1794 4.001236885612303 10.53307921150914 3.9809454274546896 0 0 0
123 41 1 0.5897 3.964595787684411 12.080631574335856 1.4529002890421263 0 0 0
129 43 1 0.5897 0.7265069815760841 13.568888613279665 2.1339312193650226 0 0 0
220 74 2 -1.1794 3.714822277902065 14.146235510758393 3.1620003388488227 0 0 0
122 41 1 0.5897 4.530449577540439 11.522148120992203 2.7413036927215058 0 0 0
127 43 2 -1.1794 0.5988624113116141 12.626779678361526 2.0221228551135813 0 0 0
121 41 2 -1.1794 4.7677833965917 12.039952832074333 1.9719757498178734 0 0 0
783 261 1 0.5897 1.721869321115222 11.971486460806261 0.7938942190914335 0 0 1
238 80 2 -1.1794 1.255616443381204 14.119933018546122 5.080197261673903 0 0 0
221 74 1 0.5897 4.225673436078901 14.944701611241557 3.028537273729729 0 0 0
133 45 2 -1.1794 2.1645266457435173 12.07189833868033 6.765843195804115 0 0 0
134 45 1 0.5897 1.480053975565258 12.204543174266535 7.421706921830922 0 0 0
135 45 1 0.5897 2.983332368297433 12.133227397109293 7.257796757064687 0 0 0
451 151 2 -1.1794 0.6141044649442429 12.425246113251166 8.866921829058997 0 0 0
446 149 1 0.5897 4.195910519072359 13.469549256887962 8.849331083390013 0 0 0
434 145 1 0.5897 2.293403118682531 10.173508593640875 6.447463030064595 0 0 0
453 151 1 0.5897 0.6769068293345881 11.7735554996844 9.56528364201979 0 0 0
445 149 2 -1.1794 4.450558895639356 12.717924297325188 8.314012753879013 0 0 0
450 150 1 0.5897 4.002233563402944 11.462351215676268 9.848139201672359 0 0 0
544 182 2 -1.1794 3.8961105752992156 14.714402037112961 10.046279899871262 0 0 0
239 80 1 0.5897 1.6682581449600387 13.389870494723084 5.541783037126659 0 0 0
573 191 1 0.5897 0.5917828270727974 14.754591633304273 9.656156512552238 0 0 0
564 188 1 0.5897 2.2091887113765973 13.265035548390536 12.401845056928092 0 0 0
562 188 2 -1.1794 1.9248221878643035 14.059000346844213 11.948963664510787 0 0 0
545 182 1 0.5897 4.568438362256663 14.418924543062571 10.660224720340345 0 0 0
546 182 1 0.5897 3.0819010814152827 14.682657149347527 10.548548727044489 0 0 0
457 153 2 -1.1794 2.310578088450145 11.704748643279279 13.321932569195127 0 0 0
458 153 1 0.5897 1.660621258337619 11.844538472686557 14.010602301248618 0 0 0
459 153 1 0.5897 3.1389835142151856 11.980403260401992 13.71434048371659 0 0 0
449 150 1 0.5897 4.15211326507351 10.732107005085105 11.16579918196164 0 0 0
442 148 2 -1.1794 0.7214770532897256 10.492740652575643 10.857203960631706 0 0 0
642 214 1 0.5897 0.16636067333285687 13.817610970848174 12.095530026863036 1 0 0
444 148 1 0.5897 1.668683823897312 10.62940186316048 10.83936665600188 0 0 0
563 188 1 0.5897 2.0565824063598392 14.759868767577387 12.587534974593055 0 0 0
769 257 2 -1.1794 4.339632913432098 12.456628425293347 14.98601884372215 0 0 0
758 253 1 0.5897 2.6477431461566816 10.016299502015183 13.960607820902235 0 0 0
775 259 2 -1.1794 0.5046798405475554 12.233332456105481 15.27396369241745 0 0 0
448 150 2 -1.1794 3.616459911459933 10.760973599396172 10.37302049951871 0 0 0
766 256 2 -1.1794 1.1304505678566712 10.669452983486696 17.592274240985482 0 0 0
895 299 2 -1.1794 1.0528601247957807 14.895726980707865 15.705964579947674 0 0 0
767 256 1 0.5897 0.33923634818194137 10.746522802137106 18.125446774668873 0 0 0
768 256 1 0.5897 0.9231287902541969 11.141115923611512 16.785504638730487 0 0 0
773 258 1 0.5897 2.99838683891693 10.807560259901326 17.403304726031855 0 0 0
886 296 2 -1.1794 1.6864652887665819 13.751059873646584 18.62040737317053 0 0 0
772 258 2 -1.1794 3.9306624804996106 10.73735582729429 17.198060094962464 0 0 0
774 258 1 0.5897 4.064006444521384 11.350155401994138 16.474888842804965 0 0 0
888 296 1 0.5897 1.9045579615151642 13.004674211301275 19.178711671762066 0 0 0
869 290 1 0.5897 3.2168784587031927 14.151072215377381 17.69901329360887 0 0 0
868 290 2 -1.1794 4.0203229149194115 14.06961358661686 17.185163936450465 0 0 0
965 322 1 0.5897 -0.04443132894983224 13.880638866214912 19.048860199454296 1 0 0
781 261 2 -1.1794 2.464348747140362 11.890752462695934 20.463530183888032 0 0 0
870 290 1 0.5897 4.709166337238843 13.93670259461799 17.836372307956026 0 0 0
771 257 1 0.5897 4.235594493566395 13.216600544047315 15.558712728303798 0 0 0
887 296 1 0.5897 1.8110947333031588 14.51581579571795 19.182526349051734 0 0 0
782 261 1 0.5897 2.510944605244232 10.955728757734343 20.26370876713353 0 0 0
777 259 1 0.5897 0.7102024632283112 13.153089904640483 15.44176493781265 0 0 0
233 78 1 0.5897 4.474746649383731 17.5741578786603 2.8217865347817077 0 0 0
234 78 1 0.5897 3.3800525303804143 17.142696033136474 3.7743276502768333 0 0 0
235 79 2 -1.1794 0.9552226534726505 19.20758552422538 1.9960711296249827 0 0 0
230 77 1 0.5897 4.193375637668968 18.548920835716935 0.8220422092887085 0 0 0
226 76 2 -1.1794 1.526837527158294 17.433921589945363 3.912800121730372 0 0 0
248 83 1 0.5897 0.8501372080344931 16.12400549768863 2.96458650943413 0 0 0
232 78 2 -1.1794 4.293670066301492 16.973338805969796 3.5446766257615443 0 0 0
227 76 1 0.5897 1.3628535351065756 18.153190086549444 3.302836967589648 0 0 0
249 83 1 0.5897 1.3545621798565854 15.625617060966603 1.6269622374223938 0 0 0
247 83 2 -1.1794 0.654057861140562 15.498689378851957 2.266827957479214 0 0 0
228 76 1 0.5897 0.8553847858146328 17.533696408838388 4.587666924207788 0 0 0
229 77 2 -1.1794 4.604353437014082 18.89868498274702 1.6126235939601268 0 0 0
890 297 1 0.5897 2.0454939941230523 18.739775504744628 0.6344506811773988 0 0 1
237 79 1 0.5897 0.0600740001407884 19.20343197085475 1.6571391894494545 0 0 0
219 73 1 0.5897 3.377189652194749 15.640043659684306 0.6143719198799218 0 0 0
217 73 2 -1.1794 2.5065769537121487 15.61714207117904 0.2172648465074829 0 0 0
241 81 2 -1.1794 2.404374586540685 18.91427567692854 6.816456041208225 0 0 0
555 185 1 0.5897 4.185541452963946 19.29763967103876 7.5414096338220284 0 0 0
571 191 2 -1.1794 0.368963136181042 15.58944859037254 9.244227747958554 0 0 0
572 191 1 0.5897 0.6101191658611238 16.249675741100987 9.894056778125549 0 0 0
242 81 1 0.5897 2.339722544615925 17.95928369904263 6.8030926815218615 0 0 0
243 81 1 0.5897 1.709806372501959 19.193548547227948 7.412962255375859 0 0 0
541 181 2 -1.1794 2.0018712280024795 16.24214764517758 7.01189593612827 0 0 0
559 187 2 -1.1794 0.7575351695800028 19.380002653563118 8.860630843792313 0 0 0
576 192 1 0.5897 3.9918361057468834 15.682740540255471 7.467643921111728 0 0 0
558 186 1 0.5897 4.1433648457665475 18.213107474966606 9.827292960524044 0 0 0
542 181 1 0.5897 1.3704906555266787 15.95450778202017 7.671341645521099 0 0 0
543 181 1 0.5897 1.7066818048612498 15.828749650294393 6.200560709985847 0 0 0
553 185 2 -1.1794 4.671508498578122 19.443963969950993 8.353021747950931 0 0 0
557 186 1 0.5897 4.141679480013564 16.726046812294747 10.111802235755432 0 0 0
574 192 2 -1.1794 4.913915285915947 15.86518947760924 7.286921862035044 0 0 0
867 289 1 0.5897 1.851572289602028 15.569946048561507 14.289239381481499 0 0 0
866 289 1 0.5897 3.1871642186999543 15.92976484948691 13.673976536115562 0 0 0
879 293 1 0.5897 4.011088397601348 18.73561587469944 14.714835794803797 0 0 0
565 189 2 -1.1794 2.6055751582998745 18.68746272024456 13.667532993283638 0 0 0
566 189 1 0.5897 2.371826863455428 17.877224386613264 13.214498449329136 0 0 0
567 189 1 0.5897 2.4206569204302357 19.379487787050756 13.032506440741148 0 0 0
550 184 2 -1.1794 1.325784280170757 17.743364605634454 11.124073814920251 0 0 0
865 289 2 -1.1794 2.245076565936933 16.062511321512403 13.568951089001454 0 0 0
551 184 1 0.5897 2.2501185597159115 17.60176244419688 10.919738505784931 0 0 0
885 295 1 0.5897 1.8902242890537784 18.65901560811146 15.216874340966196 0 0 0
877 293 2 -1.1794 4.6586543561113825 18.90599882500672 15.39886020574118 0 0 0
621 207 1 0.5897 0.13445718376204813 18.434341393793623 12.598032114830596 1 0 0
552 184 1 0.5897 1.0154229794563632 18.332272690833022 10.436184785586176 0 0 0
556 186 2 -1.1794 4.018348868379994 17.57731907850274 10.531916373572317 0 0 0
874 292 2 -1.1794 0.9820399031560259 16.670552274778842 17.71354124137084 0 0 0
876 292 1 0.5897 0.27985704072877143 17.028377852012923 18.256828231937696 0 0 0
889 297 2 -1.1794 2.450553079792573 18.448377993511016 20.085880336943077 0 0 0
875 292 1 0.5897 1.0995920285328582 17.316686877373634 17.017094931671174 0 0 0
880 294 2 -1.1794 4.149085545649555 16.988149234420547 17.12649849773161 0 0 0
881 294 1 0.5897 3.2902123382504165 17.133118583651815 17.523393349570348 0 0 0
218 73 1 0.5897 2.3795710782327975 16.498690787151602 20.13472513108018 0 0 -1
882 294 1 0.5897 4.177473745463807 16.047188497537967 16.952776733911996 0 0 0
897 299 1 0.5897 1.2816488461072013 15.294070274040497 16.545787654418618 0 0 0
878 293 1 0.5897 4.52792727549869 18.201748250776603 16.033900462916904 0 0 0
891 297 1 0.5897 2.0962513474332307 19.03674224288926 19.419085047136278 0 0 0
896 299 1 0.5897 0.22783198702518215 15.313568099713626 15.459025798595357 0 0 0
884 295 1 0.5897 1.3499531146627366 19.521829527701172 16.337474500570067 0 0 0
883 295 2 -1.1794 1.639467324137467 18.63095945355218 16.14025221123255 0 0 0
68 23 1 0.5897 8.619272157000346 2.010178489309604 1.7853544128758667 0 0 0
9 3 1 0.5897 5.030040051582161 4.453083319338362 4.702383760855796 0 0 0
67 23 2 -1.1794 7.83011103143064 1.691092432901965 2.2231044575352197 0 0 0
69 23 1 0.5897 7.115512858653975 1.9272492965618686 1.6316390955607034 0 0 0
47 16 1 0.5897 7.878070620029661 3.0853590531224597 3.3809991622234046 0 0 0
34 12 2 -1.1794 5.487001610490055 2.40882687572028 0.6137922516595782 0 0 0
46 16 2 -1.1794 8.03109776672715 3.8569731063400727 3.926484238336648 0 0 0
48 16 1 0.5897 7.210883005729701 3.979557510736672 4.404412863692054 0 0 0
58 20 2 -1.1794 8.620487876147031 0.382023283918949 5.112420934577228 0 0 0
53 18 1 0.5897 9.860293750080627 4.075387702936739 4.31915710575501 0 0 0
29 10 1 0.5897 7.00487893238158 0.6537471538122361 5.136112251455644 0 0 0
41 14 1 0.5897 9.96402000534333 1.0421308343017495 3.5530803084295415 0 0 0
391 131 2 -1.1794 7.857941710844476 2.262270437006826 8.948283119055708 0 0 0
59 20 1 0.5897 8.720575664663642 1.1013982895960648 5.735941372895941 0 0 0
8 3 1 0.5897 5.640548423745064 4.041134182545927 6.025126742017044 0 0 0
392 131 1 0.5897 8.475680035940277 2.454628760061261 8.242869066682063 0 0 0
360 120 1 0.5897 5.747052481987978 1.8930218088668505 6.63169614709039 0 0 0
361 121 2 -1.1794 9.216778168253928 2.596816959048728 6.654017646953086 0 0 0
362 121 1 0.5897 9.041131941687599 3.482907049186895 6.337228322276288 0 0 0
393 131 1 0.5897 7.6651871450262945 1.3296730613644931 8.850877584588595 0 0 0
359 120 1 0.5897 6.219326472956354 2.4612254214067266 7.953132670499527 0 0 0
7 3 2 -1.1794 5.716113326396649 4.690775247733448 5.326122329769223 0 0 0
358 120 2 -1.1794 5.5613560915296185 2.5830282704922047 7.268663244012166 0 0 0
28 10 2 -1.1794 6.080770560445101 0.7066617043752298 5.379873837279926 0 0 0
384 128 1 0.5897 9.073089112262268 0.9899282272415999 10.990057091914892 0 0 0
372 124 1 0.5897 7.678709485791743 4.1852009831997705 11.704369160829604 0 0 0
685 229 2 -1.1794 8.658645260082919 2.7352504661137713 13.596137735001685 0 0 0
353 118 1 0.5897 6.565620536415547 0.9094025846039991 12.036433620629092 0 0 0
382 128 2 -1.1794 8.32569528377626 0.858048040301064 11.573341573710335 0 0 0
331 111 2 -1.1794 5.8567250494579906 4.640347677273675 12.212624385952264 0 0 0
386 129 1 0.5897 9.45469210619713 4.923732968998442 12.829329309422038 0 0 0
370 124 2 -1.1794 8.338578737694371 4.117956879418458 11.01424402603973 0 0 0
352 118 2 -1.1794 5.625570508943052 0.7477512664019451 12.116166533273027 0 0 0
383 128 1 0.5897 8.407845250947569 1.5505967956185016 12.229054462181926 0 0 0
354 118 1 0.5897 5.351885289803307 1.2850442051097024 12.859618763383118 0 0 0
686 229 1 0.5897 7.955448533198258 2.6827187480853154 14.243444493470589 0 0 0
684 228 1 0.5897 5.427248925016254 3.312159716625752 13.441942751135498 0 0 0
682 228 2 -1.1794 5.185698189868379 2.5847464439945225 14.015418802207199 0 0 0
332 111 1 0.5897 5.306433151367923 4.3109782858353425 11.502017829656348 0 0 0
687 229 1 0.5897 9.463338274485519 2.6668474094454275 14.1099652033294 0 0 0
371 124 1 0.5897 8.15897477160138 3.278112959927074 10.591420838699385 0 0 0
657 219 1 0.5897 6.77373425821492 4.2363654045949986 18.535536861826785 0 0 0
677 226 1 0.5897 5.288764837045467 0.7073898516799474 18.08640705571589 0 0 0
717 239 1 0.5897 6.277557438616515 2.3108903821425955 15.465713514754622 0 0 0
676 226 2 -1.1794 5.87238285798033 0.6098772754653223 18.83881865340043 0 0 0
708 236 1 0.5897 7.592326082271447 0.7662697459185154 18.35751927029574 0 0 0
694 232 2 -1.1794 8.329406217425648 4.052397124348504 17.69946203734694 0 0 0
716 239 1 0.5897 7.329061969884164 1.3782384910535002 16.0283117740883 0 0 0
715 239 2 -1.1794 7.131691163108547 2.305794803257326 15.897741455637853 0 0 0
35 12 1 0.5897 5.541488513692627 1.7158735833951115 20.223975171615052 0 0 -1
695 232 1 0.5897 7.9810542398981426 3.3248623833706428 17.18402577536522 0 0 0
696 232 1 0.5897 8.405194437395334 4.774185251673398 17.075299120365663 0 0 0
711 237 1 0.5897 9.209937508021294 4.574730293644494 20.12587611088785 0 0 0
706 236 2 -1.1794 8.543454824517804 0.663864697769745 18.39008478391822 0 0 0
655 219 2 -1.1794 5.981990849774073 4.513412201441219 18.99661166139397 0 0 0
38 13 1 0.5897 9.178125923739454 2.100035183582114 19.51558195543678 0 0 -1
656 219 1 0.5897 5.264967660997929 4.2620830617491725 18.414450472606994 0 0 0
662 221 1 0.5897 4.997588896726619 4.859638542504535 16.19744271157028 0 0 0
37 13 2 -1.1794 9.367459565609007 2.5795034124498843 20.3221756156178 0 0 -1
689 230 1 0.5897 9.95140854294865 0.8124259110112788 17.237794970037 0 0 0
36 12 1 0.5897 5.721699179401522 3.2076129493729684 20.409669449626527 0 0 -1
175 59 2 -1.1794 7.551827581834009 8.997075736461284 2.5153535967964626 0 0 0
56 19 1 0.5897 6.635797780503654 6.072770758603616 2.1184921849317098 0 0 0
147 49 1 0.5897 9.843974098470401 9.393728670867056 0.3830608195419739 0 0 0
177 59 1 0.5897 8.132537076469522 9.064417771513046 1.7573909643272996 0 0 0
710 237 1 0.5897 8.509928603532757 5.459639756950095 0.867021158598004 0 0 1
176 59 1 0.5897 7.609964018230327 8.079380633128238 2.781468272208302 0 0 0
55 19 2 -1.1794 7.56701413330948 6.116321079255032 2.335589358100472 0 0 0
143 48 1 0.5897 6.177276722836808 9.103184437918747 1.4707659383464877 0 0 0
57 19 1 0.5897 7.717637529789553 5.357783640965432 2.8997358578543886 0 0 0
142 48 2 -1.1794 5.474287025145601 9.205443138698847 0.8292087971220801 0 0 0
138 46 1 0.5897 6.693233620732686 7.621902719277333 4.902853172654641 0 0 0
166 56 2 -1.1794 8.709173082654969 7.601089818499991 4.9686698835080385 0 0 0
500 167 1 0.5897 7.74064520616095 9.141615596639273 9.665838175525312 0 0 0
379 127 2 -1.1794 7.298140748674841 5.547528598599007 8.88088514739375 0 0 0
62 21 1 0.5897 8.315198618393685 5.262003356580111 7.19569580459559 0 0 0
61 21 2 -1.1794 8.867224007475176 5.351548227175532 6.418831667182603 0 0 0
499 167 2 -1.1794 7.611010550701126 8.352676550791898 9.139398528488783 0 0 0
501 167 1 0.5897 6.779104740739413 8.498716871649991 8.689040852238069 0 0 0
470 157 1 0.5897 8.630679533025953 8.653735084604943 7.587173998695921 0 0 0
466 156 2 -1.1794 5.27362542488867 9.131420576433513 7.478886668821258 0 0 0
338 113 1 0.5897 5.580967148184764 5.713304101994966 7.941636180111614 0 0 0
380 127 1 0.5897 7.645892380468253 6.42424559588621 9.044461822010996 0 0 0
469 157 2 -1.1794 9.080455419200312 9.307834233186645 7.052218353582787 0 0 0
137 46 1 0.5897 5.915093045954458 6.486783583066615 5.533640634313379 0 0 0
381 127 1 0.5897 7.476288424396143 5.064208029861212 9.687723132475854 0 0 0
467 156 1 0.5897 5.491258070347132 8.473651706291896 6.818349825568225 0 0 0
136 46 2 -1.1794 5.919831389735986 7.439059903548121 5.436340165011641 0 0 0
167 56 1 0.5897 8.637326616425803 6.751883414449713 5.404613367893677 0 0 0
168 56 1 0.5897 9.088200141323526 8.179416035064666 5.630608986616206 0 0 0
63 21 1 0.5897 9.73767490014694 5.54914136847473 6.764500405551167 0 0 0
793 265 2 -1.1794 9.153156551639652 9.80321486866608 13.83711604970601 0 0 0
791 264 1 0.5897 5.740374184165974 8.56305643217251 14.76512642503128 0 0 0
705 235 1 0.5897 8.631359025584501 5.656271600609425 14.988415086567821 0 0 0
333 111 1 0.5897 5.873380129503232 5.5887201321799305 12.08348582318531 0 0 0
491 164 1 0.5897 9.225635961412275 7.8587346718503515 11.215144180020292 0 0 0
385 129 2 -1.1794 9.808486519105488 5.625088685338084 13.376386018622949 0 0 0
490 164 2 -1.1794 8.6677082899719 7.835619083875814 11.992606273843503 0 0 0
460 154 2 -1.1794 6.015635048372472 7.224186840519224 11.759476643082396 0 0 0
492 164 1 0.5897 7.778629969253327 7.753965966147353 11.647560143620481 0 0 0
461 154 1 0.5897 5.756152717548696 7.940811042776435 12.338652490664908 0 0 0
794 265 1 0.5897 8.831990468364017 9.228194249438241 13.142471656417486 0 0 0
387 129 1 0.5897 9.520970756882727 6.4316253265149825 12.948377859259274 0 0 0
462 154 1 0.5897 5.414810069426049 7.286168009156764 11.016891277110705 0 0 0
790 264 2 -1.1794 5.3232861180009 8.905095615836318 13.974361684081819 0 0 0
824 275 1 0.5897 8.254830527417969 8.834365355983007 15.23192549520718 0 0 0
704 235 1 0.5897 7.189942925110099 5.583798643281994 15.445405867595376 0 0 0
785 262 1 0.5897 5.891136125728743 6.456298787064538 19.016866569508416 0 0 0
816 272 1 0.5897 8.896614491435612 8.326561230353203 19.128051890423436 0 0 0
144 48 1 0.5897 5.692350698956246 8.585349347311908 20.401639311028006 0 0 -1
784 262 2 -1.1794 6.028119454840774 7.365148681045142 18.74930877335749 0 0 0
786 262 1 0.5897 6.962880230633755 7.418471924354411 18.550506853769598 0 0 0
814 272 2 -1.1794 8.75368840622416 7.563991355671743 18.567317629951752 0 0 0
815 272 1 0.5897 8.886340626411187 6.8126609059912475 19.145473308256726 0 0 0
825 275 1 0.5897 7.666534107134908 7.658165425880109 15.982009019376124 0 0 0
709 237 2 -1.1794 9.183648825298548 5.473081021802239 20.45551319042142 0 0 0
703 235 2 -1.1794 8.045749559958532 5.933854378735002 15.6928870549455 0 0 0
797 266 1 0.5897 9.881980971221589 7.688862360621529 17.320452333021187 0 0 0
661 221 2 -1.1794 5.322888316833168 5.436149001067659 15.505959432502301 0 0 0
823 275 2 -1.1794 7.504682446091136 8.57705590318223 15.767937568610057 0 0 0
663 221 1 0.5897 4.998034386699243 6.304388056153187 15.744693604279906 0 0 0
145 49 2 -1.1794 8.917425146977648 9.55830965028495 20.476395073264193 0 0 -1
164 55 1 0.5897 7.806606858685577 12.043034177234492 3.018918883043585 0 0 0
154 52 2 -1.1794 8.322657272404902 10.95327770573623 4.327644469941385 0 0 0
818 273 1 0.5897 8.437978217694116 12.483645905999401 0.5790305248642527 0 0 1
165 55 1 0.5897 6.642826829627867 12.443349692728031 2.137268722307784 0 0 0
276 92 1 0.5897 7.792023728986601 13.905889771811315 4.803506114985886 0 0 0
163 55 2 -1.1794 7.523974964818391 12.712970214352428 2.396307557243093 0 0 0
285 95 1 0.5897 7.6224803938649615 14.530871899968407 2.5866089581084872 0 0 0
156 52 1 0.5897 9.276596279171656 11.031210259788287 4.338753199631384 0 0 0
275 92 1 0.5897 9.139231151610911 14.391646872363363 4.312689442812234 0 0 0
274 92 2 -1.1794 8.682050397519324 14.09599326636261 5.099992827588266 0 0 0
155 52 1 0.5897 8.144325737707055 10.282474278343841 3.6684515816350705 0 0 0
245 82 1 0.5897 5.158702776691657 13.720633784882487 4.6032498962356705 0 0 0
171 57 1 0.5897 9.110187096211831 11.094180243792392 6.733372300550819 0 0 0