LAMMPS (30 Jul 2021)
  using 1 OpenMP thread(s) per MPI task
package omp 0
using multi-threaded neighbor list subroutines
echo both

include		in.partitions
variable        pid world 0
include		in.temp
variable        temperature equal 262.50
variable	tempDamp equal 100.0
include		in.pressure
variable        pressure equal 8125.0
variable        pressureDamp equal 1000.0 # This is 1 ps
include		in.seed
variable        seed world 745823

units		real
atom_style	full
read_restart    restart.lmp.${pid}
read_restart    restart.lmp.0
Reading restart file ...
  restart file = 30 Jul 2021, LAMMPS = 30 Jul 2021
  restoring atom style full from restart
  triclinic box = (-3.2445178 -0.10715561 -0.042970794) to (14.854517 22.687155 19.272969) with tilt (-0.19730822 -6.6909169 0.30109619)
  4 by 4 by 4 MPI processor grid
  restoring pair style lj/cut/tip4p/long/omp from restart
  restoring bond style harmonic/omp from restart
  restoring angle style harmonic/omp from restart
  1008 atoms
  672 bonds
  336 angles
Finding 1-2 1-3 1-4 neighbors ...
  special bond factors lj:    0        0        0       
  special bond factors coul:  0        0        0       
     2 = max # of 1-2 neighbors
     1 = max # of 1-3 neighbors
     1 = max # of 1-4 neighbors
     2 = max # of special neighbors
  special bonds CPU = 0.179 seconds
  read_restart CPU = 0.322 seconds

include 	in.setup
variable	out_freq equal 1000
variable	out_freq2 equal 10000
variable	out_freq3 equal 1000

timestep	2.0

neigh_modify    delay 7 every 1

include		in.tip4p
# This is TIP4P/Ice

# create groups ###
group ox type 2
336 atoms in group ox
group hy type 1
672 atoms in group hy

# set charges - beside manually ###
set group ox charge -1.1794
Setting atom values ...
  336 settings made for charge
set group hy charge 0.5897
Setting atom values ...
  672 settings made for charge

# ### TIP3P Potential Parameters ###
pair_style lj/cut/tip4p/long/omp 2 1 1 1 0.1577 8.5
pair_coeff 1 1*2 0.000 0.000
pair_coeff 2 2 0.21084 3.1668
bond_style  harmonic
bond_coeff  1 450 0.9572
angle_style harmonic
angle_coeff 1 55 104.52
kspace_style pppm/tip4p/omp 1.0e-5
pair_modify tail yes

thermo          ${out_freq}
thermo          1000
thermo_style    custom step temp pe etotal epair emol press lx ly lz vol pxx pyy pzz pxy pxz pyz enthalpy

restart 	${out_freq3} restart.lmp.${pid} restart2.lmp.${pid}
restart 	1000 restart.lmp.${pid} restart2.lmp.${pid}
restart 	1000 restart.lmp.0 restart2.lmp.${pid}
restart 	1000 restart.lmp.0 restart2.lmp.0


include         in.dump
dump            myDump all atom ${out_freq2} dump.water.${pid}
dump            myDump all atom 10000 dump.water.${pid}
dump            myDump all atom 10000 dump.water.0
dump            myDump2 all dcd ${out_freq2} dump.dcd
dump            myDump2 all dcd 10000 dump.dcd
dump_modify     myDump append yes
dump_modify     myDump2 append yes


variable natoms 	equal  "count(all)"                        # NUMBER ATOMS
variable H      	equal  "enthalpy/v_natoms"                 # ENTHALPY-per-atom
variable Vol      	equal  "vol/v_natoms"                 # volume-per-atom
fix AVG all 		ave/time ${out_freq} 1 ${out_freq} v_Vol v_H file vol_enthalpy.dat
fix AVG all 		ave/time 1000 1 ${out_freq} v_Vol v_H file vol_enthalpy.dat
fix AVG all 		ave/time 1000 1 1000 v_Vol v_H file vol_enthalpy.dat



fix 		1 all shake 1e-6 200 0 b 1 a 1
       0 = # of size 2 clusters
       0 = # of size 3 clusters
       0 = # of size 4 clusters
     336 = # of frozen angles
  find clusters CPU = 0.076 seconds
fix             2 all nph tri ${pressure} ${pressure} ${pressureDamp}
fix             2 all nph tri 8125 ${pressure} ${pressureDamp}
fix             2 all nph tri 8125 8125 ${pressureDamp}
fix             2 all nph tri 8125 8125 1000
fix             3 all temp/csvr ${temperature} ${temperature} ${tempDamp} ${seed}
fix             3 all temp/csvr 262.5 ${temperature} ${tempDamp} ${seed}
fix             3 all temp/csvr 262.5 262.5 ${tempDamp} ${seed}
fix             3 all temp/csvr 262.5 262.5 100 ${seed}
fix             3 all temp/csvr 262.5 262.5 100 745823


run             250000
PPPM initialization ...
  extracting TIP4P info from pair style
  using 12-bit tables for long-range coulomb (../kspace.cpp:340)
  G vector (1/distance) = 0.37927508
  grid = 24 27 32
  stencil order = 5
  estimated absolute RMS force accuracy = 0.0024422269
  estimated relative force accuracy = 7.3546939e-06
  using double precision FFTW3
  3d grid and FFT values/proc = 3825 384
Last active /omp style is kspace_style pppm/tip4p/omp
Neighbor list info ...
  update every 1 steps, delay 7 steps, check yes
  max neighbors/atom: 2000, page size: 100000
  master list distance cutoff = 10.8154
  ghost atom cutoff = 10.8154
  binsize = 5.4077, bins = 5 5 4
  1 neighbor lists, perpetual/occasional/extra = 1 0 0
  (1) pair lj/cut/tip4p/long/omp, perpetual
      attributes: half, newton on, omp
      pair build: half/bin/newton/tri/omp
      stencil: half/bin/3d/tri
      bin: standard
Per MPI rank memory allocation (min/avg/max) = 9.313 | 9.326 | 9.338 Mbytes
Step Temp PotEng TotEng E_pair E_mol Press Lx Ly Lz Volume Pxx Pyy Pzz Pxy Pxz Pyz Enthalpy 
 4750000    277.39789   -4802.2051   -4247.3751   -4802.2051            0    7354.9828    18.099035     22.79431     19.31594    7968.8877    6573.5736    8295.3844    7195.9904    86.277461     1088.362   -596.59966   -3392.5933 
 4751000     256.3678   -4806.7759   -4294.0087   -4806.7759            0      8045.99    18.090769    22.562042    19.479915    7951.0133    6831.1053    10093.504    7213.3608    1462.5082    384.31819    387.08008   -3361.0168 
 4752000    272.56814   -4831.8562   -4286.6862   -4831.8562            0    6786.0331    18.233946    22.632346     19.42586    8016.6052    5761.5023    7191.3157    7405.2813    -753.0687     -914.915   -73.865361   -3493.3042 
 4753000    253.07397   -4812.0901   -4305.9109   -4812.0901            0    7148.7308    18.050984    22.862778    19.457866    8030.1765    8124.8525     6890.619    6430.7209     1588.916    720.26878   -1023.7214   -3468.7096 
 4754000    250.65286   -4842.8825   -4341.5458   -4842.8825            0    8126.1082    18.139138    22.770631    19.287456    7966.4839    7129.3595    9192.8889    8056.0761   -354.38995    1354.3061    10.316669   -3397.4303 
 4755000    262.35896   -4809.6608   -4284.9105   -4809.6608            0    9772.2834    17.992654    22.735746    19.320924    7903.7344    9428.7435    10607.222    9280.8843    258.87692   -234.04558    680.41285   -3158.4803 
 4756000    257.89655   -4796.5643   -4280.7393   -4796.5643            0     7277.819    18.138421     22.81755    19.318975    7995.6281    6669.2823    8002.7621    7161.4125   -179.49161   -444.60357    67.079559   -3432.0872 
 4757000    257.60326   -4803.7087   -4288.4703   -4803.7087            0    8274.3803    17.912388    22.789922    19.494831    7958.2176    7800.9809    8912.4361    8109.7238   -249.16675    427.09322    2684.7815   -3328.1256 
 4758000    260.10656   -4801.2218   -4280.9765   -4801.2218            0    9737.8363    17.992758    22.813109     19.26231    7906.6144    9037.7475    9334.1499    10841.612   -3552.8294   -749.59688   -1653.8791   -3158.1079 
 4759000    268.37447   -4796.1528   -4259.3707   -4796.1528            0    7539.7349    18.023314    22.808532    19.396183    7973.4867    5896.2922    8574.0505    8148.8619    2737.1186    674.58104    2186.9067   -3382.6117 
 4760000    271.67783   -4815.8748   -4272.4856   -4815.8748            0     9041.049    18.084359     22.91157    19.161455    7939.3772    9219.7822    7621.7353     10281.63   -917.28594   -1675.4046   -372.38303   -3225.6435 
 4761000    266.08392    -4832.167   -4299.9663    -4832.167            0    8321.7128    17.772002     23.05848    19.380607    7942.0823    8464.8943    7633.3321     8866.912    530.35942   -201.63487    2294.2521   -3336.0862 
 4762000    267.13131   -4780.5061   -4246.2105   -4780.5061            0    8883.1205    18.079908    22.954231     19.16763    7954.7652    8116.7347    9748.2216    8784.4053    667.27118     562.0418    1260.5699   -3215.6611 
 4763000    272.08551   -4797.6367    -4253.432   -4797.6367            0     7875.062    17.735245    23.071885     19.48848     7974.404    8391.9177    8446.7204    6786.5479    1318.8083    1214.8992    258.35709   -3337.5741 
 4764000     268.5025   -4835.9349   -4298.8967   -4835.9349            0     9286.175    17.865276    23.209706    19.189245    7956.7779    9932.7593    8386.0372    9539.7283     1717.808   -333.47655   -364.55242   -3221.3156 
 4765000    276.63365   -4840.5553   -4287.2538   -4840.5553            0    8392.7116    17.950862    22.937238    19.310599    7951.0078    7896.8796    8808.9887    8472.2665   -850.59449   -191.85412   -2265.6309   -3314.0577 
 4766000    250.48974    -4786.718   -4285.7076    -4786.718            0    8169.1211    17.903802    23.102498    19.320057    7991.2111    7627.9391    8111.1025    8768.3216    280.37195    276.64186   -29.724423   -3333.6487 
 4767000    265.01306   -4814.1813   -4284.1224   -4814.1813            0    11291.687    18.016102    22.913614    19.121901    7893.7887    11357.696    10107.004     12410.36    1297.8566    529.63625    -664.9133   -2984.1917 
 4768000     249.1745   -4820.6979   -4322.3181   -4820.6979            0    7756.8059    17.906191    23.102197    19.345761     8002.806    9149.6601    6650.2159    7470.5419    1125.4004   -275.22852    425.73075   -3417.0002 
 4769000    261.32883   -4812.0419   -4289.3519   -4812.0419            0    10128.771    17.864537    23.230745     19.06941     7913.929    10363.944    9108.6383    10913.731   -615.01528    409.90188     -1386.67   -3120.3242 
 4770000    265.90655   -4826.8275   -4294.9816   -4826.8275            0    8719.7924    17.970623     22.95552     19.23533    7935.0546    10589.451    8244.9851    7324.9407    444.06886    454.49263    1559.2902   -3285.8868 
 4771000    253.44808    -4824.734   -4317.8065    -4824.734            0    6557.4636    17.916573    23.138515    19.279517     7992.572    7815.1962    5861.2008    5995.9937   -251.90463    77.770348   -442.35715   -3553.4458 
 4772000    258.33505   -4811.4904   -4294.7884   -4811.4904            0    7540.4656    18.011494    23.205567    19.099322    7982.8847    6988.0126    7014.3877    8618.9967     -947.414    425.23543    58.312039   -3416.9109 
 4773000    256.96505     -4831.09   -4317.1281     -4831.09            0    9101.5488    17.775056    23.071988    19.289881    7910.8934    9870.6865     8264.316    9169.6438    546.72447    113.53602    1288.1728   -3267.0618 
 4774000    268.01765   -4768.7636   -4232.6952   -4768.7636            0    8632.6783    18.024712    23.009151    19.134017    7935.5142    7849.4126    8559.8242     9488.798    2790.7025   -1281.4392    1598.8747   -3233.6238 
 4775000    266.91056   -4800.5997   -4266.7456   -4800.5997            0     6551.693    17.926567    23.172392    19.350198    8038.1001    7069.9752    6226.7469    6358.3569    -455.3474    152.90597   -942.20059   -3498.7074 
 4776000    272.58011   -4814.1992   -4269.0053   -4814.1992            0    6808.2954    18.017272    23.210698    19.029283    7957.9218    8149.9569    5246.1835    7028.7458    393.83264   -137.05438   -802.80911   -3478.8473 
 4777000    277.06671   -4811.6311   -4257.4635   -4811.6311            0    6033.4257    17.996939    22.932698    19.467338     8034.528    6991.1031    5567.6799    5541.4941   -461.40322   -365.13694    305.09354   -3550.4947 
 4778000    251.68498   -4810.4353   -4307.0343   -4810.4353            0    7606.2174    18.080089    22.931266    19.222474    7969.6252    6649.9354    7935.4026    8233.3142    117.89909     478.2098   -584.81606   -3422.9727 
 4779000    276.41956   -4837.1459   -4284.2727   -4837.1459            0    7085.1038    18.031541     22.63741    19.541144    7976.4488    6797.7632    8420.2782    6037.2699   -732.74473    1417.1815    783.80766   -3460.0744 
 4780000    272.71032   -4805.9095   -4260.4552   -4805.9095            0    8037.7396    18.186163    22.741986    19.270556    7970.0988    5495.5383    8909.8235    9707.8571    1408.0196   -444.00159    377.87685   -3326.1828 
 4781000     280.4962   -4831.2478   -4270.2208   -4831.2478            0    6023.0483    18.059592     22.79401    19.512343    8032.2659    6228.4164    5920.2133    5920.5151    821.28266   -750.84773    1412.7463   -3564.6667 
 4782000    268.68239   -4815.4477   -4278.0498   -4815.4477            0    8511.8467    18.076375    22.756098    19.281062    7931.2219    7640.7071      8691.14    9203.6929   -393.66462   -1596.9828    353.21285   -3293.4952 
 4783000    260.16462   -4811.5629   -4291.2015   -4811.5629            0    8407.1933    18.008181    22.697226    19.478155    7961.4185    11797.137    5800.5914    7623.8515   -360.43932   -307.63354   -1740.5146   -3315.0496 
 4784000    257.05533    -4834.047   -4319.9045    -4834.047            0    7828.3764    18.088736    22.676582    19.382641    7950.5788    7824.8202    7064.7478    8595.5613    478.34204   -678.66067   -324.61694   -3412.1962 
 4785000    265.34801   -4846.0195   -4315.2907   -4846.0195            0     8700.421     18.06795    22.704515    19.275125    7907.1197    7476.3346    9065.9674     9558.961    923.50487   -53.598057   -1559.7064   -3311.9822 
 4786000    265.03442   -4848.6757   -4318.5741   -4848.6757            0    7425.1302    17.928755    22.643555    19.573257    7946.1698    8987.4254    7647.7414    5640.2238    283.32783   -1655.6424    119.59009      -3458.1 
 4787000    265.81219   -4819.8972     -4288.24   -4819.8972            0    8809.3864    18.135861     22.67718    19.292076    7934.2559    7782.4425    10196.525    8449.1916     116.4521    1122.7861   -528.91807   -3268.8796 
 4788000    258.28577   -4818.1202   -4301.5167   -4818.1202            0    8186.8343    18.123323    22.706944    19.435275    7998.1066     8775.617    7878.4554    7906.4306   -314.08874    324.26266    19.800147   -3346.5701 
 4789000    270.51396   -4843.7103    -4302.649   -4843.7103            0    7438.0541    18.086428    22.795764       19.295    7955.2117     6672.259    9164.5902    6477.3131   -425.60938   -437.01747   -569.81504   -3439.6964 
 4790000    263.69072   -4807.2772   -4279.8632   -4807.2772            0    7813.3608    17.827835    22.861904    19.488562    7943.1141    8334.2825    7871.5169    7234.2829    528.27129     -485.078    346.27283   -3374.7465 
 4791000    265.26017   -4817.9162    -4287.363   -4817.9162            0    7535.9542    17.997267    23.094069    19.261492    8005.6562    6986.5409    8627.0775    6994.2441   -1179.2946    212.11364   -40.318785   -3407.5081 
 4792000    256.30593   -4802.8602   -4290.2166   -4802.8602            0    8885.3169    17.972213    23.009665    19.193278    7937.0843    6235.1738    10028.037     10392.74   -468.35433    1865.9017   -681.64287   -3261.7036 
 4793000    265.18552   -4797.6692   -4267.2654   -4797.6692            0    8268.0559    17.708733    23.190862    19.400041    7967.2238    8826.7089    7992.5316    7984.9271   -1787.3667    582.41879    591.17095   -3306.5687 
 4794000    260.95357   -4845.3602   -4323.4208   -4845.3602            0    8083.5865    17.788816    23.228053    19.158837    7916.4232    8389.2689    6967.2828    8894.2078   -636.27386    393.83004   -283.55478   -3390.1472 
 4795000    263.14135   -4841.3772    -4315.062   -4841.3772            0    7676.0814    17.791411    23.307891    19.150532    7941.3479    7483.2033    6617.7752    8927.2656   -1019.0066   -175.21455    329.15852   -3426.0458 
 4796000    259.66532   -4833.1831   -4313.8204   -4833.1831            0    7743.5871     17.81921    23.172448    19.296204    7967.6863    7695.6332    9552.3867    5982.7416   -1490.2049    1106.3659    717.51625   -3414.0114 
 4797000    262.62801   -4819.6523   -4294.3638   -4819.6523            0    7046.0275    17.946731    23.053574    19.251406    7965.0057    7024.8519    7493.9663    6619.2642    570.81556    774.50935    -398.0949   -3475.8871 
 4798000     265.2957   -4845.2418   -4314.6176   -4845.2418            0    8163.9691    17.948442    22.924249    19.279295    7932.5534     7449.498     7702.194    9340.2153    1140.8918    160.30561   -10.922355   -3370.1431 
 4799000    271.09252    -4809.009   -4266.7905    -4809.009            0    6625.5402    18.034383    23.202983    19.000802    7950.9135    5527.6512    6484.1367    7864.8326    508.27795   -258.24364    2239.3007   -3498.5199 
 4800000    268.97989   -4857.9217   -4319.9287   -4857.9217            0    5567.7054    17.907885     23.19212    19.325663    8026.3699    5507.4145    5811.8203    5383.8815    410.56954   -221.13578   -474.68178   -3668.1933 
 4801000    269.75039   -4772.8355   -4233.3014   -4772.8355            0    8849.4383    18.043851    23.090548    19.129429    7970.1313    8362.2469    8074.7214    10111.347    506.38644    543.77381    1817.6226   -3204.6764 
 4802000    263.53821   -4836.3908   -4309.2818   -4836.3908            0    8743.5799    17.852569    22.877553    19.395451    7921.5497    8221.9372    9320.4972    8688.3052    718.16043   -410.77694   -27.042621   -3299.1563 
 4803000    265.83107   -4862.5625   -4330.8675   -4862.5625            0    7923.7991    18.006205    22.888077     19.28286    7946.9949    7779.7382    8000.4862    7991.1729   -241.31737   -1149.0336    -845.2384    -3412.509 
 4804000     273.7241    -4796.059    -4248.577    -4796.059            0     9715.006    17.956263    22.656869    19.467046    7919.8309    9141.1429    10146.062    9857.8128    594.92413    310.63156   -104.85496   -3126.4684 
 4805000    273.14073   -4819.0057   -4272.6905   -4819.0057            0    9120.0545    18.153082    22.667589    19.301422    7942.2765    9524.8291    8976.3654    8858.9691   -343.28412    453.09257    31.690246    -3216.315 
 4806000    279.68088   -4803.1338   -4243.7375   -4803.1338            0    8427.5852    18.050421    22.877525    19.367253    7997.6873    10461.951    7657.2747      7163.53   -1274.7908    53.893687   -280.78673   -3260.7602 
 4807000    251.87315   -4829.8173   -4326.0399   -4829.8173            0    6207.6932    18.053045     22.85458    19.275507    7952.9732    6909.5316    6722.5613    4990.9867    907.53763    435.19675    474.59841   -3606.0347 
 4808000    255.25226   -4799.5043   -4288.9683   -4799.5043            0    7631.8186    18.018071    22.747391    19.467007    7978.8274    6601.7641    8345.1131    7948.5786   -894.21433   -739.34339   -284.15445   -3400.9069 
 4809000    250.62841   -4807.2818    -4305.994   -4807.2818            0     5752.791    18.243326    22.685584    19.399067    8028.5077    4571.5173    6254.6535    6432.2023   -1772.5267   -696.01718   -748.75746   -3632.4138 
 4810000    260.67949   -4812.7329   -4291.3417   -4812.7329            0    9225.3475    18.044192    22.571924    19.448016    7921.0238    9061.8508    10159.666    8454.5261    893.00756    1292.1661    223.79454   -3225.6295 
 4811000    276.37193   -4824.4428   -4271.6648   -4824.4428            0    7876.3164    18.127756     22.77427    19.356776    7991.3753      6875.53    7525.9802    9227.4389   -606.18207   -898.98571   -1472.5987   -3353.7115 
 4812000    284.92637   -4804.8121   -4234.9242   -4804.8121            0    8798.9167     17.97137    22.838091    19.345206    7939.8879    9216.0714    8329.1463    8851.5323    947.49628   -66.063172   -442.05563   -3216.0525 
 4813000    271.05639    -4806.933   -4264.7868    -4806.933            0    5806.9035    18.183041    22.902791    19.363697    8063.8643    6443.5886    5505.9372    5471.1846    432.11027   -1128.5564    1072.2111   -3581.8764 
 4814000    271.12323   -4840.4374   -4298.1574   -4840.4374            0    8340.1796    18.031261    22.879192    19.263218    7946.8611    9001.2656    7873.2671    8146.0062    3.2308252    399.10925   -1058.0832   -3331.5572 
 4815000    238.44017   -4795.2008    -4318.291   -4795.2008            0    8156.0449    17.903396    22.847297     19.43964    7951.6722    8714.8435    8974.2022    6779.0888    299.11027   -743.02406    181.79294   -3372.4591 
 4816000    261.61538   -4778.5421    -4255.279   -4778.5421            0     6658.017    18.171992    22.760266    19.331277    7995.4039    5701.3604    7432.3427     6840.348   -1064.4267   -352.23163   -279.11773   -3478.9225 
 4817000    262.72262   -4825.3744   -4299.8967   -4825.3744            0       8242.2    17.954054    22.515784    19.665777    7949.8825    8127.8226    8927.3323    7671.4449    1087.4121   -2190.6939    1884.3488   -3344.2888 
 4818000    263.44168   -4815.7896   -4288.8737   -4815.7896            0     7674.218    18.048016    22.755742    19.366503    7953.7453    5787.3702     6851.964     10383.32    882.09879   -1216.1706   -50.143183   -3398.6857 
 4819000    259.76001   -4848.7287   -4329.1766   -4848.7287            0    5691.2327    18.084451    22.935859    19.270264    7992.9666    4808.3381    5991.4012    6273.9588    41.734374    179.69367   -776.06727    -3665.754 
 4820000    261.78304   -4800.0884     -4276.49   -4800.0884            0    8302.0714    17.789974    22.961846    19.487106    7960.3005    8271.5458    8641.4018    7993.2664    178.62439   -1102.0127   -993.77825   -3312.6791 
 4821000    251.01848   -4782.1058   -4280.0378   -4782.1058            0    9123.2071    17.920999     23.07624    19.118597    7906.4819    8145.6872    9751.3156    9472.6187    141.28183   -607.30612   -577.35133   -3228.0597 
 4822000    275.14651   -4779.4781   -4229.1511   -4779.4781            0    7467.1084    17.862822    23.240376    19.240459    7987.4593    6781.3125    7199.6845    8420.3282    448.78714    465.73472   -1024.0881   -3359.3159 
 4823000    259.09105   -4843.1577   -4324.9436   -4843.1577            0    10038.539    17.841929    23.072302    19.165741    7889.6613      11690.8    8020.9924    10403.824    3285.5841    281.08955    1087.6314    -3169.883 
 4824000    257.27059   -4845.6325   -4331.0595   -4845.6325            0    6588.0638    17.742128    23.322648     19.28611    7980.4653    7369.1824    5519.7897    6875.2194   -222.68068    597.01589   -760.02481   -3564.2952 
 4825000     259.2235   -4828.8216   -4310.3426   -4828.8216            0    6679.9501    17.935053     23.31609     19.13833    8003.1768    7261.1658    6201.2019    6577.4826     920.9674   -298.84832    363.36491   -3530.6714 
 4826000    267.91417     -4817.28   -4281.4186     -4817.28            0     7205.105    17.706689    23.352432     19.30247    7981.4605    8013.3174    6401.1834    7200.8143   -690.01818    104.88445   -1423.9054   -3442.7342 
 4827000    256.63606   -4852.3174   -4339.0136   -4852.3174            0    8321.9638     17.91379    23.242025     19.00633     7913.338    7862.8987    7150.9171    9952.0757    107.18557   -158.41146    1838.6023   -3378.5931 
 4828000    279.57498   -4799.8845      -4240.7   -4799.8845            0    9088.7961    17.883976    23.005842    19.297025    7939.4893    8442.6808    9443.6133    9380.0942   -396.75678    1258.5598   -1174.2217   -3188.3146 
 4829000    254.22977   -4819.8225   -4311.3316   -4819.8225            0    8028.3851     17.86086    23.120954    19.266173    7956.1613     8439.124     8105.218    7540.8133    1317.9568   -93.307596    731.42044   -3379.7784 
 4830000    260.63652   -4776.0026   -4254.6974   -4776.0026            0     9699.059    17.912668    22.803106    19.369477    7911.7432    9850.6519    9252.6183    9993.9068   -463.57152   -136.65115      1492.59   -3135.5748 
 4831000    255.26614   -4793.2616   -4282.6978   -4793.2616            0    8140.0646    18.110159    23.019201    19.194159    8001.6874    7846.6082    7254.5201    9319.0655    346.90607     182.0661    719.84712   -3332.7816 
 4832000    243.36247   -4813.1356   -4326.3805   -4813.1356            0    7873.7144    17.881488    23.110152    19.294044    7973.1462    7503.1779    6963.7588    9154.2064    845.54846    -109.5385    461.92748   -3410.8238 
 4833000     273.7088   -4813.7591   -4266.3077   -4813.7591            0    7401.7656    17.845396    23.203954    19.179661    7941.9859    8000.9855    6193.1926    8011.1188   -708.41229    -321.7138   -517.22226   -3408.9929 
 4834000    261.61565    -4774.988   -4251.7244    -4774.988            0     7813.015    17.692548    23.186909    19.415743    7965.0267    9396.4393    7388.3219    6654.2839    1035.2265   -774.31669    2304.2167    -3344.151 
 4835000    261.26286   -4824.7494   -4302.1914   -4824.7494            0    10943.413    17.924746    22.929869    19.162034    7875.8273    10309.537    11551.255    10969.446   -455.48933    283.82577   -755.90815   -3045.2216 
 4836000    264.02269   -4835.9066   -4307.8286   -4835.9066            0    6179.4933     17.83279    23.096696    19.417751    7997.7547    5678.6245    5908.6744    6951.1811    1416.4404    57.382856     1483.839   -3587.0584 
 4837000    253.60372   -4824.6492   -4317.4104   -4824.6492            0     6357.885    17.974221    23.264539    19.201576    8029.3686    6347.4902    5760.4494    6965.7152   -530.84697   -312.08915    -273.7619   -3572.9014 
 4838000    259.30396    -4820.676    -4302.036    -4820.676            0    6822.9683    18.030481    22.914726    19.344984    7992.6419     6155.828    7294.8832    7018.1938   -592.04006    225.53901    2053.3836   -3506.7203 
 4839000    259.86613   -4864.3438   -4344.5795   -4864.3438            0    8161.5035    18.006118    22.993458    19.134319    7922.0467    6325.4011    9999.8017    8159.3077   -1098.3913    1633.0064    -763.4005   -3401.6408 
 4840000    251.26107   -4797.2125   -4294.6593   -4797.2125            0    9933.7326    17.793375     23.08925    19.235692    7902.7085    9977.1907    8482.6005    11341.407   -1342.8906    250.22579   -357.99078   -3149.7678 
 4841000     261.4415   -4831.9101   -4308.9948   -4831.9101            0    6851.4756    17.893382    23.164735    19.255089    7981.1467    6228.7918    5682.7379    8642.8972   -721.11173   -980.39461   -734.38738   -3511.5047 
 4842000    258.47681   -4818.9454   -4301.9599   -4818.9454            0    9943.6678    17.914994    22.862036    19.284189    7898.2876    9475.1963    10244.633    10111.174    -759.2424   -459.84237   -59.667723   -3156.5644 
 4843000    274.45191   -4818.3215   -4269.3838   -4818.3215            0    6687.2469    18.056934    22.809086    19.405234    7992.2818    7776.3999    6321.7878     5963.553   -835.75841    22.665761    344.27634   -3489.9234 
 4844000    267.97842   -4830.7379   -4294.7479   -4830.7379            0    9692.5524    17.939376    23.057505    19.097843    7899.5796    9796.7724    9683.4326    9597.4522   -2873.2298    642.43522    71.124716   -3178.0955 
 4845000    258.33182   -4844.5452   -4327.8496   -4844.5452            0    9230.5554    17.920278    22.888857    19.263454    7901.3814    8752.8931    8583.6108    10355.162    1730.5318     136.4491    912.73837     -3264.18 
 4846000    260.05213   -4807.3552   -4287.2188   -4807.3552            0    8039.8787    17.867893     23.15702     19.27451     7975.159    6819.4643     8042.972       9257.2   -1153.2754    381.19036   -624.15625   -3352.1044 
 4847000    268.33745    -4826.494   -4289.7859    -4826.494            0    9852.3554    17.874393    22.992092     19.19741    7889.5534    10828.844    9525.4733    9202.7493   -1466.0939   -370.65229   -37.842889   -3156.1636 
 4848000    262.74632   -4821.2841    -4295.759   -4821.2841            0    8589.2991    17.812002    23.154746    19.364934    7986.7256    10173.234    8036.7601    7557.9028     425.5134    236.79499    1185.1725   -3295.2929 
 4849000     262.9493   -4826.3052   -4300.3742   -4826.3052            0    8381.0659    17.715584    23.273498     19.17542    7906.0945    8426.1017    8414.5757    8302.5202   -1654.8349    1570.4614   -257.82455   -3334.0182 
 4850000     261.2866   -4816.7186   -4294.1131   -4816.7186            0    8990.1874     17.88781    23.018823    19.261184    7930.9142    9609.3629    9373.1207    7988.0787    224.58866    313.34951    1680.6854   -3254.2698 
 4851000    257.85477   -4858.3205   -4342.5791   -4858.3205            0    7395.8611    18.014356    23.031703    19.221391    7974.9801    6868.1521    7691.9125    7627.5186    92.341634    100.45458   -1419.4868   -3482.3894 
 4852000    256.67751   -4799.3823   -4285.9955   -4799.3823            0    9418.2926    17.744769    22.952279    19.427071     7912.314    10589.711    9438.0724    8227.0943   -198.79062    336.70092   -1823.0608   -3199.1906 
 4853000    273.21214   -4817.1939   -4270.7358   -4817.1939            0     8404.121    18.028085    23.099029    19.065463    7939.4546    9436.0931    6898.2337    8878.0362   -77.039497   -511.39738     -237.393   -3297.6327 
 4854000    267.19753   -4806.0424   -4271.6144   -4806.0424            0    8588.6511     17.71289    23.127558    19.379198    7938.8027    10426.657    7088.1873    8251.1093    1895.3381    269.89668   -904.94458   -3277.2264 
 4855000    273.18446   -4783.5259   -4237.1232   -4783.5259            0    8680.8912    17.969335     23.06845    19.158058    7941.4884    8907.3641    7559.5854    9575.7241    1262.1014    1008.8217    724.58369   -3231.7157 
 4856000    250.22385   -4831.3582   -4330.8796   -4831.3582            0    6784.8062    17.859767    23.040668    19.451456     8004.293    6498.8084    7769.9818    6085.6285    208.77053    895.74233    1469.7509   -3538.8592 
 4857000    261.97449   -4806.6298   -4282.6484   -4806.6298            0    7984.5767    17.970794     22.96049    19.298327    7962.8415    7846.1353    7818.6184    8288.9764   -993.85368   -101.81693   -3110.0634   -3355.4005 
 4858000    264.08642   -4804.0479   -4275.8424   -4804.0479            0    7521.2683    17.933454    22.830331    19.520868    7992.3644    9547.8697    5799.0834    7216.8519    -1307.613   -1174.9685    379.35017   -3399.1601 
 4859000    252.25261    -4818.103   -4313.5666    -4818.103            0    7120.9531    18.174885    22.556753    19.493577     7991.711    8482.1349    7602.9032    5277.8212    987.33602    1178.0972   -845.96054   -3483.6131 
 4860000    259.98581   -4783.7417    -4263.738   -4783.7417            0    7970.7546    18.085833    22.893126    19.255231    7972.4601    7458.8668    8566.1534    7887.2435     -1301.37   -1280.1379   -777.71846   -3336.9771 
 4861000    273.48345   -4799.5364   -4252.5357   -4799.5364            0    8967.7383    18.010556     22.77819    19.400466    7958.9999    8044.9536    9996.3355    8861.9258   -653.03619    103.22745    471.57305   -3211.6158 
 4862000     265.9618   -4823.1749   -4291.2185   -4823.1749            0    10202.551     18.16982    22.587216     19.28171    7913.3221    9574.9383     10293.83    10738.885    -49.65803    81.552739    517.16837   -3113.7656 
 4863000    254.34878    -4804.334    -4295.605    -4804.334            0    10585.363    18.012308    22.530801     19.42271    7882.3519    10057.232    11328.657      10370.2   -777.45613   -1517.6442    250.09143   -3078.7538 
 4864000    262.96964   -4812.4483   -4286.4765   -4812.4483            0    7673.2002    18.119294    22.803713    19.424424    8025.9227     6744.237    7745.9235    8529.4401   -1484.9382    1178.8737   -1389.3575   -3388.3295 
 4865000    262.57465   -4824.9895   -4299.8078   -4824.9895            0    8460.6396    17.983069    22.696873    19.451918    7939.4839    8079.6815     8292.139    9010.0982    555.83352   -226.57846    2584.1802   -3320.1568 
 4866000    254.24745   -4842.9627   -4334.4364   -4842.9627            0    7539.8484    18.167175    22.824457    19.261381    7986.8452    7243.1507    8084.5343    7291.8601    266.81703   -172.42737   -679.80262   -3456.1953 
 4867000    260.74405   -4856.3129   -4334.7926   -4856.3129            0    7612.7022    18.021795    22.557338    19.538809    7942.9895    9470.4834    7761.0368    5606.5864    1335.1843   -603.51159    3004.3013   -3452.9345 
 4868000     257.6601   -4826.2166   -4310.8646   -4826.2166            0    9697.9754      17.9671    22.777034    19.295835    7896.5746     9047.878    10033.051    10012.997   -326.36669    249.92577   -929.64002   -3194.0124 
 4869000    264.11624   -4846.4953   -4318.2302   -4846.4953            0     8419.961    17.978869     22.75525    19.384376    7930.4127    8707.7423    8431.7934    8120.3472    939.89409    -103.6222    150.00277   -3344.4033 
 4870000    248.81134   -4808.0404   -4310.3869   -4808.0404            0    6086.4926    18.040913    23.049611    19.337587    8041.2657    5844.1767    6578.3486    5836.9526   -732.26369    154.67689    648.64674    -3596.602 
 4871000    267.12224   -4854.1447   -4319.8673   -4854.1447            0    7896.2118    17.861649    23.012646    19.341193    7950.0775    8789.4438    7381.2451    7517.9464    911.18721    412.68162    1607.8231    -3404.351 
 4872000    270.51881   -4797.9286   -4256.8575   -4797.9286            0    8436.6317    17.914135    23.012281    19.280283    7948.2025    7413.8292    8531.2409    9364.8249   -989.80251    991.09987    711.44978   -3278.9137 
 4873000    258.37933   -4811.4024   -4294.6118   -4811.4024            0    8861.1993    17.845646    22.962986    19.314632    7914.9298    10938.013    8634.1575    7011.4273   -844.10392    368.77711   -1591.7661   -3271.7536 
 4874000    261.26521   -4790.0772   -4267.5145   -4790.0772            0    10494.559    17.915429    22.986842    19.161681    7891.1469    11377.729    10194.404    9911.5442    358.95951   -1411.2138   -720.98143   -3059.7557 
 4875000    272.86275   -4806.3967   -4260.6375   -4806.3967            0    8590.9105    17.874335    22.913944    19.471251    7974.8696    9310.3409    7391.5432    9070.8473   -668.26106   -479.75839    -787.4166   -3261.4691 
 4876000    259.43787   -4822.8322   -4303.9244   -4822.8322            0    7778.6257      18.0295    22.855459    19.321295    7961.7742    5751.6246    7947.4045    9636.8479    87.872232    126.72808    1148.7136   -3400.7146 
 4877000    257.12417   -4834.5988   -4320.3187   -4834.5988            0    7621.6527    18.087847    22.819274    19.305629    7968.4276    5708.0711    8729.8217    8427.0653    400.09868    261.44192    668.87179   -3434.5962 
 4878000    254.53428   -4828.3493   -4319.2493   -4828.3493            0    7825.9554    17.887729     22.79117    19.608919    7994.2087    9181.8042    6196.6539     8099.408    469.01628   -975.16478    985.26657    -3406.842 
 4879000    279.03942   -4803.0951   -4244.9818   -4803.0951            0    7852.3352    18.026398    22.855445     19.34504    7970.1824    7625.0203    8281.5932    7650.3919   -446.06935   -352.12844   -1396.0444   -3332.2505 
 4880000    255.89479   -4853.7827   -4341.9615   -4853.7827            0     7050.558    18.215549    22.676831    19.372714     8002.305    6904.2701    6528.5204    7718.8833   -5.2754935   -695.24871    1406.9949   -3519.1232 
 4881000    250.45278   -4832.7669   -4331.8304   -4832.7669            0    9604.3868    18.025859    22.618492    19.375982    7899.9316    7124.9809    10755.622    10932.558    1246.0297    1082.5867   -163.13816    -3225.286 
 4882000    262.59438   -4788.1215   -4262.9003   -4788.1215            0    7962.9394     18.02777    22.884599    19.336708    7977.5192    7915.9552    8497.5467    7475.3162   -194.75155   -73.954071   -849.07594   -3336.4606 
 4883000    268.35767   -4803.4762   -4266.7277   -4803.4762            0    7653.7235    17.963035    22.927227    19.377157    7980.3384    7135.2022    8671.3385    7154.6298     902.3537    417.38662    -1038.834   -3375.9487 
 4884000    246.82366   -4817.4148    -4323.737   -4817.4148            0    8761.1562    17.991343    22.821525    19.350105    7944.9573    7905.9036    9015.8943    9361.6705    217.36727   -971.19993   -445.25504   -3308.5901 
 4885000    265.91783   -4843.3962   -4311.5277   -4843.3962            0    9533.4936    17.944273     22.66355    19.419569    7897.5686    10806.265    10398.113    7396.1027    -1635.553    239.94016     218.3719   -3213.4795 
 4886000     272.5129   -4824.7841   -4279.7246   -4824.7841            0    7389.0988    18.147989    22.806249     19.28239    7980.7415    7067.6255    6659.0118    8440.6591   -4.6414154   -1030.9643    1141.1785   -3419.7006 
 4887000    263.70101   -4827.0915   -4299.6569   -4827.0915            0    6950.0147     17.97123    22.776205    19.429978    7953.0091    8261.1236    7713.2524     4875.668   -330.32757   -1049.3566   -1889.0939   -3493.5492 
 4888000    265.92689   -4823.0206    -4291.134   -4823.0206            0    7410.2408    17.849719    23.229029    19.155988    7942.6785    8000.6898    6840.4582    7389.5746    569.06753   -2137.5505    1159.8182   -3432.7627 
 4889000    261.87042   -4851.9972    -4328.224   -4851.9972            0    9638.1465    17.941579     22.80489    19.290088    7892.6501    11055.745    8972.8209    8885.8731   -284.77509    187.90186   -1834.0926   -3218.8135 
 4890000    249.07862   -4777.5569   -4279.3689   -4777.5569            0    7560.8206    18.015012    22.889028    19.340296    7974.8962    7434.2036    7446.8498    7801.4084    -276.4745   -1011.4141   -261.08629   -3400.0025 
 4891000    257.59345   -4818.5572   -4303.3384   -4818.5572            0    8286.6085    18.042967    22.811521    19.329117    7955.6234    7913.3243    8776.1897    8170.3115    1093.3934   -480.22006   -1633.6072   -3341.8879 
 4892000    261.22334   -4818.6058   -4296.1269   -4818.6058            0    8525.4442    17.970257    22.858485    19.378915    7960.3319    10065.859     7620.355    7890.1189    266.43437    274.28577    1010.6353   -3306.3801 
 4893000    263.87886   -4833.4138   -4305.6235   -4833.4138            0    8905.6858    18.011831    22.868673    19.237755    7924.1598    8951.7481    9654.2606    8111.0487   -572.67608    757.23917   -203.98942   -3276.4313 
 4894000    264.17122   -4829.3208   -4300.9458   -4829.3208            0    6671.0819    17.939116    23.148505    19.256523    7996.5354      6961.88    5003.7573    8047.6084   -1993.9696   -1680.9803    459.03256   -3522.9557 
 4895000    258.72301   -4805.3285   -4287.8505   -4805.3285            0    9339.8374     17.98577    22.938586     19.17272    7910.0536    10650.295    8586.8683    8782.3492    828.30685   -503.75519    2175.5471   -3210.4067 
 4896000    260.60532   -4828.5433   -4307.3005   -4828.5433            0    9108.3572     17.93071     22.88125    19.356428    7941.4982    10590.898     9506.249    7227.9248   -8.0785498    118.60798     1313.356   -3252.3833 
 4897000     264.7443   -4865.7291   -4336.2078   -4865.7291            0    7550.1334    17.972816    22.910524    19.300812    7947.4309    8519.3219    7730.7474    6400.3309    682.92038   -89.517194    392.02976   -3461.1086 
 4898000    266.72747   -4840.4035   -4306.9156   -4840.4035            0    8461.3586    17.892313    22.959417    19.332693    7941.8137     8764.281    9020.3479    7599.4469   -961.51977    1230.4726   -158.93147    -3326.894 
 4899000    265.46224   -4800.5005   -4269.5432   -4800.5005            0    7367.7502    18.034788    22.975243     19.27282    7985.7632    8623.3438    6801.5099    6678.3969   -307.76808    153.97606   -441.42657   -3411.4644 
 4900000    268.54448   -4854.2247   -4317.1026   -4854.2247            0    6615.1592    17.923019    23.020855    19.297806    7962.3368    7813.4838    7084.6538    4947.3402    26.347005    -1047.941    233.55186   -3548.9337 
 4901000    279.84476   -4800.6132   -4240.8891   -4800.6132            0    10365.383    18.011667    22.809182     19.19965    7887.8189     10577.34     10097.86    10420.949   -59.601672    1267.2227    108.45246   -3048.4995 
 4902000    255.46178   -4801.1593   -4290.2042   -4801.1593            0    7904.5487    17.984742    22.896323     19.36587    7974.5642    8766.0923    7712.6369     7234.917   -1273.5231    503.55383    893.54493   -3370.8986 
 4903000    258.98695   -4810.6018   -4292.5959   -4810.6018            0    7655.6265    17.995178    22.899306    19.340434    7969.7496    7647.8491    6862.5402    8456.4902    236.11288   -595.34094   -178.61467   -3402.7777 
 4904000    269.17832   -4831.8978   -4293.5079   -4831.8978            0    9579.6672    18.163321    22.981891    18.958689    7913.8775    7806.0538    10238.605    10694.343    472.22777    750.64301   -446.65701    -3187.863 
 4905000    267.83117   -4843.3777   -4307.6822   -4843.3777            0    7449.6348    17.841433    23.047607    19.366938    7963.7301    10363.038    7001.3341    4984.5322   -755.40775    756.90604   -2067.0616   -3442.4605 
 4906000    253.17283   -4834.3209   -4327.9439   -4834.3209            0    8139.4677    18.006752    23.082625    19.101784    7939.5246    8570.9459    6991.6322     8855.825    60.984033   -2047.1255    486.23929   -3385.4764 
 4907000    261.86724    -4820.698   -4296.9311    -4820.698            0    8687.7242    17.760741    23.064965    19.347993    7925.9219    9547.0776    7607.8414    8908.2536   -812.23512   -1004.8708   -1094.4134   -3292.7046 
 4908000    246.73552   -4815.9775    -4322.476   -4815.9775            0    8853.0718    18.065226    23.147314    19.019879    7953.3805    9292.1352    7989.2562    9277.8241    113.13432   -1118.4667   -363.92202   -3295.5914 
 4909000    258.18872   -4836.3928   -4319.9834   -4836.3928            0    7434.9623    17.836704      23.0925    19.355707    7972.5013    9429.3083    6599.7859    6275.7926    532.07775     102.7051   -1503.4024   -3455.5148 
 4910000    266.13639   -4817.9694   -4285.6638   -4817.9694            0    9326.9055    17.991537    22.967789    19.232551    7947.3867    8132.0798    9648.0933    10200.543    630.14761    914.41852    1562.8943   -3204.6336 
 4911000    254.89148   -4821.2199   -4311.4055   -4821.2199            0    8080.5135    17.758241    22.997529    19.350827    7902.7938    9662.7831    6216.8846     8361.873   -370.77489   -1945.0816   -864.34276   -3380.0928 
 4912000    257.69986   -4805.5971   -4290.1655   -4805.5971            0    8800.4855     18.00132    23.049594    19.142331    7942.5956    9611.7939    6897.5801    9892.0824    818.73873   -168.76386   -936.87022   -3270.7647 
 4913000     252.8572   -4800.5059   -4294.7603   -4800.5059            0    8000.8966    17.886951    23.156978    19.180515    7944.7174    8756.7796     6741.348    8504.5622   -412.79721    162.77027    171.08166    -3367.732 
 4914000    256.45275   -4819.4803   -4306.5431   -4819.4803            0    8645.7231    17.893424    23.082171    19.246002    7948.9659     7451.982    9862.3797    8622.8074    1129.8201    504.30201   -365.17768   -3304.2659 
 4915000    256.06842   -4817.7427   -4305.5743   -4817.7427            0    7540.0584    17.916232    22.996215    19.287382    7946.5075    9415.3588    6094.6897    7110.1267   -1454.0203    -908.5633    -782.7314   -3431.7444 
 4916000    271.38124   -4800.7459   -4257.9499   -4800.7459            0    9585.1016    18.025763      22.8298    19.297886    7941.5542    7071.6297    10653.777    11029.898    1032.0858    949.92998    1652.8909    -3147.809 
 4917000    258.16522   -4818.3059   -4301.9435   -4818.3059            0    8278.5195    17.982185    22.833807    19.314499    7930.5668    7401.7912    9021.1009    8412.6665   -304.82393    1566.8721   -227.50757   -3344.4567 
 4918000    259.98047   -4794.1928   -4274.1997   -4794.1928            0    8272.7385    17.947926    22.948739    19.300558    7949.5576    8262.2239    8761.6664    7794.3254    332.98421    620.15464    2361.7902   -3315.0903 
 4919000    265.92128    -4786.842   -4254.9666    -4786.842            0    7833.6256    17.872952      23.0937    19.337669    7981.6735    10366.936    7371.7466    5762.1944   -1125.8603    162.88786   -321.65122   -3343.0972 
 4920000    265.64297   -4811.9768   -4280.6581   -4811.9768            0    7985.8881    17.957874    23.019572    19.225556    7947.5098    8637.2296    7976.2183    7344.2164    381.40785   -132.70992    681.93464   -3355.0435 
 4921000    266.84553   -4815.6304   -4281.9064   -4815.6304            0    8875.1749    17.972925    23.090929    19.213444    7973.8009    7891.1783    8724.0624    10010.284    390.69954   -613.41887    178.23752   -3249.8149 
 4922000    259.08818   -4836.7217   -4318.5133   -4836.7217            0    9665.6172    18.006406    22.821147    19.278086    7921.8831    9111.8215    10835.146     9049.884    571.45572   -407.48118    1480.3444     -3201.82 
 4923000    260.38429   -4842.3704   -4321.5696   -4842.3704            0    8167.7851     17.98054    22.886466     19.27797    7933.0969    8455.8416    8796.1314    7251.3822   -151.62329   -348.12805    2652.0133   -3376.5889 
 4924000    271.94609   -4849.2162   -4305.2904   -4849.2162            0    9478.4463    17.951785    22.781912    19.334701    7907.4285    9474.5431    10391.889    8568.9068   -1712.1029    771.98232   -213.95559   -3212.2195 
 4925000     258.9774   -4835.7089   -4317.7221   -4835.7089            0    6039.7412    18.003665    22.894519    19.445699      8015.23    7352.9354    6207.3052     4558.983    191.75171    1173.1087    704.98834   -3611.7131 
 4926000    269.18069   -4842.4301   -4304.0355   -4842.4301            0    10092.197    17.963097    22.819974    19.279273    7902.9097    9067.7264      10888.4    10320.464   -829.85998   -20.844726    819.69531    -3140.851 
 4927000    268.30576   -4804.6818   -4268.0372   -4804.6818            0    8749.0075    18.021691     22.94296    19.204183    7940.3716    9582.1109     7970.588    8694.3237    534.76511    560.78769    1408.5494   -3254.8831 
 4928000    259.59886   -4809.8209   -4290.5911   -4809.8209            0    6716.0694    17.871565    23.098321    19.418311    8015.9399    7194.9768     6360.863    6592.3683    606.82574   -1001.7255    1786.9979   -3505.4539 
 4929000    267.27894   -4813.7543   -4279.1634   -4813.7543            0    8824.8948    17.984444    22.973228     19.20266    7933.7853    8283.3363    8073.9377     10117.41   -509.06901    655.40549    2510.6211   -3258.0691 
 4930000     257.1317   -4808.0095   -4293.7143   -4808.0095            0    7493.1176    17.975508    22.983887    19.317429    7980.9387    7318.0572    7430.5557      7730.74    275.05864   -399.72449    1690.5978   -3421.5619 
 4931000    264.37089   -4839.7284    -4310.954   -4839.7284            0    8165.9264    17.818793     23.02183    19.322412    7926.4635     8607.518     7576.224    8314.0372    63.892704    13.831131   -58.031903   -3366.9783 
 4932000    254.37437   -4805.7363   -4296.9561   -4805.7363            0    5167.1982    17.985365    23.158064    19.344751    8057.2096    7392.5952    4250.0224     3858.977   -393.52342   -463.90458   -416.36366   -3689.7786 
 4933000    267.86152   -4854.7074   -4318.9513   -4854.7074            0    8865.3099     17.98215    22.948324    19.240046    7939.6014    7192.4008    9490.3055    9913.2235   -767.36089    151.71267     2064.465   -3292.4287 
 4934000    252.20692   -4829.1169   -4324.6719   -4829.1169            0    8438.2916    17.978707    23.046007    19.182411    7947.9904    8973.9608    7520.0343    8820.8797   -195.22119   -44.426244     192.6224   -3346.5618 
 4935000     276.3978   -4825.6612   -4272.8315   -4825.6612            0    7479.4912     17.91213    23.028477    19.445518    8021.0638    8439.6237    6870.3214    7128.5285    160.63576   -84.875001    2026.2659   -3397.8882 
 4936000    274.65197    -4817.854   -4268.5161    -4817.854            0    8566.4581    17.880554    23.011843    19.229838    7912.3956     6558.673    9487.2505    9653.4508   -1743.2245   -602.76817   -949.00191   -3279.9967 
 4937000    269.52619   -4841.7558   -4302.6702   -4841.7558            0    9677.2573     17.83386    22.958767    19.307303    7905.2486     10522.31    9728.2927    8781.1696    1401.3204    330.33567     1150.315   -3186.9797 
 4938000    275.47991   -4829.4256   -4278.4318   -4829.4256            0    7701.3259    18.020726    22.987256    19.267277    7981.4126     8780.487     6785.231    7538.2597   -1585.4041    878.30257   -790.19806   -3381.9919 
 4939000    266.74494   -4867.3381   -4333.8153   -4867.3381            0    8606.1059    18.019236     22.87508    19.233285    7927.7958    8041.6674    8755.4494    9021.2008   -688.90766    151.68898    -359.5404   -3338.7879 
 4940000    285.84249   -4812.9077   -4241.1874   -4812.9077            0     8889.282    17.825182    22.887874    19.420966    7923.3761    8595.9521    9286.1363    8785.7575    143.00375   -542.51783    2559.0663   -3213.9926 
 4941000    261.24577   -4812.3644   -4289.8406   -4812.3644            0    7142.1505    18.002022    22.935437    19.342116    7986.0552    6892.3116    8100.2064    6433.9336   -1679.4533    618.27655   -1264.1254   -3458.0056 
 4942000    260.01806   -4796.0671   -4275.9989   -4796.0671            0    9284.6754    18.037302     22.91031    19.224791    7944.4563    8882.3452      9582.07    9389.6108     675.1787    750.07674    1478.4471   -3200.2602 
 4943000    260.15112   -4818.0278   -4297.6934   -4818.0278            0     8275.522    18.031585    22.884719    19.307658    7967.2614    10720.181    6776.0104    7330.3742    -421.3997   -699.96845   -1491.3654   -3336.1247 
 4944000    264.74468   -4809.1824   -4279.6603   -4809.1824            0    9549.4681    18.041751     22.87101    19.155921     7904.366    9826.1236    8572.0746    10250.206    90.954861   -543.37788   -921.03263   -3178.8256 
 4945000    259.57483   -4813.0417     -4293.86   -4813.0417            0     8240.887    17.853534    22.994201    19.388749    7959.6197     7630.563    8763.7796    8328.3185    1547.1132   -218.88353    566.91952    -3337.234 
 4946000     254.6912   -4815.7052   -4306.2914   -4815.7052            0    7190.4843    18.378785    22.719538    19.191652    8013.6184    4371.1517    8688.0097    8512.2914    540.71763      1516.48   -548.23952   -3465.9366 
 4947000    261.73284   -4821.8202   -4298.3222   -4821.8202            0    7205.6238    17.884725    22.838188    19.520095     7973.075    7732.2926    7345.7914    6538.7875    1093.5513   -1290.6395   -1608.8338   -3460.4586 
 4948000    268.51983   -4831.2739   -4294.2011   -4831.2739            0      7761.53    17.976261     23.05741    19.222087    7967.2868    7739.2167    7470.4198    8074.9534   -1271.4282    -474.5221   -329.65415   -3392.3524 
 4949000    269.78127     -4815.86   -4276.2642     -4815.86            0    8967.0428    17.744101    23.108604    19.356787    7937.0841    9608.1501    7969.2726    9323.7056    1647.3321   -444.31455   -400.60661    -3238.291 
 4950000    263.37443   -4831.9509   -4305.1695   -4831.9509            0    8689.7823    18.018166    22.974354    19.166084    7933.9104    8164.5027    9093.1869    8811.6573   -773.80883   -1375.3749    84.283259   -3299.6926 
 4951000    261.55212   -4809.7057   -4286.5692   -4809.7057            0    8047.5191    17.918158    22.918186    19.432368    7979.9342    9714.8753    6662.8244    7764.8576    2055.4041   -425.04719    1148.2285   -3350.0057 
 4952000    268.57604   -4829.2527   -4292.0674   -4829.2527            0     7003.894    18.071444    23.005134    19.203084    7983.4132    6010.6548    5786.8418    9214.1853    884.23961   -1005.8637     706.1889   -3476.6048 
 4953000    247.08224   -4810.3271   -4316.1321   -4810.3271            0    9558.7424    17.718054    23.009126    19.376561    7899.3771    11242.203    9729.9786    7704.0451    338.70672    466.90188   -493.01052   -3214.9238 
 4954000    255.95397   -4851.5626    -4339.623   -4851.5626            0    7319.5223    17.888023     23.22151    19.166259    7961.4127    7798.5333    6595.1652    7564.8684    338.11654    544.37013   -1085.2998   -3489.7603 
 4955000    254.93129   -4843.1292   -4333.2351   -4843.1292            0    8806.8823    17.844068    23.032893     19.30446    7934.1426    9776.7641    8605.4597    8038.4232   -793.88488   -189.43814    331.67356   -3314.1791 
 4956000    264.32485   -4839.4295   -4310.7472   -4839.4295            0    8194.2477    17.789453    23.195454    19.241059    7939.5232    8782.7713    8527.0792    7272.8926    157.57372     1030.043    -1099.082   -3361.9368 
 4957000    256.77583   -4803.2907   -4289.7073   -4803.2907            0    8812.9398    17.903854    23.079611    19.166067    7919.6871    7970.1672    8865.8702    9602.7821    -314.7111   -178.84517    -564.9215   -3271.8083 
 4958000    273.07048   -4817.8774   -4271.7027   -4817.8774            0    9199.5046    17.926083    22.925444    19.242752     7908.067    8518.1116    9335.4284    9744.9739   -268.03037    595.19375   -1694.0214   -3210.7142 
 4959000    265.45877   -4824.3459   -4293.3956   -4824.3459            0    7190.4533    17.914078    23.037456    19.255944    7946.8279    6695.4562    7358.6739    7517.2299    218.35391    1362.9184    322.56775   -3460.0484 
 4960000    273.07807   -4825.0033   -4278.8134   -4825.0033            0    7413.6723    17.952648    23.102288    19.277003    7995.0841    6850.6671    7294.9226    8095.4272   -889.77465    422.40519   -1042.3513   -3414.3784 
 4961000    258.55509   -4805.5484   -4288.4063   -4805.5484            0    9095.6044    17.882688    22.924684    19.343582    7929.9976    9026.6009    10359.221    7900.9915     637.1442    -396.6529    1509.5891   -3236.4917 
 4962000    256.16184   -4814.7116   -4302.3562   -4814.7116            0    8458.2754    18.128513    22.988821    19.119709    7968.1986    8784.2519    7493.4545    9097.1198    236.65099    720.35807    1271.9813   -3319.4369 
 4963000    267.12459   -4830.5124   -4296.2302   -4830.5124            0    6433.6491     17.93825    22.966833     19.39041    7988.5544    6071.9455    6255.8833    6973.1183   -687.39434   -149.38982   -934.63703   -3546.6788 
 4964000    244.64377   -4789.7314   -4300.4136   -4789.7314            0     6422.268     18.02533     23.01185    19.368248    8033.8758    7191.0196    6415.5602    5660.2242    262.38735   -311.60537   -1377.7941   -3547.9432 
 4965000    254.32192   -4849.2059   -4340.5306   -4849.2059            0    8093.2486    17.813235     22.85682    19.440892     7915.435    8478.6636    9125.8342    6675.2479   -2052.2811   -1475.9701   -1989.5485   -3406.2581 
 4966000    251.87618   -4796.3263   -4292.5428   -4796.3263            0    8162.4392    18.000788    22.915063    19.273992    7950.3134    8700.9824    6553.7156    9232.6196   -389.77937   -1029.7376    89.636144   -3346.1311 
 4967000    263.37331   -4860.7224   -4333.9432   -4860.7224            0     7881.681    18.015752    22.774782    19.362828     7944.662    9291.4378    7187.7624    7165.8429   -728.98251   -969.62287   -2400.0089   -3420.7342 
 4968000    259.55312   -4792.1238   -4272.9855   -4792.1238            0    7059.1231    18.025805    22.764158    19.474605    7991.2533    7158.5348    7527.0416     6491.793   -930.80169    -705.2003   -1127.8348   -3450.2854 
 4969000      269.951   -4837.5575   -4297.6222   -4837.5575            0    7899.0645    18.013856    22.740941    19.397911    7946.3935    7971.6024    8256.9675    7468.6236     112.8094   -11.282704     854.6699   -3382.1996 
 4970000    259.61244   -4852.8021   -4333.5451   -4852.8021            0    8827.4515    18.098008    22.675518    19.277357    7911.0748     9629.649    9863.3881    6989.3173    1166.4431    547.71145   -108.58074   -3315.0787 
 4971000    264.76795   -4840.4746    -4310.906   -4840.4746            0    6093.4771    17.980082    22.757085    19.588475    8015.0994    5459.4208    7213.6899    5607.3206    53.255721   -1555.9745    275.31659   -3598.6272 
 4972000    255.05771   -4846.6911   -4336.5442   -4846.6911            0    7962.3154    18.113263    22.881511     19.22027    7966.0108    7503.1868    7355.2107    9028.5487    63.024998   -1078.5417    34.599657   -3411.5135 
 4973000    254.56078   -4834.7623   -4325.6093   -4834.7623            0    8704.4997    17.851924    22.792984    19.462935    7919.4413    9418.7825    9314.7737    7379.9429    1243.2075    -501.6627    1271.0884   -3320.2663 
 4974000    272.92267   -4841.6476   -4295.7686   -4841.6476            0    9184.6772    18.046966    22.871675    19.231029    7937.8831    9206.1219    9746.8712    8601.0386   -333.79209    34.382144   -519.93887   -3232.4963 
 4975000    264.14975   -4847.8244   -4319.4922   -4847.8244            0    8388.9324    17.922186    23.011751    19.298433    7959.0771    11331.362    7479.6572    6355.7777   -85.948596   -596.61711   -274.21458   -3345.7471 
 4976000    265.53062    -4833.619   -4302.5249    -4833.619            0       6963.2    17.847272     23.05295    19.379898    7973.5152    6908.3878    7260.7419    6720.4701   -22.487897   -301.01465    741.93898   -3492.8055 
 4977000    285.23723   -4792.7129   -4222.2032   -4792.7129            0    10329.607    17.946945    22.938537    19.208665    7907.7593    8460.5038    10223.317    12305.001    1177.0122    303.33253   -389.52138   -3030.9251 
 4978000     266.8541   -4809.9481   -4276.2069   -4809.9481            0    6561.3602    17.914422    23.118676    19.345063    8011.9075    6903.2725    7604.4625    5176.3456   -1707.8083    590.87993    1424.1192   -3509.5418 
 4979000    263.42923    -4799.624    -4272.733    -4799.624            0    7682.2891    17.908403    23.135566    19.277478    7987.0647    8188.4187    6792.9769    8065.4717   -1101.9726    649.10036    1153.1308   -3377.8758 
 4980000    274.06925   -4798.6801   -4250.5077   -4798.6801            0    8006.3561    17.931476    22.979634    19.416792    8000.8596    8834.0589    7371.6644     7813.345    1592.1209   -778.89241    1489.5702   -3316.2914 
 4981000    274.07809   -4815.8678   -4267.6778   -4815.8678            0    7818.9846     18.03511    22.789107    19.358645    7956.4816    8155.7066    7375.2924    7925.9547   -1609.8203   -571.89988   -2022.7029   -3360.3853 
 4982000    264.83574   -4823.1149   -4293.4107   -4823.1149            0    8841.2125    18.031188    22.803588    19.335142    7950.1424    8341.4203    9156.2621    9025.9551    839.96043    1380.7366   -547.56307   -3268.3192 
 4983000    251.27001   -4804.7097   -4302.1386   -4804.7097            0    10544.611     17.95121    22.726189     19.33501    7887.9606    11348.648    9860.1259    10425.059    460.01782   -836.31732   -918.88139   -3089.1096 
 4984000    268.79543   -4803.0475   -4265.4234   -4803.0475            0    9232.7966    18.047309    22.904448    19.220707    7945.1417    8496.1961     8695.703    10506.491   -703.17567   -938.03869   -3047.5366   -3195.6032 
 4985000    265.27122   -4855.9374   -4325.3622   -4855.9374            0    7795.1564     17.96544    22.720869    19.456753    7942.0599    7482.0694    8810.9674    7092.4324   -1372.1064    1249.2593    -1143.155   -3422.4742 
 4986000    257.31151   -4829.9867   -4315.3319   -4829.9867            0    6919.7681    18.038612     22.83177    19.404429    7991.7808    6609.5289    6488.5611    7661.2144    475.42754   -289.28338    158.20345   -3508.8196 
 4987000    252.80538   -4813.3673   -4307.7253   -4813.3673            0    10142.271    17.989303    22.869874    19.266671    7926.5607    10128.983    9924.9062    10372.924    205.15857   -129.37398   -449.98214   -3135.2711 
 4988000    258.36993   -4790.8083   -4274.0365   -4790.8083            0    7104.3203    17.811625    22.912636    19.553223    7979.8909    9507.2254    7427.1493    4378.5861   -341.20449    139.67759    437.37444   -3447.2462 
 4989000    264.04285   -4822.0022   -4293.8839   -4822.0022            0    8139.7158    18.138836    22.779201    19.238254    7949.0195    7021.8638    7744.1283    9653.1553    -875.9589   -342.54745   -297.02709   -3350.2605 
 4990000    266.32628   -4810.4367   -4277.7512   -4810.4367            0    8476.3106    17.955098    22.881056    19.356436    7952.2354    9326.3728    7855.3046    8247.2542    170.49967  0.018161391    968.44048   -3294.7094 
 4991000    256.25907    -4830.852   -4318.3022    -4830.852            0    7356.2958    18.010867    22.830969    19.375323    7967.2404    7113.3703    7349.8614    7605.6558   -679.59081   -504.70477   -1339.4406   -3463.5445 
 4992000    262.13426   -4831.8237   -4307.5228   -4831.8237            0    8231.9619    17.995295    22.736717    19.472366    7967.1952    8691.3216    7731.1019    8273.4621    390.70139   -1024.5995   -493.71596   -3351.0234 
 4993000    270.95625   -4798.8536   -4256.9076   -4798.8536            0    11746.791    18.042161    22.592968      19.3156    7873.5398    11769.003     11368.02    12103.349    792.20093    105.94687   -71.083701    -2908.053 
 4994000    270.87139   -4823.9329   -4282.1567   -4823.9329            0    7438.4364    18.027375     22.88124    19.363736    7987.3221    6977.6438     8957.813    6379.8525   -974.59422    757.20328    840.32071   -3415.6763 
 4995000     271.6891   -4792.4121   -4249.0003   -4792.4121            0    9608.9059    17.910605    23.049443    19.233437    7940.1295    8789.6385    10170.264    9866.8147   -31.507486    617.23926   -1351.2012   -3136.3021 
 4996000    263.65659   -4827.2485   -4299.9028   -4827.2485            0    8938.0521    17.914399    22.995864     19.24531    7928.2421    9031.8267    9674.2314    8108.0982    3467.1538   -332.41819    1268.1395    -3266.438 
 4997000    262.37114   -4822.7372   -4297.9625   -4822.7372            0    7752.3353    17.930532    23.008829    19.244899    7939.6861    7673.8575    7172.6412    8410.5072   -606.85465    -109.5724   -575.27397   -3400.3027 
 4998000    265.35704   -4807.1256   -4276.3788   -4807.1256            0    8613.0882     17.79949    23.139492    19.323532    7958.8054    9633.4843    7914.9879    8290.7925    1783.9165   -90.304253   -598.64231   -3276.6489 
 4999000    250.81422   -4807.1872   -4305.5278   -4807.1872            0    9866.5362    17.925408    22.915891    19.241134    7903.8096    9654.5946    10505.691    9439.3228   -145.45035    879.07873   -390.95132   -3168.2225 
 5000000    265.81632   -4800.3981   -4268.7326   -4800.3981            0    8573.6879     17.93112    22.998033    19.350573    7979.7986    9047.6972    7633.1569    9040.2097   -47.189961    1158.6483    928.41621    -3270.951 
Loop time of 489.134 on 64 procs for 250000 steps with 1008 atoms

Performance: 88.319 ns/day, 0.272 hours/ns, 511.107 timesteps/s
99.2% CPU use with 64 MPI tasks x 1 OpenMP threads

MPI task timing breakdown:
Section |  min time  |  avg time  |  max time  |%varavg| %total
---------------------------------------------------------------
Pair    | 28.61      | 32.398     | 35.855     |  31.8 |  6.62
Bond    | 0.29024    | 0.29697    | 0.30516    |   0.6 |  0.06
Kspace  | 215.96     | 228.35     | 236.21     |  31.9 | 46.69
Neigh   | 3.9357     | 4.864      | 5.3582     |  17.0 |  0.99
Comm    | 97.721     | 106.37     | 121.07     |  50.1 | 21.75
Output  | 1.2177     | 1.2184     | 1.2309     |   0.2 |  0.25
Modify  | 104.98     | 109.17     | 113.84     |  21.9 | 22.32
Other   |            | 6.463      |            |       |  1.32

Nlocal:        15.7500 ave          21 max          11 min
Histogram: 1 2 5 4 16 14 14 4 3 1
Nghost:        2501.67 ave        2523 max        2476 min
Histogram: 2 6 9 2 7 10 7 10 7 4
Neighs:        5240.53 ave        7009 max        3673 min
Histogram: 3 5 3 11 15 17 3 6 0 1

Total # of neighbors = 335394
Ave neighs/atom = 332.73214
Ave special neighs/atom = 2.0000000
Neighbor list builds = 9796
Dangerous builds = 1

unfix		3
unfix		2
unfix		1

write_data	data.final.${pid}
write_data	data.final.0
System init for write_data ...
PPPM initialization ...
  extracting TIP4P info from pair style
  using 12-bit tables for long-range coulomb (../kspace.cpp:340)
  G vector (1/distance) = 0.38338177
  grid = 24 30 32
  stencil order = 5
  estimated absolute RMS force accuracy = 0.0019463761
  estimated relative force accuracy = 5.8614537e-06
  using double precision FFTW3
  3d grid and FFT values/proc = 4080 384
Last active /omp style is kspace_style pppm/tip4p/omp
WARNING: Not all mixed pair coeffs generated from mixing. Use write_data with 'pair ij' option to store all pair coeffs. (../write_data.cpp:312)

write_restart   restart.lmp.${pid}
write_restart   restart.lmp.0
System init for write_restart ...
PPPM initialization ...
  extracting TIP4P info from pair style
  using 12-bit tables for long-range coulomb (../kspace.cpp:340)
  G vector (1/distance) = 0.38338177
  grid = 24 30 32
  stencil order = 5
  estimated absolute RMS force accuracy = 0.0019463761
  estimated relative force accuracy = 5.8614537e-06
  using double precision FFTW3
  3d grid and FFT values/proc = 4080 384
Last active /omp style is kspace_style pppm/tip4p/omp
Total wall time: 0:08:10
