LAMMPS data file via write_data, version 30 Jul 2021, timestep = 8750000

1920 atoms
2 atom types
1280 bonds
1 bond types
640 angles
1 angle types

-0.08067293435932399 24.810673934356476 xlo xhi
-0.15404298964881313 24.884043989644752 ylo yhi
-0.15576257629953894 22.965762576303614 zlo zhi

Masses

1 1.008
2 15.999

Pair Coeffs # lj/cut/tip4p/long/omp

1 0 0
2 0.21084 3.1668

Bond Coeffs # harmonic/omp

1 450 0.9572

Angle Coeffs # harmonic/omp

1 55 104.52

Atoms # full

1 1 2 -1.1794 4.724260124290066 1.8580348540384706 3.860157664946674 0 0 0
2 1 1 0.5897 4.700391756095576 2.383149458612448 4.660027922549764 0 0 0
3 1 1 0.5897 5.3355462547970705 2.3209830014336785 3.2873299459186844 0 0 0
4 2 2 -1.1794 3.0896918659093604 1.5033031404792578 1.66553076670942 0 0 0
5 2 1 0.5897 3.6614045206134063 1.46661128380614 2.4323029969267522 0 0 0
6 2 1 0.5897 2.2409690320977007 1.1961453773797381 1.9840698836239605 0 0 0
9 3 1 0.5897 5.220703383094037 4.674457623108327 3.4949246758561165 0 0 0
10 4 2 -1.1794 3.356377115268563 4.8005087417903995 3.5525669031063325 0 0 0
11 4 1 0.5897 2.9084489189540332 5.572304296454999 3.8987078329716702 0 0 0
12 4 1 0.5897 2.822932673397122 4.52816449479003 2.805986897204413 0 0 0
13 5 2 -1.1794 1.5325365635005541 2.8103288313368164 4.851681390297876 0 0 0
14 5 1 0.5897 2.2709948326893135 3.2737070469833878 4.456590313638181 0 0 0
22 8 2 -1.1794 1.7025609575350986 4.557377972246757 1.4943841483234879 0 0 0
24 8 1 0.5897 1.6000657232089528 5.283882176453808 0.8797321657008874 0 0 0
20 7 1 0.5897 3.885791965575 2.9590687065991514 0.919929236026447 0 0 0
21 7 1 0.5897 5.368907753036783 3.2611649714266373 0.8914948476561515 0 0 0
23 8 1 0.5897 0.8707855184964881 4.523543899646166 1.9667652082626423 0 0 0
15 5 1 0.5897 1.817078226418385 1.8974483972010976 4.8941820278170365 0 0 0
19 7 2 -1.1794 4.57415464403355 3.3200406374472293 0.3613655775559851 0 0 0
27 9 1 0.5897 4.247747014616261 5.037457502608635 0.6281806759742271 0 0 0
99 33 1 0.5897 0.3381583694272102 3.7299472833236247 4.11842867644976 1 0 0
385 129 2 -1.1794 5.18623839936663 -0.06434201966603607 0.6549304472924877 0 1 0
867 289 1 0.5897 4.935470770599469 0.23374346411090263 5.313453377482844 0 1 0
387 129 1 0.5897 4.484220947872473 0.21582888709387898 1.242131731953872 0 1 0
16 6 2 -1.1794 0.2046569675685485 1.5354439818783585 2.222080967092557 0 0 0
98 33 1 0.5897 0.18520119991762396 5.229576061991458 3.9794132485163782 1 0 0
25 9 2 -1.1794 4.157693020657252 5.9901802175841725 0.6463461799805544 0 0 0
18 6 1 0.5897 0.018605069425682866 2.2171522689992504 1.5765026407253253 0 0 0
508 170 2 -1.1794 1.73161672711879 0.14129990060561348 10.621175938379809 0 0 0
528 176 1 0.5897 5.818802191421161 2.374184877433891 7.26761330346344 0 0 0
497 166 1 0.5897 -0.03862251602194331 0.8983932011096363 7.202312230979524 0 0 0
865 289 2 -1.1794 4.542765815673003 -0.10226994646794951 6.119058285720881 0 1 0
578 193 1 0.5897 0.22855911417470115 3.923145113018789 9.671101009756892 1 0 0
496 166 2 -1.1794 0.16852625123080583 1.6044276806385565 7.814469807541568 0 0 0
487 163 2 -1.1794 5.987275145163018 4.875156321814206 9.136199483160585 0 0 0
501 167 1 0.5897 4.574284747754684 4.211888487509637 6.3690739914593575 0 0 0
503 168 1 0.5897 0.5092356010642939 4.880760488624766 7.72469815201017 0 0 0
490 164 2 -1.1794 3.203895129876439 4.636539642949667 9.118596437101372 0 0 0
527 176 1 0.5897 5.945898319174165 0.8737066078020854 7.422626663889878 0 0 0
483 161 1 0.5897 4.57595080564374 1.9033629897789117 10.320750917607196 0 0 0
499 167 2 -1.1794 4.637364342053237 3.2780171043098747 6.1690109652761835 0 0 0
482 161 1 0.5897 5.19599652912081 1.2341104966857739 9.11275183140553 0 0 0
484 162 2 -1.1794 2.805444063984391 1.793771134464637 7.512795280924932 0 0 0
485 162 1 0.5897 3.124825675036136 1.573830519566708 8.38785431550516 0 0 0
502 168 2 -1.1794 1.2902427010214386 4.87292107898457 7.1714262628466665 0 0 0
493 165 2 -1.1794 1.620098061335571 2.824837263862936 10.648051333458708 0 0 0
500 167 1 0.5897 3.92124380827058 2.8780175074374506 6.662278834807949 0 0 0
489 163 1 0.5897 5.04460615975455 4.7940347119946205 8.991476353538461 0 0 0
504 168 1 0.5897 1.1418063765567747 4.154247097409203 6.556941130368043 0 0 0
492 164 1 0.5897 2.9532281349589207 3.831666442218115 9.571883888058466 0 0 0
498 166 1 0.5897 1.1208187568084778 1.6895762965748546 7.769250462506516 0 0 0
481 161 2 -1.1794 4.438221984598895 1.1914982977062594 9.695930797059882 0 0 0
494 165 1 0.5897 1.9655850520129912 1.942259167788035 10.781524590369596 0 0 0
491 164 1 0.5897 2.5783467113788334 4.710879409010351 8.397983682982792 0 0 0
486 162 1 0.5897 3.232194747406647 1.1607632093089226 6.935471951679281 0 0 0
629 210 1 0.5897 1.6427326741758488 5.933896854752365 9.982457797686388 0 0 0
961 321 2 -1.1794 4.220097876166428 1.535383118003524 15.639757638585541 0 0 0
962 321 1 0.5897 5.011697269183749 1.5535002314052968 15.102002111857818 0 0 0
964 322 2 -1.1794 2.654039762374677 1.5040860510177736 13.301146073434706 0 0 0
965 322 1 0.5897 2.854124783064997 1.3451896409090858 14.223544596266395 0 0 0
966 322 1 0.5897 1.6992614958403496 1.4585432422054774 13.251391392926687 0 0 0
970 324 2 -1.1794 3.34676216567594 4.544861957958841 14.795802579968582 0 0 0
971 324 1 0.5897 4.2963398563593564 4.49693382162951 14.685548538233107 0 0 0
972 324 1 0.5897 3.0888771493325913 3.6571506288765803 15.04395705817322 0 0 0
973 325 2 -1.1794 1.5985319605395032 2.966519785943509 16.561393189317606 0 0 0
975 325 1 0.5897 0.9100211843575338 3.305935753632349 15.989649942215946 0 0 0
982 328 2 -1.1794 1.1196703388096545 4.428311495470596 12.834959621129661 0 0 0
983 328 1 0.5897 1.0586366893317214 5.154332770065174 12.214252002018767 0 0 0
984 328 1 0.5897 1.9253450257457847 4.59720776313882 13.323322235502609 0 0 0
981 327 1 0.5897 5.226085069855903 2.5630258286500247 12.480727661201282 0 0 0
963 321 1 0.5897 4.348776257560443 0.7940106583510994 16.231297652043928 0 0 0
990 330 1 0.5897 1.4234785292558683 0.9922543888699786 16.448025446875306 0 0 0
980 327 1 0.5897 3.7396345607627204 2.4079239815001543 12.239599071963047 0 0 0
979 327 2 -1.1794 4.520171655972058 2.8448901330281884 11.89902207550984 0 0 0
987 329 1 0.5897 4.648705028513862 4.818943742712876 12.042798101799088 0 0 0
1347 449 1 0.5897 4.819741652067121 0.21236774937461528 11.679345142741017 0 1 0
1460 487 1 0.5897 4.576614766604158 2.841288884214839 16.90484788131058 0 0 0
988 330 2 -1.1794 1.426016831405178 0.05394485064637283 16.259116335945812 0 0 0
1058 353 1 0.5897 0.19486515196363402 4.529925806275953 14.22341172436967 1 0 0
976 326 2 -1.1794 -0.02355719001394338 1.4674775709912733 13.847455760294904 0 0 0
1346 449 1 0.5897 3.8364913788931037 -0.04495157569189584 12.80123508236247 0 1 0
1109 370 1 0.5897 0.8546699326552921 5.708315680120193 15.866244520898695 0 0 0
985 329 2 -1.1794 4.88449145342029 5.740248569678787 12.15106396959819 0 0 0
1110 370 1 0.5897 2.351378553376001 5.482104716806945 15.84670271745197 0 0 0
495 165 1 0.5897 1.5248008089934801 3.1813385257217637 11.531185877914073 0 0 0
1108 370 2 -1.1794 1.6747814919376975 6.037353190339929 16.234067029400215 0 0 0
1008 336 1 0.5897 5.928333701315327 0.7707148125914836 13.28119947005588 0 0 0
1488 496 1 0.5897 5.91425793916529 1.0145571808929712 18.688633066781897 0 0 0
1444 482 2 -1.1794 3.0596332219520455 1.7208303657045052 19.16354491915837 0 0 0
1445 482 1 0.5897 2.119356713568368 1.7463749859424929 18.986388193048988 0 0 0
1469 490 1 0.5897 1.6161260766054795 1.1845254468763289 22.04029083316771 0 0 0
1441 481 2 -1.1794 4.378871608982551 1.4198905953171541 21.59747586053789 0 0 0
1447 483 2 -1.1794 6.042749751319234 4.408265185205602 20.66847813473054 0 0 0
1487 496 1 0.5897 5.7766542735166535 1.514972462105855 20.11067876381521 0 0 0
1539 513 1 0.5897 0.01230443198910497 5.589892803721084 21.20119183676085 1 0 0
1442 481 1 0.5897 3.651362197557897 1.4912436238454936 20.97960311469552 0 0 0
1452 484 1 0.5897 2.8771149254920236 4.786305789693268 20.058268052972053 0 0 0
1454 485 1 0.5897 2.114119841049785 3.569498838556016 21.494240496443403 0 0 0
1456 486 2 -1.1794 0.09715399797004973 1.4461709032992218 19.22271299307498 0 0 0
974 325 1 0.5897 1.7299358192971996 3.6547503120023617 17.21345227784233 0 0 0
1826 609 1 0.5897 4.15694847481827 -0.13436924752780222 18.41456098848694 0 1 0
1462 488 2 -1.1794 1.7911521778589614 4.8185792784751404 18.666757200717242 0 0 0
1451 484 1 0.5897 4.21845204976486 4.857832832567736 20.756391632583686 0 0 0
1466 489 1 0.5897 4.679339603003796 5.206025733939572 17.704114443294955 0 0 0
1461 487 1 0.5897 5.462886022061338 2.859033980674106 18.131967632444876 0 0 0
1464 488 1 0.5897 0.9509455732441399 4.841238700288313 19.124663868741138 0 0 0
1453 485 2 -1.1794 1.5869213865462122 3.0082401012729956 22.06272488979524 0 0 0
1446 482 1 0.5897 3.447474050582069 2.2677700845237347 18.48050081914164 0 0 0
1459 487 2 -1.1794 4.871370394932643 3.4081804993984104 17.617492600102878 0 0 0
1443 481 1 0.5897 4.246679437965948 2.144625279601269 22.2085373914844 0 0 0
1463 488 1 0.5897 1.76336898795486 5.571854983033378 18.0769132856867 0 0 0
1450 484 2 -1.1794 3.276189695540433 4.8747565687273635 20.923737938919473 0 0 0
1468 490 2 -1.1794 1.546354761520942 0.24735288012584705 21.858755697772764 0 0 0
1455 485 1 0.5897 1.7421944955346944 3.3463768429324827 22.94457442660394 0 0 0
386 129 1 0.5897 4.978947191222335 0.3509151897075604 22.939378114895728 0 1 -1
121 41 2 -1.1794 4.587318611675405 7.96278025329595 3.9555692472111588 0 0 0
122 41 1 0.5897 3.7935187483842383 8.08674351163448 3.4353232361952784 0 0 0
123 41 1 0.5897 5.257672161983128 7.720847920600164 3.31664049138264 0 0 0
124 42 2 -1.1794 2.6581914353512017 7.8229658349383 1.965637991083247 0 0 0
126 42 1 0.5897 3.221447019527872 8.419405443417562 1.4725591023379603 0 0 0
130 44 2 -1.1794 3.1236392905475183 11.082233890553578 3.5044242155547582 0 0 0
132 44 1 0.5897 2.696383447488327 10.33227655084657 3.9181274789811296 0 0 0
133 45 2 -1.1794 1.5845695770136103 9.148134375876802 4.742651307813351 0 0 0
137 46 1 0.5897 0.9800730205113213 7.930330362392954 1.9306990297435362 0 0 0
139 47 2 -1.1794 4.257311720676661 9.512985059923446 0.4952829480486065 0 0 0
142 48 2 -1.1794 0.9555527441996583 10.922781747312797 1.3460088119026679 0 0 0
143 48 1 0.5897 1.7841448515214686 10.899938540022477 1.8246039096742603 0 0 0
125 42 1 0.5897 2.921730721074061 6.949578479504982 1.6760364916829416 0 0 0
135 45 1 0.5897 0.7395736697951565 9.457942133003678 4.416853465204199 0 0 0
129 43 1 0.5897 4.927713023045355 11.145604218128636 3.3102551156680082 0 0 0
144 48 1 0.5897 0.9757043963407177 11.753413681146775 0.8708630476329535 0 0 0
149 50 1 0.5897 1.475597365371555 7.451588510704973 4.634869510991979 0 0 0
131 44 1 0.5897 2.6863604361799647 11.8456062649499 3.8814803139923573 0 0 0
140 47 1 0.5897 4.2345671083056455 10.464447322387143 0.3936831109289013 0 0 0
168 56 1 0.5897 5.841069317405722 8.258487031675687 1.197073491222337 0 0 0
136 46 2 -1.1794 0.027757528520815186 7.934200418772736 2.026778019762364 0 0 0
148 50 2 -1.1794 1.5139788053008179 6.504139914105908 4.765207973812114 0 0 0
1574 525 1 0.5897 1.2043768672783333 9.676949361904828 0.11118083641684123 0 0 1
166 56 2 -1.1794 6.075591530910954 7.561078259723684 1.8092274211459833 0 0 0
26 9 1 0.5897 4.952813342119934 6.298127240974998 1.081193628217832 0 0 0
127 43 2 -1.1794 5.883018083957966 11.191674694835834 3.347948328560427 0 0 0
218 73 1 0.5897 0.021415902753452315 11.078266998231777 2.8538909504605563 1 0 0
128 43 1 0.5897 6.065212162750964 11.854662201369138 4.013802262176266 0 0 0
145 49 2 -1.1794 4.664367290246114 12.321588528122135 0.3812777047282436 0 0 0
621 207 1 0.5897 4.621767130689155 8.754463563227356 5.74202778154426 0 0 0
507 169 1 0.5897 4.465361299365874 6.602023451649692 5.624784347910555 0 0 0
699 233 1 0.5897 0.2151231463455751 10.779925076860092 8.43959331149116 1 0 0
698 233 1 0.5897 0.2864519239222579 11.432094715396284 9.80383504499987 1 0 0
1101 367 1 0.5897 4.328551756383574 8.727834290178423 11.362274988173365 0 0 0
505 169 2 -1.1794 4.52394712363673 6.24734073875265 6.511846388120072 0 0 0
601 201 2 -1.1794 4.446605285225127 7.5672080090643945 10.028475030913832 0 0 0
506 169 1 0.5897 3.921401749276792 6.785096939360721 7.025558603876411 0 0 0
605 202 1 0.5897 2.9177439287540112 8.500966062917712 7.861239324587515 0 0 0
619 207 2 -1.1794 4.623371243518472 9.2960271665017 6.5312160942459645 0 0 0
648 216 1 0.5897 5.748740891468222 6.982007516022635 7.522209229987512 0 0 0
134 45 1 0.5897 1.6443435999965526 9.502634986839468 5.62970189314398 0 0 0
603 201 1 0.5897 3.6976453798978977 7.544759210196345 9.43291355348278 0 0 0
602 201 1 0.5897 4.452121771438192 6.702963380410247 10.439773144626095 0 0 0
606 202 1 0.5897 1.5987784431793783 7.771483628689104 8.002154964260088 0 0 0
610 204 2 -1.1794 3.2926827556093636 10.511207384899718 9.156693526617364 0 0 0
620 207 1 0.5897 5.306534635220228 8.914668537000097 7.082566308727763 0 0 0
611 204 1 0.5897 4.232911184942182 10.615325887860482 9.010767576054063 0 0 0
613 205 2 -1.1794 1.5042653975968783 9.022526538646465 10.673879557259955 0 0 0
614 205 1 0.5897 2.2599329900108547 9.395024329714754 10.219626892069297 0 0 0
647 216 1 0.5897 5.820653044927421 7.774256994790325 8.81013099341681 0 0 0
604 202 2 -1.1794 2.544786270779101 7.6275097222353105 7.979970408850875 0 0 0
624 208 1 0.5897 1.401612982906482 11.535106358019505 6.403630039234429 0 0 0
612 204 1 0.5897 3.075274989198879 11.179335238655348 9.806659433616836 0 0 0
622 208 2 -1.1794 1.318737075887897 10.825607879883314 7.040696090996362 0 0 0
628 210 2 -1.1794 1.283215816869472 6.24404741634943 10.813519023478499 0 0 0
615 205 1 0.5897 0.7474393622566826 9.440990340125918 10.263712808863643 0 0 0
623 208 1 0.5897 2.118824044609762 10.87781597278782 7.563450441984104 0 0 0
630 210 1 0.5897 1.5252891812879408 7.1693793474977605 10.84928063595955 0 0 0
626 209 1 0.5897 4.41418301111715 11.258500506717706 6.245291392646107 0 0 0
625 209 2 -1.1794 4.5525744876371474 12.204147481795253 6.1931401669731665 0 0 0
150 50 1 0.5897 1.562596431992338 6.394319899196676 5.7147752380714145 0 0 0
627 209 1 0.5897 5.322636058173623 12.36441795731958 6.738537059895839 0 0 0
1106 369 1 0.5897 4.419504817997161 12.249966297994133 11.227884974329564 0 0 0
750 250 1 0.5897 1.551597970839103 12.090421143441565 11.401804532891784 0 0 0
1081 361 2 -1.1794 4.4673172693054894 7.897323956209183 15.743749616958688 0 0 0
1083 361 1 0.5897 4.49295819388409 7.1416801709823154 16.330651577307172 0 0 0
1084 362 2 -1.1794 2.8296331487279027 7.6239472225063905 13.428135874461486 0 0 0
1086 362 1 0.5897 3.317549324807709 8.344978678739608 13.030421257354742 0 0 0
1089 363 1 0.5897 4.715260842998512 10.787585064713241 15.06399096014429 0 0 0
1090 364 2 -1.1794 3.036101699434552 10.931035611562063 15.094387119263038 0 0 0
1092 364 1 0.5897 2.700940930394486 10.144850137399281 15.525324648615223 0 0 0
1097 366 1 0.5897 1.110583973348459 7.536856961563658 13.316130576289696 0 0 0
1099 367 2 -1.1794 4.484991959537716 9.341922520556396 12.079583488914242 0 0 0
1102 368 2 -1.1794 1.337975561269722 10.84595255624634 12.798839880309853 0 0 0
1103 368 1 0.5897 1.4553268244675688 9.932468228019985 12.538275312666475 0 0 0
1100 367 1 0.5897 5.287814036171181 9.026667546897066 12.494587110018237 0 0 0
1091 364 1 0.5897 2.625538940682391 11.656256965314457 15.565142511190182 0 0 0
1095 365 1 0.5897 0.7026294926982198 8.91826410385278 16.091325262706512 0 0 0
1093 365 2 -1.1794 1.5271248346414497 8.882629689102508 16.576181161013515 0 0 0
1094 365 1 0.5897 1.7602760804133666 7.954355793301197 16.585212028385236 0 0 0
1085 362 1 0.5897 3.1019950062863852 7.627222744128367 14.345693913829223 0 0 0
1107 369 1 0.5897 4.375926224897725 11.213274689838874 12.33014030084224 0 0 0
1082 361 1 0.5897 4.623260858455589 8.649779013964476 16.314368583667843 0 0 0
1104 368 1 0.5897 1.9296291980924098 10.961314447276683 13.542319609857987 0 0 0
1128 376 1 0.5897 6.017080418068597 7.251703797486279 12.95877039416143 0 0 0
1087 363 2 -1.1794 5.6685003626368795 10.703202356765557 15.083182522706782 0 0 0
1098 366 1 0.5897 -0.04135535805839502 7.604020665961337 14.29601095045385 0 0 0
1105 369 2 -1.1794 4.3086235016680385 12.155166450544154 12.173835281314826 0 0 0
1127 376 1 0.5897 5.776929570708913 8.179080534960967 14.13089722433219 0 0 0
1096 366 2 -1.1794 0.17088704116116898 7.71104906010995 13.368862936366465 0 0 0
1179 393 1 0.5897 0.13591553097489525 10.93913398561041 14.096021154011561 1 0 0
1178 393 1 0.5897 0.245874900053486 11.491831366941113 15.501018110335039 1 0 0
1088 363 1 0.5897 5.949120672025085 11.307420494520267 15.770417467415484 0 0 0
986 329 1 0.5897 4.121385086496238 6.135302831541248 12.572654701904494 0 0 0
1709 570 1 0.5897 1.135476155411046 12.294679645765827 21.514064890497657 0 0 0
1588 530 2 -1.1794 1.313392141107939 6.413028508481521 22.299589383422983 0 0 0
141 47 1 0.5897 4.190163165612103 9.174641792851277 22.723992652749196 0 0 -1
1576 526 2 -1.1794 -0.009184802952827587 7.842185047448479 19.293508704050154 0 0 0
1467 489 1 0.5897 5.201847444687016 6.4583031917358715 18.375249198377624 0 0 0
1567 523 2 -1.1794 5.974690152681229 10.662922287404756 20.684058278683622 0 0 0
1581 527 1 0.5897 3.9277339282193253 8.882826561356293 18.51577213975647 0 0 0
1566 522 1 0.5897 2.968087713386612 7.095360083329885 18.793845617140356 0 0 0
1710 570 1 0.5897 2.526388731789551 12.197873102924218 22.103707825724236 0 0 0
1580 527 1 0.5897 5.43559663729906 8.92715471637663 18.388944785312113 0 0 0
1587 529 1 0.5897 4.500964246206369 11.196921268443514 18.00184098703395 0 0 0
1565 522 1 0.5897 1.7868984207879994 7.8425379719346635 19.37537580093766 0 0 0
1562 521 1 0.5897 4.446280332484921 6.929633078000613 22.233116374407153 0 0 0
1579 527 2 -1.1794 4.6412595660152585 9.402679798824215 18.145950280920538 0 0 0
1589 530 1 0.5897 1.1941747315375537 7.362590529971267 22.31493126771104 0 0 0
1571 524 1 0.5897 2.8497759120668684 10.323186769632287 20.103752122995296 0 0 0
1573 525 2 -1.1794 1.2102831185671739 9.209536542016156 22.397485388753097 0 0 0
1564 522 2 -1.1794 2.728954217023294 7.713166256454694 19.48467220040917 0 0 0
1582 528 2 -1.1794 1.6966719926223666 10.859483205969063 18.615384075985077 0 0 0
1570 524 2 -1.1794 3.2881783705833048 10.540298024774454 20.926418355603964 0 0 0
1572 524 1 0.5897 4.207078890994817 10.656836481289696 20.685197124384764 0 0 0
1561 521 2 -1.1794 4.684735891646677 7.658607569045089 21.66053507647254 0 0 0
1563 521 1 0.5897 4.064329264738425 7.605646362876686 20.933614690106353 0 0 0
1575 525 1 0.5897 2.068246130279202 9.40341635876769 22.02005572141843 0 0 0
1584 528 1 0.5897 1.362431605668897 10.273883118832826 17.936065484050552 0 0 0
1583 528 1 0.5897 0.9393074520251965 11.03702768140696 19.173072003582043 0 0 0
1585 529 2 -1.1794 4.451880853061743 12.136627841540118 17.826738346982303 0 0 0
1658 553 1 0.5897 0.07162973643513254 10.194971937631463 21.350792312632436 1 0 0
1230 410 1 0.5897 1.6160299939343272 12.196920412700566 17.357355627937565 0 0 0
1608 536 1 0.5897 5.917790201056315 7.722278555931672 20.181752821237893 0 0 0
1465 489 2 -1.1794 4.486828232664123 6.135539493512712 17.826877270601607 0 0 0
1590 530 1 0.5897 2.098040104446871 6.278234800786447 21.76827814313264 0 0 0
241 81 2 -1.1794 4.46746041276254 14.224971913056853 4.095649539924266 0 0 0
242 81 1 0.5897 4.333660909540682 13.305431183716314 4.3251284123716935 0 0 0
243 81 1 0.5897 3.8987210161541155 14.368768408183628 3.3393545559791673 0 0 0
244 82 2 -1.1794 2.746169209973873 14.089807168544649 1.9311675475239087 0 0 0
245 82 1 0.5897 1.7958950958454805 14.102633405335327 1.8172824245459578 0 0 0
246 82 1 0.5897 3.065726635731704 14.788537435819228 1.360397670368817 0 0 0
250 84 2 -1.1794 3.5557388934141523 17.17792855586959 3.282703155086704 0 0 0
251 84 1 0.5897 3.056684091382967 17.21026950866178 2.4666055727912077 0 0 0
252 84 1 0.5897 4.470888961902585 17.226313243841695 3.0064681201836296 0 0 0
253 85 2 -1.1794 1.6307290320086494 15.441528071798217 4.6516542722436105 0 0 0
255 85 1 0.5897 2.452661694700458 15.766773103772106 4.284528401740266 0 0 0
259 87 2 -1.1794 4.88512772392987 15.849407549212936 0.5366854741962495 0 0 0
262 88 2 -1.1794 1.4166738020490584 16.924968698232348 1.095074887635303 0 0 0
263 88 1 0.5897 1.308342788048643 16.28335774652988 0.3931447998008838 0 0 0
264 88 1 0.5897 1.3930821294789677 17.77260440819466 0.6511503921864494 0 0 0
254 85 1 0.5897 0.9498684485629334 15.895919333021807 4.155583034035584 0 0 0
269 90 1 0.5897 1.5353251836409056 13.6730169870308 4.698990495225151 0 0 0
260 87 1 0.5897 4.632898229577818 16.754326691010576 0.35332952331599976 0 0 0
268 90 2 -1.1794 1.4728768217513573 12.769192371763344 5.007746409601681 0 0 0
265 89 2 -1.1794 4.303329530814738 18.440195931449196 0.540733165309329 0 0 0
339 113 1 0.5897 0.36312786371704653 17.84725694487026 3.641486070705424 1 0 0
389 130 1 0.5897 2.404159705484852 18.490665893538093 4.247195023538503 0 0 0
287 96 1 0.5897 5.90427488288825 13.943312905008229 2.6421738048642296 0 0 0
146 49 1 0.5897 5.463189568607343 12.588488787717019 0.836014019990622 0 0 0
740 247 1 0.5897 4.790691288313711 15.53021632473109 5.47660773695411 0 0 0
288 96 1 0.5897 6.0917651086478575 14.787115509369285 1.3994249378530046 0 0 0
338 113 1 0.5897 0.2727020316021347 17.00756474375386 2.385172186755537 1 0 0
147 49 1 0.5897 3.9628096565900384 12.789858390612396 0.8336848510055763 0 0 0
270 90 1 0.5897 0.6941795312867683 12.420637935066628 4.573839372781899 0 0 0
1221 407 1 0.5897 4.674721319340824 15.054775178930578 11.296273137625553 0 0 0
818 273 1 0.5897 0.3003106177776474 17.170496529442275 8.175118356637515 1 0 0
738 246 1 0.5897 0.09176054022772306 13.77401299706758 8.365974837461879 0 0 0
722 241 1 0.5897 3.72313787851244 14.022732022259815 9.557471012507229 0 0 0
734 245 1 0.5897 1.366885865306928 15.817601711284762 11.045866237848449 0 0 0
739 247 2 -1.1794 5.097357128425716 16.056461397196244 6.214938543905874 0 0 0
737 246 1 0.5897 1.420370364020849 14.045576716517008 7.693132229187869 0 0 0
736 246 2 -1.1794 0.47812219714826365 14.022830746925568 7.526378980077023 0 0 0
721 241 2 -1.1794 4.514218385892423 13.765218304626202 10.030789294420018 0 0 0
869 290 1 0.5897 0.8681598654132884 18.54138725793836 10.112550837639139 0 0 0
728 243 1 0.5897 5.25964054196995 17.15803128454378 8.952059517021866 0 0 0
870 290 1 0.5897 2.3432146857276623 18.29050975383514 10.342703617720996 0 0 0
725 242 1 0.5897 3.459595172279137 13.586626264232448 6.939624171967072 0 0 0
733 245 2 -1.1794 1.6518833111531166 15.30807503143156 10.28740028941753 0 0 0
724 242 2 -1.1794 3.1936372152642645 14.380562605983458 7.403357524835542 0 0 0
730 244 2 -1.1794 3.305013116949068 17.249674626003504 9.108675569087396 0 0 0
743 248 1 0.5897 1.686445372033637 17.871774682733374 6.19073596596208 0 0 0
726 242 1 0.5897 3.8696576855569846 15.022688278278613 7.187005700963472 0 0 0
744 248 1 0.5897 1.6948761940927652 16.3712559556678 6.390680062366231 0 0 0
749 250 1 0.5897 1.3718661113123578 13.448611991846192 10.75789796469055 0 0 0
742 248 2 -1.1794 1.5410702679581276 17.195505335322025 6.852275058903483 0 0 0
732 244 1 0.5897 2.843277962598186 16.467372053899403 9.410215678895106 0 0 0
741 247 1 0.5897 5.08649769856079 16.956376111493903 5.889127633214681 0 0 0
723 241 1 0.5897 5.230680249691927 13.96996263962774 9.430045749099301 0 0 0
731 244 1 0.5897 2.879346260875435 17.47576233254155 8.281751531918639 0 0 0
735 245 1 0.5897 1.0719271525468759 15.587369212935904 9.579043459314054 0 0 0
748 250 2 -1.1794 1.501452073920329 12.523424475611103 10.549689856438588 0 0 0
1201 401 2 -1.1794 4.208499083451363 13.723285057224679 15.648361290170076 0 0 0
1204 402 2 -1.1794 2.681172696532902 13.945788644364148 13.320728092540035 0 0 0
1205 402 1 0.5897 2.9986292785330404 13.792621833567637 14.210598137968963 0 0 0
1206 402 1 0.5897 3.216188880611569 13.371516246485308 12.77291926543691 0 0 0
1210 404 2 -1.1794 3.1825838743093233 17.170317303407337 14.835944369417833 0 0 0
1212 404 1 0.5897 4.108419308936239 17.390359349782237 14.733170595566637 0 0 0
1213 405 2 -1.1794 1.5289201074945842 15.241900169761626 16.236943354817853 0 0 0
1215 405 1 0.5897 2.285469829902811 15.807781933818077 16.083473418338578 0 0 0
1218 406 1 0.5897 0.9898746930079791 14.06117152937992 13.516716958138542 0 0 0
1222 408 2 -1.1794 1.1671399183560753 17.06167765989545 12.57346497454466 0 0 0
1224 408 1 0.5897 1.9318163222362066 16.86782518733647 13.115521955525024 0 0 0
1202 401 1 0.5897 4.965781803969961 13.801023740212738 15.068174595655979 0 0 0
1229 410 1 0.5897 1.5638596218072842 13.427654559318194 16.477485133914982 0 0 0
1203 401 1 0.5897 4.435910354585443 13.010718618067845 16.245562275014024 0 0 0
1223 408 1 0.5897 1.3892581558214223 17.879725767901746 12.12897055340695 0 0 0
1214 405 1 0.5897 0.9298944284580348 15.44175425442141 15.517671644202347 0 0 0
1220 407 1 0.5897 3.865078165892944 15.166224590310195 12.57050435409016 0 0 0
1211 404 1 0.5897 2.768516068114763 17.991902405484794 15.099924446691023 0 0 0
1219 407 2 -1.1794 4.604142416777763 15.55944198926708 12.106481845554189 0 0 0
1227 409 1 0.5897 4.539729408002214 17.596010532632086 12.076918259396201 0 0 0
1228 410 2 -1.1794 1.3746649500487553 12.489393055608408 16.478546069217288 0 0 0
1350 450 1 0.5897 0.7133007898264864 18.415110944008383 16.232551055493943 0 0 0
1216 406 2 -1.1794 0.05254806172187848 14.113331658785853 13.70340003448629 0 0 0
1247 416 1 0.5897 5.908369332940188 14.605150913750721 13.20146907042582 0 0 0
1207 403 2 -1.1794 5.961651061793434 17.084305216586927 15.01358888775603 0 0 0
1248 416 1 0.5897 5.621882963231818 13.118938481897292 13.174793698844612 0 0 0
1700 567 1 0.5897 4.379967175444267 15.197405610451574 16.748592953812555 0 0 0
1225 409 2 -1.1794 4.425004276197329 18.538924161631293 11.959134070171476 0 0 0
1246 416 2 -1.1794 6.11798956962151 13.785745284578706 13.649526475604093 0 0 0
1586 529 1 0.5897 5.207342446806016 12.505733697594703 18.284094617840232 0 0 0
1696 566 2 -1.1794 0.3476099190628464 14.088851818231088 19.505218723209012 0 0 0
1778 593 1 0.5897 0.002744718309569752 17.143253103054967 19.968200093574886 1 0 0
1728 576 1 0.5897 5.9920849363478 14.389584213913476 18.492019311660883 0 0 0
1779 593 1 0.5897 0.20009939366658824 17.77954469104788 21.327521818019513 1 0 0
261 87 1 0.5897 4.90697948155449 15.427639746590824 22.799295597677755 0 0 -1
1707 569 1 0.5897 4.6177299030836085 17.389411375356076 17.72283811738611 0 0 0
1693 565 2 -1.1794 1.47858290679352 15.249706378354562 22.041997694596567 0 0 0
1682 561 1 0.5897 5.220520284170287 13.925303302353191 20.646514235153887 0 0 0
1708 570 2 -1.1794 1.6607169411922251 12.573421693416234 22.264094126549132 0 0 0
1691 564 1 0.5897 2.685572540147996 16.493411012238987 21.268679463996193 0 0 0
1703 568 1 0.5897 1.442941447904398 16.33409447940729 18.096174744534473 0 0 0
1704 568 1 0.5897 1.6846904762848658 17.82811372091585 18.128922605068546 0 0 0
1705 569 2 -1.1794 4.511399532286069 18.318801927369833 17.92544814533168 0 0 0
1701 567 1 0.5897 3.891599024287839 15.435960101375956 18.16145939071115 0 0 0
1685 562 1 0.5897 3.4783740095264 13.294575697257057 18.660318467940712 0 0 0
1702 568 2 -1.1794 1.57034123642155 17.067210468935073 18.69818811143611 0 0 0
1689 563 1 0.5897 5.024808169169763 17.616749952529474 20.698864259564743 0 0 0
1699 567 2 -1.1794 4.641443040481174 15.582501119218719 17.584921742978494 0 0 0
1683 561 1 0.5897 4.669118674386993 13.286997218124716 21.903542470239714 0 0 0
1695 565 1 0.5897 1.6016199913090614 14.30491936655236 21.95051868283045 0 0 0
1681 561 2 -1.1794 4.578238303984942 14.05795951780739 21.343654814650286 0 0 0
1684 562 2 -1.1794 3.020080834416655 14.036950951916918 19.05398200423891 0 0 0
1690 564 2 -1.1794 3.1631967622497212 17.245271856277633 20.918385637305406 0 0 0
1694 565 1 0.5897 0.9234473810696193 15.492263726544296 21.30097350682106 0 0 0
1697 566 1 0.5897 1.291369080406273 14.042896923393362 19.35238713713106 0 0 0
1686 562 1 0.5897 3.269415487362989 14.010430091794777 19.977688622092955 0 0 0
1692 564 1 0.5897 2.873256288592082 17.311057945296277 20.00858684457512 0 0 0
1687 563 2 -1.1794 5.952652672892055 17.851127714478885 20.71704236545707 0 0 0
1698 566 1 0.5897 -0.009640415282622772 14.449361879367206 18.693727794788195 0 0 0
361 121 2 -1.1794 4.862097349514176 20.730996054891023 3.98772158097049 0 0 0
362 121 1 0.5897 4.114973696286282 20.56074010994221 3.41416433192059 0 0 0
364 122 2 -1.1794 3.0618326776920126 20.324040606628785 1.9874291538918731 0 0 0
365 122 1 0.5897 3.237575789537201 20.960071350306386 1.2941089301286357 0 0 0
370 124 2 -1.1794 3.4439918174441337 23.420198889955486 3.3066759110313817 0 0 0
371 124 1 0.5897 4.3812545644787235 23.246998541685343 3.218960235481482 0 0 0
372 124 1 0.5897 3.1450342336638486 22.79449495435255 3.9663985860476574 0 0 0
373 125 2 -1.1794 1.759241359666956 21.608636940267182 4.6476042534570166 0 0 0
375 125 1 0.5897 0.9718681734314227 21.83524513052391 4.152802275703657 0 0 0
382 128 2 -1.1794 1.7962447043840952 23.483909174307932 1.1793191354523338 0 0 0
383 128 1 0.5897 2.549179494929138 23.39850321948775 1.7640628387886679 0 0 0
390 130 1 0.5897 1.667639901086969 19.763150007837808 4.607693876328611 0 0 0
384 128 1 0.5897 1.9703153983394088 22.86329276660185 0.4717590927878863 0 0 0
363 121 1 0.5897 4.903184733980618 19.966151193331072 4.5616850600953205 0 0 0
366 122 1 0.5897 2.2029786908273987 20.572631352790793 2.3290691437485145 0 0 0
381 127 1 0.5897 5.491003512065168 21.83679896035654 0.7951733729936438 0 0 0
379 127 2 -1.1794 4.705184218962888 22.302248086882564 0.5088430832134554 0 0 0
380 127 1 0.5897 4.9526591155781805 23.226603098042887 0.5300967605778419 0 0 0