LAMMPS data file via write_data, version 30 Jul 2021, timestep = 3250000

864 atoms
2 atom types
576 bonds
1 bond types
288 angles
1 angle types

0.20721302758332705 18.0003593724145 xlo xhi
1.3356008460003999 22.293576954001466 ylo yhi
0.25279940966031234 21.960396390339795 zlo zhi

Masses

1 1.00794
2 15.9994

Pair Coeffs # lj/cut/tip4p/long/omp

1 0 0
2 0.21084 3.1668

Bond Coeffs # harmonic/omp

1 450 0.9572

Angle Coeffs # harmonic/omp

1 55 104.52

Atoms # full

702 1 1 0.5897 2.8080078326166364 5.194070522310952 0.8240110863187566 3 1 3
700 1 2 -1.1794 3.377144934252171 4.878694026724896 1.5260042813231285 3 1 3
207 1 1 0.5897 3.7291507048271337 3.5837215523923653 0.28453663469135954 -5 4 -3
647 1 1 0.5897 3.0724701077151972 3.875924282500422 3.45253896446112 -6 0 0
474 1 1 0.5897 2.8236660488352787 1.7655122432801917 1.0791596945024975 0 1 -1
646 1 2 -1.1794 3.0557562000686853 3.4124335501348817 4.28983928483943 -6 0 0
320 1 1 0.5897 1.952689929029354 1.7270680810173498 4.562894326466527 2 -2 1
648 1 1 0.5897 2.562392073130867 3.988838508098546 4.873388724055188 -6 0 0
261 1 1 0.5897 1.0642657560579891 2.8421293643260626 2.303489367446439 1 -2 6
259 1 2 -1.1794 0.34134785911880905 3.4493058883588437 2.461349062929473 1 -2 6
701 1 1 0.5897 4.189214055302343 5.373538955928032 1.417155917111956 3 1 3
472 1 2 -1.1794 2.206527917419302 1.4636641530506103 1.745644745051094 0 1 -1
531 1 1 0.5897 4.643445582146887 3.8936778562172796 4.446698940334465 -2 -1 -4
206 1 1 0.5897 4.568098898417579 2.344546340715617 0.5133643251199012 -5 4 -3
312 1 1 0.5897 2.3916147231407576 5.477974936497379 7.066872464309348 -1 2 3
30 1 1 0.5897 1.737257148770912 5.635495453610041 10.078944991556813 -7 1 5
516 1 1 0.5897 3.685556998276588 2.900224437044688 8.48257885965045 -3 -3 0
29 1 1 0.5897 2.8307425497358705 4.588618244803918 10.088385862507979 -7 1 5
415 1 2 -1.1794 0.8066563831336846 1.9578136346071795 7.576171214683532 0 -2 0
416 1 1 0.5897 1.7002472830922104 2.2998536135252454 7.602343027345932 0 -2 0
166 1 2 -1.1794 4.438932027585671 3.476416624530853 10.002354377399985 -3 0 3
514 1 2 -1.1794 3.348456155754679 2.8743101564635425 7.587082938340085 -3 -3 0
630 1 1 0.5897 0.2582427663527608 5.934621188302232 8.553596521805115 -1 -3 4
515 1 1 0.5897 4.0351216248542 2.4356770664410035 7.084794848196741 -3 -3 0
196 1 2 -1.1794 4.0352524573843525 6.19939890926882 8.064924635196402 -2 -2 1
28 1 2 -1.1794 2.2062735246789065 5.036063784374665 10.659355087226706 -7 1 5
168 1 1 0.5897 4.091472221267461 3.008430764887922 10.761588406055946 -3 0 3
310 1 2 -1.1794 2.015540214199401 5.2928503886063645 6.206363729199857 -1 2 3
311 1 1 0.5897 1.4975653174631756 6.070455740899766 5.998507658426366 -1 2 3
819 1 1 0.5897 0.8699527380034996 3.9549293888271664 14.02180808979292 3 -2 1
13 1 2 -1.1794 3.8419732984377997 3.798726188936053 15.261502373207005 0 -4 -4
801 1 1 0.5897 1.0442541210525766 1.8081625970332664 14.503152714085129 0 -1 3
15 1 1 0.5897 4.149570814661269 2.894627740738115 15.196957009041776 0 -4 -4
533 1 1 0.5897 3.242234865222934 5.47226923569754 12.027116861306725 -6 -2 -1
818 1 1 0.5897 1.8192001560788214 3.7582817091974876 15.184573481790974 3 -1 1
534 1 1 0.5897 3.3721278416117935 5.281839870211423 13.523331935154156 -6 -2 -1
827 1 1 0.5897 0.9943426943628385 4.389544773654032 11.72470148927026 0 2 2
532 1 2 -1.1794 3.835582154345895 5.629724576688204 12.761514911351567 -6 -2 -1
490 1 2 -1.1794 3.149190695512389 1.9412900499621808 11.98409856144314 0 4 3
14 1 1 0.5897 4.08523132036181 4.072403529917867 16.145901862682887 0 -4 -4
817 1 2 -1.1794 0.888715293741813 3.7678475171185277 14.960332440368457 3 -1 1
758 1 1 0.5897 0.27174362646303707 5.282400870013081 15.331722458123785 1 2 2
491 1 1 0.5897 3.9485512715448183 1.767588551832304 12.481146886546767 0 4 3
826 1 2 -1.1794 0.37731543780068316 4.214398339885557 12.435177377207797 0 2 2
234 1 1 0.5897 2.8218098526903717 1.8902190580395652 18.93026668181045 -2 2 0
466 1 2 -1.1794 1.8242556383806812 5.872582125293227 21.168136835092003 4 -1 6
156 1 1 0.5897 1.4686475040501639 5.382115394015359 19.254832590447464 4 3 -5
205 1 2 -1.1794 3.9375581572103093 2.7300417332301845 21.612692258112283 -5 4 -4
154 1 2 -1.1794 1.6477905471514451 5.32323324054554 18.316421928251444 4 3 -5
233 1 1 0.5897 3.828560870217734 2.0250373708744647 20.05277444231194 -2 2 0
696 1 1 0.5897 0.4571915060777242 3.1464270640279004 18.79381277205409 2 -1 -1
591 1 1 0.5897 4.46916295628363 3.240895402648416 18.294810337054578 2 5 2
155 1 1 0.5897 1.4614222702617363 4.411276860247832 18.09329841063218 4 3 -5
232 1 2 -1.1794 3.7022949695539884 1.6226252694756698 19.193531860426297 -2 2 0
694 1 2 -1.1794 1.2177300128102628 2.685309000510546 18.440057439270152 2 -1 -1
467 1 1 0.5897 0.9715879029244707 6.15194637350561 21.50142850842344 4 -1 6
695 1 1 0.5897 0.8486598818058482 2.045427267395829 17.83135853327793 2 -1 -1
618 1 1 0.5897 3.9170908358169716 6.129210034233833 18.32952762082832 0 2 0
567 1 1 0.5897 1.5427667523157866 10.936343377674461 2.620510118815816 -1 5 -5
724 1 2 -1.1794 3.4762193014018865 7.923679095122861 3.6055915219424035 2 -5 3
565 1 2 -1.1794 0.7042971763605772 10.575472881752152 2.332545089835084 -1 5 -5
520 1 2 -1.1794 0.6029780496400767 8.078976340512257 1.2008993147938543 -3 0 -2
710 1 1 0.5897 4.358767466029613 10.547954055532033 2.082072624575704 -5 -3 -1
725 1 1 0.5897 2.6821877609677327 7.659217244483752 3.1411075767434444 2 -5 3
726 1 1 0.5897 3.234797135326845 7.891287425450498 4.531273557717295 2 -5 3
521 1 1 0.5897 0.6295857861938194 8.916401839608348 1.663702806230335 -3 0 -2
622 1 2 -1.1794 0.34361082223644956 11.686087123330884 5.256139592578654 5 -1 2
711 1 1 0.5897 4.398943586411415 9.110840379717908 2.556238465030466 -5 -3 -1
566 1 1 0.5897 0.4062667892720919 11.176323150726203 1.6496590431101321 -1 5 -5
177 1 1 0.5897 2.7337408350267154 8.613145380266129 6.887668026501731 -1 -3 6
299 1 1 0.5897 1.7229949788328522 8.008056646402041 10.117546823117527 -4 -1 0
428 1 1 0.5897 2.483111421565405 10.201531463338446 10.187390111941163 2 0 -3
286 1 2 -1.1794 1.4004335731398636 9.909405389845736 7.526402711529272 3 1 1
427 1 2 -1.1794 2.4239548088203295 11.123759690959542 9.937987556915886 2 0 -3
288 1 1 0.5897 1.687097056824491 10.619888193756147 8.10019926479372 3 1 1
270 1 1 0.5897 0.4625152826697907 10.148688017478579 10.483714522993363 2 5 6
287 1 1 0.5897 0.9017439145521078 10.345337875809527 6.83541673433025 3 1 1
175 1 2 -1.1794 3.5454377169090736 8.301783122426603 6.487202116296822 -1 -3 6
629 1 1 0.5897 0.6483980840333075 7.140104973980443 7.7251460341251805 -1 -3 4
176 1 1 0.5897 3.733568078546917 7.477453127547823 6.935837498969709 -1 -3 6
429 1 1 0.5897 2.289389173373023 11.587660193229176 10.76434287671619 2 0 -3
680 1 1 0.5897 4.255077785311676 8.040871741270482 10.728898794492208 -6 -5 0
628 1 2 -1.1794 0.5743043395455303 6.834921909439107 8.629332461091927 -1 -3 4
561 1 1 0.5897 3.6341984151778814 11.760057958703491 6.194419567391628 5 0 2
298 1 2 -1.1794 2.2784179519340815 8.443687251126708 10.76404324415223 -4 -1 0
197 1 1 0.5897 4.46065471427141 6.812509942283169 8.664347399933067 -2 -2 1
837 1 1 0.5897 4.487223568270049 9.897025643411743 6.592818656839698 -1 1 -1
328 1 2 -1.1794 1.0689258054473787 7.485351086140772 13.283473548943757 4 6 0
462 1 1 0.5897 2.650569292854369 10.391089015806369 14.370293234114177 3 3 -1
460 1 2 -1.1794 1.7661007956852843 10.025254329811391 14.378235329718988 3 3 -1
128 1 1 0.5897 0.3484635906207804 10.786202791171377 13.795803005428803 -1 1 -5
330 1 1 0.5897 1.3900032136581952 8.317382901491019 13.631043546952379 4 6 0
461 1 1 0.5897 1.6927008231672669 9.593306437281313 15.229258632913892 3 3 -1
300 1 1 0.5897 1.9745215360117299 8.107245661712714 11.607058289532395 -4 -1 0
772 1 2 -1.1794 4.527077834061487 10.740622016613735 14.420068714696264 2 -4 3
482 1 1 0.5897 4.565217046044794 7.192356984348236 13.346184553024731 0 3 -1
759 1 1 0.5897 0.2643677556278931 6.661538611333807 14.707462963019076 1 2 2
317 1 1 0.5897 4.626473804561342 11.448401553132786 16.2222389817128 -4 -4 -1
278 1 1 0.5897 3.6137779117772273 11.049858677391875 18.56530931712406 0 0 1
649 1 2 -1.1794 1.5966508207327668 8.735499907086172 20.183547682684942 2 -1 -1
651 1 1 0.5897 2.280966537361236 9.30012785687694 19.824260848754722 2 -1 -1
575 1 1 0.5897 2.716466123044195 8.13152983591012 17.105617123621247 3 0 -1
277 1 2 -1.1794 3.451758102124882 10.622257698570493 19.406213470141385 0 0 1
574 1 2 -1.1794 1.9017577663674246 8.517946098438903 16.784521893352128 3 0 -1
576 1 1 0.5897 1.2909396284465267 7.7827279564563 16.73419589867668 3 0 -1
650 1 1 0.5897 1.3053359422876518 9.186099810695467 20.976200719883124 2 -1 -1
279 1 1 0.5897 4.32231948474646 10.49997085510682 19.784965064373473 0 0 1
468 1 1 0.5897 2.289247232089347 6.688791740632046 20.984404229265863 4 -1 6
616 1 2 -1.1794 4.0802081985110945 7.06158638158918 18.18726581800117 0 2 0
512 1 1 0.5897 0.6147439506129142 9.798481698475777 17.76918172687978 0 1 -4
422 1 1 0.5897 0.24767292245469996 8.114689279689427 19.039884134409455 -3 1 4
316 1 2 -1.1794 4.5137678598435285 11.797674461202249 17.106264452299758 -4 -4 0
353 1 1 0.5897 3.2786512435444815 13.61022423555458 4.576373603204418 5 3 -2
464 1 1 0.5897 0.26053502493902103 14.928225902479197 5.255663868587769 6 2 -2
193 1 2 -1.1794 3.3360801902614523 11.945861382922583 2.0561117262653417 1 -4 0
354 1 1 0.5897 2.225972760824641 14.387515818206642 3.815171463146959 5 3 -2
352 1 2 -1.1794 3.162346419019826 14.189241199893315 3.82312585186071 5 3 -2
194 1 1 0.5897 3.3533262401873314 12.757924897771925 2.5625316042083734 1 -4 0
454 1 2 -1.1794 0.42226966218128703 14.078455875457834 3.7804941808786863 1 -2 1
539 1 1 0.5897 2.5888290299534713 16.99303480610643 5.516158767779943 -1 -3 1
195 1 1 0.5897 3.3472170796194325 12.232294387282769 1.1428678183488685 1 -4 0
452 1 1 0.5897 0.44417729374694515 16.574657506942053 0.48385040122069606 -1 -1 5
456 1 1 0.5897 0.4302108166034415 13.18247931411459 4.117164004631506 1 -2 1
560 1 1 0.5897 2.24077916494435 11.938217307311675 5.630114414596538 5 0 2
501 1 1 0.5897 0.8528229493824543 13.92337693359665 10.287968159226814 0 -1 -3
743 1 1 0.5897 2.651552827564746 13.701164264320496 6.876831651678823 -2 -1 1
499 1 2 -1.1794 1.7105718812827664 14.347410106142718 10.262823317090106 0 -1 -3
742 1 2 -1.1794 2.2364860251579044 14.282943229003404 7.5135638071330195 -2 -1 1
744 1 1 0.5897 1.4812112353251918 14.64552654275615 7.050665026744477 -2 -1 1
500 1 1 0.5897 2.0396285435726966 14.17122070306866 9.381433178336813 0 -1 -3
603 1 1 0.5897 3.626741086146123 15.670480817953715 7.4151205129675954 4 3 -1
255 1 1 0.5897 2.593022625258128 15.948231388142275 10.842643447947728 2 7 -7
465 1 1 0.5897 0.9436245527508773 16.06655670859687 5.983215278422806 6 2 -2
559 1 2 -1.1794 3.045819697480864 12.418164452844943 5.824431683135795 5 0 2
601 1 2 -1.1794 3.958242474390514 16.568339180810916 7.402166959221974 4 3 -1
463 1 2 -1.1794 0.23048727683640885 15.433753011368701 6.067890974119582 6 2 -2
635 1 1 0.5897 3.835039116313667 11.83034094853668 9.327424257774394 -8 0 1
842 1 1 0.5897 1.4575734095680035 13.387340407296955 13.597577025123188 -2 1 0
670 1 2 -1.1794 1.3962361043623368 16.715774419305973 13.763626479423422 6 2 1
117 1 1 0.5897 3.2888019959921673 16.359016012581257 14.150597346864917 -1 -3 4
862 1 2 -1.1794 2.4056727253227175 12.53831881396534 12.2546440161607 0 -2 1
671 1 1 0.5897 1.1261223927762725 15.800254864058534 13.834564536488225 6 2 1
841 1 2 -1.1794 1.0659817773226388 14.011302103919105 14.208732725825813 -2 1 0
843 1 1 0.5897 1.4988831887359355 13.833332245326861 15.043652776680066 -2 1 0
672 1 1 0.5897 1.8270298424320526 16.773486437393153 12.910826836768276 6 2 1
863 1 1 0.5897 3.3067281292388517 12.554306585858312 12.577199335083584 0 -2 1
864 1 1 0.5897 2.3475597520537095 13.291991150688599 11.66744737500097 0 -2 1
253 1 2 -1.1794 2.9278712509517084 16.67302906066405 11.370580095414798 2 7 -7
254 1 1 0.5897 3.8660371936754756 16.49983657871405 11.448425166638371 2 7 -7
116 1 1 0.5897 4.31072766770576 15.284892020621244 13.84447353074316 -1 -3 4
115 1 2 -1.1794 4.23194639460024 16.199585452711 14.115248286998058 -1 -3 4
75 1 1 0.5897 1.2184301498714913 16.05948513637377 16.631950834425176 3 -1 2
74 1 1 0.5897 2.427008731563191 16.9711330174169 16.629182374487957 3 -1 2
451 1 2 -1.1794 0.4262827259529527 16.48606558656355 21.23855346083756 -1 -1 4
121 1 2 -1.1794 0.49622475771459396 13.848448573596098 20.74422746715275 1 -2 -1
453 1 1 0.5897 1.317819217651657 16.69679351966544 20.96117505445062 -1 -1 4
652 1 2 -1.1794 3.2879906694681598 12.659832838967745 21.066867560421976 -1 0 -1
318 1 1 0.5897 3.7723722616689703 12.398782494103852 17.03409659441154 -4 -4 0
73 1 2 -1.1794 2.122880098545883 16.11832123518895 16.939667559007137 3 -1 2
654 1 1 0.5897 2.426062766884078 13.06808747507068 20.985620674316813 -1 0 -1
767 1 1 0.5897 1.6677345026052464 13.104574834608853 17.279135283101063 -2 -2 1
165 1 1 0.5897 2.7826579155563405 16.28867389760368 18.707236201647607 -3 2 -1
768 1 1 0.5897 2.4636252958063563 14.267996122099797 16.727096121925985 -2 -2 1
122 1 1 0.5897 0.41823783318884056 14.798344838689548 20.832505397272097 1 -2 -1
766 1 2 -1.1794 2.310221034309872 13.330902324975007 16.60671006903399 -2 -2 1
653 1 1 0.5897 3.303415994909775 11.993120125702571 20.380245059989406 -1 0 -1
163 1 2 -1.1794 2.9235035427885703 16.669245604176965 19.574127139175456 -3 2 -1
388 1 2 -1.1794 2.3800837854798176 19.4779580229353 1.2830180200544998 2 5 5
9 1 1 0.5897 3.6038729338923643 21.618888282650573 3.9493979221992945 4 -2 0
389 1 1 0.5897 3.1205856510464502 18.92251354318266 1.5265483928851764 2 5 4
626 1 1 0.5897 1.0063363943059536 17.684718722993548 3.449110499040239 -5 -3 3
473 1 1 0.5897 2.252218318971299 21.4666498450289 1.7000836944574043 0 0 -1
319 1 2 -1.1794 1.7702727214729794 21.757904169819376 4.715568003996845 2 -3 1
321 1 1 0.5897 1.088815914539519 21.539557925534933 4.079861307963377 2 -3 1
538 1 2 -1.1794 1.744961548768266 17.410402191249254 5.343337314649589 -1 -3 1
627 1 1 0.5897 1.0992282543630085 18.357173936003083 2.09599741737605 -5 -3 3
390 1 1 0.5897 2.4939565917448943 19.632147615594544 0.34522091457235654 2 5 5
625 1 2 -1.1794 0.7410502001456039 17.585595999279544 2.534798424645094 -5 -3 3
7 1 2 -1.1794 4.550475249113568 21.49486587123021 3.8805931472628084 4 -2 0
307 1 2 -1.1794 0.7217914837732211 20.529702854158707 9.337382623421739 0 3 -1
417 1 1 0.5897 0.8542895530585404 22.083761148772428 8.046945090311695 0 -3 0
705 1 1 0.5897 2.7615065165094044 17.652455264836565 8.653427639802896 3 -2 -1
335 1 1 0.5897 2.6650059852274883 19.707724589225972 7.0175399153589595 6 -1 2
703 1 2 -1.1794 1.9802533797587267 17.938959664456732 9.126433450928186 3 -2 -1
334 1 2 -1.1794 1.80720247520922 19.723861018996086 6.593158854866942 6 -1 2
336 1 1 0.5897 1.8621857299424125 20.446809785715384 5.968258289415226 6 -1 2
704 1 1 0.5897 2.169223589078646 17.741518384305664 10.043757740343638 3 -2 -1
309 1 1 0.5897 1.0108938303790835 19.799803890693504 8.7897981632198 0 3 -1
308 1 1 0.5897 1.2458606101030378 20.453774604400444 10.134735027774306 0 3 -1
733 1 2 -1.1794 4.275016467469304 19.859863634783608 7.827110851763591 -1 0 -2
813 1 1 0.5897 3.6021248799826346 19.874523121805733 10.846493663728172 -5 5 -4
540 1 1 0.5897 1.7839346574402581 18.238017574176414 5.822615829280357 -1 -3 1
735 1 1 0.5897 4.329191316629087 20.810525613441662 7.729644996574765 -1 0 -2
471 1 1 0.5897 2.0095452167232177 20.398440669628993 13.872607507838685 1 -3 2
812 1 1 0.5897 2.8356526211454427 19.916566239655797 12.151307090547213 -5 5 -4
6 1 1 0.5897 2.6234534973968286 19.197476444419742 15.734051254769822 1 0 0
811 1 2 -1.1794 2.835370718324312 20.269472721562416 11.261559658241419 -5 5 -4
469 1 2 -1.1794 2.3766791008826402 19.51446266170857 13.874522958443636 1 -3 2
470 1 1 0.5897 1.613443845353139 18.937698055614145 13.906686101595593 1 -3 2
492 1 1 0.5897 2.8484714172297867 22.034933352553786 11.70355649906842 0 3 3
800 1 1 0.5897 2.2534058757160964 21.921506183381545 14.844205161700915 0 -2 3
174 1 1 0.5897 4.426802776556346 21.67830129403862 15.708389065172733 1 1 -2
799 1 2 -1.1794 1.304368768086069 21.87320523166828 14.729421722115802 0 -2 3
172 1 2 -1.1794 4.232918295800667 22.108159309627077 14.875412145379967 1 1 -2
95 1 1 0.5897 2.9135215265421905 19.00186642845161 19.605293072532554 -2 0 -1
4 1 2 -1.1794 2.583396633417749 18.922138265198534 16.649889818696106 1 0 0
392 1 1 0.5897 3.934665247349926 20.003264059873345 17.18592280578859 3 -3 -1
96 1 1 0.5897 1.977276843206784 20.062351737655835 20.14440183143068 -3 0 -1
94 1 2 -1.1794 2.8702131652908087 19.727764988523635 20.22772206514612 -3 0 -1
393 1 1 0.5897 4.481540749765885 21.149410615565774 18.009949182039453 3 -3 -1
5 1 1 0.5897 1.655607797330419 18.98085013701245 16.877769631373855 1 0 0
391 1 2 -1.1794 4.649456492217201 20.639056051463427 17.217779482659502 3 -3 -1
53 1 1 0.5897 0.3133711812972493 21.57873464551139 19.79694364569113 -4 -2 2
164 1 1 0.5897 3.7950720664327253 17.06185137500935 19.525136875882588 -3 2 -1
530 1 1 0.5897 6.06927837406668 3.428052429573492 4.241858697033949 -2 -1 -4
831 1 1 0.5897 6.8795782893505955 6.052096621561994 1.074331487654299 4 4 5
716 1 1 0.5897 4.903218823380584 1.3749836244274882 5.429711680330983 4 -7 -4
19 1 2 -1.1794 8.6974557057961 3.158857915488099 3.3425785446361544 -4 -4 2
68 1 1 0.5897 5.766570881963248 5.6013818614306565 3.3209599859490093 5 -2 -4
67 1 2 -1.1794 5.663907185490763 6.288992273821207 2.6630253027034745 5 -2 -4
529 1 2 -1.1794 5.5447224321298565 4.21275993170026 4.400754431229247 -2 -1 -4
853 1 2 -1.1794 7.965673532455129 1.6505735242531987 5.538873096598022 -2 2 1
855 1 1 0.5897 8.1432196029626 1.9829951969778254 4.6590086900242165 -2 2 1
42 1 1 0.5897 6.679763681512862 2.7982865639292287 0.7587456953710615 -1 0 5
21 1 1 0.5897 8.979278463538925 3.555311029605205 2.51821450027082 -4 -4 2
359 1 1 0.5897 8.694158038369995 1.5763225853455003 2.206789036941499 3 1 -4
443 1 1 0.5897 9.08945005265748 5.381572149338412 7.623104279939932 5 5 -2
11 1 1 0.5897 7.175186011432816 3.290321068180467 10.711044566145361 -4 1 5
10 1 2 -1.1794 7.078134226134429 2.510594304850107 10.164437622653345 -4 1 5
717 1 1 0.5897 6.227561880936111 1.7721767383459466 6.046268354427841 4 -7 -4
167 1 1 0.5897 5.328263501414063 3.138134960706071 9.898302919119695 -3 0 3
769 1 2 -1.1794 6.3681439545049745 4.929506869720916 7.451268613739925 3 -1 0
12 1 1 0.5897 7.614724372205675 2.690376145011192 9.392465592749907 -4 1 5
770 1 1 0.5897 6.865009651992326 4.273315652430855 7.939851788904121 3 -1 0
563 1 1 0.5897 8.763774718096817 2.5246324988338724 7.083153234184134 2 2 4
771 1 1 0.5897 6.262871948312276 4.550215618652356 6.5787864657818815 3 -1 0
562 1 2 -1.1794 8.740114757135178 3.055454490702475 7.879294464536971 2 2 4
198 1 1 0.5897 4.738623530331041 5.616846465664645 7.778414692335223 -2 -2 1
715 1 2 -1.1794 5.297245344733642 1.6743214803750892 6.249062536075541 4 -7 -4
397 1 2 -1.1794 8.468039418762652 1.5097265135987028 15.066126358097542 6 3 -5
485 1 1 0.5897 6.511170622676013 5.516251512424573 12.071598958401808 -1 3 -1
553 1 2 -1.1794 7.040418998317416 4.822801276749981 15.235896034573233 -4 -6 3
555 1 1 0.5897 7.921751009214433 5.061533167442076 14.948781932620642 -4 -6 3
840 1 1 0.5897 6.2827556002418214 4.319564104651247 13.666038775837649 -3 -2 -3
838 1 2 -1.1794 6.0336168944216775 4.091969305821795 12.77032532072197 -3 -2 -3
747 1 1 0.5897 6.3369640277953865 2.0268344024040337 12.833748014482127 2 4 -7
554 1 1 0.5897 7.1809237268553465 4.2135352991307755 15.96062633188072 -4 -6 3
484 1 2 -1.1794 6.852295369495933 6.226301432966903 11.527877301326377 -1 3 -1
399 1 1 0.5897 7.730306539540909 1.5381914856791692 14.456937272553324 6 3 -5
839 1 1 0.5897 5.158957665920295 4.465423531301141 12.662270907855218 -3 -2 -3
486 1 1 0.5897 7.78987204165786 6.046455982059601 11.458780813683859 -1 3 -1
449 1 1 0.5897 6.380999809412681 6.437605776918931 16.006965824840485 5 0 -3
495 1 1 0.5897 8.239529918588877 3.451583287630178 17.664364347278322 -2 -1 -1
830 1 1 0.5897 6.280790294274797 6.430834241657848 21.444096328641102 4 4 4
41 1 1 0.5897 7.149877111271621 4.06896065603602 21.790973259101634 -1 0 4
40 1 2 -1.1794 7.303461442419347 3.1245745500494824 21.81772113247165 -1 0 4
829 1 2 -1.1794 6.987088131253527 5.920338102360776 21.83997640854036 4 4 4
493 1 2 -1.1794 7.518883225877287 2.96977510009026 17.258529597367392 -2 -1 -1
590 1 1 0.5897 5.870850805460365 3.6027494709475887 17.852000097308988 2 5 2
589 1 2 -1.1794 4.970429715971627 3.9274441411403043 17.854862634340765 2 5 2
762 1 1 0.5897 8.248461166122844 6.542470578780388 20.62787231833037 1 -4 -1
327 1 1 0.5897 7.810606850499655 1.8531014159255452 19.009180978988727 0 -1 -2
326 1 1 0.5897 7.707751991427408 1.8874314266318548 20.5191759348716 0 -1 -2
494 1 1 0.5897 7.940137418694606 2.4180965319147782 16.59945798738515 -2 -1 -1
675 1 1 0.5897 7.804718078513227 9.51020553852704 5.210898212088664 -3 -2 -3
69 1 1 0.5897 5.0293637003238665 6.894715106064575 3.0459550435726723 5 -2 -4
673 1 2 -1.1794 8.288915690221057 8.76240404211472 5.560919894906421 -3 -2 -3
707 1 1 0.5897 6.1830541473094245 10.19594736547287 3.628973229170818 0 -2 -6
706 1 2 -1.1794 6.688999052372782 10.508615817663607 4.378946506114522 0 -2 -6
709 1 2 -1.1794 4.915075399010691 9.769100175264906 2.090973000497522 -5 -3 -1
242 1 1 0.5897 8.161109671412685 7.668932615985037 4.195860794442924 0 -2 2
708 1 1 0.5897 7.256949207740609 11.189418112820443 4.01821243743424 0 -2 -6
241 1 2 -1.1794 8.187283832754865 7.194747171166825 3.364817199629803 0 -2 2
243 1 1 0.5897 7.27339421645412 6.973003708340231 3.186157292274687 0 -2 2
169 1 2 -1.1794 6.300165879974498 10.297281827359283 10.124452192627741 -4 4 -3
235 1 2 -1.1794 8.353915790813229 9.2816256121243 8.361189230108092 0 -2 -4
636 1 1 0.5897 4.662527126933787 11.623348657359836 8.076748912684803 -8 0 1
171 1 1 0.5897 5.609001318317616 10.845344600567909 9.752842171333489 -4 4 -3
836 1 1 0.5897 5.627157373774888 10.611425595337272 5.898574417442402 -1 1 -1
170 1 1 0.5897 5.896116715336388 9.435133956534706 10.222541433435929 -4 4 -3
681 1 1 0.5897 5.544901552536462 7.257809309387016 10.60657010055315 -6 -5 0
237 1 1 0.5897 7.468662135873385 9.265353912607752 8.724838607326012 0 -2 -4
679 1 2 -1.1794 4.997600694557052 7.8920224240538746 10.143505685381417 -6 -5 0
86 1 1 0.5897 8.692453725879549 11.163659040405204 7.632020068380253 -2 5 2
835 1 2 -1.1794 5.014931230149405 10.69474600139325 6.629618210140748 -1 1 -1
236 1 1 0.5897 8.241430148302326 9.030106017007412 7.444508438804197 0 -2 -4
444 1 1 0.5897 8.350628156768387 6.652074962645503 7.26016761199887 5 5 -2
400 1 2 -1.1794 6.882258637083936 11.577618441597572 13.418990853101693 -2 -2 2
537 1 1 0.5897 7.523858922998361 8.643790797335955 12.214391407278706 6 6 4
483 1 1 0.5897 5.352009980883496 7.634045586344742 14.56175547863906 0 3 -1
536 1 1 0.5897 6.783034705465247 8.584272803817695 13.533263824149618 6 6 4
774 1 1 0.5897 5.374677053656625 11.132570605227663 14.209923429939934 2 -4 3
535 1 2 -1.1794 7.564079067041172 8.951923076438575 13.119721362433246 6 6 4
402 1 1 0.5897 7.23908809605831 10.694239143364134 13.326740589702148 -2 -2 2
481 1 2 -1.1794 4.949463818580721 7.965648619943516 13.759154679594118 0 3 -1
448 1 2 -1.1794 6.18563443267774 7.328195986991154 16.298402614137537 5 0 -3
773 1 1 0.5897 4.666035010521772 9.799155140562359 14.317476301046769 2 -4 3
250 1 2 -1.1794 8.442503125265414 8.203341539996373 17.666931651024576 4 -4 1
371 1 1 0.5897 8.53527555357013 10.964836378740914 21.222348765346833 3 7 -1
527 1 1 0.5897 6.6994255823372715 9.992883265674624 21.024543630656932 -2 -4 0
787 1 2 -1.1794 8.1102521405485 11.10675177851887 17.85347239934947 3 -2 5
789 1 1 0.5897 7.848978693889141 10.195640889682512 17.72008082627487 3 -2 5
788 1 1 0.5897 8.028498737072947 11.244149706668729 18.797196775542442 3 -2 5
526 1 2 -1.1794 5.743146642034641 10.020600144875202 20.993833227843407 -2 -4 0
323 1 1 0.5897 5.320026738443051 8.438046887611772 20.49447287867392 7 -1 -2
370 1 2 -1.1794 8.417360507228192 10.128850582603604 20.771354236738492 3 7 -1
372 1 1 0.5897 8.61448591519259 9.468126247835333 21.43524782670535 3 7 -1
251 1 1 0.5897 8.71308434173804 7.781427327761988 18.48237338879414 4 -4 1
450 1 1 0.5897 6.973698695705103 7.606237435800284 16.76511625744015 5 0 -3
322 1 2 -1.1794 5.145917518421573 7.498209459983407 20.54514167537523 7 -1 -2
617 1 1 0.5897 4.831088191463726 7.086084160612865 17.59417435539079 0 2 0
324 1 1 0.5897 4.707258945988596 7.2905997723369245 19.72012245923916 7 -1 -2
760 1 2 -1.1794 9.021650266183288 6.765303316193562 20.109506150722375 1 -4 -1
528 1 1 0.5897 5.470914555429565 9.926553639123942 21.90664228584862 -2 -4 0
112 1 2 -1.1794 8.04661046953832 12.646006130675774 3.4503503297509197 -4 -2 2
693 1 1 0.5897 8.161000739116675 15.754383859944713 2.6191733822784795 2 0 4
691 1 2 -1.1794 7.958629991063528 15.47812516411009 3.512984756832486 2 0 4
692 1 1 0.5897 8.145762434369097 14.539474071376553 3.5222255914628864 2 0 4
114 1 1 0.5897 7.918719723726922 12.53433542864148 2.5083542729937864 -4 -2 2
57 1 1 0.5897 6.102031063590868 16.070103800319377 3.7678826835217842 -3 0 1
3 1 1 0.5897 8.327785695334226 12.91374474529268 0.38214549572878176 2 -7 4
2 1 1 0.5897 6.914711221187101 12.370954453349574 0.4010761636987078 2 -7 4
113 1 1 0.5897 8.993542320622955 12.580091077691284 3.5734557300869354 -4 -2 2
639 1 1 0.5897 6.427744788508923 13.341326118951788 5.410809801607336 -7 0 3
547 1 2 -1.1794 8.78951341422447 16.66658885815349 1.1119653823017392 5 -1 6
1 1 2 -1.1794 7.770217725212792 12.26939296014372 0.8181854029837266 2 -7 4
45 1 1 0.5897 9.099652435205323 15.799032233555005 4.930653466366412 2 6 -2
55 1 2 -1.1794 5.24605800686771 16.241189900187607 4.160648300653049 -3 0 1
548 1 1 0.5897 8.00547654453505 16.731099559456695 0.5666581073420578 5 -1 6
56 1 1 0.5897 4.801923207130245 15.393411898563246 4.146859738918931 -3 0 1
682 1 2 -1.1794 5.72927154215973 14.305548173496067 10.151991007968391 5 0 -5
683 1 1 0.5897 5.40943929927637 13.558026993807426 9.646928392831052 5 0 -5
638 1 1 0.5897 7.519268248693536 12.977563962101458 6.394705014537844 -7 0 3
602 1 1 0.5897 4.864598976374626 16.493848206473803 7.700731811554154 4 3 -2
637 1 2 -1.1794 6.834376986099569 13.625473020590276 6.229405438381974 -7 0 3
203 1 1 0.5897 6.666395573243885 15.315184513068884 7.4040136274723185 -5 3 2
204 1 1 0.5897 6.23213042993764 15.506077966460262 8.841650656513423 -5 3 2
202 1 2 -1.1794 6.628844688061733 15.967946581758376 8.103080792744812 -5 3 2
684 1 1 0.5897 6.624959049651907 14.06775900785846 10.391528198800765 5 0 -5
85 1 2 -1.1794 8.841327089898552 11.955186939599946 7.11481254084251 -2 5 2
634 1 2 -1.1794 4.6912093883197 12.023770785041624 8.94566748468689 -8 0 1
808 1 2 -1.1794 8.021520577411998 12.85294996220304 10.862745113360651 4 0 -2
810 1 1 0.5897 7.537140626706775 12.028951225952074 10.913524606025122 4 0 -2
809 1 1 0.5897 8.227778759005338 13.066551900431989 11.77271602150242 4 0 -2
723 1 1 0.5897 5.1900974693938675 13.591157906294203 11.842459250268098 1 0 -1
218 1 1 0.5897 5.341134907506894 16.472628227260678 15.560224419699203 4 -1 -2
219 1 1 0.5897 6.667882257313266 16.235971040065927 16.24978958848576 4 -1 -2
36 1 1 0.5897 8.241776549468558 15.108181940547164 13.77714783043549 -4 2 -1
401 1 1 0.5897 7.319451428005554 11.933454128674509 14.192561868849843 -2 -2 2
332 1 1 0.5897 8.130140486826257 14.48042736080101 15.662199752460749 -1 -2 -3
144 1 1 0.5897 7.816764307607898 12.267878360969318 16.359592513685865 -1 4 2
331 1 2 -1.1794 8.131512105830414 15.423072563186478 15.49608037393912 -1 -2 -3
722 1 1 0.5897 5.74277470546829 12.788705315096724 13.001064316269938 1 0 -1
34 1 2 -1.1794 8.670860639772327 14.811572611025216 12.97459861205633 -4 2 -1
142 1 2 -1.1794 7.9163979545748715 12.768521611303761 15.549894259113467 -1 4 2
35 1 1 0.5897 8.534157659337966 15.525220456544494 12.351549764671264 -4 2 -1
721 1 2 -1.1794 5.042884316803391 13.398810491269266 12.768474655272541 1 0 -1
143 1 1 0.5897 8.800273579975563 12.561090966706038 15.24672525323261 -1 4 2
333 1 1 0.5897 9.048973559926397 15.635116959590192 15.324256399042412 -1 -2 -3
217 1 2 -1.1794 5.797294780633891 16.607953235250882 16.390768695973122 4 -1 -2
794 1 1 0.5897 5.697420471991475 16.926889701207916 13.024688638813949 -4 0 5
825 1 1 0.5897 6.06098601286151 13.716470832084248 19.79695310717663 -2 4 2
161 1 1 0.5897 7.886834964611492 14.931203128568928 18.52394843035317 2 7 1
120 1 1 0.5897 6.089435072547916 16.80529758980424 20.897783688435656 3 -3 -2
103 1 2 -1.1794 6.200085267805829 14.019381867328832 18.07115245636529 2 0 5
823 1 2 -1.1794 5.961147842386467 13.779092370952533 20.746844936002187 -2 4 2
118 1 2 -1.1794 6.338871318858384 16.299287049073477 21.6710274281275 3 -3 -2
119 1 1 0.5897 6.280828591718479 15.386338433506761 21.38937839833215 3 -3 -2
104 1 1 0.5897 5.6037858086773324 14.672543561054278 17.705040012185666 2 0 5
105 1 1 0.5897 5.900868512497871 13.188091299813737 17.702902533462126 2 0 5
160 1 2 -1.1794 8.7439495915523 15.192099881641404 18.860810234296885 2 7 1
162 1 1 0.5897 8.79108757190833 16.133401949686984 18.693733813197333 2 7 1
824 1 1 0.5897 5.025083778503923 13.649267943752239 20.898845681227307 -2 4 2
697 1 2 -1.1794 6.808102849887306 19.818226923649842 0.8097661024561859 -2 3 -3
698 1 1 0.5897 6.274168194985922 19.20717433191328 1.317405601907503 -2 3 -3
385 1 2 -1.1794 7.770096675801344 19.61684840835412 5.111733860838417 -4 0 2
347 1 1 0.5897 6.004468707361438 21.261997801756937 1.2504629231541817 -2 2 -2
348 1 1 0.5897 5.316864526153668 22.026806708321967 2.361361820669443 -2 2 -2
425 1 1 0.5897 5.185826955608301 18.07964237607088 5.337327935697969 7 -4 1