#include		in.partitions
include		in.temp
variable        temperature equal 136.47
variable	tempDamp equal 100.0
include		in.pressure
variable        pressure equal 7160.8
variable        pressureDamp equal 1000.0 # This is 1 ps
include		in.seed
variable        seed equal 745823

units		real
atom_style	full
read_restart    restart.lmp.${pid}
read_restart    restart.lmp.0
Reading restart file ...
  restart file = 30 Jul 2021, LAMMPS = 30 Jul 2021
  restoring atom style full from restart
  triclinic box = (-3.1434790 -0.16314598 0.036651034) to (14.753478 22.743145 19.193347) with tilt (-0.24458362 -6.5592765 0.18922333)
  2 by 4 by 4 MPI processor grid
  restoring pair style lj/cut/tip4p/long/omp from restart
  restoring bond style harmonic/omp from restart
  restoring angle style harmonic/omp from restart
  1008 atoms
  672 bonds
  336 angles
Finding 1-2 1-3 1-4 neighbors ...
  special bond factors lj:    0        0        0       
  special bond factors coul:  0        0        0       
     2 = max # of 1-2 neighbors
     1 = max # of 1-3 neighbors
     1 = max # of 1-4 neighbors
     2 = max # of special neighbors
  special bonds CPU = 0.003 seconds
  read_restart CPU = 0.008 seconds

include 	in.setup
variable	out_freq equal 1000
variable	out_freq2 equal 10000
variable	out_freq3 equal 1000

timestep	2.0

neigh_modify    delay 7 every 1

include		in.tip4p
# This is TIP4P/Ice

# create groups ###
group ox type 2
336 atoms in group ox
group hy type 1
672 atoms in group hy

# set charges - beside manually ###
set group ox charge -1.1794
Setting atom values ...
  336 settings made for charge
set group hy charge 0.5897
Setting atom values ...
  672 settings made for charge

# ### TIP3P Potential Parameters ###
pair_style lj/cut/tip4p/long/omp 2 1 1 1 0.1577 8.5
pair_coeff 1 1*2 0.000 0.000
pair_coeff 2 2 0.21084 3.1668
bond_style  harmonic
bond_coeff  1 450 0.9572
angle_style harmonic
angle_coeff 1 55 104.52
kspace_style pppm/tip4p/omp 1.0e-5
pair_modify tail yes

thermo          ${out_freq}
thermo          1000
thermo_style    custom step temp pe etotal epair emol press lx ly lz vol pxx pyy pzz pxy pxz pyz enthalpy

restart 	${out_freq3} restart.lmp.${pid} restart2.lmp.${pid}
restart 	1000 restart.lmp.${pid} restart2.lmp.${pid}
restart 	1000 restart.lmp.0 restart2.lmp.${pid}
restart 	1000 restart.lmp.0 restart2.lmp.0


include         in.dump
dump            myDump all atom ${out_freq2} dump.water.${pid}
dump            myDump all atom 10000 dump.water.${pid}
dump            myDump all atom 10000 dump.water.0
dump            myDump2 all dcd ${out_freq2} dump.dcd
dump            myDump2 all dcd 10000 dump.dcd
dump_modify     myDump append yes
dump_modify     myDump2 append yes


variable natoms 	equal  "count(all)"                        # NUMBER ATOMS
variable H      	equal  "enthalpy/v_natoms"                 # ENTHALPY-per-atom
variable Vol      	equal  "vol/v_natoms"                 # volume-per-atom
fix AVG all 		ave/time ${out_freq} 1 ${out_freq} v_Vol v_H file vol_enthalpy.dat
fix AVG all 		ave/time 1000 1 ${out_freq} v_Vol v_H file vol_enthalpy.dat
fix AVG all 		ave/time 1000 1 1000 v_Vol v_H file vol_enthalpy.dat



fix 		1 all shake 1e-6 200 0 b 1 a 1
       0 = # of size 2 clusters
       0 = # of size 3 clusters
       0 = # of size 4 clusters
     336 = # of frozen angles
  find clusters CPU = 0.000 seconds
fix             2 all nph tri ${pressure} ${pressure} ${pressureDamp}
fix             2 all nph tri 7160.8 ${pressure} ${pressureDamp}
fix             2 all nph tri 7160.8 7160.8 ${pressureDamp}
fix             2 all nph tri 7160.8 7160.8 1000
fix             3 all temp/csvr ${temperature} ${temperature} ${tempDamp} ${seed}
fix             3 all temp/csvr 136.47 ${temperature} ${tempDamp} ${seed}
fix             3 all temp/csvr 136.47 136.47 ${tempDamp} ${seed}
fix             3 all temp/csvr 136.47 136.47 100 ${seed}
fix             3 all temp/csvr 136.47 136.47 100 745823


run             250000
PPPM initialization ...
  extracting TIP4P info from pair style
  using 12-bit tables for long-range coulomb (../kspace.cpp:340)
  G vector (1/distance) = 0.3795547
  grid = 24 27 32
  stencil order = 5
  estimated absolute RMS force accuracy = 0.0024227135
  estimated relative force accuracy = 7.2959297e-06
  using double precision FFTW3
  3d grid and FFT values/proc = 5355 672
Last active /omp style is kspace_style pppm/tip4p/omp
Neighbor list info ...
  update every 1 steps, delay 7 steps, check yes
  max neighbors/atom: 2000, page size: 100000
  master list distance cutoff = 10.8154
  ghost atom cutoff = 10.8154
  binsize = 5.4077, bins = 5 5 4
  1 neighbor lists, perpetual/occasional/extra = 1 0 0
  (1) pair lj/cut/tip4p/long/omp, perpetual
      attributes: half, newton on, omp
      pair build: half/bin/newton/tri/omp
      stencil: half/bin/3d/tri
      bin: standard
Per MPI rank memory allocation (min/avg/max) = 10.31 | 10.32 | 10.33 Mbytes
Step Temp PotEng TotEng E_pair E_mol Press Lx Ly Lz Volume Pxx Pyy Pzz Pxy Pxz Pyz Enthalpy 
25250000     140.2246     -5102.59   -4822.1235     -5102.59            0    6538.2335    17.896957    22.906291    19.156696    7853.3431    7988.6683    5771.0097    5855.0226    440.48903   -28.013874   -766.17691   -4073.2803 
25251000    134.73418    -5109.968    -4840.483    -5109.968            0    5369.5478    17.977063    22.675889    19.216447    7833.5055    3724.1286    6229.1269    6155.3879   -236.35516   -332.31182    573.78484   -4227.0463 
25252000     138.4932   -5109.8696   -4832.8661   -5109.8696            0    5786.9016    17.937813    22.606715    19.347728    7845.7945    6154.7991    6055.1832    5150.7226    681.99651    72.900028    711.01557   -4170.7122 
25253000    138.51552   -5109.3995   -4832.3514   -5109.3995            0    8832.4953    17.713066    22.854628    19.099856    7732.1096    10174.295    8182.7106    8140.4807    194.09349    -282.0996    39.330582   -3836.3561 
25254000    126.95848   -5110.4494   -4856.5168   -5110.4494            0    5329.5289    18.044359    22.567042    19.276731    7849.6351     4986.188    6204.5925    4797.8061   -638.47349    156.15083    1584.7236   -4246.3983 
25255000     140.2537   -5118.6047   -4838.0799   -5118.6047            0    5859.9532    17.820811    22.897598    19.187189    7829.4049    5769.2015    6469.5188    5341.1392    579.25709    1047.9169   -518.38507    -4168.968 
25256000     135.3545   -5097.9899   -4827.2642   -5097.9899            0    7280.7612    17.979566    22.592104    19.240097    7815.2551    7189.9611    7300.2841    7352.0386   -705.56234    13.400508    -1070.062   -3997.4214 
25257000    141.79349   -5117.2434   -4833.6389   -5117.2434            0    7873.6884    17.856614    22.758354    19.078373    7753.2053    8125.8881    7609.1446    7886.0325     -278.783   -702.53408   -153.82699   -3943.3409 
25258000    137.28275   -5100.8596   -4826.2771   -5100.8596            0    8277.1659    17.851516    22.789606    19.107571    7773.5144    8403.8077    8169.2776    8258.4124    790.26296    215.50104   -1073.1837   -3887.9053 
25259000    142.24972   -5103.5512   -4819.0342   -5103.5512            0    7104.8389    17.918868    22.549965    19.325317     7808.778     7720.762    7849.6814    5744.0735    81.860077    77.659924   -153.01062   -4009.9137 
25260000    137.85316   -5099.2492   -4823.5258   -5099.2492            0    7057.5061    17.879619    22.857383    19.109703    7809.7781    7516.0345    7354.0834    6302.4004     1391.857    633.05056    390.55164   -4019.6928 
25261000    126.57557   -5088.5214   -4835.3546   -5088.5214            0    7068.4264    18.040126    22.520333    19.214744    7806.3675    5463.2449    8158.3503    7583.6839   -207.37531   -218.61883    1515.6062   -4030.6294 
25262000    140.47489   -5086.6823   -4805.7151   -5086.6823            0    7052.2714    17.822753    22.731399    19.260816    7803.2518    8782.5526    7100.8932    5273.3685    592.08631   -1164.6468    289.33585   -4003.1496 
25263000    145.78663   -5107.3704   -4815.7791   -5107.3704            0    6866.5708    17.901682    22.797795     19.20253     7836.915    7360.2299    6462.4195     6777.063    35.626636   -249.04178   -436.74917   -4030.9756 
25264000    139.78824   -5116.5437     -4836.95   -5116.5437            0    8149.4992    17.935573    22.601228    19.230927    7795.5633    7582.6342    9392.8212    7473.0421    52.000311    268.33715   -63.296175    -3910.431 
25265000    140.44704   -5114.2755   -4833.3641   -5114.2755            0    7661.1856    17.847926    22.849892    19.084405    7783.0626    9289.2239    7253.5126    6440.8203     130.3152    1791.5973   -608.88879   -3963.7583 
25266000     135.6691   -5100.8017   -4829.4467   -5100.8017            0    6775.4046    17.977986    22.693431    19.182548    7826.1378    6727.4894    7132.3501    6466.3744   -1517.5486    1591.6179   -1099.9913   -4056.1278 
25267000    137.71234   -5107.3629   -4831.9213   -5107.3629            0     7386.205    17.900965    22.837059    19.118853    7815.8899    6979.2459    6858.5704    8320.7986    755.23385    110.23695    319.49115   -3989.9919 
25268000    138.27032    -5118.068   -4841.5103    -5118.068            0    8036.6063    17.922178    22.620562    19.189322    7779.5381    7086.7519     9026.737      7996.33   -654.75118   -576.96573   -465.84272   -3929.7044 
25269000    134.62251   -5105.2753   -4836.0137   -5105.2753            0    5695.1706    17.845888    22.735255    19.312285    7835.5891    5997.3704    6536.6461    4551.4951    1490.0944    160.13808   -683.51509   -4185.2036 
25270000    141.98165   -5115.9656   -4831.9847   -5115.9656            0     8583.897    17.793796    22.747977    19.188238    7766.8783    9543.9509    7979.9656    8227.7744    809.97994    -519.4465    1088.5991     -3859.67 
25271000     132.5144   -5111.0079   -4845.9627   -5111.0079            0    8881.0512    17.903854     22.68699    19.132434    7771.2989    8487.4359    8849.4113    9306.3064     1428.168    88.424953    2237.7763   -3839.4161 
25272000    135.77037   -5103.8077   -4832.2502   -5103.8077            0    6756.9784    17.979277    22.778043    19.084417    7815.6936    6258.9975    6685.5257    7326.4119    152.37176   -449.50409   -488.97559   -4062.0636 
25273000    134.18269   -5118.6062   -4850.2243   -5118.6062            0    6378.0105     18.01716    22.706392    19.116972    7820.8433    4449.5345    7150.2729    7534.2242   -361.06713   -571.47092    657.11506   -4122.7549 
25274000     143.7215   -5092.6579   -4805.1971   -5092.6579            0    8574.1869    17.915164    22.792879    19.082775    7792.2255    8851.7862    8416.0632    8454.7112    898.77333   -706.18705   -92.009319   -3830.8127 
25275000    145.13597   -5100.8191   -4810.5293   -5100.8191            0    7672.9313    17.687764    22.891242    19.191638    7770.5962    6701.7079    8519.1338    7797.9523   -365.38278   -261.80145    1054.2799   -3940.9853 
25276000    134.64403   -5091.6437    -4822.339   -5091.6437            0    7447.3359    17.941354    22.589726    19.303172    7823.3879    7656.4384    7388.9813     7296.588   -305.21814    110.55148   -548.93664   -3972.6271 
25277000    140.18267   -5096.0636   -4815.6809   -5096.0636            0    6102.2108    17.898673    22.877848    19.058446    7804.1117    6692.4654    4508.8248    7105.3422    1134.5653   -725.85795   -48.851523    -4121.158 
25278000    136.47898   -5113.2687   -4840.2939   -5113.2687            0    6832.5541     18.01313    22.740087    19.059458    7807.1379    5700.1491     6549.575    8247.9382   -586.94843   -372.56454    136.05234   -4062.3454 
25279000    134.62716   -5095.6757   -4826.4047   -5095.6757            0    8034.1222    17.901371    22.660162    19.213772    7794.0275    7517.7363    8253.2619    8331.3685   -201.56162    201.27259   -799.37187   -3913.1829 
25280000    137.38778   -5094.8987   -4820.1062   -5094.8987            0    6776.3818    17.936858    22.778954    19.127046    7814.9832    6800.5763    6868.2136    6660.3556   -767.61017     1025.899   -523.60231   -4047.7782 
25281000    142.86449     -5096.61   -4810.8633     -5096.61            0     8100.739    17.910628    22.607543    19.242954     7791.766    7136.0732    8716.5154    8449.6284    43.881295    182.90595   -300.53902   -3890.3366 
25282000    137.97694   -5110.5988   -4834.6278   -5110.5988            0    5748.3801    17.739226     23.08034    19.164494    7846.4681    5877.3549    4956.0231    6411.7623    309.09098    188.25988    707.06348   -4176.8252 
25283000    134.91358   -5099.2934   -4829.4496   -5099.2934            0     7815.524    17.925592    22.534664    19.295256    7794.2647    7983.9415    9171.4217     6291.209    -672.1548    494.88223    351.05769   -3941.0483 
25284000    132.35723   -5111.0462   -4846.3154   -5111.0462            0    6587.6618    17.760251    22.856681    19.218834    7801.7011    7064.4441    7192.6807    5505.8606    696.92402   -104.72986    978.74225   -4096.7725 
25285000    129.01097   -5106.1478   -4848.1099   -5106.1478            0    8060.6983    17.800784    22.626276    19.304249    7775.0845    8216.6504     8067.562    7897.8824   -54.105026    249.86226    561.66211   -3934.0942 
25286000    136.22899   -5114.7696   -4842.2948   -5114.7696            0    7425.2716    17.664457    22.718531    19.405632    7787.6845    9428.6439    7050.8073    5796.3635   -1151.0279    -476.3547   -287.18903   -3998.9667 
25287000    138.23606   -5102.4761   -4825.9869   -5102.4761            0    7785.4265    17.853848    22.810674    19.113966    7784.3214    6963.6615    7434.8058    8957.8121   -517.51237     73.83563   -656.94014   -3942.1359 
25288000    135.73136   -5108.6382   -4837.1588   -5108.6382            0    6658.3711    17.893366    22.776551    19.175425    7814.9284     6300.421    6212.0799    7462.6123   -484.43106   -216.68116   -627.38887   -4078.2861 
25289000    137.91774   -5113.3262   -4837.4737   -5113.3262            0    7048.1717    17.958647    22.628665     19.25589    7825.2124    7035.1252    7220.2481    6889.1418   -425.71065    636.31866    -17.27203   -4033.1173 
25290000    146.20702   -5125.5321      -4833.1   -5125.5321            0    7188.9088    17.788915    22.847727    19.196711    7802.2399    7412.8389    6852.2457    7301.6419    383.40614   -122.61397   -837.98117   -4015.0909 
25291000    137.71641   -5106.3317   -4830.8819   -5106.3317            0    7614.3925    17.891792    22.622624     19.24595    7789.9766    7829.8644    7785.1902     7228.123    772.67332    937.23569    1077.3175   -3965.8198 
25292000    139.77734   -5102.6074   -4823.0355   -5102.6074            0    9754.2839    17.809178    22.803781    19.052401     7737.496    8389.2264    10150.139    10723.487    28.986515    331.07672   -399.54164   -3722.3285 
25293000    140.36002   -5099.9306   -4819.1932   -5099.9306            0    8251.9805    17.923429     22.57608    19.237035    7784.0884    8921.5688    7211.8498    8622.5227    701.49099   -1527.2583    460.74141    -3882.404 
25294000     131.4395   -5106.7062   -4843.8109   -5106.7062            0    8107.4626    17.753257    22.853512    19.206333    7792.4756    8342.0449    7992.5302    7987.8127   -1105.0374     442.5307   -2099.0005   -3922.4362 
25295000    135.65298   -5120.0013   -4848.6785   -5120.0013            0    7465.9731    17.918881     22.67712    19.164119     7787.313    8616.5488    6301.5047    7479.8658    109.05588   -912.52562    1123.2313   -4000.7682 
25296000    138.99576    -5116.463   -4838.4543    -5116.463            0    7961.6967    17.950436    22.640801    19.128022    7773.8625    8997.0852    7811.9306    7076.0744    465.56125   -92.572566    947.13509   -3935.8064 
25297000    139.65882   -5110.2717   -4830.9368   -5110.2717            0    7947.1096    17.768227    22.927286    19.092959    7778.0365    7831.5795    7797.6418    8212.1076    1500.3655    373.22507    152.18183    -3929.459 
25298000    135.29738   -5114.6098   -4843.9983   -5114.6098            0    6293.4509    17.926421     22.46299    19.385077    7806.0026    6725.8661    7659.6826    4494.8039    477.10883   -411.07979    52.520846   -4127.5359 
25299000    140.78393   -5108.3856   -4826.8003   -5108.3856            0    6073.9724    17.906933    22.906783    19.099689    7834.5059    5793.2694    5530.4778      6898.17   -293.43989   -80.731071     1086.774    -4132.799 
25300000    134.45265   -5120.7491   -4851.8272   -5120.7491            0    6366.5081    17.888769     22.81998    19.158696    7820.9887    7035.9772    5322.6812    6740.8658    -817.1073   -1165.0103   -377.50995   -4125.6563 
25301000    141.70094   -5083.5667   -4800.1473   -5083.5667            0    6803.7707    17.873049    22.825271    19.166291    7819.0262    8301.1821    5816.7099    6293.4201    -150.9578   -511.01784    1160.5572   -4024.2965 
25302000    136.31656   -5110.3794   -4837.7294   -5110.3794            0    9176.0077    17.809907    22.720525    19.134258    7742.6858    9210.8406    9183.8725    9133.3101    -147.7449   -288.20822    702.52353   -3801.5826 
25303000    131.56139   -5113.3928   -4850.2538   -5113.3928            0    7340.1504    17.900523    22.577334    19.298874    7799.5642    7227.3485     7635.701    7157.4018   -211.87854    498.77683    258.07675   -4015.3216 
25304000     142.8437   -5103.6976   -4817.9926   -5103.6976            0    6541.9136    17.816782    22.882937    19.205941    7830.2679    6497.9609     6019.324    7108.4559    240.69614   -22.981534    -711.0341   -4070.9294 
25305000    144.12531   -5106.4964    -4818.228   -5106.4964            0    8366.5577    17.898524    22.499409    19.315166    7778.3375    8170.6046    8734.8818    8194.1866    -722.5557   -797.13507   -187.13104   -3869.1335 
25306000    143.42965   -5093.9899   -4807.1129   -5093.9899            0    7923.3381    17.772174    22.846058     19.15235    7776.3159    9262.2313    7470.5698     7037.213    9.7542177   -1030.4241    313.89777   -3908.5303 
25307000    129.55507    -5112.392   -4853.2658    -5112.392            0     6539.397    18.109613    22.485297    19.207475    7821.2843    4737.5094    7295.1359    7585.5458    502.02688   -583.82559     743.9145   -4107.3468 
25308000    139.10018    -5113.621   -4835.4035    -5113.621            0    5540.5766    17.853574    22.962816    19.106056    7832.8776     6670.781     4699.013    5251.9358    223.85152   -421.90031   -35.301987   -4202.4786 
25309000    136.56434   -5112.4092   -4839.2636   -5112.4092            0     6616.304    17.920939    22.823386     19.16916    7840.5028    6872.9898    6001.9862    6973.9359   -578.36996   -356.15217    1459.1691   -4082.7178 
25310000    135.75874   -5105.6279   -4834.0937   -5105.6279            0    8239.9818    17.860586    22.700676    19.175766     7774.764    8094.3368      7890.16    8735.4485    613.65079    16.222968    850.35494   -3899.7872 
25311000    138.49937    -5097.684   -4820.6682    -5097.684            0    7964.3386    17.925724    22.751546     19.09847    7789.0807    7047.7236    7689.6329    9155.6592    388.16214    457.02465    784.53105   -3915.9531 
25312000    149.15884   -5103.8866   -4805.5505   -5103.8866            0    7556.3234    17.967992    22.699055    19.140027    7806.3832    7162.6289    7807.4288    7698.9125    1022.6348    -74.40374    1424.8714   -3945.2775 
25313000    139.19103   -5095.8455   -4817.4463   -5095.8455            0    6389.1507    17.870392    22.952233     19.06833    7821.1689    7739.1736    5353.5052    6074.7733    1746.5691   -475.58878      1271.34   -4088.6759 
25314000     133.6945   -5099.8677   -4832.4621   -5099.8677            0    7400.7072    17.977782    22.567917    19.185674    7784.0329    6643.6484    8112.3904    7446.0827    688.37709    206.73167    721.99975   -3992.3181 
25315000    133.20561   -5112.2298   -4845.8021   -5112.2298            0    6465.1156    17.909396    22.876058    19.103534    7826.6487    6476.6313    5498.7522    7419.9634   -1480.0443   -128.00086   -796.32966   -4107.8503 
25316000    138.22498   -5091.8915   -4815.4244   -5091.8915            0    7130.8524      17.8417    22.811827    19.198561     7813.848     8592.706    6006.2881    6793.5633   -788.84535    319.88072   -753.19602   -4002.8142 
25317000    133.83575   -5106.1415   -4838.4535   -5106.1415            0    6881.9896    18.026796    22.545333    19.192118    7800.0628    6441.9691    7471.7146    6732.2852   -321.13161    119.98618   -276.06873   -4055.5864 
25318000    130.37545    -5092.955    -4832.188    -5092.955            0    7149.9346    17.774229    22.913913    19.183107    7812.8411    7977.9117    6911.0746    6560.8175    402.49475    1163.2001    -743.9904   -4017.5082 
25319000    134.06425    -5117.791   -4849.6459    -5117.791            0    8218.4242    17.900646    22.484505     19.35217    7789.0001    8437.7192    8377.9531    7839.6004   -131.14992    456.07278   -513.00032   -3916.0775 
25320000    133.24113   -5094.3465   -4827.8478   -5094.3465            0    7200.2007    17.779026    22.859571    19.177564    7794.1632    6916.3374    6671.8284    8012.4365    561.51646   -188.61118    1611.8631   -4009.4019 
25321000    132.57309   -5091.0276   -4825.8651   -5091.0276            0    7344.9416    17.970044    22.533853    19.313427    7820.6694    6645.0006     8849.149    6540.6753    733.90447    56.499321    -125.1439   -3988.1272 
25322000    136.95169   -5081.2307   -4807.3104   -5081.2307            0    5749.9475    17.908798    22.906664    19.160001    7860.0229    5941.7453    5327.1011    5980.9962   -139.78862   -400.79799   -829.59803   -4148.1918 
25323000     136.7981     -5132.19   -4858.5769     -5132.19            0    5954.9692    17.994179    22.654255    19.192151     7823.579    6079.8707    6559.9344    5225.1025   -246.53658   -105.25324     233.3427   -4179.1216 
25324000    133.15734   -5115.7877   -4849.4566   -5115.7877            0    7570.3211     17.92053    22.668822    19.136195    7773.8361    8116.2603    8288.9228    6305.7803   -370.34699     617.0833   -888.73518   -3991.1834 
25325000    133.51857   -5102.2728   -4835.2192   -5102.2728            0    8212.1549    17.847709    22.808475    19.090074    7771.1686    9467.5258    6817.6087    8351.3301   -902.90544   -351.60246    1095.0497   -3904.4986 
25326000    139.29614   -5106.0739   -4827.4644   -5106.0739            0    6948.5011    17.998931    22.525996    19.266501    7811.4844    6067.1257    8176.9949    6601.3826   -802.36292   -313.27167     174.6753   -4035.8739 
25327000    131.79155   -5120.2371   -4856.6377   -5120.2371            0    6787.7079    17.796634    23.040056    19.024256    7800.6194    6544.6876    5980.0443    7838.3918    857.30586    154.54733    912.03022   -4084.4407 
25328000    146.88996   -5101.6586   -4807.8605   -5101.6586            0    8110.1275    17.897352    22.665738    19.193374    7785.9203    8674.4928    7171.3018    8484.5879    -1072.522    -280.8684   -858.68816   -3886.9583 
25329000    136.50927   -5116.7898   -4843.7544   -5116.7898            0    6631.8436    17.973333    22.836209    19.036913    7813.5632    6423.2867    5380.7809    8091.4632    897.44315   -565.83755    751.35156   -4088.0372 
25330000    140.19823   -5099.1794   -4818.7656   -5099.1794            0    5722.8278    17.936868    22.864015    19.153653    7855.0818    5972.5859    5640.6277    5555.2698    12.525557   -294.95498    1560.4707   -4163.1682 
25331000    139.01233   -5106.9067   -4828.8649   -5106.9067            0    7239.4461    17.954681    22.700212     19.15119    7805.5474    5348.7089    7244.9502    9124.6793    522.44013   -309.68117   -1216.7601    -4004.756 
25332000     133.4918   -5116.0254   -4849.0253   -5116.0254            0    6734.4868    17.937039    22.860019    19.098679    7831.2425    6334.2798    6564.1031    7305.0775   -40.827463    764.99206    221.90338   -4079.8753 
25333000    134.81164   -5094.9015   -4825.2615   -5094.9015            0    6380.1649    17.995791    22.606592    19.224031    7820.7879    5744.9874    6980.5608    6414.9464   -255.39616    344.84459   -636.74845   -4097.5516 
25334000    140.89125   -5093.7892   -4811.9893   -5093.7892            0    6674.8484    17.904145    22.787455    19.147252    7811.8856    5601.5741    7421.9753    7000.9957     150.4569   -38.958013   -387.36253   -4051.5349 
25335000    136.32595   -5112.0694   -4839.4007   -5112.0694            0    7910.4197    17.804971    22.880259    19.076754    7771.5324    8311.9254    7048.6892    8370.6446   -331.26644    -436.1928   -6.8806619   -3942.8351 
25336000    134.80194   -5109.1559   -4839.5353   -5109.1559            0    6995.6213    17.926361    22.647719    19.217033     7801.946    6170.1937     7022.734    7793.9362    150.81189   -413.51757   -314.85598   -4043.5499 
25337000    136.22353   -5118.3481   -4845.8842   -5118.3481            0    6142.4118    17.847385    22.843613    19.239155    7843.7795    6477.9986     6056.995    5892.2419    458.65958   -699.06901    599.09545   -4143.2324 
25338000    137.17611   -5110.5433   -4836.1741   -5110.5433            0    5734.1779    17.956727    22.791112    19.176028    7847.8622    5062.3892    5453.3989    6686.7455   -473.24893    322.51634   -451.51132   -4179.8802 
25339000    131.10893   -5125.4008   -4863.1667   -5125.4008            0    5812.2049    18.077489    22.554746    19.196873    7827.2017    5141.9627    6487.4775    5807.1746    1012.5771    466.11471    184.07665   -4199.6936 
25340000    136.71884    -5109.678   -4836.2235    -5109.678            0    7950.9446    17.795387    22.888649    19.078989    7771.1082    8520.7094    7588.4519    7743.6724   -931.19244    394.63528    166.58326    -3935.114 
25341000    133.36177   -5110.5714   -4843.8314   -5110.5714            0     6632.782    17.923899    22.544573    19.341201    7815.5213    7150.1459      6558.68    6189.5201    350.37412   -717.59809   -115.38486   -4087.8179 
25342000    140.05483   -5118.4802   -4838.3532   -5118.4802            0    6394.6917     17.91132    22.824096    19.088305    7803.4841    6455.7632    6276.7895    6451.5225   -2155.8564   -202.13293   -1701.7542   -4110.6002 
25343000    143.33802   -5106.9062   -4820.2125   -5106.9062            0    7617.6862    17.854632     22.68779    19.210194    7781.7067    9126.7557    7176.5404    6549.7624   -84.436505   -700.01327   -1609.0138   -3955.6949 
25344000    133.11428   -5102.8285   -4836.5835   -5102.8285            0     6316.861    17.903494    22.827826    19.167974    7833.9098     4600.713    6888.4329     7461.437    182.84679   -168.72247    417.43259    -4114.885 
25345000    128.95241   -5117.0439   -4859.1232   -5117.0439            0    5411.9159    17.978223    22.578079    19.328508    7845.7071    5138.5183    6033.0045    5064.2248   -109.02925    349.00953   -1209.1737   -4239.8831 
25346000    141.08501   -5112.6505   -4830.4631   -5112.6505            0    5890.5875    17.935901    22.808753    19.180286    7846.5693    4953.0016    5645.4924    7073.2684    551.62718    482.30963   -415.04319   -4156.3786 
25347000    130.14762   -5093.3171   -4833.0058   -5093.3171            0    8164.7548    17.894172    22.612069    19.235054    7782.9695    7514.7444    8596.7045    8382.8154   -736.49792   -8.9704125    582.22369    -3906.252 
25348000    138.84685   -5113.1055   -4835.3947   -5113.1055            0    6609.2355    17.834196    22.890675    19.132241    7810.4847    7162.3205    6237.5593    6427.8267    261.76905    54.121449    511.37275   -4082.5505 
25349000    139.53765   -5110.6967   -4831.6041   -5110.6967            0    8183.4564     17.92867    22.586753    19.154341    7756.5589    7271.7523     8786.906    8491.7109   -779.37384    216.41408    430.85511   -3905.8797 
25350000    135.43532   -5098.5503   -4827.6629   -5098.5503            0    8072.3938    17.724242    22.985046    19.072926    7770.1676    8358.7104    7907.7567    7950.7144   -65.899471    113.42766   -2056.7978   -3912.8999 
25351000    133.41026   -5125.6263   -4858.7893   -5125.6263            0    6737.5377    17.795478    22.742636    19.301839    7811.7644    7871.1438    6575.8649    5765.6044   -614.63535    105.91539       794.06   -4091.2047 
25352000    140.45007   -5111.8673   -4830.9498   -5111.8673            0    8100.7683    17.933416    22.679245    19.157492    7791.6649    8745.1264    7613.8062    7943.3724    42.840719   -87.944483    196.40418   -3910.4316 
25353000    136.01894   -5095.0862   -4823.0315   -5095.0862            0    6839.9312    17.847474    22.898567    19.117356    7812.9114    8864.7865    6116.2882     5538.719    -1055.905    295.98564   -604.09744   -4043.6671 
25354000    139.23731   -5105.2239   -4826.7321   -5105.2239            0    6883.4495    17.984352    22.575098    19.242931     7812.601    7320.8452    6470.9912    6858.5122    75.210884   -404.63104    62.273365   -4042.4403 
25355000    143.06652   -5087.4413   -4801.2906   -5087.4413            0    8580.3552    17.881292     22.74758     19.08088    7761.2649    7868.1671    8077.4725     9795.426    454.93016   -255.38315   -285.33931   -3830.0794 
25356000    134.25528   -5115.8748   -4847.3477   -5115.8748            0    7086.5338    17.801714     22.74431    19.229052    7785.6068    7373.7724    6846.5484    7039.2805   -82.134965    -1165.906   -411.89729   -4042.7065 
25357000    137.25581   -5100.4526    -4825.924   -5100.4526            0    7821.3753    17.828698    22.735321    19.221905    7791.4295       7893.7    8259.8892    7310.5369   -454.36135     71.26127    -597.5706   -3937.1811 
25358000    134.22003    -5092.584   -4824.1274    -5092.584            0     7695.124    17.875159    22.767703    19.166372    7800.2593    8331.8916    6457.8209    8295.6595   -400.66585   -840.21447     944.7069   -3948.7395 
25359000    136.14728    -5114.016   -4841.7046    -5114.016            0    6367.4131     18.00355    22.608112    19.247515    7834.2441    5087.9139    6362.0263    7652.2991    230.55888   -558.42076    745.42878   -4114.1995 
25360000    134.86351   -5084.1044   -4814.3608   -5084.1044            0    9375.6474    17.756252     22.94409    19.011786    7745.4217    10054.161    8901.7205     9171.061   -573.16338    90.494175   -570.67207   -3755.2967 
25361000    142.58378   -5096.9704   -4811.7852   -5096.9704            0    7535.6094    18.051653    22.392528    19.310128    7805.5815    5838.5492    9233.2052    7535.0738     76.37552   -280.24567     393.0952   -3953.9586 
25362000    135.05864   -5098.0435   -4827.9096   -5098.0435            0     6913.693     17.82798    22.925749    19.093164    7803.7535     7057.193    6063.3384    7620.5476    355.75774    84.417931   -233.59127    -4041.064 
25363000    135.94583   -5115.3419   -4843.4334   -5115.3419            0    7510.5289     17.99085    22.557469    19.244517    7809.9644    8438.5587    6882.3231    7210.7048   -752.40625   -341.52364    970.87896   -3987.9818 
25364000    143.36831   -5111.2525   -4824.4982   -5111.2525            0    5669.6487    17.740689    22.920327    19.249814    7827.4054    7752.4589    4724.9334    4531.5536    965.59799   -756.28968   -77.734935   -4177.2812 
25365000    134.74476     -5104.97   -4835.4639     -5104.97            0    6762.8882    17.870802    22.590368    19.357413    7814.7426    5990.5042    8180.9796    6117.1807   -283.55769    649.75988   -14.454387   -4064.6975 
25366000    132.36075   -5113.8883   -4849.1504   -5113.8883            0    6647.7408    17.890449    22.766449    19.167571    7806.9898    6027.5231    6567.3017    7348.3977    956.44625   -840.26037    429.84304    -4092.259 
25367000    128.28468    -5106.052   -4849.4667    -5106.052            0     8769.606    17.743199    22.768498    19.238128    7771.9343    8833.3791    8840.2172    8635.2217   -476.38959    1035.8937   -1752.3441   -3855.4697 
25368000    134.30249   -5111.5243   -4842.9027   -5111.5243            0    8724.8971    17.862913    22.858659    19.043356    7775.8259    8203.8583    8870.4089    9100.4239    1345.2152    906.50277    1280.2585   -3853.4781 
25369000    136.17919    -5123.566   -4851.1908    -5123.566            0    6150.4678    17.968005    22.666642    19.223763    7829.3453    5471.8074    6359.8268    6619.7693    625.91228   -297.75998    653.06039   -4148.9121 
25370000    130.08799   -5098.3899   -4838.1979   -5098.3899            0     6832.621    17.826723    22.940533    19.119791     7819.125    7437.0608    6026.3752     7034.427    -458.4598    28.486432    1062.9046   -4059.0473 
25371000    131.65538   -5104.7651    -4841.438   -5104.7651            0    8365.8745    17.894987    22.675075    19.149373    7770.2448    9523.1334    7495.7689    8078.7212   -1135.7272    1.7550239   -992.78049   -3893.4083 
25372000    135.30998   -5088.2308   -4817.5941   -5088.2308            0    7581.1623    17.989763    22.740024    19.085489     7807.638    6680.5638    7840.8456    8222.0775    484.59123    332.69127   -832.34722   -3954.3545 
25373000    135.49578   -5105.4219   -4834.4136   -5105.4219            0    7011.1649    17.901858    22.751916    19.100989    7779.8626     7524.192    6199.8955    7309.4071   -786.13138   -1295.0343   -91.148644   -4038.9176 
25374000    142.68964   -5112.3772   -4826.9803   -5112.3772            0    7570.0691    17.880412    22.761366    19.173145    7803.1364    7245.0457     7375.335    8089.8267    7.5133549    -214.0447    -614.7096   -3965.5008 
25375000     136.8874    -5102.225   -4828.4333    -5102.225            0    5747.8339    17.924653    22.786397    19.205936    7844.4392    5425.2124    5956.2412    5862.0481   -1240.4593   -730.65047   -1570.3131   -4170.8633 
25376000     134.2818   -5107.9471   -4839.3669   -5107.9471            0    7634.3578    17.905634    22.571383    19.265949    7786.4282     7575.397    8835.7005    6491.9759   -418.10078    472.67844   -581.16329   -3972.4316 
25377000    133.02632   -5108.9629   -4842.8938   -5108.9629            0    6122.8246    17.741788    22.828312    19.291489     7813.344    6874.6699     6018.905    5474.8989   -1059.8547    -347.0138   -1439.5913   -4145.2003 
25378000    135.49428   -5116.8536   -4845.8483   -5116.8536            0    6539.4584    17.897899    22.704898    19.233461    7815.9009    6900.6579    5976.7226    6740.9947    945.05809    499.86698   -209.51792   -4100.4357 
25379000    144.42003    -5097.951   -4809.0932    -5097.951            0    8121.5992    17.906602    22.771637    19.119842    7796.3575    8215.1861    7387.6364    8761.9753   -185.70976    111.83136    248.92942   -3885.6521 
25380000    133.52077   -5123.2438   -4856.1858   -5123.2438            0    6290.9598    17.912465    22.839571    19.158661     7838.058      6089.35    6641.7976    6141.7318    -110.9017    371.89323   -353.25017   -4137.0659 
25381000    134.03435   -5125.6091   -4857.5238   -5125.6091            0    6980.4625    17.921214    22.692057    19.207921    7811.2697    5941.8032    7675.5245    7324.0599   -884.94875     579.1117    201.72237    -4062.314 
25382000     143.5853   -5106.5069   -4819.3186   -5106.5069            0    6108.3454    17.896677    22.858141    19.145159    7831.9927    5491.4438    6450.9738    6382.6186    -351.4104    158.84404   -770.31286   -4121.6137 
25383000    137.79068    -5097.347   -4821.7486    -5097.347            0    7696.2198    17.894906    22.680314    19.207469    7795.5835    7177.4689    7907.1878    8004.0027   -286.12721   -650.45584   -1134.0597   -3946.7608 
25384000    132.07272   -5107.9387   -4843.7769   -5107.9387            0    6450.2052    18.085325    22.756412    18.982279    7812.2921     4038.712    6618.1803    8693.7234    46.476582   -927.01551   -1513.1277   -4108.8775 
25385000    138.69601   -5123.1655   -4845.7564   -5123.1655            0    5971.1423    17.795785    22.893926    19.186848    7817.0169    5900.8194    5866.6077    6145.9999    112.10002   -76.840459    -507.3963   -4165.0272 
25386000    139.69043   -5100.9877   -4821.5896   -5100.9877            0    6939.3738    17.856239    22.493585    19.449839    7812.0438    8281.7633    6565.2033    5971.1548   -455.29272   -1196.4026    417.12038   -4030.9823 
25387000    138.69432   -5114.4419   -4837.0361   -5114.4419            0    8466.1856    17.805121    22.852738    19.081674    7764.2526    10052.447    8156.5546    7189.5552    640.22489    35.434112    3.8265685   -3878.3789 
25388000    137.81738   -5109.9278   -4834.2761   -5109.9278            0    7582.2275    17.874539    22.713882    19.217457    7802.2904    7649.7768    7512.3134    7584.5923     269.6171    440.05795   -175.23726   -3971.5065 
25389000    133.02446    -5117.468   -4851.4027    -5117.468            0     6946.842    17.857445     22.69446    19.254156    7803.0369    7803.8918    6911.9416    6124.6927    232.40723      545.669    1811.0117    -4060.857 
25390000    139.61594   -5103.9208   -4824.6717   -5103.9208            0    8760.2705    17.748801    22.790366    19.214796    7772.4173    8906.1779    8231.8853    9142.7484   -1080.0018    637.65517   -1007.1198   -3831.6711 
25391000     132.2131   -5105.4198   -4840.9773   -5105.4198            0    7484.1304    17.993774    22.518625    19.258643     7803.507    8350.5889    7811.5128    6290.2894    363.77637   -257.29081   -228.16661   -3989.2373 
25392000    135.36023   -5107.6274   -4836.8902   -5107.6274            0    7715.7095    17.723763    22.899462    19.191222    7789.0385    8407.9314    7705.9782    7033.2189    724.74665    1596.9372   -180.83953   -3960.4231 
25393000      134.417   -5113.2115   -4844.3609   -5113.2115            0    6619.8756    17.866128    22.624199    19.297391    7800.1371    6676.7017    7246.4699    5936.4553    789.88056   -245.56494    199.85248   -4091.3037 
25394000    138.88753   -5110.9008   -4833.1086   -5110.9008            0    6087.3591    17.956814    22.821536    19.096339    7825.7194    5606.2236    5925.0578    6730.7958     431.2864   -345.19613    603.06407   -4138.3577 
25395000    142.12428   -5120.1241   -4835.8579   -5120.1241            0    6785.7297    17.939557    22.595732    19.208082    7786.1384    6737.3247    6668.3293    6951.5351    409.43015   -1730.9052   -790.86406   -4065.3191 
25396000    136.92388   -5114.3606   -4840.4959   -5114.3606            0    6791.5739    17.729006    22.863306    19.251257    7803.3751    6719.9425     7367.393    6287.3862   -364.60719    254.84232    5.7106191   -4067.5861 
25397000    134.32963   -5118.9236   -4850.2478   -5118.9236            0    6862.4339    17.851496     22.75365     19.16612    7785.0227    5119.0157    7313.0617    8155.2243   -896.20663   -230.03953   -1126.4827   -4071.1106 
25398000     130.9715   -5101.3224   -4839.3632   -5101.3224            0    7627.1713    18.085768     22.61923    19.095211    7811.5865    6764.7018    7616.6547    8500.1574   -1838.1931    761.92846   -708.84003   -3970.4456 
25399000    136.37005   -5092.6615   -4819.9045   -5092.6615            0    7206.9333     17.98526    22.822772    19.046412    7818.0472    5352.5165    7517.3594     8750.924   -537.07391    380.08663   -396.77609    -3998.183 
25400000    134.52512   -5114.7069     -4845.64   -5114.7069            0    6408.0921    17.900768    22.574919    19.308562    7802.7518    6195.7526    7259.0033    5769.5203    -1339.459    204.04042   -843.39275   -4116.4303 
25401000    146.60939   -5102.6015   -4809.3646   -5102.6015            0    7365.5104    17.785833     22.78339    19.247449    7799.4819    8076.6675    6780.7621    7239.1016    12.774287   -837.70632    533.67623   -3971.5566 
25402000    135.13986   -5097.7822   -4827.4857   -5097.7822            0    8331.1894    17.786061    22.714847    19.237133    7771.9491    8591.1335    8410.8164    7991.6182    438.68708   -208.96687    334.50113   -3883.1795 
25403000    135.23904    -5096.448   -4825.9532    -5096.448            0    6659.4567    17.945432    22.736521    19.159171    7817.2611    5601.5459     6301.307    8075.5171   -393.13534   -464.89018   -692.06508   -4066.7303 
25404000    138.40146   -5115.9849   -4839.1649   -5115.9849            0    7321.4184    17.903156    22.586545    19.270869    7792.5701    6862.7212      8164.59    6936.9441    1405.3074     1265.721    74.519591   -4007.1103 
25405000    137.11782   -5119.8879   -4845.6353   -5119.8879            0    6078.3062    17.927652    22.735018    19.183628    7818.9688    6684.7227    5703.1929    5847.0031    697.05741    188.95152    207.17385   -4152.5161 
25406000     130.7501   -5113.6849   -4852.1686   -5113.6849            0    7272.2528    18.015737    22.617107    19.127353    7793.7048    6852.7357    6811.8283    8152.1943    899.63659   -513.17053   -166.13694   -4025.5811 
25407000    136.06443   -5108.0341   -4835.8884   -5108.0341            0    7869.9892     17.77499    22.906272    19.120685    7785.1542    8549.8598    8057.8453    7002.2626    57.731134   -116.84522   -1015.4537   -3942.3417 
25408000    132.63525   -5115.2813   -4849.9944   -5115.2813            0    7432.0266    17.898576    22.654066    19.218796    7792.7516    6186.9169      7379.69    8729.4729   -912.50884   -31.872852    73.489674   -4005.3499 
25409000    132.41551   -5114.6636   -4849.8162   -5114.6636            0    6160.0306    17.819126    22.971138    19.110165    7822.2797    5646.3772     5343.575    7490.1397   -155.55736   -134.51794   -1522.2118   -4147.0803 
25410000     137.5939   -5104.9028    -4829.698   -5104.9028            0    6941.7775    17.833202    22.721574    19.326602    7831.1088    8714.4395    6006.3528    6104.5402   -902.68372     761.1703   -103.99024   -4036.8867 
25411000    135.27014   -5113.7627   -4843.2057   -5113.7627            0    7497.5365     17.85252    22.761365    19.107205    7764.1692     6454.203    8222.6486    7815.7578    1570.9674   -38.794753    1360.8553   -3994.2413 
25412000    137.04745   -5113.9487   -4839.8368   -5113.9487            0    6736.2586    17.957976    22.670688    19.277384    7848.2019    7289.7868    6125.2294    6793.7597      52.8528    362.15624   -80.911358   -4068.8183 
25413000    129.66328   -5092.8439   -4833.5013   -5092.8439            0    7832.0803    17.742092      22.9041    19.112368    7766.6288    9128.5379    6596.3512    7771.3518   -59.848163   -292.99767    538.77989   -3946.3748 
25414000     136.3119    -5113.764   -4841.1234    -5113.764            0    7287.1506    17.858626    22.708337    19.193222    7783.6131    6761.5505     6945.594    8154.3073    1127.8373   -80.404243    1273.3182   -4013.9151 
25415000    130.95422   -5108.4825   -4846.5579   -5108.4825            0    5948.7886    17.892195    22.687755    19.339284    7850.4678    6153.4166    6006.2699    5686.6794   -172.52896    183.35603   -1157.7825    -4165.475 
25416000    145.95447   -5103.6487   -4811.7218   -5103.6487            0    7745.0635    17.909301    22.731223    19.118451    7783.1275    7728.2516     8175.748    7331.1909   -174.60204    1290.0953    186.25948   -3932.5879 
25417000     140.5019   -5118.3467   -4837.3255   -5118.3467            0    8331.7059    17.847584    22.751278    19.122271    7764.7001    8946.4316    7905.7249    8142.9612   -1096.2794    681.42606   -449.79537   -3893.8416 
25418000    133.68616   -5090.3166   -4822.9277   -5090.3166            0    7738.6316    17.888227    22.659405    19.250773    7803.0425    7605.6456    8610.7151     6999.534   -1552.9782    386.04343    388.58939   -3942.2763 
25419000    138.78257   -5094.5399   -4816.9577   -5094.5399            0     6867.852    17.837154    22.820568    19.182306    7808.2341    6905.6867    6915.3123     6782.557   -441.69985   -933.80038   -1271.8672   -4034.8804 
25420000    133.05003     -5103.85   -4837.7335     -5103.85            0    6540.8994    18.007939    22.753491    19.143338    7843.8581    5072.9628    6851.8483    7697.8872   -1113.8835    285.91497    676.00723   -4089.4898 
25421000    140.14202    -5110.405   -4830.1037    -5110.405            0    5937.6103     17.97609    22.709557    19.183186    7831.1339    5430.8534    5282.1924    7099.7851   -310.20308   -1391.9765    548.19526   -4151.9748 
25422000    129.44328   -5102.1391   -4843.2365   -5102.1391            0    7274.1845    17.805983    22.829909    19.182278    7797.7682    8163.7612    6471.6983    7187.0941    617.03937   -392.50821   -158.60223   -4015.9984 
25423000    133.49781   -5118.1006   -4851.0884   -5118.1006            0    6591.4003    17.857963    22.674583    19.307317    7817.9546    6428.1886    6598.5452    6747.4671    115.13011    138.84414      2029.84   -4099.5577 
25424000    133.90413   -5114.5273   -4846.7025   -5114.5273            0      5692.54    17.983547    22.757886    19.227898    7869.3539     5466.621    5280.7966    6330.2024    229.64876   -99.294904    210.82238   -4193.3898 
25425000    134.37226   -5111.5518   -4842.7907   -5111.5518            0    7141.9184    17.952282     22.83618    19.060968    7814.2638    7404.5889    6270.2594    7750.9069   -1761.3697    621.29892   -682.63067   -4028.8761 
25426000    134.00446   -5111.8401   -4843.8146   -5111.8401            0    6222.2248    17.897375    22.728538    19.255466    7832.7607     4638.098    7517.6516    6510.9247   -785.21264    1124.6681    131.65176   -4133.0326 
25427000    138.43279    -5096.825   -4819.9423    -5096.825            0    6903.6564    17.917408    22.762098    19.146747    7808.7673    6272.6679    6808.1608    7630.1404   -266.24781   -1000.2678   -1132.7779   -4033.7342 
25428000    134.79016   -5098.3246   -4828.7276   -5098.3246            0    7080.7626    17.888597    22.797276     19.17168    7818.4279    6477.8691    7974.4924    6789.9263   -847.23633    1263.8065    1363.9878   -4021.3525 
25429000    137.80901   -5101.8896   -4826.2545   -5101.8896            0    7213.3038    17.924007    22.779046    19.148423    7818.1436    7680.8116    6771.0645    7188.0353    593.20887   -98.028261   -380.19076   -4003.7965 
25430000    133.42085   -5101.5519   -4834.6937   -5101.5519            0       5826.4    18.047173    22.734092    19.098468    7835.8355    5432.2852    6645.7013    5401.2137   -1261.8934    206.52857    649.56422   -4168.8665 
25431000    137.79251   -5120.8644   -4845.2623   -5120.8644            0    5522.2934    17.888028    22.866891     19.14773    7832.2565      5740.06     4580.081     6246.739    972.70106   -447.26716   -216.48366    -4214.476 
25432000    143.82857   -5115.8712   -4828.1962   -5115.8712            0    8558.6841    17.911477    22.547442    19.229787     7766.103    6976.2627    9724.5319    8975.2577   -205.93351    313.56408   -604.37059   -3858.8341 
25433000    133.12164   -5112.3897   -4846.1299   -5112.3897            0    7979.6508    17.846589    22.741579    19.184132    7786.0645    8190.9216    7917.2457    7830.7852   -273.66673   -119.77488    1109.5866   -3940.0265 
25434000    132.99714   -5118.1596   -4852.1489   -5118.1596            0    5907.1893     18.00253    22.683092    19.203492    7841.8043    5312.2316    6019.3971    6389.9393    472.04316    357.69098   -1099.2242   -4176.5751 
25435000    141.32762   -5102.3111   -4819.6384   -5102.3111            0    6577.5424    17.938694    22.836026    19.115563    7830.6613    6848.9787    6419.6675     6463.981   -60.146647   -164.51086   -311.95773   -4068.4689 
25436000    137.76381   -5101.1927   -4825.6481   -5101.1927            0    6699.9524    17.844564    22.700687    19.234691    7791.6628    7042.2897    6855.3686    6202.1989      333.194   -51.877499   -204.52125   -4064.3097 
25437000    129.56562   -5103.9051   -4844.7579   -5103.9051            0    6040.1263    17.850728    22.747109    19.272264    7825.5502    6253.1769    6003.2345    5863.9674   -11.551527   -556.97289    1020.2617   -4155.4126 
25438000    139.94325   -5099.4013   -4819.4975   -5099.4013            0    7749.6105    17.874461    22.888769    19.055329         7796    6533.0862    8180.4579    8535.2874   -1769.9221      762.991    26.013408   -3938.3926 
25439000    131.46177   -5107.9245   -4844.9847   -5107.9245            0    9476.8882    17.958833    22.598957    19.081567    7744.2714     8995.752    9161.3762    10273.536    -643.2098    218.33086   -1698.4167   -3774.6436 
25440000    143.88347   -5098.6441   -4810.8594   -5098.6441            0    7905.5237    17.859437    22.939526    19.057297    7807.5271    7139.0036    7926.7473    8650.8201   -201.89679    669.82219   -373.07639   -3910.6987 
25441000    140.32002   -5107.4886   -4826.8313   -5107.4886            0    7379.1516    17.870431    22.680684    19.220261    7790.2331    8321.0859    7194.4416    6621.9273    483.44738    224.00968   -181.54498    -3988.467 
25442000    141.19025   -5111.9922   -4829.5942   -5111.9922            0    7234.4237    17.961225    22.607176     19.25332      7817.86    7091.6745    6849.9987     7761.598   -707.59663   -40.212066    1098.1299    -4004.758 
25443000    142.96779   -5126.4776   -4840.5244   -5126.4776            0    5606.6038    17.902164     22.92263    19.090991    7834.2683    4695.0885    5807.3876    6317.3355    824.92323   -548.34551     303.6476   -4199.9431 
25444000    135.13047   -5106.2484   -4835.9708   -5106.2484            0    4999.7569    17.998657    22.731724    19.234394    7869.5695    4637.1547     5266.187    5095.9289    519.61367   -246.36968    -331.5706   -4262.1507 
25445000    135.70344   -5101.2502   -4829.8266   -5101.2502            0    6877.7459    17.919611    22.938515    18.991279    7806.3515    7245.1266    6236.6096    7151.5014   -783.55382   -360.27467   -1289.2206   -4046.8115 
25446000    131.66935   -5105.3385   -4841.9836   -5105.3385            0    6590.0349    17.855999    22.724495    19.267688    7818.2222    7826.9861     5660.064    6283.0546    771.47155    8.4336097    1173.3415   -4090.5828 
25447000    135.08902   -5105.5417   -4835.3469   -5105.5417            0    6621.0559    17.845746    22.801082    19.219231    7820.3491    6209.2468    6751.0601     6902.861    1002.8753    364.78431    -353.6119   -4080.2038 
25448000     137.3456   -5112.3272    -4837.619   -5112.3272            0    5963.6346    17.953183    22.699896     19.21803    7832.0272    5682.1655    6186.4458    6022.2926   -1050.4039    14.375658    1408.2324   -4156.4403 
25449000    135.37605   -5096.4794   -4825.7106   -5096.4794            0    7836.6876    18.008487     22.63941    19.205966    7830.3016    7147.3618    7739.1514    8623.5495   -467.70083     150.0842   -318.16418    -3930.785 
25450000    134.63272   -5107.6301    -4838.348   -5107.6301            0    6378.6547    17.851537    22.824067    19.160419    7806.8108    5871.1046    6662.9475    6601.9122    -212.8623    203.85838   -497.59292   -4112.1106 
25451000    138.68012   -5112.6296   -4835.2523   -5112.6296            0    7781.3001    17.928618    22.753426    19.079972    7783.4357    8243.7686    7338.8416    7761.2899   -162.91953    452.48889    488.35062   -3951.9702 
25452000    133.61098   -5102.5546   -4835.3161   -5102.5546            0    6928.0247    17.910425    22.630241     19.26566    7808.7045    7973.2354    7126.4049    5684.4337    1500.6776   -336.53658   -1305.0673   -4046.3392 
25453000    132.91516   -5118.5938    -4852.747   -5118.5938            0     6325.068    17.876083    22.812226     19.21199    7834.5196    6570.8227    5188.0861    7216.2951    -139.2745   -822.55111    637.51094   -4130.0547 
25454000    131.96865   -5113.6783   -4849.7247   -5113.6783            0    7543.8235    17.794186    22.703223    19.259795    7780.6755    8800.6286     7766.498    6064.3438     326.3863    -734.1172   -170.49394   -3993.7032 
25455000    136.38851   -5121.8814   -4849.0876   -5121.8814            0    6910.2358    17.916459    22.673174    19.215463    7805.7626    5907.0009    7304.1167    7519.5897    1183.1473   -513.90133    566.10451   -4062.4329 
25456000    134.52159    -5112.504   -4843.4442    -5112.504            0    7367.0715    17.754982     22.92526    19.212181    7820.0797    6878.5369    7254.0838    7968.5936   -649.00134    933.79469    -779.8982   -4003.2457 
25457000    140.09807   -5121.2311   -4841.0176   -5121.2311            0    6491.9685    17.890725    22.633019    19.330893    7827.4868    6729.2062    6970.7085    5775.9907   -103.31392   -396.24805   -1698.7362   -4099.9214 
25458000    139.43133   -5101.6383   -4822.7584   -5101.6383            0      7967.75    17.826546    22.816372    19.154029    7790.6542    9430.8848    6900.7816    7571.5836   -823.40367   -508.32624    -241.8643    -3917.473 
25459000    138.99732   -5111.1017   -4833.0898   -5111.1017            0    7516.0467    17.913054    22.698779    19.196016    7805.1857    6233.2602    7790.7155    8524.1645    632.30516   -187.46456    187.52409   -3977.5335 
25460000    143.46751   -5109.4447    -4822.492   -5109.4447            0    7162.2522     17.87103    22.797239    19.115642    7787.9064    5726.2869    7851.0706     7909.399    1389.8358    262.85701    1421.0119   -4009.0132 
25461000    134.46093    -5094.584   -4825.6455    -5094.584            0    8443.6607    17.870274    22.438895    19.367136    7766.0125    8959.6867    10211.574    6159.7217   -319.56525    393.11415    1499.1056   -3869.3222 
25462000    132.50213   -5096.9915   -4831.9709   -5096.9915            0    7425.3276    17.811761    22.933806    19.109832    7806.2034    8318.6171    5812.2813    8145.0843    450.57464   -120.20033    151.28594   -3986.6309 
25463000    134.55244   -5096.9258   -4827.8043   -5096.9258            0    8308.9708    17.834773     22.51257    19.350245    7769.2507    9845.1435    7461.8104    7619.9586    957.05087   -1186.3091    1222.2155   -3886.3434 
25464000    134.07733   -5107.8483    -4839.677   -5107.8483            0    5867.1984    17.802956    22.936974    19.188374    7835.4947    6320.2727    4910.0905    6371.2319     925.4444    -626.2937    2180.7876   -4169.2167 
25465000    131.93726   -5123.7231   -4859.8323   -5123.7231            0    7381.1452     17.90838    22.569972    19.289146    7796.5113    7924.1634    6986.7556    7232.5166    596.54114    -259.9594    155.37617   -4020.5656 
25466000    139.22968    -5115.185   -4836.7085    -5115.185            0    7548.0243    17.993712     22.75634    19.032076    7793.0839    6499.4056    7729.7063    8414.9611    268.32519    542.66296    829.87164   -3978.8443 
25467000    128.69266   -5113.4035   -4856.0023   -5113.4035            0    6994.2406    17.930796    22.698259    19.193613    7811.7588    4958.9887    8102.7819    7920.9513   -870.06395    1027.3422   -447.99533    -4059.173 
25468000    144.11199   -5118.0179   -4829.7761   -5118.0179            0    5780.5982    17.816422    22.709927    19.372784    7838.4154    6895.7387    5627.8217    4818.2341   -1271.0358    168.89523   -151.59747   -4168.9656 
25469000    139.39924   -5113.0079   -4834.1922   -5113.0079            0    7785.6355    17.684258    22.852499    19.263922     7785.119    8720.0454     7092.915    7543.9463     554.1334   -589.06507    1660.0476   -3950.2269 
25470000    132.52394   -5116.2328   -4851.1685   -5116.2328            0    8669.2943    17.860569    22.656337    19.185211    7763.3927     9675.059     8049.842     8282.982   -134.74552   -335.42118    499.10718   -3869.6213 
25471000    134.87971   -5106.1429   -4836.3668   -5106.1429            0    7508.8023    17.819398    22.882392    19.039432    7763.3372    6141.7707    7508.6151    8876.0212   -199.67995   -490.18388   -278.21132   -3986.2179 
25472000    130.20363    -5116.026   -4855.6027    -5116.026            0    6785.1962    17.986853    22.601388    19.203137    7806.6098    6002.8741     7064.654    7288.0607   -912.46563    66.877677    -519.4883   -4083.0986 
25473000    130.93931   -5115.2432   -4853.3484   -5115.2432            0    6871.7918    17.860622    22.895384    19.099449    7810.2576    7036.4459    6374.9247    7204.0049    440.77557     84.94171   -692.66451   -4070.6197 
25474000     138.4539   -5106.0254   -4829.1005   -5106.0254            0    8302.1718    18.082725    22.474469    19.111005    7766.7057    7635.1778    9169.0623    8102.2754   -386.46788   -131.71494    -194.6539   -3888.7182 
25475000    132.10277   -5107.1014   -4842.8796   -5107.1014            0    8387.3702    17.780649    22.770128    19.178795    7764.8738    8503.2136    8932.0762    7726.8207   -201.03123   -208.90266    565.01236   -3893.0709 
25476000    132.91392   -5103.7846   -4837.9403   -5103.7846            0    7947.4063    17.827858    22.655176    19.282684     7788.146    8103.7271    8304.4779    7434.0139    1339.5053    216.80749   -199.72453    -3935.257 
25477000    139.43515   -5082.7944   -4803.9069   -5082.7944            0    7236.9889    17.882373     22.76504    19.214978    7822.2818    7042.0777    6816.8308     7852.058   -1031.6169   -514.83237     445.8094   -3978.3115 
25478000    138.70472   -5097.5484   -4820.1218   -5097.5484            0    8292.2591    17.862884    22.779129     19.07628    7762.1563     9876.438    6950.9436    8049.3956    424.83604   -783.79204    476.29174   -3881.4125 
25479000    139.22637   -5107.2523   -4828.7824   -5107.2523            0    6083.6195    17.808824    22.725235    19.370018    7839.2345    6670.2113       5778.7    5801.9471   -1157.6487    775.42745   -284.21762   -4133.2592 
25480000    142.93609   -5097.6139    -4811.724   -5097.6139            0    7016.2344    17.808265    22.914334    19.151838    7815.1856    6607.5227    7194.2213    7246.9592    674.59557    109.95991   -69.847907   -4012.0384 
25481000    134.16077   -5084.8419   -4816.5038   -5084.8419            0    8826.3899    17.935066    22.510267     19.21468    7757.4105    8733.8682    8865.3901    8879.9114   -350.16924   -573.00467     368.3408   -3817.9401 
25482000    132.17538   -5092.0792   -4827.7121   -5092.0792            0    8241.8356    17.665909    23.026967    19.097647    7768.7759    10085.336    6644.8411    7995.3294   -678.15141   -38.222105   -570.57122   -3893.9152 
25483000    132.85678   -5109.0203   -4843.2903   -5109.0203            0    6689.5797    17.909869    22.646865    19.238755    7803.2849    5804.2483    7943.7833    6320.7076   -788.33783    841.92419    -19.34577   -4081.9967 
25484000    143.62116   -5106.2421   -4818.9821   -5106.2421            0    7962.6515    17.774069    22.784078    19.173143    7764.4666    9258.7474    7516.8113    7112.3958    279.95718   -429.57905   -1006.2365    -3917.317 
25485000     136.5532   -5113.3538   -4840.2305   -5113.3538            0    8396.1018    17.835049      22.6229    19.229599    7758.7687    9596.4557    8335.5644    7256.2853    426.36773   -157.09223   -85.503553   -3890.1807 
25486000    133.37986   -5105.0644   -4838.2882   -5105.0644            0    8230.0915    17.810579    22.768502    19.188967    7781.5137    9456.1584    7729.2977    7504.8183    803.68656    5.6010399   -361.27739    -3904.293 
25487000    136.15929   -5114.5405   -4842.2051   -5114.5405            0    6951.7526    17.909791    22.690213    19.221398    7811.1334    7063.9495     6585.931    7205.3772   -38.392183   -238.23032     120.1578   -4050.2797 
25488000    138.16363   -5106.5324   -4830.1881   -5106.5324            0     6710.998    18.007389    22.712584    19.130242    7824.1606    5144.1244    7780.8537    7208.0158     435.4683    1094.4359   -552.18137   -4064.4138 
25489000    143.09611   -5122.2673   -4836.0574   -5122.2673            0    6333.4517    17.968131    22.789199    19.115482    7827.3944    5838.0165    6691.7827    6470.5559     335.3326    683.93461    146.93209   -4113.0653 
25490000    139.40312   -5106.6294   -4827.8059   -5106.6294            0    7903.0223     17.83746    22.713396    19.195645    7777.1018    8222.4697    7658.1716    7828.4256    1157.8246      468.353   -1272.0565   -3931.4368 
25491000    135.35451   -5121.0126   -4850.2869   -5121.0126            0    5372.0526    17.813015    22.731199    19.327449    7825.9003    6200.9375    5650.3209    4264.8994     608.2903   -7.1080733    427.73034   -4237.1599 
25492000    133.89637   -5101.2301   -4833.4208   -5101.2301            0    9175.7723    17.822384    22.506775    19.315383    7747.8711    9120.7617    9046.6176    9359.9376     711.0283   -812.20573    595.81519   -3796.6067 
25493000    145.70661   -5112.4247   -4820.9935   -5112.4247            0     5299.966      17.8867    22.946534    19.109964     7843.451    3903.4891    5591.1749     6405.234    427.33535     549.7419   -140.41177   -4214.7373 
25494000    137.40541    -5098.445   -4823.6172    -5098.445            0    6491.7813    17.985654    22.648983    19.247084    7840.4302    5440.1882    7661.9548    6373.2009   -239.62757    1138.7086   -353.42899   -4081.3169 
25495000    143.90071   -5107.7899   -4819.9707   -5107.7899            0    6232.4836    17.962452     22.71565    19.193246    7831.3968    6841.9141    6182.3912    5673.1454    115.24698   -46.682156   -409.85087   -4108.1408 
25496000    134.27653   -5105.7012   -4837.1316   -5105.7012            0     6636.263    17.800406      22.8825    19.162019    7805.0314    7379.8886    6538.6583    5990.2419    -35.87251    276.32512   -589.44178   -4081.7365 
25497000    140.21607   -5112.4647   -4832.0152   -5112.4647            0    7441.8591    17.813074    22.680218    19.279228    7788.8931    7028.3251    7674.0969    7623.1553   -1171.7663   -229.48249   -1441.0667    -3986.672 
25498000    137.68973   -5094.6265     -4819.23   -5094.6265            0    7079.2992    17.795964    22.789425    19.202968    7787.9515    6788.2651    6782.0796     7667.553   -37.332515   -940.66407   -1479.2259   -4015.1683 
25499000    136.75533   -5114.1489   -4840.6213   -5114.1489            0     6881.794    17.862607    22.665392     19.24325    7790.8796    7222.3251    7270.1559    6152.9011    -195.6428    85.145111   -332.00919   -4058.6982 
25500000    142.70738   -5097.5725   -4812.1401   -5097.5725            0    8201.1046    17.801942    22.857405    19.127511    7783.1031    8413.4376    8107.5495    8082.3267    -279.1091    537.54839    1506.1457   -3881.2444 
Loop time of 468.144 on 64 procs for 250000 steps with 1008 atoms

Performance: 92.279 ns/day, 0.260 hours/ns, 534.023 timesteps/s
193.8% CPU use with 32 MPI tasks x 2 OpenMP threads

MPI task timing breakdown:
Section |  min time  |  avg time  |  max time  |%varavg| %total
---------------------------------------------------------------
Pair    | 35.04      | 41.026     | 48.723     |  39.0 |  8.76
Bond    | 1.0079     | 1.2729     | 1.9266     |  15.0 |  0.27
Kspace  | 223.37     | 233.96     | 243.21     |  29.6 | 49.98
Neigh   | 1.5571     | 1.7209     | 1.9025     |   7.9 |  0.37
Comm    | 70.856     | 79.48      | 86.751     |  42.9 | 16.98
Output  | 0.49721    | 0.49751    | 0.49917    |   0.0 |  0.11
Modify  | 88.984     | 92.814     | 95.585     |  13.4 | 19.83
Other   |            | 17.38      |            |       |  3.71

Nlocal:        31.5000 ave          36 max          25 min
Histogram: 1 0 4 2 2 7 3 6 5 2
Nghost:        2939.72 ave        2965 max        2916 min
Histogram: 4 2 2 5 4 3 5 2 3 2
Neighs:        10733.0 ave       12337 max        8554 min
Histogram: 1 0 4 2 2 7 4 6 4 2

Total # of neighbors = 343457
Ave neighs/atom = 340.73115
Ave special neighs/atom = 2.0000000
Neighbor list builds = 3666
Dangerous builds = 0

unfix		3
unfix		2
unfix		1

write_data	data.final.${pid}
write_data	data.final.0
System init for write_data ...
PPPM initialization ...
  extracting TIP4P info from pair style
  using 12-bit tables for long-range coulomb (../kspace.cpp:340)
  G vector (1/distance) = 0.38000119
  grid = 24 27 32
  stencil order = 5
  estimated absolute RMS force accuracy = 0.0023747351
  estimated relative force accuracy = 7.1514441e-06
  using double precision FFTW3
  3d grid and FFT values/proc = 5355 672
Last active /omp style is kspace_style pppm/tip4p/omp
WARNING: Not all mixed pair coeffs generated from mixing. Use write_data with 'pair ij' option to store all pair coeffs. (../write_data.cpp:312)

write_restart   restart.lmp.${pid}
write_restart   restart.lmp.0
System init for write_restart ...
PPPM initialization ...
  extracting TIP4P info from pair style
  using 12-bit tables for long-range coulomb (../kspace.cpp:340)
  G vector (1/distance) = 0.38000119
  grid = 24 27 32
  stencil order = 5
  estimated absolute RMS force accuracy = 0.0023747351
  estimated relative force accuracy = 7.1514441e-06
  using double precision FFTW3
  3d grid and FFT values/proc = 5355 672
Last active /omp style is kspace_style pppm/tip4p/omp
Total wall time: 0:07:48
