LAMMPS data file via MDAnalysis

        2592  atoms
        1728  bonds
         864  angles
           0  dihedrals
           0  impropers

           2  atom types
           1  bond types
           1  angle types
           0  dihedral types
           0  improper types

0.000000 23.537001 xlo xhi
0.000000 21.641075 ylo yhi
0.000000 43.450161 zlo zhi
-9.257500 3.826729 5.808289 xy xz yz


Masses

1 1.008000
2 15.999000

Atoms

1 0 2 -1.179400 13.419741 17.879732 4.961904
2 0 1 0.589700 13.751175 18.585852 5.513195
3 0 1 0.589700 12.601637 18.216299 4.612214
4 0 2 -1.179400 -0.122166 4.213260 2.475674
5 0 1 0.589700 -0.683598 3.655730 3.008359
6 0 1 0.589700 -0.643064 4.418609 1.702284
7 0 2 -1.179400 4.753361 1.892257 0.347538
8 0 1 0.589700 8.005563 7.162676 43.533146
9 0 1 0.589700 4.803490 1.877795 1.303293
10 0 2 -1.179400 12.626347 21.888964 4.454158
11 0 1 0.589700 12.028616 21.153631 4.554962
12 0 1 0.589700 13.487176 21.487289 4.420787
13 0 2 -1.179400 19.668495 4.700269 1.702190
14 0 1 0.589700 20.084400 4.945572 2.526819
15 0 1 0.589700 20.390102 4.551053 1.098314
16 0 2 -1.179400 2.494751 0.272051 2.572729
17 0 1 0.589700 2.588347 1.187666 2.316778
18 0 1 0.589700 -5.923937 21.497036 2.115861
19 0 2 -1.179400 1.666404 6.501068 1.675843
20 0 1 0.589700 2.412801 6.056303 2.064958
21 0 1 0.589700 1.457230 5.983621 0.899373
22 0 2 -1.179400 -8.349704 20.631342 4.125286
23 0 1 0.589700 -7.785426 21.146313 3.554034
24 0 1 0.589700 -7.751971 20.128275 4.672101
25 0 2 -1.179400 18.989532 0.914272 5.700416
26 0 1 0.589700 9.637698 22.193192 4.860425
27 0 1 0.589700 19.170073 1.828521 5.491137
28 0 2 -1.179400 2.397877 2.989018 2.285704
29 0 1 0.589700 2.989261 3.735287 2.325245
30 0 1 0.589700 1.531854 3.378983 2.249527
31 0 2 -1.179400 -4.843387 19.740286 3.902378
32 0 1 0.589700 -5.368103 19.416418 4.631135
33 0 1 0.589700 -5.333374 19.496372 3.119762
34 0 2 -1.179400 21.099567 2.455274 3.043871
35 0 1 0.589700 21.410616 1.669306 3.488403
36 0 1 0.589700 20.487728 2.848666 3.660623
37 0 2 -1.179400 -2.803449 18.270470 5.023028
38 0 1 0.589700 -2.491565 18.788857 5.762985
39 0 1 0.589700 -3.549003 18.758741 4.688471
40 0 2 -1.179400 8.039016 3.470427 2.436867
41 0 1 0.589700 7.454607 2.907029 2.937259
42 0 1 0.589700 7.464293 3.978323 1.869840
43 0 2 -1.179400 13.081902 1.715971 0.333770
44 0 1 0.589700 13.099778 0.783175 0.539203
45 0 1 0.589700 13.389206 2.142329 1.132345
46 0 2 -1.179400 -2.926180 21.528421 4.460157
47 0 1 0.589700 -3.471525 20.773386 4.256354
48 0 1 0.589700 -2.047503 21.172016 4.523584
49 0 2 -1.179400 3.926660 5.118080 2.317481
50 0 1 0.589700 4.340371 5.377693 3.138825
51 0 1 0.589700 4.642962 5.049211 1.692971
52 0 2 -1.179400 1.788888 21.598589 3.110832
53 0 1 0.589700 10.681478 0.715958 2.629217
54 0 1 0.589700 2.379605 21.130123 2.526685
55 0 2 -1.179400 9.382328 6.158641 1.203004
56 0 1 0.589700 10.201339 5.693032 1.332739
57 0 1 0.589700 9.038796 5.810470 0.381683
58 0 2 -1.179400 -0.352860 20.178635 4.419333
59 0 1 0.589700 0.362614 20.639471 3.991868
60 0 1 0.589700 0.025915 19.831423 5.225168
61 0 2 -1.179400 3.448736 0.790505 5.596382
62 0 1 0.589700 -5.516295 22.186811 4.694767
63 0 1 0.589700 3.695919 1.712706 5.609059
64 0 2 -1.179400 10.432611 2.371129 1.882396
65 0 1 0.589700 11.029888 3.112190 1.929559
66 0 1 0.589700 9.571708 2.768811 1.817658
67 0 2 -1.179400 3.016509 19.075935 4.514607
68 0 1 0.589700 2.453765 19.075304 5.285569
69 0 1 0.589700 2.497473 18.657896 3.831263
70 0 2 -1.179400 5.728545 2.308247 3.387196
71 0 1 0.589700 5.854768 1.465450 3.819397
72 0 1 0.589700 5.029583 2.726184 3.881489
73 0 2 -1.179400 5.345463 17.836649 5.138481
74 0 1 0.589700 5.683064 18.500351 5.736876
75 0 1 0.589700 4.526034 18.199778 4.820017
76 0 2 -1.179400 15.436139 3.758280 1.880250
77 0 1 0.589700 14.758976 3.300081 2.369518
78 0 1 0.589700 15.005505 4.049070 1.078465
79 0 2 -1.179400 20.943956 1.804209 0.247766
80 0 1 0.589700 20.693310 0.888752 0.351954
81 0 1 0.589700 20.809147 2.189533 1.113025
82 0 2 -1.179400 4.516687 21.499010 4.434443
83 0 1 0.589700 4.108027 20.638008 4.480371
84 0 1 0.589700 5.444186 21.314465 4.346384
85 0 2 -1.179400 11.729811 5.030145 2.001056
86 0 1 0.589700 12.294785 5.254138 2.736888
87 0 1 0.589700 12.311691 4.995261 1.245476
88 0 2 -1.179400 9.607537 21.861048 3.126236
89 0 1 0.589700 18.693117 1.093009 2.827919
90 0 1 0.589700 10.266709 21.454378 2.570740
91 0 2 -1.179400 17.426411 6.233556 1.337072
92 0 1 0.589700 17.002607 5.650395 0.710807
93 0 1 0.589700 18.249441 5.802740 1.540654
94 0 2 -1.179400 7.419517 20.440426 4.218822
95 0 1 0.589700 8.129098 20.657818 3.621282
96 0 1 0.589700 7.828055 19.916012 4.904726
97 0 2 -1.179400 11.458146 1.011869 5.868935
98 0 1 0.589700 11.360483 0.658155 4.985245
99 0 1 0.589700 11.475232 1.959064 5.746265
100 0 2 -1.179400 17.997221 2.548957 1.796306
101 0 1 0.589700 18.556919 3.320417 1.780648
102 0 1 0.589700 17.124741 2.896055 1.943354
103 0 2 -1.179400 11.050038 19.358114 4.438457
104 0 1 0.589700 10.312177 19.347309 5.040780
105 0 1 0.589700 10.680799 19.108318 3.592871
106 0 2 -1.179400 13.284038 2.395075 3.099453
107 0 1 0.589700 13.226562 1.475828 3.353157
108 0 1 0.589700 12.570359 2.817787 3.567607
109 0 2 -1.179400 19.211411 3.534698 5.043351
110 0 1 0.589700 19.515102 4.120987 5.734248
111 0 1 0.589700 18.522818 4.023280 4.602158
112 0 2 -1.179400 -2.830491 11.167372 1.900152
113 0 1 0.589700 -3.564897 10.646068 2.208690
114 0 1 0.589700 -3.163214 11.627421 1.131253
115 0 2 -1.179400 3.089035 8.781718 0.754174
116 0 1 0.589700 2.658920 7.967883 1.005455
117 0 1 0.589700 2.799470 9.418039 1.405666
118 0 2 -1.179400 18.665545 7.276917 4.259238
119 0 1 0.589700 18.007509 6.628242 4.027647
120 0 1 0.589700 19.492912 6.827786 4.125125
121 0 2 -1.179400 16.945814 11.990147 1.698937
122 0 1 0.589700 17.606356 12.355057 2.281248
123 0 1 0.589700 17.365686 11.957337 0.841043
124 0 2 -1.179400 -0.755658 7.443843 2.700441
125 0 1 0.589700 -0.588004 8.377158 2.586490
126 0 1 0.589700 -0.050656 7.012916 2.226484
127 0 2 -1.179400 -0.992902 13.972317 1.129574
128 0 1 0.589700 -0.297174 13.432076 1.491850
129 0 1 0.589700 -1.176341 13.585417 0.274166
130 0 2 -1.179400 20.926590 5.908262 3.906916
131 0 1 0.589700 -2.063272 6.449301 3.342960
132 0 1 0.589700 21.511732 5.600602 4.594823
133 0 2 -1.179400 15.750944 7.954541 5.469495
134 0 1 0.589700 15.580793 7.723964 4.556575
135 0 1 0.589700 16.183834 8.803486 5.423819
136 0 2 -1.179400 -0.347766 10.157797 2.382794
137 0 1 0.589700 0.216769 10.919840 2.286782
138 0 1 0.589700 -1.214808 10.524244 2.514605
139 0 2 -1.179400 1.819127 4.910662 4.629573
140 0 1 0.589700 1.120822 4.651772 5.224000
141 0 1 0.589700 1.492075 4.693520 3.757690
142 0 2 -1.179400 18.546602 9.692013 2.767359
143 0 1 0.589700 18.659843 8.919066 3.318073
144 0 1 0.589700 17.960371 10.254954 3.266109
145 0 2 -1.179400 4.089890 3.467990 5.107634
146 0 1 0.589700 4.518403 4.120375 5.657399
147 0 1 0.589700 3.227574 3.831188 4.940112
148 0 2 -1.179400 4.744609 11.417552 2.486576
149 0 1 0.589700 3.943921 11.052341 2.848153
150 0 1 0.589700 4.486592 11.783129 1.641367
151 0 2 -1.179400 10.141747 8.845448 1.101960
152 0 1 0.589700 10.110329 7.897682 1.217078
153 0 1 0.589700 10.052297 9.196936 1.987424
154 0 2 -1.179400 3.144436 7.400333 4.619873
155 0 1 0.589700 2.612900 6.609783 4.580724
156 0 1 0.589700 4.032290 7.092473 4.478716
157 0 2 -1.179400 1.201944 12.568316 1.919325
158 0 1 0.589700 1.503578 12.965276 2.735129
159 0 1 0.589700 1.968610 12.557906 1.354739
160 0 2 -1.179400 7.574492 7.581093 2.805749
161 0 1 0.589700 7.471433 8.390288 2.307818
162 0 1 0.589700 8.059221 7.002721 2.221330
163 0 2 -1.179400 6.684685 13.748101 1.461528
164 0 1 0.589700 7.430995 13.406778 1.944429
165 0 1 0.589700 7.005209 14.548059 1.050144
166 0 2 -1.179400 5.716488 6.088916 4.203489
167 0 1 0.589700 6.453002 6.474609 3.739215
168 0 1 0.589700 6.110750 5.489081 4.833545
169 0 2 -1.179400 0.176637 7.741895 5.464298
170 0 1 0.589700 0.151480 7.354933 4.589523
171 0 1 0.589700 0.306932 8.675226 5.308518
172 0 2 -1.179400 7.178760 10.192678 1.762157
173 0 1 0.589700 7.750742 10.809703 2.210972
174 0 1 0.589700 6.302051 10.505617 1.953854
175 0 2 -1.179400 9.159792 5.041916 4.444267
176 0 1 0.589700 8.567624 4.967272 5.188749
177 0 1 0.589700 8.690318 4.640778 3.715808
178 0 2 -1.179400 2.639732 9.868714 3.487398
179 0 1 0.589700 2.765034 9.008454 3.883847
180 0 1 0.589700 2.035165 10.315009 4.074570
181 0 2 -1.179400 11.404552 3.487028 4.742945
182 0 1 0.589700 11.756743 4.172899 5.306685
183 0 1 0.589700 10.529675 3.787232 4.524196
184 0 2 -1.179400 12.521626 10.695271 1.800188
185 0 1 0.589700 11.884255 10.333940 2.410318
186 0 1 0.589700 12.017486 11.272914 1.231958
187 0 2 -1.179400 18.359142 8.527835 0.301632
188 0 1 0.589700 18.076548 7.705873 0.697423
189 0 1 0.589700 18.407902 9.140545 1.034332
190 0 2 -1.179400 11.120258 7.124456 4.678102
191 0 1 0.589700 10.316035 6.622455 4.601573
192 0 1 0.589700 11.808546 6.491515 4.497816
193 0 2 -1.179400 8.902704 12.516214 2.337044
194 0 1 0.589700 9.471106 12.575830 3.101449
195 0 1 0.589700 9.493834 12.380440 1.600438
196 0 2 -1.179400 15.510659 7.409590 2.744193
197 0 1 0.589700 15.400372 8.307596 2.437396
198 0 1 0.589700 16.254435 7.079102 2.249888
199 0 2 -1.179400 14.548288 13.272628 1.024770
200 0 1 0.589700 15.346510 12.891967 1.375750
201 0 1 0.589700 14.267489 12.657491 0.349389
202 0 2 -1.179400 13.477726 5.643572 4.082878
203 0 1 0.589700 14.109772 6.229328 3.675818
204 0 1 0.589700 13.976254 5.163640 4.740425
205 0 2 -1.179400 8.004236 8.163130 5.619546
206 0 1 0.589700 7.968619 7.935685 4.690570
207 0 1 0.589700 8.187649 9.100315 5.629274
208 0 2 -1.179400 15.247644 9.775699 1.572773
209 0 1 0.589700 15.951833 10.378961 1.789167
210 0 1 0.589700 14.454805 10.260545 1.776107
211 0 2 -1.179400 17.026674 4.964559 4.124101
212 0 1 0.589700 16.375566 4.811890 4.803783
213 0 1 0.589700 16.585281 4.742588 3.306328
214 0 2 -1.179400 10.823245 9.645746 3.738154
215 0 1 0.589700 11.036017 8.775626 4.069797
216 0 1 0.589700 10.085008 9.927713 4.269677
217 0 2 -1.179400 16.690813 10.542039 4.779281
218 0 1 0.589700 16.817425 11.189525 5.471355
219 0 1 0.589700 15.871125 10.791202 4.365693
220 0 2 -1.179400 -6.420907 18.582504 1.867159
221 0 1 0.589700 -7.100579 18.152719 2.378294
222 0 1 0.589700 -6.881547 19.238693 1.349255
223 0 2 -1.179400 -0.718338 16.564480 0.696158
224 0 1 0.589700 -0.901826 15.627378 0.711146
225 0 1 0.589700 -0.653293 16.810408 1.618762
226 0 2 -1.179400 15.645943 14.400518 4.114278
227 0 1 0.589700 15.093046 13.631230 4.008012
228 0 1 0.589700 16.530506 14.068359 4.013094
229 0 2 -1.179400 13.450281 19.478977 2.270142
230 0 1 0.589700 13.830282 19.883642 3.047988
231 0 1 0.589700 14.165851 19.434967 1.642531
232 0 2 -1.179400 -3.271034 15.036158 2.592646
233 0 1 0.589700 -3.500936 15.862578 2.172259
234 0 1 0.589700 -2.440604 14.793044 2.197648
235 0 2 -1.179400 -4.450648 20.745804 0.815069
236 0 1 0.589700 -1.297078 26.286814 43.562382
237 0 1 0.589700 -3.547115 20.646961 1.092088
238 0 2 -1.179400 -5.338407 13.369617 3.811778
239 0 1 0.589700 -4.639572 13.962117 3.552199
240 0 1 0.589700 -4.958768 12.832676 4.504789
241 0 2 -1.179400 12.616381 15.242446 5.724518
242 0 1 0.589700 12.674894 14.765829 4.897082
243 0 1 0.589700 12.916110 16.124083 5.513748
244 0 2 -1.179400 -3.732392 17.384272 1.353335
245 0 1 0.589700 -3.028791 17.937504 1.678556
246 0 1 0.589700 -4.519137 17.899586 1.496629
247 0 2 -1.179400 -1.985523 12.530217 4.315423
248 0 1 0.589700 -2.718212 12.353727 4.897971
249 0 1 0.589700 -2.331440 12.387589 3.435539
250 0 2 -1.179400 15.413783 16.928453 3.309236
251 0 1 0.589700 15.504410 16.035587 3.636933
252 0 1 0.589700 14.646400 17.269655 3.757405
253 0 2 -1.179400 0.483171 10.672975 5.250131
254 0 1 0.589700 0.655149 11.214539 6.019331
255 0 1 0.589700 -0.247531 11.101161 4.814811
256 0 2 -1.179400 1.552366 18.377863 2.397593
257 0 1 0.589700 0.780221 17.966019 2.771729
258 0 1 0.589700 1.287198 18.639545 1.516677
259 0 2 -1.179400 7.301435 16.333477 0.742147
260 0 1 0.589700 10.124562 23.104792 43.565075
261 0 1 0.589700 7.263604 16.795565 1.579028
262 0 2 -1.179400 -0.262024 14.615161 4.369076
263 0 1 0.589700 -0.883187 13.893052 4.391186
264 0 1 0.589700 0.581043 14.194118 4.243080
265 0 2 -1.179400 -1.656332 20.065830 1.561057
266 0 1 0.589700 -1.106552 20.380909 2.274751
267 0 1 0.589700 -1.065617 19.974312 0.817292
268 0 2 -1.179400 4.652380 14.611053 3.242627
269 0 1 0.589700 4.409477 15.412722 2.783341
270 0 1 0.589700 5.475025 14.349794 2.842735
271 0 2 -1.179400 3.768039 20.641176 1.211318
272 0 1 0.589700 4.523171 20.265720 1.653094
273 0 1 0.589700 3.652699 20.100838 0.430588
274 0 2 -1.179400 2.333324 13.663320 4.286073
275 0 1 0.589700 3.094808 14.008078 3.830484
276 0 1 0.589700 2.677761 12.976420 4.853423
277 0 2 -1.179400 -3.009668 15.586412 5.418640
278 0 1 0.589700 -2.881927 15.275097 4.522911
279 0 1 0.589700 -3.117298 16.531326 5.329732
280 0 2 -1.179400 4.157660 16.968519 1.970753
281 0 1 0.589700 4.819422 17.639174 2.110463
282 0 1 0.589700 3.332746 17.427422 2.085630
283 0 2 -1.179400 6.249197 12.167947 4.598481
284 0 1 0.589700 5.640586 12.225843 5.330886
285 0 1 0.589700 5.722349 11.860099 3.864332
286 0 2 -1.179400 -0.932320 17.029749 3.367261
287 0 1 0.589700 -0.739951 16.218929 3.834681
288 0 1 0.589700 -1.435663 17.548763 3.990366
289 0 2 -1.179400 8.610980 11.022807 5.179526
290 0 1 0.589700 8.845406 11.763199 5.736241
291 0 1 0.589700 7.727686 11.216178 4.886682
292 0 2 -1.179400 9.793590 18.157013 2.249704
293 0 1 0.589700 9.117012 17.990862 2.900306
294 0 1 0.589700 9.391228 18.757305 1.625315
295 0 2 -1.179400 14.964873 15.969281 0.605001
296 0 1 0.589700 14.796484 15.031527 0.671267
297 0 1 0.589700 15.119328 16.248640 1.507010
298 0 2 -1.179400 7.869631 14.438415 4.642402
299 0 1 0.589700 7.380905 13.626919 4.752984
300 0 1 0.589700 8.779767 14.166306 4.648051
301 0 2 -1.179400 5.792889 19.279757 2.180337
302 0 1 0.589700 6.193917 19.474697 3.025694
303 0 1 0.589700 6.470335 19.471151 1.537666
304 0 2 -1.179400 12.931293 14.395584 3.006747
305 0 1 0.589700 12.797289 15.266213 2.636808
306 0 1 0.589700 13.621333 14.013972 2.471877
307 0 2 -1.179400 11.272841 20.952471 0.986947
308 0 1 0.589700 11.915813 20.486885 1.514601
309 0 1 0.589700 10.999007 20.317045 0.327717
310 0 2 -1.179400 10.550197 13.572103 4.461200
311 0 1 0.589700 11.200061 13.938228 3.867557
312 0 1 0.589700 11.047627 13.018559 5.058768
313 0 2 -1.179400 4.985622 15.343816 5.982128
314 0 1 0.589700 5.171998 15.080653 5.081357
315 0 1 0.589700 5.071170 16.295139 5.976059
316 0 2 -1.179400 12.439718 16.784882 2.153703
317 0 1 0.589700 13.112044 17.456465 2.090901
318 0 1 0.589700 11.642618 17.269295 2.340469
319 0 2 -1.179400 14.141451 11.835443 4.083578
320 0 1 0.589700 13.459093 11.727832 4.740384
321 0 1 0.589700 13.678669 11.852028 3.247935
322 0 2 -1.179400 7.469253 17.038059 3.672377
323 0 1 0.589700 7.502588 16.106735 3.882503
324 0 1 0.589700 6.710830 17.362965 4.147402
325 0 2 -1.179400 10.305363 13.378254 10.338482
326 0 1 0.589700 10.317609 13.877438 11.154488
327 0 1 0.589700 9.494850 13.635185 9.911508
328 0 2 -1.179400 11.351452 20.967911 7.564068
329 0 1 0.589700 10.516933 20.653280 7.894289
330 0 1 0.589700 11.132918 21.741003 7.046806
331 0 2 -1.179400 -6.772613 18.925758 5.697156
332 0 1 0.589700 -6.983983 18.016714 5.899744
333 0 1 0.589700 -6.719802 19.354464 6.550882
334 0 2 -1.179400 9.606782 16.832825 10.027868
335 0 1 0.589700 9.034408 16.084473 9.883224
336 0 1 0.589700 10.481751 16.487156 9.892954
337 0 2 -1.179400 7.520891 22.236439 6.972494
338 0 1 0.589700 7.836410 22.439480 7.852072
339 0 1 0.589700 8.279339 22.351149 6.408234
340 0 2 -1.179400 14.151588 17.152952 8.118247
341 0 1 0.589700 14.049876 18.040625 7.779877
342 0 1 0.589700 14.815838 16.759966 7.559020
343 0 2 -1.179400 22.202669 1.987254 6.586360
344 0 1 0.589700 23.085253 1.701137 6.792216
345 0 1 0.589700 21.900785 1.369076 5.923121
346 0 2 -1.179400 12.335116 15.962689 9.629185
347 0 1 0.589700 13.079892 16.236013 9.102427
348 0 1 0.589700 12.706805 15.401033 10.306730
349 0 2 -1.179400 6.943319 17.891600 11.336126
350 0 1 0.589700 6.839707 17.610237 10.427376
351 0 1 0.589700 7.062241 18.837706 11.280987
352 0 2 -1.179400 14.042363 19.661221 6.998498
353 0 1 0.589700 14.594625 20.433338 7.085832
354 0 1 0.589700 13.264430 19.871000 7.505443
355 0 2 -1.179400 15.650060 14.732767 9.550452
356 0 1 0.589700 15.034125 14.592721 10.265275
357 0 1 0.589700 15.203892 14.401898 8.773283
358 0 2 -1.179400 9.099875 19.284168 8.684569
359 0 1 0.589700 9.209481 18.421713 9.080952
360 0 1 0.589700 8.411384 19.696091 9.198479
361 0 2 -1.179400 17.914663 13.242908 10.163896
362 0 1 0.589700 18.080177 13.799067 10.924026
363 0 1 0.589700 17.072533 13.535584 9.833026
364 0 2 -1.179400 -4.341487 20.890041 7.560792
365 0 1 0.589700 -5.133866 20.557011 7.969146
366 0 1 0.589700 -4.644302 21.556894 6.947186
367 0 2 -1.179400 1.192062 18.673542 6.325672
368 0 1 0.589700 1.259697 17.721144 6.353428
369 0 1 0.589700 1.091683 18.933107 7.241281
370 0 2 -1.179400 17.256397 16.940578 9.339006
371 0 1 0.589700 16.591175 16.260948 9.287210
372 0 1 0.589700 -5.464334 16.461493 9.431745
373 0 2 -1.179400 -8.101591 22.219332 7.030235
374 0 1 0.589700 -7.760047 22.468765 7.887675
375 0 1 0.589700 -7.355284 22.282177 6.441844
376 0 2 -1.179400 -1.536000 17.172512 8.225595
377 0 1 0.589700 -1.561608 18.049269 7.846540
378 0 1 0.589700 -0.871074 16.713621 7.720176
379 0 2 -1.179400 6.615305 1.787316 6.304693
380 0 1 0.589700 7.496809 1.547169 6.566624
381 0 1 0.589700 6.332884 1.073225 5.736246
382 0 2 -1.179400 -3.788252 15.838681 9.087170
383 0 1 0.589700 -3.077772 16.368986 8.739577
384 0 1 0.589700 -3.374258 15.264264 9.728056
385 0 2 -1.179400 14.578594 18.223103 10.600314
386 0 1 0.589700 14.440773 17.850069 9.730144
387 0 1 0.589700 14.750396 19.148540 10.438279
388 0 2 -1.179400 -1.683375 19.713839 7.140626
389 0 1 0.589700 -1.169853 20.515974 7.186872
390 0 1 0.589700 -2.576495 19.998404 7.296356
391 0 2 -1.179400 0.073507 14.639439 9.827976
392 0 1 0.589700 -0.653685 14.545691 10.436228
393 0 1 0.589700 -0.272195 14.349010 8.985317
394 0 2 -1.179400 -6.540987 19.563404 8.301445
395 0 1 0.589700 -6.439498 18.629274 8.473383
396 0 1 0.589700 -7.232612 19.841112 8.895286
397 0 2 -1.179400 2.447266 13.583655 10.624448
398 0 1 0.589700 2.595863 14.326406 11.207396
399 0 1 0.589700 1.550549 13.688951 10.327988
400 0 2 -1.179400 3.321074 20.826784 7.798382
401 0 1 0.589700 2.531624 20.465391 8.187851
402 0 1 0.589700 3.010691 21.503805 7.199988
403 0 2 -1.179400 8.678355 18.861740 5.982743
404 0 1 0.589700 8.423738 17.942383 5.942362
405 0 1 0.589700 8.898354 19.008690 6.902177
406 0 2 -1.179400 1.726061 16.991037 9.706176
407 0 1 0.589700 1.142932 16.238283 9.665483
408 0 1 0.589700 2.592884 16.622103 9.579977
409 0 2 -1.179400 0.023634 21.808441 7.018750
410 0 1 0.589700 0.217284 22.168428 7.883615
411 0 1 0.589700 0.750164 22.089203 6.470464
412 0 2 -1.179400 6.276518 17.471203 8.550748
413 0 1 0.589700 6.201339 18.363447 8.217436
414 0 1 0.589700 6.907433 17.052946 7.971068
415 0 2 -1.179400 14.225438 1.878961 6.365065
416 0 1 0.589700 15.068285 1.513367 6.610118
417 0 1 0.589700 13.921182 1.319209 5.652653
418 0 2 -1.179400 4.246322 15.907170 9.519312
419 0 1 0.589700 4.996096 16.461880 9.329783
420 0 1 0.589700 4.526278 15.361172 10.252275
421 0 2 -1.179400 -1.283060 17.607397 10.794517
422 0 1 0.589700 -1.366981 17.392975 9.865588
423 0 1 0.589700 -1.303761 18.561991 10.822451
424 0 2 -1.179400 5.795679 19.944904 7.000658
425 0 1 0.589700 6.364016 20.697601 6.862629
426 0 1 0.589700 4.927923 20.321222 7.094224
427 0 2 -1.179400 7.916598 14.662277 9.728870
428 0 1 0.589700 7.182401 14.550722 10.325439
429 0 1 0.589700 7.521718 14.716374 8.860065
430 0 2 -1.179400 1.118652 19.548599 8.850376
431 0 1 0.589700 1.365625 18.689751 9.187383
432 0 1 0.589700 0.416574 19.835932 9.426901
433 0 2 -1.179400 7.136483 20.577665 10.586736
434 0 1 0.589700 7.620933 21.151104 11.176240
435 0 1 0.589700 6.316264 21.034657 10.435725
436 0 2 -1.179400 17.211678 6.550779 7.502502
437 0 1 0.589700 16.557230 6.077977 8.008931
438 0 1 0.589700 16.728537 6.933546 6.773196
439 0 2 -1.179400 -0.625352 4.477367 5.925159
440 0 1 0.589700 -0.901769 3.595195 6.164179
441 0 1 0.589700 -0.692947 4.977421 6.737870
442 0 2 -1.179400 15.782438 2.762460 9.493402
443 0 1 0.589700 15.228967 1.998615 9.631338
444 0 1 0.589700 16.667439 2.430565 9.591535
445 0 2 -1.179400 13.527881 7.415591 6.843622
446 0 1 0.589700 13.830751 7.503952 7.746487
447 0 1 0.589700 14.293855 7.602028 6.309731
448 0 2 -1.179400 20.353079 3.143370 8.106215
449 0 1 0.589700 20.174835 3.951228 7.628079
450 0 1 0.589700 20.989782 2.683786 7.565714
451 0 2 -1.179400 19.018591 8.985999 6.656124
452 0 1 0.589700 19.914249 8.700068 6.793447
453 0 1 0.589700 18.709303 8.455279 5.923879
454 0 2 -1.179400 18.265211 1.586801 9.168197
455 0 1 0.589700 18.898502 2.221204 8.844943
456 0 1 0.589700 9.643572 22.684065 9.738862
457 0 2 -1.179400 12.674426 3.597293 11.150758
458 0 1 0.589700 12.699498 3.472903 10.202046
459 0 1 0.589700 12.796136 4.536821 11.272467
460 0 2 -1.179400 19.728661 5.499300 7.051173
461 0 1 0.589700 20.357302 6.176618 6.818937
462 0 1 0.589700 18.891808 5.950498 7.059438
463 0 2 -1.179400 12.816354 22.104399 9.579291
464 0 1 0.589700 12.144760 21.916491 10.229198
465 0 1 0.589700 12.413982 21.886950 8.740121
466 0 2 -1.179400 15.175406 5.280975 8.653959
467 0 1 0.589700 15.353596 4.421455 9.030971
468 0 1 0.589700 14.484959 5.641900 9.202535
469 0 2 -1.179400 15.104150 20.813807 10.250029
470 0 1 0.589700 15.490422 21.309429 10.969703
471 0 1 0.589700 14.434782 21.391966 9.896152
472 0 2 -1.179400 1.741589 6.524545 7.394284
473 0 1 0.589700 0.995528 6.191640 7.883423
474 0 1 0.589700 1.361529 6.962180 6.634601
475 0 2 -1.179400 6.907959 4.448960 5.978489
476 0 1 0.589700 6.744047 3.508600 6.009980
477 0 1 0.589700 6.718699 4.755192 6.864865
478 0 2 -1.179400 0.032648 2.637459 9.619745
479 0 1 0.589700 23.032652 1.862257 9.479265
480 0 1 0.589700 0.916117 2.348979 9.421194
481 0 2 -1.179400 -2.000211 7.840821 7.120757
482 0 1 0.589700 -1.556384 8.139837 7.912119
483 0 1 0.589700 -1.307137 7.736976 6.474835
484 0 2 -1.179400 4.625206 2.807228 7.935905
485 0 1 0.589700 4.628422 3.744012 7.748748
486 0 1 0.589700 5.328621 2.453804 7.399298
487 0 2 -1.179400 3.387690 9.221744 6.814428
488 0 1 0.589700 4.213835 8.879667 7.138609
489 0 1 0.589700 3.109794 8.588601 6.154719
490 0 2 -1.179400 2.552215 1.647853 9.091558
491 0 1 0.589700 3.229481 2.141618 8.638521
492 0 1 0.589700 -6.098001 22.757015 9.697868
493 0 2 -1.179400 20.700720 3.490953 10.784149
494 0 1 0.589700 20.566935 3.283424 9.859598
495 0 1 0.589700 21.038887 4.383536 10.781697
496 0 2 -1.179400 4.250151 5.435966 7.380710
497 0 1 0.589700 4.801622 6.210143 7.453630
498 0 1 0.589700 3.383601 5.782191 7.199837
499 0 2 -1.179400 -2.976155 22.008612 9.544056
500 0 1 0.589700 -3.819201 22.209352 9.935786
501 0 1 0.589700 -3.182230 21.719296 8.655787
502 0 2 -1.179400 -0.557942 5.323419 8.583209
503 0 1 0.589700 -0.711293 4.443258 8.921501
504 0 1 0.589700 -1.152790 5.878544 9.080383
505 0 2 -1.179400 -0.978705 20.386574 10.348997
506 0 1 0.589700 -0.733997 21.049988 10.991985
507 0 1 0.589700 -1.798867 20.700663 9.983561
508 0 2 -1.179400 9.391315 6.473571 7.467704
509 0 1 0.589700 8.706081 6.167294 8.054927
510 0 1 0.589700 8.941703 7.028312 6.833842
511 0 2 -1.179400 15.213502 4.468496 6.076519
512 0 1 0.589700 14.865964 3.586251 6.185602
513 0 1 0.589700 15.155974 4.858113 6.948550
514 0 2 -1.179400 7.928182 2.591789 9.649887
515 0 1 0.589700 7.311656 1.865396 9.640257
516 0 1 0.589700 8.777742 2.178305 9.544827
517 0 2 -1.179400 5.661652 7.835148 7.218491
518 0 1 0.589700 6.223177 8.080645 7.950106
519 0 1 0.589700 6.174489 8.033183 6.437749
520 0 2 -1.179400 12.439852 2.964039 8.499403
521 0 1 0.589700 12.357074 3.815902 8.074436
522 0 1 0.589700 13.102642 2.507224 7.989269
523 0 2 -1.179400 11.282331 9.038486 6.647730
524 0 1 0.589700 12.160886 8.761436 6.881655
525 0 1 0.589700 11.039237 8.470524 5.918171
526 0 2 -1.179400 10.359795 1.298919 9.177105
527 0 1 0.589700 11.075608 1.867481 8.910876
528 0 1 0.589700 1.630225 22.355696 9.789646
529 0 2 -1.179400 4.923715 3.460916 10.892541
530 0 1 0.589700 5.015564 3.343721 9.947097
531 0 1 0.589700 4.834656 4.404776 11.009238
532 0 2 -1.179400 11.803821 5.229795 6.972066
533 0 1 0.589700 12.377204 5.985269 6.877239
534 0 1 0.589700 10.948803 5.605879 7.148804
535 0 2 -1.179400 5.171470 22.225271 9.802583
536 0 1 0.589700 4.532357 22.395634 10.489576
537 0 1 0.589700 4.721683 21.651926 9.185706
538 0 2 -1.179400 7.415894 5.151612 8.775827
539 0 1 0.589700 7.705397 4.258060 8.947059
540 0 1 0.589700 6.789718 5.335067 9.471489
541 0 2 -1.179400 13.181556 6.185921 10.477518
542 0 1 0.589700 13.529794 6.864425 11.052593
543 0 1 0.589700 12.499247 6.624896 9.977912
544 0 2 -1.179400 14.263937 13.732945 7.492281
545 0 1 0.589700 13.524254 13.204552 7.774798
546 0 1 0.589700 13.874861 14.464952 7.018638
547 0 2 -1.179400 -4.108408 11.704227 5.748054
548 0 1 0.589700 19.243801 10.767543 5.770814
549 0 1 0.589700 -3.896670 11.928099 6.653781
550 0 2 -1.179400 12.715269 9.673861 9.981197
551 0 1 0.589700 12.096148 8.968693 9.815834
552 0 1 0.589700 13.562636 9.292068 9.780875
553 0 2 -1.179400 10.553426 14.903498 7.594686
554 0 1 0.589700 11.033800 15.124888 8.389979
555 0 1 0.589700 11.160224 15.087464 6.881920
556 0 2 -1.179400 16.972893 10.190251 8.120704
557 0 1 0.589700 16.868057 11.065919 7.753144
558 0 1 0.589700 17.754356 9.847505 7.699242
559 0 2 -1.179400 15.987608 16.310707 6.156293
560 0 1 0.589700 16.815361 15.934031 6.434534
561 0 1 0.589700 15.751493 15.816371 5.372589
562 0 2 -1.179400 15.167394 8.605232 9.359464
563 0 1 0.589700 15.761991 9.089685 8.792676
564 0 1 0.589700 15.708917 7.933210 9.765334
565 0 2 -1.179400 9.371989 10.585412 10.885733
566 0 1 0.589700 9.330336 10.329074 9.964599
567 0 1 0.589700 9.798664 11.438712 10.877064
568 0 2 -1.179400 16.771332 12.713661 7.092273
569 0 1 0.589700 17.330437 13.483159 7.029386
570 0 1 0.589700 15.897232 13.068548 7.207421
571 0 2 -1.179400 18.761305 7.925537 9.786742
572 0 1 0.589700 18.089437 7.653343 10.405663
573 0 1 0.589700 18.409885 7.697777 8.927303
574 0 2 -1.179400 12.158648 12.203146 8.461097
575 0 1 0.589700 12.242502 11.374058 8.928919
576 0 1 0.589700 11.662952 12.762107 9.055054
577 0 2 -1.179400 20.835938 6.366312 10.352077
578 0 1 0.589700 21.357553 6.900707 10.946174
579 0 1 0.589700 20.132633 6.943725 10.071445
580 0 2 -1.179400 -1.668567 14.001297 7.467455
581 0 1 0.589700 -2.369076 13.402897 7.708170
582 0 1 0.589700 -2.049046 14.565985 6.797439
583 0 2 -1.179400 3.682256 11.897306 6.083506
584 0 1 0.589700 3.676173 10.947488 6.185036
585 0 1 0.589700 3.752478 12.232815 6.976920
586 0 2 -1.179400 -2.790142 10.043522 9.686230
587 0 1 0.589700 20.018213 9.431159 9.676233
588 0 1 0.589700 -2.018256 9.487344 9.696372
589 0 2 -1.179400 -5.273016 15.028141 6.959573
590 0 1 0.589700 -4.788604 15.351323 7.716455
591 0 1 0.589700 -4.712489 15.216988 6.210506
592 0 2 -1.179400 1.320751 10.164668 8.448347
593 0 1 0.589700 1.077732 10.883710 7.867782
594 0 1 0.589700 2.137442 9.836032 8.087896
595 0 2 -1.179400 0.513249 16.067602 6.525878
596 0 1 0.589700 1.310083 15.615395 6.782011
597 0 1 0.589700 0.274149 15.674214 5.687584
598 0 2 -1.179400 -0.589799 8.540963 9.302200
599 0 1 0.589700 0.128025 9.032070 8.914431
600 0 1 0.589700 -0.173780 7.952151 9.928466
601 0 2 -1.179400 17.535873 10.547168 10.820882
602 0 1 0.589700 17.374187 10.405413 9.888420
603 0 1 0.589700 17.555325 11.497184 10.918786
604 0 2 -1.179400 0.874177 12.682578 7.144776
605 0 1 0.589700 1.534463 13.351851 6.991946
606 0 1 0.589700 0.049399 13.153375 7.096598
607 0 2 -1.179400 3.020280 7.663252 9.623003
608 0 1 0.589700 2.510734 7.302557 10.345304
609 0 1 0.589700 2.743273 7.164167 8.856107
610 0 2 -1.179400 -3.658663 12.428955 8.295669
611 0 1 0.589700 -3.439205 11.740954 8.921758
612 0 1 0.589700 -4.293157 12.972430 8.754472
613 0 2 -1.179400 5.353167 6.250411 10.411338
614 0 1 0.589700 5.677259 6.909621 11.022177
615 0 1 0.589700 4.477898 6.545588 10.187373
616 0 2 -1.179400 6.373141 13.690761 7.444828
617 0 1 0.589700 5.702567 13.171929 7.879481
618 0 1 0.589700 5.895680 14.392400 7.008688
619 0 2 -1.179400 11.984606 11.678920 5.856864
620 0 1 0.589700 11.863216 10.732251 5.819884
621 0 1 0.589700 12.079754 11.871951 6.789397
622 0 2 -1.179400 4.863029 10.029390 9.699778
623 0 1 0.589700 4.368806 9.228471 9.545301
624 0 1 0.589700 5.771601 9.754025 9.666164
625 0 2 -1.179400 2.626028 14.687434 7.283692
626 0 1 0.589700 2.902684 14.688975 8.199358
627 0 1 0.589700 3.430966 14.784844 6.785489
628 0 2 -1.179400 9.152186 9.990740 8.155739
629 0 1 0.589700 9.053822 10.865785 7.784888
630 0 1 0.589700 9.869352 9.603017 7.663224
631 0 2 -1.179400 8.168307 16.134613 6.934760
632 0 1 0.589700 9.034068 15.847495 7.202520
633 0 1 0.589700 7.968335 15.605203 6.163945
634 0 2 -1.179400 7.181900 8.526735 9.424306
635 0 1 0.589700 7.871980 9.018199 8.988745
636 0 1 0.589700 7.626026 8.040572 10.116001
637 0 2 -1.179400 1.713849 10.985210 11.107958
638 0 1 0.589700 1.724465 10.806142 10.167788
639 0 1 0.589700 2.021864 11.885615 11.183624
640 0 2 -1.179400 8.878956 12.647883 7.412311
641 0 1 0.589700 9.513167 13.338351 7.581785
642 0 1 0.589700 8.037172 13.060184 7.571647
643 0 2 -1.179400 10.985879 7.497135 9.585097
644 0 1 0.589700 10.351736 7.402674 10.291194
645 0 1 0.589700 10.543119 7.157033 8.809952
646 0 2 -1.179400 4.203331 12.354976 8.788837
647 0 1 0.589700 4.403643 11.523087 9.213758
648 0 1 0.589700 3.469626 12.703918 9.285697
649 0 2 -1.179400 6.992155 8.337628 15.571848
650 0 1 0.589700 7.378418 8.778784 16.326284