LAMMPS data file via write_data, version 30 Jul 2021, timestep = 8250000

1008 atoms
2 atom types
672 bonds
1 bond types
336 angles
1 angle types

-3.141472643898135 14.751471643448683 xlo xhi
-0.19412186637616102 22.774120866368975 ylo yhi
-0.03986139846340464 19.269859398462906 zlo zhi
-0.2652617120003904 -6.294002004311849 0.1765635113449154 xy xz yz

Masses

1 1.008
2 15.999

Pair Coeffs # lj/cut/tip4p/long/omp

1 0 0
2 0.21084 3.1668

Bond Coeffs # harmonic/omp

1 450 0.9572

Angle Coeffs # harmonic/omp

1 55 104.52

Atoms # full

55 19 2 -1.1794 -0.799579794058793 4.254011076831326 3.7825910932406632 0 0 0
56 19 1 0.5897 -1.4666111650344462 3.949533853587905 3.1673482332353826 0 0 0
57 19 1 0.5897 -0.0519166563006328 4.484320025855358 3.2311079480378333 0 0 0
121 41 2 -1.1794 -2.701784386783479 2.5427738517748204 2.747966724756025 1 0 0
122 41 1 0.5897 -2.6730353681740913 2.1605332708810527 1.8707809518647074 1 0 0
21 7 1 0.5897 1.0232380555617802 2.28872933472512 1.2056445754046732 0 0 0
31 11 2 -1.1794 1.339910120254582 1.1081247926201903 2.757902696553874 0 0 0
86 29 1 0.5897 -2.194573302324176 1.7539634157656452 4.199037166625992 1 0 0
32 11 1 0.5897 1.1604200991796212 1.3843599857008697 3.656729748467412 0 0 0
46 16 2 -1.1794 1.8401785141124272 4.776427540391631 2.417859005234953 0 0 0
123 41 1 0.5897 -3.600843939773906 2.8567801296073307 2.843623550510995 1 0 0
33 11 1 0.5897 0.6215426323931172 0.5137378229913134 2.5414546006830614 0 0 0
482 161 1 0.5897 -1.087630964513063 0.2550399438431252 1.1408486703502319 1 1 0
603 201 1 0.5897 -0.21836874712525134 3.920753755987013 0.06998631625624574 1 0 1
602 201 1 0.5897 -0.5637574111905437 5.302406254937446 0.5839187121868991 1 0 1
47 16 1 0.5897 1.965284313659736 5.15475396369518 1.5474662825845098 0 0 0
71 24 1 0.5897 2.9595333457284942 0.6760114026223482 2.0913042728574247 0 0 0
52 18 2 -1.1794 3.675250978433855 3.048016132157545 3.823501925073984 0 0 0
48 16 1 0.5897 2.0491675157845552 5.489215187074481 3.0217167242687757 0 0 0
72 24 1 0.5897 4.300693740732153 -0.014077444609423312 1.9624269736571334 0 0 0
53 18 1 0.5897 4.353602610207239 2.8902565959431405 3.166829933151494 0 0 0
527 176 1 0.5897 3.772110668467967 1.9269426762809156 0.20600958311988804 0 0 1
70 24 2 -1.1794 3.7163236692566155 0.59488828934891 1.5109064148986646 0 0 0
54 18 1 0.5897 2.8850138667898575 3.226622573358417 3.313867530354984 0 0 0
157 53 2 -1.1794 -4.010097631130401 5.109324312728233 4.776051997943763 1 0 0
158 53 1 0.5897 -4.519077709283565 4.4701660194391355 4.277341437740711 1 0 0
163 55 2 -1.1794 -2.2459043450790803 1.434978493795594 0.25107368176205586 1 0 0
16 6 2 -1.1794 5.448315041116066 4.730012884099712 0.004864721185762269 0 0 0
19 7 2 -1.1794 1.127980522419893 2.7115210204447187 0.35321935770242385 0 0 0
78 26 1 0.5897 0.08881826181299601 2.9101696734586784 4.539008217928641 0 0 0
601 201 2 -1.1794 -0.8505963852257379 4.631625379788044 -0.035871206874106484 1 0 1
59 20 1 0.5897 1.6561919031308694 3.709638178185921 5.972190844193009 0 0 0
4 2 2 -1.1794 3.6397386584988336 0.6662658309630933 5.301561965757131 0 0 0
522 174 1 0.5897 2.569986836619897 5.390837628056586 9.001744271296651 0 0 0
34 12 2 -1.1794 0.23887520219484415 1.3155275179220183 7.36480467350107 0 0 0
35 12 1 0.5897 0.568952321480177 1.7054263370823215 8.174358736328415 0 0 0
36 12 1 0.5897 -0.6110927980970144 0.9469567048539342 7.605228160554225 0 0 0
45 15 1 0.5897 0.42581279445098774 4.852797745668441 7.204567632055381 0 0 0
97 33 2 -1.1794 -4.216586634845392 4.724338734468704 9.501495173481173 1 0 0
43 15 2 -1.1794 -0.4459787709601084 5.071914999217535 7.533378437293378 0 0 0
58 20 2 -1.1794 2.078802317148705 4.301733458452344 6.594396702817017 0 0 0
124 42 2 -1.1794 -5.169839946277122 2.331285528044926 7.507390570168763 1 0 0
60 20 1 0.5897 2.769874936198523 3.7747706078602974 6.995473044579302 0 0 0
669 223 1 0.5897 -5.361214143759215 1.4041258144449538 8.993820170574912 1 0 0
126 42 1 0.5897 -4.4125309263763635 2.904174016385228 7.387105361154406 1 0 0
5 2 1 0.5897 3.061085382647999 0.011575572216146662 4.910668950363803 0 0 0
134 45 1 0.5897 -2.2743759090943154 2.74586779540344 6.596612679023733 1 0 0
133 45 2 -1.1794 -2.668771880786319 3.5001381084856176 7.034714346092002 1 0 0
69 23 1 0.5897 -2.5914446227423205 1.3907783902415674 9.01248520760629 0 0 0
135 45 1 0.5897 -1.9234498123726387 4.020078940967263 7.33524392920626 1 0 0
77 26 1 0.5897 0.4877650576817665 2.168448784131186 5.7970946911405195 0 0 0
67 23 2 -1.1794 -2.2477740627068354 0.7240046038976583 8.417740745693422 0 0 0
44 15 1 0.5897 -0.2825065250310592 5.562462381951816 8.338992530487205 0 0 0
159 53 1 0.5897 -3.4179691161666756 4.58009556600447 5.310388014622486 1 0 0
402 134 1 0.5897 1.415518133525568 0.03416345886898281 7.831192796419543 0 1 0
401 134 1 0.5897 2.5155390786493923 0.2571838435254434 8.847033376452856 0 1 0
98 33 1 0.5897 -4.1418951945189 5.259649245797062 8.711409835070405 1 0 0
68 23 1 0.5897 -3.0170501707605624 0.4014035658741635 7.948394917788512 0 0 0
76 26 2 -1.1794 0.8527171050473514 2.592867946939157 5.020566879847345 0 0 0
11 4 1 0.5897 2.0953195586059676 5.573846706513249 5.429019219359917 0 0 0
6 2 1 0.5897 3.4209151428929276 1.480925982507972 4.849016445006268 0 0 0
85 29 2 -1.1794 -2.2118163683147305 1.3564738456927614 5.069707058735847 1 0 0
87 29 1 0.5897 -3.130492403927593 1.128237113701494 5.211233382826402 1 0 0
523 175 2 -1.1794 -2.277807557850891 2.76061022028609 10.181474440264456 0 0 0
626 209 1 0.5897 -5.616519001203112 1.89716065650419 12.61478018721465 1 0 0
606 202 1 0.5897 -5.9747626747410685 4.445633053093738 9.83068625021292 1 0 0
556 186 2 -1.1794 0.8689400011831223 3.1424749822982116 13.06014214779275 0 0 0
536 179 1 0.5897 -2.1511379105916903 1.4479768571821614 13.163769371534299 0 0 0
550 184 2 -1.1794 -0.9351046041594935 4.7657673463890795 12.111407293391448 0 0 0
618 206 1 0.5897 -6.623928588908628 5.162788741801473 11.940004714180082 1 0 0
574 192 2 -1.1794 0.6900225792055674 0.5017912581670966 11.26600979421706 0 0 0
535 179 2 -1.1794 -2.080383418914696 0.871560250736992 12.402729487117401 0 0 0
576 192 1 0.5897 0.0329616690449579 0.6333271793797025 11.949559751926774 0 0 0
537 179 1 0.5897 -2.092773284461401 1.464040314322971 11.65094639437802 0 0 0
561 187 1 0.5897 -3.2274787468961987 3.5370036669016303 13.464318180184728 0 0 0
524 175 1 0.5897 -2.800839394111701 3.4384800111816918 9.753468014120687 0 0 0
575 192 1 0.5897 1.3537059220916516 -0.053644608934596605 11.674912369435072 0 0 0
589 197 2 -1.1794 -5.369021035090088 0.7269261377807243 14.019146705766047 1 0 0
557 186 1 0.5897 0.47715761749068264 2.3913371414057023 13.505835385284731 0 0 0
558 186 1 0.5897 0.12486146506413753 3.615745473122653 12.687966250548802 0 0 0
559 187 2 -1.1794 -3.7351800733303113 4.228340618225876 13.039424102301991 0 0 0
560 187 1 0.5897 -4.514353577969667 3.7833909000821437 12.706212419124803 0 0 0
625 209 2 -1.1794 -5.816979014496328 2.5585589029425533 11.952445756641056 1 0 0
668 223 1 0.5897 -5.617499582182427 1.592381597243422 10.474093249298583 1 0 0
552 184 1 0.5897 -1.8579578212126528 4.51395194855312 12.142890321038369 0 0 0
627 209 1 0.5897 -6.726969303318173 2.8010783855384047 12.123305876066024 1 0 0
23 8 1 0.5897 0.8177664869244725 2.1718826191587612 10.373931245375665 0 0 0
24 8 1 0.5897 0.959208186095899 3.5019899202881275 9.664663457872608 0 0 0
662 221 1 0.5897 -6.475331093859559 5.608837319941228 14.043443493870962 1 0 0
551 184 1 0.5897 -0.8447596938750621 5.43204731868226 12.792830093154889 0 0 0
525 175 1 0.5897 -1.3712478943492816 3.000365151779274 9.989731901225504 0 0 0
667 223 2 -1.1794 -5.466565284208205 0.9179385856798596 9.811679353122791 1 0 0
591 197 1 0.5897 -4.843561312671952 -0.02619532808432859 14.289270205289402 1 0 0
99 33 1 0.5897 -3.885974735006525 5.285018494846974 10.203411289846057 1 0 0
663 221 1 0.5897 -7.343938567756839 4.372338073949391 14.136362769483922 1 0 0
22 8 2 -1.1794 0.47930412625791563 2.674356059984935 9.63281330813202 0 0 0
563 188 1 0.5897 -0.5891569075975536 4.7213846941877975 15.41432154506995 0 0 0
547 183 2 -1.1794 -3.452807588816283 4.725104056461071 16.878916337108226 0 0 0
590 197 1 0.5897 -5.157727211028681 1.4084467869945863 14.657332746007016 1 0 0
20 7 1 0.5897 -5.218651151833084 2.17079600139004 19.031161190103244 0 0 -1
508 170 2 -1.1794 0.6243031047046506 0.9317407484228861 14.731475381844508 0 0 0
165 55 1 0.5897 -9.083343654118991 0.9213561743305758 19.180516631505387 1 0 -1
630 210 1 0.5897 -7.9217814788823535 1.9051890799902154 16.18393891215517 1 0 0
639 213 1 0.5897 -5.802785725584554 3.7463062456701435 15.403632943959959 1 0 0
538 180 2 -1.1794 -3.1651900628906997 0.9073109479203068 16.793184597409912 0 0 0
540 180 1 0.5897 -4.05361096624911 0.8150040088750761 17.13715647599969 0 0 0
571 191 2 -1.1794 -5.400226610346886 0.432536987751841 18.166278164641906 0 0 0
539 180 1 0.5897 -2.7333636981121066 1.5067086737103026 17.40192984654427 0 0 0
638 213 1 0.5897 -6.050102519611491 2.5885352394721495 16.347368072104842 1 0 0
549 183 1 0.5897 -4.116363027701046 4.051310790154957 16.730899729086406 0 0 0
562 188 2 -1.1794 -0.5540192128322774 3.941453584052197 15.968256590224595 0 0 0
580 194 2 -1.1794 -2.4132792763550217 2.287879334460426 14.567473869096977 0 0 0
564 188 1 0.5897 -1.2972590478706385 4.036429601816637 16.563912444271825 0 0 0
164 55 1 0.5897 -8.402484406785874 2.231092562902844 18.84411391437356 1 0 -1
628 210 2 -1.1794 -7.7720806780561 2.5851075699893964 16.8409821209988 1 0 0
637 213 2 -1.1794 -5.371698467446835 2.9923532847514713 15.806135583645512 1 0 0
582 194 1 0.5897 -1.7206409019689834 2.795924677377867 14.989770868320964 0 0 0
581 194 1 0.5897 -2.901287539937856 1.8981733157359368 15.292936866289022 0 0 0
510 170 1 0.5897 0.5926697448023681 1.2691453421802505 15.626774060028511 0 0 0
528 176 1 0.5897 -3.2077584779759514 3.2820569662813237 18.85802349593338 0 0 0
101 34 1 0.5897 -9.040822781042753 4.692946239973919 19.140038703679135 1 0 -1
661 221 2 -1.1794 -6.8114455277795765 4.964941047262574 14.66696333263918 1 0 0
629 210 1 0.5897 -8.376801968245433 3.287479670621706 16.601751114148858 1 0 0
18 6 1 0.5897 -1.1757503669313065 4.014790737840542 19.204411906733668 0 0 -1
548 183 1 0.5897 -3.6116339855495774 5.373367724967651 16.192723612887175 0 0 0
526 176 2 -1.1794 -2.4867108542741825 2.6636741321173223 18.740269772360538 0 0 0
84 28 1 0.5897 -3.7254804658475154 5.6749332461132385 18.468902777190312 0 0 -1
593 198 1 0.5897 -7.222530163382659 0.40029341985959077 14.448093597354054 1 0 0
289 97 2 -1.1794 -2.8186229290794076 10.355775325962442 2.588905315890057 1 0 0
332 111 1 0.5897 -2.3356751024213014 9.32842398580947 0.8800509337300536 1 0 0
255 85 1 0.5897 -2.9363304479361823 9.000859195223365 4.044102872015264 1 0 0
147 49 1 0.5897 -0.9897726613257829 7.4871192521263765 0.9950705578416799 1 0 0
146 49 1 0.5897 -1.5773821705058133 6.554363813017983 2.032763921486044 1 0 0
112 38 2 -1.1794 -3.285974667791528 6.229167223293718 2.560559648702347 1 0 0
145 49 2 -1.1794 -0.7561831068738227 6.7790122599066365 1.5953543569193873 1 0 0
187 63 2 -1.1794 0.8313447448015907 10.380176343024386 0.3711461548248678 0 0 0
290 97 1 0.5897 -2.3014686440148977 11.126209883749816 2.8240197213690137 1 0 0
291 97 1 0.5897 -3.720616959854623 10.600185474073173 2.7956717310274883 1 0 0
9 3 1 0.5897 -0.9530927329219767 6.082422808544095 4.596959989002831 0 0 0
188 63 1 0.5897 0.6994134024767642 9.875660743573777 1.1738963436659908 0 0 0
200 67 1 0.5897 0.17254908825670512 8.079849831113867 2.29888195804185 0 0 0
238 80 2 -1.1794 3.2414610081600452 7.872182654271505 1.7400941066380753 0 0 0
245 82 1 0.5897 0.7512872659998227 9.479518752322319 4.219548366471159 0 0 0
201 67 1 0.5897 1.6723222744591766 8.21589403830713 2.4523481280487553 0 0 0
199 67 2 -1.1794 0.8553890688305348 8.707814665913814 2.5346887060241765 0 0 0
331 111 2 -1.1794 -1.9629663050747512 8.766848958552865 0.20024756406856195 1 0 0
189 63 1 0.5897 1.781971451531426 10.426049814454627 0.2700272116135358 0 0 0
239 80 1 0.5897 3.4970007980747937 8.742489774985987 1.434086679888887 0 0 0
222 74 1 0.5897 3.174074158605455 10.957658115463964 2.9084942875783537 0 0 0
113 38 1 0.5897 -3.633435191702734 5.734378639808729 3.302714245033352 1 0 0
221 74 1 0.5897 4.57284164212248 10.441661733544288 2.6461503986301143 0 0 0
220 74 2 -1.1794 3.829875578879335 10.345314547731007 3.2419176311782594 0 0 0
114 38 1 0.5897 -3.3735286024268905 5.6358546378488805 1.8144075074797903 1 0 0
240 80 1 0.5897 3.1406526711951237 7.356428070784118 0.9399355525668706 0 0 0
694 232 2 -1.1794 3.6193511993032343 10.092603985342258 0.11185454706988354 0 0 1
29 10 1 0.5897 4.738195693352904 7.043156816022045 2.0289262755586 0 0 0
174 58 1 0.5897 3.472042601013462 9.09805952205724 4.668081645077981 0 0 0
696 232 1 0.5897 4.217197901415693 10.824929709908156 0.2619932192878351 0 0 1
109 37 2 -1.1794 -4.1320640693427375 6.617479378014069 7.178179317869359 1 0 0
7 3 2 -1.1794 -0.6969298061607541 6.836042348995927 5.128773941213716 0 0 0
66 22 1 0.5897 2.8718914277665117 6.7513401987006185 7.5585885003106545 0 0 0
294 98 1 0.5897 -4.983849991813301 9.86336069726112 8.350329611709252 1 0 0
209 70 1 0.5897 3.285903552155238 10.833223285584207 7.125034747865747 0 0 0
110 37 1 0.5897 -4.003649832334842 6.273055702767065 6.2942755735143106 1 0 0
64 22 2 -1.1794 2.167142533324732 6.950173205682276 8.175059096067637 0 0 0
237 79 1 0.5897 -2.4216251442387478 8.873437384848632 8.458174168309675 0 0 0
173 58 1 0.5897 3.2528962995231723 7.690780262947973 5.181737198637094 0 0 0
111 37 1 0.5897 -5.0811828681636335 6.703393691121429 7.266776862924655 1 0 0
292 98 2 -1.1794 -4.977898324728617 10.301092871586103 7.4990275105821045 1 0 0
8 3 1 0.5897 -0.5774820985419233 6.479182459227754 6.008943784768029 0 0 0
293 98 1 0.5897 -4.052936714433599 10.47496337571981 7.3249649154409235 1 0 0
202 68 2 -1.1794 0.37006118093635454 8.679185041820295 7.195348654174391 0 0 0
203 68 1 0.5897 -0.5054090172907997 8.409071624425689 7.47229521664161 0 0 0
204 68 1 0.5897 0.9524445765721392 8.009837900788709 7.554580444068166 0 0 0
246 82 1 0.5897 0.447523515834205 9.44193548463082 5.7023134074484 0 0 0
235 79 2 -1.1794 -2.156304475793515 7.981408908277135 8.233963002093976 0 0 0
236 79 1 0.5897 -2.9039798842590683 7.62116940688495 7.757154446766487 0 0 0
191 64 1 0.5897 0.71662876066264 9.78952634464854 8.912722029683003 0 0 0
302 101 1 0.5897 -2.3765531396306683 10.206325300819064 5.9599479112846065 1 0 0
301 101 2 -1.1794 -2.5597280074690363 10.999647877351471 6.463465985209362 1 0 0
837 279 1 0.5897 -5.617826118460556 7.931563582859429 9.596539207649734 1 0 0
12 4 1 0.5897 1.1300637057931402 6.685583535484265 5.076503885965899 0 0 0
303 101 1 0.5897 -1.7191973807488683 11.233670258508296 6.856947226215256 1 0 0
257 86 1 0.5897 -4.696978109466098 8.403705434577398 4.980676679045617 1 0 0
172 58 2 -1.1794 3.677448202677219 8.5197875652034 5.402757540723136 0 0 0
254 85 1 0.5897 -2.043203678992484 8.171114332146493 4.941722062605467 1 0 0
65 22 1 0.5897 2.566049237216874 7.5417478078903235 8.813215134418586 0 0 0
228 76 1 0.5897 1.6249130593351655 11.334683393162567 5.733900940482188 0 0 0
253 85 2 -1.1794 -2.8512469986634335 8.684170041163519 4.943450855730905 1 0 0
588 196 1 0.5897 -1.206219824321534 6.799247205396016 9.420539225840612 0 0 0
244 82 2 -1.1794 0.566898399548653 10.04570659355766 4.969126185040006 0 0 0
10 4 2 -1.1794 1.9949327424295564 6.337216240690516 4.86020167828835 0 0 0
726 242 1 0.5897 0.35618169257374355 11.14143947965645 12.444833626108878 0 0 0
835 279 2 -1.1794 -4.962383883673734 8.48736039980842 10.018072502940518 1 0 0
759 253 1 0.5897 -5.636511005293361 8.805874906120255 13.73570641895443 1 0 0
651 217 1 0.5897 -4.333087289190264 6.628278130398792 11.802841624156931 1 0 0
513 171 1 0.5897 -3.7370228737919398 6.025742753741332 14.146203343071702 0 0 0
836 279 1 0.5897 -4.221794904952461 7.903304822031984 10.181085658969632 1 0 0
795 265 1 0.5897 -5.456587851807664 9.423457709864428 11.48100514208454 1 0 0
693 231 1 0.5897 -2.3739548937371096 9.656096698371487 10.552185484421209 0 0 0
649 217 2 -1.1794 -3.5453980205783986 6.648636466563331 11.25939186569263 1 0 0
650 217 1 0.5897 -2.9716519810455515 7.28087283101357 11.692247190889525 1 0 0
742 248 2 -1.1794 0.7396523083162134 7.972408909788038 11.466465714134415 0 0 0
793 265 2 -1.1794 -5.663044444753822 9.86474091610793 12.305054669994446 1 0 0
743 248 1 0.5897 0.7581339329601011 8.712307556561015 10.859390988771931 0 0 0
744 248 1 0.5897 0.29663950491643165 7.27560363742727 10.982212278701445 0 0 0
616 206 2 -1.1794 -6.234013148860541 5.976525468972518 12.259604124340058 1 0 0
617 206 1 0.5897 -6.83765849837639 6.661347142320977 11.971734544109028 1 0 0
703 235 2 -1.1794 -1.9001614723820195 8.678052906757623 11.99296639903976 0 0 0
704 235 1 0.5897 -0.9625930670878544 8.48581485496156 11.98504383838901 0 0 0
705 235 1 0.5897 -2.019879069633343 9.258404621766756 12.744832767011234 0 0 0
794 265 1 0.5897 -5.028865656847401 10.579617288688517 12.359991216960223 1 0 0
678 226 1 0.5897 0.6180303520411918 9.155209851493177 13.770867699543391 0 0 0
750 250 1 0.5897 -3.098348637265243 10.530638336178255 13.861448326158426 0 0 0
724 242 2 -1.1794 1.0902928689032985 10.669912339087393 12.838405360349348 0 0 0
586 196 2 -1.1794 -0.43839560093499186 6.345951987808019 9.768525749144628 0 0 0
514 172 2 -1.1794 -0.8414447324060328 6.185868630700854 14.431727259546795 0 0 0
691 231 2 -1.1794 -2.281010000635277 10.284636457726947 9.836176094335151 0 0 0
190 64 2 -1.1794 0.5572667679825019 10.201770181188355 9.761887047403567 0 0 0
809 270 1 0.5897 -7.283698849631464 10.446438468267987 12.790037092545576 1 0 0
587 196 1 0.5897 -0.7958532835453669 5.706298798907049 10.384493392822451 0 0 0
516 172 1 0.5897 -0.34712497052220836 7.000893676217385 14.343981114045208 0 0 0
748 250 2 -1.1794 -2.337324749288962 10.097523264729793 14.247946478927227 0 0 0
192 64 1 0.5897 1.084731538538989 11.000351353100928 9.743819532017211 0 0 0
692 231 1 0.5897 -1.3355583447173274 10.385569395795137 9.726626909563208 0 0 0
731 244 1 0.5897 -1.5954940511146383 11.27493351392508 15.332358194640305 0 0 0
695 232 1 0.5897 -2.6708528233126207 10.146973524289317 18.47213182558501 0 0 0
512 171 1 0.5897 -4.092179170235568 7.32532522937981 14.837121579873768 0 0 0
569 190 1 0.5897 -1.1355898181966975 6.31493184671109 18.21826727066367 0 0 0
613 205 2 -1.1794 -7.198124331296935 6.352678451197421 16.990643974161603 1 0 0
568 190 2 -1.1794 -1.1038403985910747 7.1218869141136905 17.704319449557527 0 0 0
511 171 2 -1.1794 -3.4084990415511633 6.657337071428719 14.786137495878405 0 0 0
805 269 2 -1.1794 -5.168489396072051 10.89816697429361 16.158160234874963 1 0 0
798 266 1 0.5897 -7.778670474102749 9.774764967383803 16.704854940367134 1 0 0
797 266 1 0.5897 -6.682059129454146 10.697073630990884 17.193349891576975 1 0 0
758 253 1 0.5897 -5.240412081645513 9.123039041328369 15.16213668162711 1 0 0
740 247 1 0.5897 -5.949297698376301 7.4535534512617705 17.498404828562208 0 0 0
333 111 1 0.5897 -7.9314418715645445 9.552648999648508 18.847236653420087 1 0 -1
83 28 1 0.5897 -4.602111554417513 6.825779690177447 18.915133985662788 0 0 -1
741 247 1 0.5897 -5.760498912266746 8.71415299561479 18.315468709314057 0 0 0
706 236 2 -1.1794 -2.887643244944212 9.128713787911975 16.825675166936055 0 0 0
707 236 1 0.5897 -3.702469831234014 8.734425583900538 17.136721206703537 0 0 0
708 236 1 0.5897 -2.205537547366668 8.513391467888848 17.094572802514946 0 0 0
796 266 2 -1.1794 -7.548300299592312 10.362139801431054 17.424795399892805 1 0 0
749 250 1 0.5897 -2.6914486215877904 9.606090412123654 14.989163865823667 0 0 0
739 247 2 -1.1794 -5.2769199669257905 7.98915026939361 17.919377048271624 0 0 0
760 254 2 -1.1794 -8.07396459714137 8.815327118596601 15.27237149063665 1 0 0
676 226 2 -1.1794 0.6236465699520188 8.591777684231111 14.544733518891713 0 0 0
677 226 1 0.5897 0.668754427062737 9.199033876051004 15.283408876830833 0 0 0
762 254 1 0.5897 -7.2299279972442605 8.391751102233783 15.116412426399094 1 0 0
570 190 1 0.5897 -0.27235969360489687 7.073509958815498 17.2326516554722 0 0 0
615 205 1 0.5897 -7.143734678626005 5.804165326645312 16.207946125007187 1 0 0
757 253 2 -1.1794 -5.412441391782107 8.391577886986175 14.569054003286384 1 0 0
654 218 1 0.5897 -9.234506703514075 7.8323835439982705 18.493248132914662 1 0 0
732 244 1 0.5897 -0.4178391994331019 11.401586049881683 16.275080995307135 0 0 0
614 205 1 0.5897 -7.111969550773929 5.73897441393466 17.720233769108475 1 0 0
82 28 2 -1.1794 -4.008110414584425 6.153300863270242 19.248436452984944 0 0 -1
515 172 1 0.5897 -1.7302669242975668 6.466668358091177 14.649162482273512 0 0 0
281 94 1 0.5897 -3.572272571988437 13.747958877414439 3.4371394833186146 1 0 0
280 94 2 -1.1794 -3.5097080571012533 14.35729032263846 2.7015325014063873 1 0 0
282 94 1 0.5897 -2.5712267617370745 14.51526140270714 2.599815290664454 1 0 0
500 167 1 0.5897 -1.7557112903502636 16.11095359141991 0.6648794544335515 1 0 0
313 105 2 -1.1794 -0.9792219569310028 14.877722997270606 1.867220541652441 1 0 0
315 105 1 0.5897 -0.5665869774398375 14.094740818213698 1.5024468757718572 1 0 0
314 105 1 0.5897 -0.25180858533700956 15.477214352056846 2.0334450043669956 1 0 0
225 75 1 0.5897 -0.7522139292326564 12.91245896592924 4.11209828481212 0 0 0
215 72 1 0.5897 1.6995139535144501 12.714399991792474 1.7810685147877043 0 0 0
223 75 2 -1.1794 -0.7939765851509044 12.124994164475744 3.5693302053793516 0 0 0
269 90 1 0.5897 -3.7059351398255638 13.195234311109553 1.2779499483697363 1 0 0
423 141 1 0.5897 -2.417171165309294 16.898226424852457 4.432868392144921 1 0 0
216 72 1 0.5897 0.9072478524756544 12.077968785229865 2.903272174847286 0 0 0
367 123 2 -1.1794 0.9543356770373652 16.606773996083753 2.7893661874078046 0 0 0
224 75 1 0.5897 -0.6165728782364646 11.405837184197134 4.175705662475948 0 0 0
214 72 2 -1.1794 1.792832930236635 12.347950550275165 2.660476391685492 0 0 0
771 257 1 0.5897 -0.33388470360905176 11.837964280622428 0.3865347334619622 1 0 1
368 123 1 0.5897 1.882231795826204 16.45306152538253 2.6119570644478656 0 0 0
252 84 1 0.5897 2.640044226315948 14.574366789710117 0.6598562621930737 0 0 0
406 136 2 -1.1794 3.5310452382117106 15.837663680927129 1.734254899539611 0 0 0
180 60 1 0.5897 2.1742641553865374 13.723201200989987 3.959779363827503 0 0 0
407 136 1 0.5897 4.3612213993734175 15.388329176188876 1.8924703053945036 0 0 0
499 167 2 -1.1794 -2.4036199682322046 16.705507904395343 0.28683777120495263 1 0 0
408 136 1 0.5897 3.7665082554152063 16.595777678194384 1.199301411368608 0 0 0
250 84 2 -1.1794 2.1420736591362566 13.849583531624043 0.28167939583245166 0 0 0
184 62 2 -1.1794 5.483264619746228 12.222809963302579 0.09319453851900622 0 0 0
769 257 2 -1.1794 -0.7009560728481246 12.700584074809578 0.19293482112770372 1 0 1
770 257 1 0.5897 -1.6442455819283963 12.592468556115692 0.3136771395902214 1 0 1
1004 335 1 0.5897 -5.390652328722592 17.058991061538592 9.084928067930916 1 0 0
227 76 1 0.5897 1.1985614090416377 11.91991674836233 7.0635869495850345 0 0 0
422 141 1 0.5897 -2.20621477966593 16.944258820387528 5.9314077455396905 1 0 0
327 109 1 0.5897 -4.177157847141024 13.589940927517201 5.501389294691985 1 0 0
176 59 1 0.5897 -1.0802918680457756 15.05222584718572 5.391785993100593 0 0 0
211 71 2 -1.1794 -0.3613055226238773 12.539721091205696 7.710629974784154 0 0 0
212 71 1 0.5897 -0.8155905702835118 12.940042538845265 8.452079467181392 0 0 0
213 71 1 0.5897 -0.5206622594220227 13.137635063137292 6.980256990122065 0 0 0
279 93 1 0.5897 -5.347129178014071 14.326907787465476 7.522494539295603 1 0 0
267 89 1 0.5897 -3.756096795063626 12.802249997083194 8.556542739149585 1 0 0
233 78 1 0.5897 2.819332344848008 14.832013041341188 7.592381338327471 0 0 0
341 114 1 0.5897 3.1435670202238644 15.733461867768247 4.970057626310744 0 0 0
234 78 1 0.5897 1.3864879381827642 15.251123717486282 7.843101967830302 0 0 0
179 60 1 0.5897 2.247208897349144 13.433260843366183 5.443972565787558 0 0 0
232 78 2 -1.1794 2.1351480824955047 14.826424687706616 8.26176645717638 0 0 0
277 93 2 -1.1794 -4.428756804771366 14.226213303370637 7.272375201991071 1 0 0
278 93 1 0.5897 -3.964917951134324 14.881288269587893 7.793939462389958 1 0 0
403 135 2 -1.1794 -2.539455017332091 15.97168103495995 8.450016350935375 0 0 0
370 124 2 -1.1794 0.3732612505428512 16.59506723206297 7.124384632921115 0 0 0
177 59 1 0.5897 0.34603463231213105 14.584681614242099 5.1953497104449005 0 0 0
326 109 1 0.5897 -3.2410947882553494 12.412245743898188 5.331405180136032 1 0 0
404 135 1 0.5897 -1.8452341747312002 16.115072923291024 7.806822217367658 0 0 0
226 76 2 -1.1794 1.9466284357418049 11.85540045521016 6.469900048328771 0 0 0
405 135 1 0.5897 -2.437799615835146 16.688146656848378 9.076684125026194 0 0 0
340 114 2 -1.1794 3.6618261339459384 16.536943661583642 4.923971154783866 0 0 0
372 124 1 0.5897 0.2620147617812325 17.042099785407466 6.285268959592445 0 0 0
421 141 2 -1.1794 -2.3371220223021814 16.336250095229857 5.203665924978122 1 0 0
756 252 1 0.5897 -1.6168968244043476 14.567199736006696 9.320901529211095 0 0 0
325 109 2 -1.1794 -3.936649696629103 12.896593076270968 4.8866894564280035 1 0 0
690 230 1 0.5897 2.0581971862988997 13.116606312017888 9.109411330872318 0 0 0
425 142 1 0.5897 -4.273486470343543 16.042462531042247 5.046113751716203 1 0 0
175 59 2 -1.1794 -0.5179843233873314 14.28200222905924 5.474601802255323 0 0 0
265 89 2 -1.1794 -3.9042144052738696 12.590593621185917 9.47830149416613 1 0 0
178 60 2 -1.1794 2.128170342000434 14.146785861501517 4.817029596730495 0 0 0
910 304 2 -1.1794 0.5796048343502371 15.807332025732357 11.081609756796492 0 0 0
846 282 1 0.5897 0.8289077593561966 17.00118810258546 13.945180378940806 0 0 0
1003 335 2 -1.1794 -5.511510367830532 16.533449946826273 9.875842595861995 1 0 0
718 240 2 -1.1794 -0.9799497666150483 12.342990575179615 12.121977833446916 0 0 0
727 243 2 -1.1794 -3.7145841842939165 11.73174847516606 12.654599078483434 0 0 0
720 240 1 0.5897 -0.6772161811441606 12.893392517293682 12.844321964182807 0 0 0
911 304 1 0.5897 -0.1460929391167558 15.869436433600146 11.702695480691391 0 0 0
873 291 1 0.5897 -2.408310410661122 15.590389858914675 12.210147149681996 0 0 0
682 228 2 -1.1794 -0.87221215360809 14.203100957422183 14.322840804043185 0 0 0
754 252 2 -1.1794 -1.0566555312613848 14.006555551915127 9.857596541167796 0 0 0
729 243 1 0.5897 -3.932451155204963 12.516476852723144 13.157608590775379 0 0 0
728 243 1 0.5897 -2.854356601335569 11.918683286000817 12.27882214306942 0 0 0
871 291 2 -1.1794 -1.7910019920925242 16.31626676116069 12.301188802515275 0 0 0
784 262 2 -1.1794 -6.336242099085078 13.960379909935781 12.309994845367466 1 0 0
1005 335 1 0.5897 -4.709928272911444 16.01485761310398 9.94423155620534 1 0 0
719 240 1 0.5897 -0.9452733522911636 12.913904077777621 11.354381557971484 0 0 0
786 262 1 0.5897 -6.577246985489824 13.69109373980405 13.19643341782411 1 0 0
817 273 2 -1.1794 -3.763194208283277 14.619756142113467 11.410272833562672 1 0 0
818 273 1 0.5897 -4.619942381454544 14.464347428404903 11.807738984410005 1 0 0
819 273 1 0.5897 -3.625322590493836 13.867015519101603 10.83510422627732 1 0 0
872 291 1 0.5897 -2.082000795515482 16.961243006330502 11.656486597671336 0 0 0
912 304 1 0.5897 1.1910193072914934 15.192955255647847 11.487727897089052 0 0 0
785 262 1 0.5897 -7.025238850795445 14.57145818399696 12.049104841065077 1 0 0
774 258 1 0.5897 -5.727627260681709 12.21534625442606 9.837896904989188 1 0 0
755 252 1 0.5897 -0.3296406899712552 14.57233500344008 10.117457067150303 0 0 0
773 258 1 0.5897 -6.600360138774924 12.676103933293646 10.986024326212926 1 0 0
925 309 2 -1.1794 -5.879249825585234 16.004293195997594 14.392896249977355 1 0 0
688 230 2 -1.1794 2.2272374908581005 12.40442843086654 9.726317711589626 0 0 0
831 277 1 0.5897 -7.4385195065014855 12.139452739575244 14.18490449535395 1 0 0
684 228 1 0.5897 -0.3143716980950213 14.980965638298475 14.325996753257739 0 0 0
266 89 1 0.5897 -3.340127866421278 11.835366115953182 9.644770910147429 1 0 0
962 321 1 0.5897 -6.100103931705149 17.14371020149605 12.860784176330007 1 0 0
876 292 1 0.5897 -2.319780147132465 15.6467908631416 17.10603199010838 0 0 0
681 227 1 0.5897 -3.9710211636404456 14.015651011412013 15.456144924703985 0 0 0
907 303 2 -1.1794 -5.637867546857281 15.783759264483063 18.238707613573396 0 0 0
844 282 2 -1.1794 0.8138226742569339 16.394943917475494 14.685785692658646 0 0 0
806 269 1 0.5897 -5.685658406574899 11.46936166483074 15.590253414681293 1 0 0
908 303 1 0.5897 -6.309487406200532 15.56996204920165 17.591094838267207 0 0 0
927 309 1 0.5897 -5.600403427320947 16.757090876460833 14.91434517482872 1 0 0
679 227 2 -1.1794 -3.7973320278337743 14.255600024759215 14.545860608369502 0 0 0
715 239 2 -1.1794 -3.5120119240243968 12.83703815848481 17.18609150202031 0 0 0
716 239 1 0.5897 -3.4474516564220483 13.311149105934478 18.015221368442425 0 0 0
783 261 1 0.5897 -8.26489772820115 14.386172362767578 17.133795558608185 1 0 0
874 292 2 -1.1794 -3.084889049174495 16.220088675666382 17.059962002794293 0 0 0
736 246 2 -1.1794 -0.7338317056904167 14.635191873377163 17.762563905857498 0 0 0
737 246 1 0.5897 -0.38568750785478834 15.24945681344959 18.40896219578697 0 0 0
830 277 1 0.5897 -7.232420824182968 13.03949917780122 15.384819849059264 1 0 0
909 303 1 0.5897 -4.815116200578179 15.751112778568428 17.750662376588608 0 0 0
781 261 2 -1.1794 -7.448872199516786 13.899138261834068 17.019555107272488 1 0 0
782 261 1 0.5897 -7.254196429682207 13.549751431685438 17.889236909475834 1 0 0
730 244 2 -1.1794 -1.2494019161433743 11.814825587047954 16.043051382502476 0 0 0
717 239 1 0.5897 -2.6491987188693917 12.43959900166927 17.06895451454726 0 0 0
807 269 1 0.5897 -4.556752195741493 11.488063178411398 16.598671633254636 1 0 0