LAMMPS data file via write_data, version 30 Jul 2021, timestep = 16250000

864 atoms
2 atom types
576 bonds
1 bond types
288 angles
1 angle types

0.08635978807541633 18.121212611910618 xlo xhi
0.12535429915922158 23.50382350085353 ylo yhi
0.2522248622693173 21.96097093773424 zlo zhi

Masses

1 1.00794
2 15.9994

Atoms # full

707 1 1 0.5897 3.1198527551205726 2.2602774877629384 3.93129985513062 0 0 0
706 1 2 -1.1794 3.063784082386148 2.20316920450315 2.9773803850404446 0 0 0
846 1 1 0.5897 7.358676705249464 2.2245165824790814 5.3912540226494245 0 0 0
668 1 1 0.5897 5.477992954276314 3.304201271632271 0.5123656695019879 0 0 0
495 1 1 0.5897 8.11120019225769 2.816893155398592 3.2192554731193557 0 0 0
708 1 1 0.5897 2.243067335446824 2.6443022873115063 2.758382043911099 0 0 0
29 1 1 0.5897 4.520929581445746 2.983037616911217 2.538861294236901 0 0 0
28 1 2 -1.1794 5.3315532475221366 3.4381841703214904 2.3111411175972507 0 0 0
3 1 1 0.5897 0.4224254296474279 4.054215248291093 2.7343741824793604 0 0 0
494 1 1 0.5897 6.605000214289115 2.666094897798647 3.2031298134889887 0 0 0
30 1 1 0.5897 5.157358588422302 4.3564444731768335 2.5176370542926243 0 0 0
493 1 2 -1.1794 7.401457977542264 2.271261195634823 3.5579672366733663 0 0 0
1 1 2 -1.1794 0.5413755473719544 3.154504287455077 2.4301147969069032 0 0 0
819 1 1 0.5897 7.432882013948606 0.783955139926702 2.717956371322906 0 0 0
20 1 1 0.5897 0.19945351193073366 3.217156291869234 0.6454226890797848 0 0 0
188 1 1 0.5897 2.8588779041687573 0.4443250666225212 2.383396973568674 0 1 0
595 1 2 -1.1794 0.43063394547715184 5.737599795047152 3.145760094811672 0 0 0
597 1 1 0.5897 0.44754127073377353 5.79973959824341 4.1008085055831 0 0 0
487 1 2 -1.1794 2.991234461639293 2.14069117796751 5.578987722028398 0 0 0
673 1 2 -1.1794 2.979675111722557 1.7226316521589344 10.566141691403791 0 0 0
785 1 1 0.5897 0.8217938718637567 3.214924608451826 7.955068910128402 0 0 0
36 1 1 0.5897 1.4818770336372995 2.526017386505875 9.945818089841401 0 0 0
183 1 1 0.5897 0.6792716627404629 4.945592073410139 6.311243221606262 0 0 0
844 1 2 -1.1794 7.32782570428743 2.203698396011459 6.347746049392343 0 0 0
678 1 1 0.5897 5.188054867766445 4.805879407425471 10.163833230486334 0 0 0
674 1 1 0.5897 3.770293699092173 2.13179910231032 10.214505412711164 0 0 0
355 1 2 -1.1794 7.790772961399715 1.691643003435145 10.342046328742978 0 0 0
84 1 1 0.5897 5.723805800495678 3.145415816387688 6.725349646114434 0 0 0
112 1 2 -1.1794 1.038803942513499 5.788710741576302 10.219175334229694 0 0 0
274 1 2 -1.1794 5.346852170960702 2.9319362690296944 9.69610941007287 0 0 0
356 1 1 0.5897 7.820115149311734 0.7569920175557345 10.137703821626603 0 0 0
845 1 1 0.5897 7.338809915703745 1.272273442762867 6.568000043055164 0 0 0
675 1 1 0.5897 2.9836064841051018 0.8384954864523172 10.199404203471573 0 0 0
676 1 2 -1.1794 5.266175024937963 5.685769889792694 10.53246549204307 0 0 0
784 1 2 -1.1794 0.7810302455816701 3.2584421408036603 6.999703572625336 0 0 0
276 1 1 0.5897 6.1656848654785295 2.468958828891169 9.872995471405357 0 0 0
82 1 2 -1.1794 4.958737103653288 3.6578125507034858 6.986665198367901 0 0 0
275 1 1 0.5897 5.3933938609718615 3.1552653899326724 8.766475968568137 0 0 0
35 1 1 0.5897 1.0305765711304362 3.9592465956349456 9.7615311978392 0 0 0
83 1 1 0.5897 4.210147066669727 3.1244818287281424 6.71961754219089 0 0 0
181 1 2 -1.1794 0.6441589230580096 5.827210169740947 5.940134174246472 0 0 0
34 1 2 -1.1794 0.7581114629148591 3.054369664847601 9.609418920977353 0 0 0
489 1 1 0.5897 3.0463475116849543 1.2224829140443625 5.843645567102306 0 0 0
488 1 1 0.5897 2.1300022516202337 2.426825913901625 5.883167431439638 0 0 0
686 1 1 0.5897 5.152217207965792 5.269129996201542 5.831963509663969 0 0 0
166 1 2 -1.1794 2.8936973483667914 1.4246789415206158 13.354009199681478 0 0 0
167 1 1 0.5897 2.9807774906772377 1.4757324928410587 12.402130822316472 0 0 0
762 1 1 0.5897 5.414735360023757 4.590078677600297 13.395503391941297 0 0 0
459 1 1 0.5897 4.427437350191878 2.349036285690598 13.810359627038777 0 0 0
168 1 1 0.5897 2.1144571655391315 1.9440541149581019 13.551903563025197 0 0 0
593 1 1 0.5897 7.704508050261727 0.7887608295408284 13.292744986191002 0 0 0
364 1 2 -1.1794 0.6576388505738728 5.669078761037342 12.94797804987465 0 0 0
592 1 2 -1.1794 7.480522930536085 1.6893826045749627 13.058411164996581 0 0 0
458 1 1 0.5897 5.932085221860465 2.279236997407715 13.659619194363117 0 0 0
594 1 1 0.5897 8.247336887992171 2.2017786565570536 13.31449351806021 0 0 0
457 1 2 -1.1794 5.236200142565999 2.7835805042563777 14.080975576013794 0 0 0
468 1 1 0.5897 0.8271068449556154 3.4049929404520096 15.092053084609018 0 0 0
466 1 2 -1.1794 0.7815493188720583 3.2022023120830823 14.157670985054763 0 0 0
71 1 1 0.5897 5.0211226233214195 2.9019540575708387 15.717956985002822 0 0 0
365 1 1 0.5897 0.5870948416899469 4.83632907470813 13.41463460090498 0 0 0
760 1 2 -1.1794 5.56658998205832 5.53447864259333 13.360494283494264 0 0 0
113 1 1 0.5897 0.8296435947622873 5.8572971558191 11.150748197490866 0 0 0
761 1 1 0.5897 5.524711134086165 5.749902621480653 12.428777882018148 0 0 0
357 1 1 0.5897 7.674709586291337 1.7261854511526686 11.291570290480605 0 0 0
366 1 1 0.5897 1.5500093285964278 5.9675385108731 13.123278863674951 0 0 0
133 1 2 -1.1794 0.6724507920860189 3.6353304165628124 16.884176531164115 0 0 0
72 1 1 0.5897 4.377718980085724 2.723557111722773 17.07668512087165 0 0 0
278 1 1 0.5897 4.945979558445073 4.71443145281436 17.35634688714609 0 0 0
291 1 1 0.5897 2.0870762785830874 2.6723353648948844 17.773948905272093 0 0 0
41 1 1 0.5897 6.8698210273035345 2.628130842473508 20.630859648265435 0 0 0
569 1 1 0.5897 2.0023334254575107 2.128833410209085 21.06033588054364 0 0 0
570 1 1 0.5897 2.809759129872855 2.160143967753835 19.78007484935226 0 0 0
568 1 2 -1.1794 2.900967656860581 2.106527680127363 20.731424356127 0 0 0
277 1 2 -1.1794 4.882306964219342 5.585690695604026 17.747565966039467 0 0 0
143 1 1 0.5897 4.858952349291929 4.795801296888517 20.690151848965513 0 0 0
21 1 1 0.5897 0.4597628786776162 4.082986392128616 21.139884964269804 0 0 0
669 1 1 0.5897 4.523817285314366 2.846569291261912 21.138510388591143 0 0 0
289 1 2 -1.1794 2.8295534143714565 2.0721383450718065 17.841991668338693 0 0 0
290 1 1 0.5897 2.498435241256544 1.2411765886268433 17.50131414070905 0 0 0
667 1 2 -1.1794 5.359756398681687 3.293474306975275 21.271263731811295 0 0 0
756 1 1 0.5897 6.394033936156824 1.9744244910420277 17.37831255071538 0 0 0
142 1 2 -1.1794 4.681071432300206 5.730861889663837 20.589112140503353 0 0 0
42 1 1 0.5897 7.847468982079873 1.4820153785737493 20.481533182036472 0 0 0
754 1 2 -1.1794 7.11462450462653 1.3951823433245498 17.626167939823482 0 0 0
40 1 2 -1.1794 7.718160644193829 2.401681810139783 20.249854823109054 0 0 0
755 1 1 0.5897 7.270813102957811 1.5885014639471282 18.550559267648225 0 0 0
599 1 1 0.5897 8.591575039204585 2.1468347969542596 16.966690854378733 0 0 0
134 1 1 0.5897 0.6516004389764841 4.419365957267146 17.43286612172053 0 0 0
646 1 2 -1.1794 0.6240254286546277 5.688272187938817 20.609701033049205 0 0 0
70 1 2 -1.1794 5.104121008936806 3.1633834776085896 16.635050406604144 0 0 0
19 1 2 -1.1794 0.2701877708806272 3.181617002398975 21.400226414832993 0 0 0
144 1 1 0.5897 4.646644529086603 5.867675707603852 19.642327614225678 0 0 0
711 1 1 0.5897 8.905202501944293 5.576418792434578 17.36820274825393 0 0 0
648 1 1 0.5897 0.5226557687825275 5.8855913902920385 19.678546834166944 0 0 0
81 1 1 0.5897 3.080311607747095 0.28328770362418254 21.042456632308564 0 1 0
253 1 2 -1.1794 2.5248080127615133 7.311082312024187 2.2338324260772535 0 0 0
123 1 1 0.5897 2.9751598956462217 9.001334912023573 3.0290158183028453 0 0 0
121 1 2 -1.1794 3.131691157841785 9.924970551181955 3.2254428689261654 0 0 0
122 1 1 0.5897 2.9214262859471285 10.01158887848403 4.155252791336232 0 0 0
773 1 1 0.5897 8.963670161596042 10.896565055977327 2.5980566729250842 0 0 0
43 1 2 -1.1794 0.6872705284265592 10.839975990491702 2.441002765919426 0 0 0
415 1 2 -1.1794 7.1583728277819745 7.480104489739526 2.0504296714595096 0 0 0
44 1 1 0.5897 1.5781469670076982 10.580694936082793 2.6760179236467523 0 0 0
219 1 1 0.5897 4.451845109652141 10.803929431349655 2.2759092031717785 0 0 0
416 1 1 0.5897 6.344924568965931 7.0032591748093305 2.214879917925288 0 0 0
218 1 1 0.5897 5.9562389516147665 10.915404179616889 2.4021703244206853 0 0 0
217 1 2 -1.1794 5.215796027282586 11.222087169391205 1.8788301818126147 0 0 0
66 1 1 0.5897 7.322083989406126 9.9796957035926 3.9434182474013366 0 0 0
65 1 1 0.5897 7.422259111891339 9.11933014113935 2.7017703633388646 0 0 0
64 1 2 -1.1794 7.41944541079761 10.031282553780938 2.992557846961638 0 0 0
417 1 1 0.5897 7.811213254728156 7.034099808306573 2.5899363159481577 0 0 0
254 1 1 0.5897 2.423514025515808 7.546963374741055 1.3116569665619102 0 0 0
255 1 1 0.5897 1.7354095319586265 6.811356565754622 2.44188030919337 0 0 0
136 1 2 -1.1794 4.895196650178888 6.223705055986612 2.878927225234615 0 0 0
162 1 1 0.5897 7.325602784725339 7.123342347809803 0.31408107201773766 0 0 1
137 1 1 0.5897 4.9141351907383175 6.285684847394771 3.8339538936939688 0 0 0
396 1 1 0.5897 0.8016897122336255 10.89545067202975 0.6948022228021493 0 0 0
138 1 1 0.5897 4.073734653816651 6.645613411912871 2.627281479541896 0 0 0
45 1 1 0.5897 0.7010572916301687 11.79670211455689 2.466865872708715 0 0 0
685 1 2 -1.1794 5.149203005853336 6.213577817273125 5.676403449334553 0 0 0
528 1 1 0.5897 8.208792118098346 6.525837575280911 9.79842465767731 0 0 0
577 1 2 -1.1794 4.993173012765456 11.061239285634295 7.0013722723657486 0 0 0
165 1 1 0.5897 8.95711528667669 6.0878386529492685 6.495300537285525 0 0 0
15 1 1 0.5897 1.5109633757958734 10.415712818091993 9.975745214383911 0 0 0
551 1 1 0.5897 0.5349822703729119 11.080339463955944 7.972712875596161 0 0 0
256 1 2 -1.1794 3.1273973073761168 9.86111215482364 10.585700988897369 0 0 0
147 1 1 0.5897 7.267096760083528 7.18083450917353 7.6429748318788056 0 0 0
793 1 2 -1.1794 2.578425542502888 9.790852853689447 5.928038044034881 0 0 0
257 1 1 0.5897 3.1906821859009327 8.97519541211288 10.228845407492466 0 0 0
145 1 2 -1.1794 7.475978935891255 7.291567107645747 6.715418266503145 0 0 0
526 1 2 -1.1794 7.350729507682748 6.84685607120918 9.521297352310643 0 0 0
650 1 1 0.5897 3.2717512889702847 7.279989202643547 8.74091696722375 0 0 0
649 1 2 -1.1794 3.2023397267767377 7.40754484290682 9.687051602807525 0 0 0
12 1 1 0.5897 2.767973899045997 8.143604820448926 6.546078414035693 0 0 0
581 1 1 0.5897 6.014960960821441 10.896109744014506 9.86555123982357 0 0 0
714 1 1 0.5897 7.546771072891374 8.920497658615108 6.168512954091526 0 0 0
146 1 1 0.5897 6.73920311722366 6.89107794703269 6.2539857808656665 0 0 0
651 1 1 0.5897 3.8826211550965777 6.844128395827244 10.055736714921654 0 0 0
820 1 2 -1.1794 7.341819327638961 9.320598932243326 10.4410464939702 0 0 0
550 1 2 -1.1794 0.43560214314960805 11.045395270070074 7.021312393577714 0 0 0
822 1 1 0.5897 8.137332035920725 9.77190040623219 10.158868820236691 0 0 0
258 1 1 0.5897 3.9105949750596474 10.306479705289144 10.262609602010155 0 0 0
580 1 2 -1.1794 5.184782624434564 11.330379929016656 9.669712675661517 0 0 0
582 1 1 0.5897 5.044808283448177 11.170816736406268 8.736318194343196 0 0 0
10 1 2 -1.1794 2.9231718919863816 7.258672605066291 6.876232918779137 0 0 0
11 1 1 0.5897 2.1852433233712913 6.746397377184435 6.5458010722725195 0 0 0
527 1 1 0.5897 7.212263138976598 7.639650368808197 10.039572280214955 0 0 0
713 1 1 0.5897 8.192237059228828 10.261528967300235 6.4455985561625475 0 0 0
795 1 1 0.5897 3.3467550959427212 10.198118816871409 6.328023357548723 0 0 0
578 1 1 0.5897 5.75376425752867 10.655239047138496 6.585671070029813 0 0 0
794 1 1 0.5897 1.8333450703651117 10.231387713305901 6.336605344062476 0 0 0
687 1 1 0.5897 4.407003802869347 6.538379041917183 6.186115867601377 0 0 0
13 1 2 -1.1794 0.7088649123388284 10.859739970964743 9.700760711921896 0 0 0
712 1 2 -1.1794 7.454318271688255 9.856348436753718 5.990115082096027 0 0 0
677 1 1 0.5897 6.06042702975942 6.042748118703319 10.135141418204823 0 0 0
14 1 1 0.5897 0.8985135210395029 11.790869618452115 9.815757503834986 0 0 0
114 1 1 0.5897 1.8193998155651243 6.331317400028386 10.107915273716829 0 0 0
476 1 1 0.5897 7.039366734531992 10.0198254867496 13.350922219870396 0 0 0
332 1 1 0.5897 3.1607695226352854 7.515522095578451 13.381397602707725 0 0 0
797 1 1 0.5897 3.406364909421256 9.472604168751456 12.205478307839526 0 0 0
796 1 2 -1.1794 3.330353322635965 9.276684958217627 13.139339412518748 0 0 0
798 1 1 0.5897 2.4702258664148493 9.61609240596965 13.386521352735931 0 0 0
827 1 1 0.5897 6.952086093002194 6.731586582297302 13.898384581078691 0 0 0
721 1 2 -1.1794 5.473717830879966 10.769928273853848 13.969153603815421 0 0 0
331 1 2 -1.1794 3.0411417664448903 6.605976690746267 13.654532641988373 0 0 0
477 1 1 0.5897 7.821767017935981 8.736160835437937 13.52914813966081 0 0 0
723 1 1 0.5897 5.421010916140074 10.699468402621294 14.922316034806157 0 0 0
826 1 2 -1.1794 7.6917958180387505 7.184337808314389 14.303358535754612 0 0 0
259 1 2 -1.1794 0.7951028942403576 10.669898747120863 13.651218112563472 0 0 0
722 1 1 0.5897 4.783962794251259 10.189700876470544 13.64709586646549 0 0 0
828 1 1 0.5897 7.5981024230951935 7.007573127882425 15.239438098179244 0 0 0
225 1 1 0.5897 2.884150326169952 6.816177224274541 15.530936951205495 0 0 0
333 1 1 0.5897 3.918221153067721 6.2251833754815165 13.61163015790626 0 0 0
475 1 2 -1.1794 7.843739807094058 9.5794193768046 13.07678545167955 0 0 0
261 1 1 0.5897 0.8898149940323794 10.897087066810853 14.57624276693808 0 0 0
445 1 2 -1.1794 0.7629393554927363 11.127922223767 16.36048819852404 0 0 0
821 1 1 0.5897 7.450857265685179 9.209897213731075 11.385568401283995 0 0 0
223 1 2 -1.1794 2.8478222771927846 6.9793923394071085 16.473435643687125 0 0 0
689 1 1 0.5897 3.542754733050914 10.154263824899592 20.07463651016853 0 0 0
161 1 1 0.5897 6.4861727963879074 6.521426478466276 20.916069885411986 0 0 0
626 1 1 0.5897 2.8075050496046705 9.528913684961847 17.90792489223052 0 0 0
6 1 1 0.5897 2.859144012420211 8.113281454773894 20.537657421042134 0 0 0
680 1 1 0.5897 4.505772333757333 10.414969608915422 16.825786700178895 0 0 0
520 1 2 -1.1794 7.4702636072265385 6.6468968863149165 16.95033742341561 0 0 0
647 1 1 0.5897 1.3956134418411643 6.187019264241445 20.87809608342851 0 0 0
690 1 1 0.5897 2.0366537606338024 10.27456155385844 20.16846093590891 0 0 0
627 1 1 0.5897 2.3331036593493057 10.189016466788212 16.630780159718924 0 0 0
688 1 2 -1.1794 2.7316456190012315 9.82713623349265 19.685760527825906 0 0 0
7 1 2 -1.1794 7.539098758664498 9.353570527177427 17.65703355485593 0 0 0
8 1 1 0.5897 7.4635247864641325 9.408531439591462 18.60968564541968 0 0 0
287 1 1 0.5897 9.04417492988806 10.234191597404623 20.93611694135798 0 0 0
140 1 1 0.5897 6.625448745051183 9.854779464318572 20.56975361994658 0 0 0
522 1 1 0.5897 7.4591228868369575 7.501217365835389 17.38185537737121 0 0 0
4 1 2 -1.1794 2.749094762384957 7.377046869899423 21.139371189511557 0 0 0
572 1 1 0.5897 1.1996959936740224 6.5452721047522555 17.354786354897726 0 0 0
9 1 1 0.5897 6.8449092127872735 9.924452272692823 17.327856010745755 0 0 0
361 1 2 -1.1794 5.084967966739029 10.622948819955825 20.796778032073505 0 0 0
625 1 2 -1.1794 2.9717811713324433 9.559519076996054 16.965409448816942 0 0 0
139 1 2 -1.1794 7.485249868864024 9.509428888689836 20.329738992339436 0 0 0
160 1 2 -1.1794 7.297804888760069 7.003743784307889 21.0735137911781 0 0 0
141 1 1 0.5897 7.4371574619928875 8.577260461467212 20.541768137527846 0 0 0
681 1 1 0.5897 5.161284261361065 11.77864536928078 16.874943020626937 0 0 0
521 1 1 0.5897 6.570667490349699 6.328640924444874 17.024884477213668 0 0 0
394 1 2 -1.1794 0.8561033437009047 10.838004767676878 21.449608617964742 0 0 0
279 1 1 0.5897 4.1128099582527975 5.978193608251504 17.335305468451338 0 0 0
5 1 1 0.5897 3.5154037695558 6.8246199923422255 20.985343200088785 0 0 0
224 1 1 0.5897 2.8606037167677605 7.9332129323425775 16.552478851875506 0 0 0
462 1 1 0.5897 8.870769286880796 6.473942303906007 20.414927471301176 0 0 0
679 1 2 -1.1794 5.344889503873891 10.856558214133441 16.695391924179205 0 0 0
362 1 1 0.5897 5.121554957120672 11.515710620252435 20.453517014788737 0 0 0
571 1 2 -1.1794 0.5394554635896475 6.2066985470620075 17.959467809133194 0 0 0
447 1 1 0.5897 0.09382340176628645 10.601895687810563 16.798374507402357 1 0 0
363 1 1 0.5897 4.984674742745958 10.733283619380778 21.74230834298644 0 0 0
395 1 1 0.5897 0.1051142079310452 10.300412613928899 21.19832606687764 0 0 0
557 1 1 0.5897 2.509181390129037 14.671860190100052 2.78469273307405 0 0 0
449 1 1 0.5897 7.601143230802475 16.78271429028522 2.4703197587475363 0 0 0
293 1 1 0.5897 3.164823022761064 17.14370042868544 2.7410800830217434 0 0 0
558 1 1 0.5897 3.243942240806318 14.91021299693824 1.4827011192266433 0 0 0
556 1 2 -1.1794 3.2578988009976326 15.137651875129738 2.4124018376268994 0 0 0
373 1 2 -1.1794 0.9945208061435734 13.522171288285525 3.095444399640585 0 0 0
173 1 1 0.5897 4.765950231119165 14.256717402506029 2.6044093988552026 0 0 0
174 1 1 0.5897 5.544223726711698 12.989470501215742 2.3213235137605817 0 0 0
200 1 1 0.5897 5.59118283675221 13.511270953863042 4.478982231592335 0 0 0
480 1 1 0.5897 6.930542330304238 14.861259001603218 2.042339853298161 0 0 0
172 1 2 -1.1794 5.636544061950844 13.868194564775518 2.6894702983949594 0 0 0
478 1 2 -1.1794 7.714712037115949 15.279221824136561 1.686637288476868 0 0 0
479 1 1 0.5897 8.442433355264118 14.820624332575306 2.1064853236090233 0 0 0
448 1 2 -1.1794 7.633573993108406 17.567600996566618 3.0172275956051897 0 0 0
374 1 1 0.5897 0.7268826788873362 13.545324181239176 4.014199470833427 0 0 0
308 1 1 0.5897 7.444635551854133 17.40964415679909 4.847105593918767 0 0 0
375 1 1 0.5897 0.34419431977790593 14.05885850184449 2.642370069820462 0 0 0
199 1 2 -1.1794 5.312700718719004 13.522590920045479 5.3947169778335216 0 0 0
239 1 1 0.5897 2.9686019721177224 16.860714094075732 5.62278630422574 0 0 0
768 1 1 0.5897 0.10958432480206426 14.104373740776825 9.689219794646347 0 0 0
811 1 2 -1.1794 3.3963866518503867 15.255009168364339 8.82800241931072 0 0 0
812 1 1 0.5897 4.030398978234215 14.806018655349181 9.387113605396218 0 0 0
813 1 1 0.5897 2.5559779095994313 14.85281565146112 9.047290701018811 0 0 0
17 1 1 0.5897 3.2018968232649203 15.16756547302911 6.972022394566143 0 0 0
59 1 1 0.5897 9.041548827213349 13.762142323102145 10.275350172797364 0 0 0
186 1 1 0.5897 7.4200792521195975 16.229034223374818 10.097579716510923 0 0 0
518 1 1 0.5897 7.364271489538472 15.723898887129787 6.46936626615597 0 0 0
16 1 2 -1.1794 3.054891908193825 15.023326868104432 6.037223624855724 0 0 0
18 1 1 0.5897 3.8086527556599976 14.506581951991997 5.75267513695024 0 0 0
184 1 2 -1.1794 7.445360390252444 17.139919574172836 10.390574820907556 0 0 0
201 1 1 0.5897 5.994556690568647 14.019402951757453 5.846829388949741 0 0 0
384 1 1 0.5897 3.2478971299112978 16.85518188438317 9.800593781612598 0 0 0
766 1 2 -1.1794 0.993973801929205 13.754779314590062 9.797637991336252 0 0 0
456 1 1 0.5897 5.254699339404507 12.950846786906045 10.30883003149168 0 0 0
376 1 2 -1.1794 7.602239205572614 14.467226552701423 9.620923136907066 0 0 0
378 1 1 0.5897 7.394062519367619 14.392881866926285 8.689584347165171 0 0 0
377 1 1 0.5897 6.793333453812131 14.218815419808168 10.068254116284669 0 0 0
517 1 2 -1.1794 7.368534409708083 14.838977385056472 6.834177723450346 0 0 0
519 1 1 0.5897 8.185389662485205 14.453035281866587 6.51807192322542 0 0 0
454 1 2 -1.1794 5.19731758011359 13.874758824961518 10.55233649763286 0 0 0
656 1 1 0.5897 0.9549751011757656 14.12871540660754 6.136426473649969 0 0 0
579 1 1 0.5897 4.957093353934892 11.94180037515052 6.627868368675768 0 0 0
185 1 1 0.5897 8.262384571448877 17.485132607929096 10.030797108007087 0 0 0
552 1 1 0.5897 0.47680744295833316 11.959977779999114 6.741951198930582 0 0 0
655 1 2 -1.1794 0.270364461582008 13.552270394378548 5.79705825621437 0 0 0
307 1 2 -1.1794 7.287342814201484 17.440777593426283 5.790795131563889 0 0 0
767 1 1 0.5897 1.078224182528992 13.602804517241573 10.738955701468937 0 0 0
232 1 2 -1.1794 2.4451490652350483 14.571823895138012 13.83585160567894 0 0 0
234 1 1 0.5897 2.4592925535621344 14.641218677426354 14.79044261209915 0 0 0
606 1 1 0.5897 2.887453044765413 16.259380173530296 13.258532594809996 0 0 0
296 1 1 0.5897 7.441156077714078 14.637871988963175 14.545330241618457 0 0 0
639 1 1 0.5897 1.349118796352227 13.451864760192231 12.933605833352605 0 0 0
233 1 1 0.5897 3.2390024095303747 14.083055880490944 13.618973296454625 0 0 0
427 1 2 -1.1794 4.940680120234664 13.523089509149221 13.284062548017037 0 0 0
297 1 1 0.5897 8.183266881201934 14.19740823958413 13.30149933027271 0 0 0
429 1 1 0.5897 5.740570424006097 13.940871699845557 13.603064368524807 0 0 0
428 1 1 0.5897 5.056092777707524 12.595386683697095 13.489566999305952 0 0 0
295 1 2 -1.1794 7.452510650540464 14.74206756447161 13.593871380777156 0 0 0
270 1 1 0.5897 7.487102691019294 16.578366469784804 13.367580300108601 0 0 0
455 1 1 0.5897 5.080547762913204 13.865758582324684 11.502377128692679 0 0 0
637 1 2 -1.1794 0.7244772227230167 12.998013912658852 12.36790863741106 0 0 0
638 1 1 0.5897 0.6367781532290269 12.127834708516753 12.756870161231948 0 0 0
269 1 1 0.5897 7.4995138171539235 17.494060903826153 12.162074710996377 0 0 0
604 1 2 -1.1794 3.018370434023745 17.186388496082223 13.059255496142633 0 0 0
268 1 2 -1.1794 7.529359844914427 17.5016859517483 13.118800571239351 0 0 0
605 1 1 0.5897 2.979417998353035 17.234357816411915 12.104032165521264 0 0 0
823 1 2 -1.1794 2.8837076134373594 14.848179206681321 16.504155735676015 0 0 0
49 1 2 -1.1794 7.6168034615362785 14.684565931452854 16.399343715137583 0 0 0
53 1 1 0.5897 0.6412209110179087 13.456712167062529 18.57783147224484 0 0 0
683 1 1 0.5897 6.036099036732213 13.770995843776399 20.29720992753071 0 0 0
824 1 1 0.5897 3.6453030378791236 14.412830960973045 16.88704167522757 0 0 0
825 1 1 0.5897 2.1535655688646593 14.595109402801304 17.06896935841455 0 0 0
452 1 1 0.5897 0.6749689829740292 12.472027331431628 20.7016090244893 0 0 0
50 1 1 0.5897 7.60566200827183 15.577570118462997 16.743762522637496 0 0 0
666 1 1 0.5897 3.147776753755437 15.458841985561957 21.026917843802707 0 0 0
126 1 1 0.5897 6.039831414006782 13.96096718406774 16.83425587026052 0 0 0
665 1 1 0.5897 2.4647975959377924 14.11523361594154 21.168317771996378 0 0 0
610 1 2 -1.1794 7.305369381005941 17.302036416825075 17.280471453021782 0 0 0
318 1 1 0.5897 7.313327572522919 15.541353930346707 20.19254612099914 0 0 0
52 1 2 -1.1794 0.7924393401172107 13.495040773860714 17.633413761001464 0 0 0
664 1 2 -1.1794 3.2651210097362466 14.58573544413387 21.40122625524434 0 0 0
451 1 2 -1.1794 0.8567761628619843 13.367501823948297 20.416477362640748 0 0 0
316 1 2 -1.1794 7.607139973004907 14.783046589491748 20.6974537650922 0 0 0
684 1 1 0.5897 4.531788878493362 13.729072936272033 20.46108018010863 0 0 0
584 1 1 0.5897 2.8433745788267153 16.563491992888956 17.1508040470773 0 0 0
124 1 2 -1.1794 5.225782552561363 13.588304126757595 17.172750483531395 0 0 0
125 1 1 0.5897 5.384082771272411 13.47758551191303 18.110269652102964 0 0 0
682 1 2 -1.1794 5.251434220625812 13.329005910689096 19.973003143436877 0 0 0
159 1 1 0.5897 7.2115223380703375 17.53815835045804 18.940023668276616 0 0 0
51 1 1 0.5897 8.355960199084038 14.266327566865712 16.84078626147292 0 0 0
715 1 2 -1.1794 3.3450426868813254 17.173365863403028 20.291503912867753 0 0 0
157 1 2 -1.1794 7.186400331408648 17.486440573004806 19.895514501957912 0 0 0
317 1 1 0.5897 7.541092097286468 15.06249315601024 21.61058191443378 0 0 -1
446 1 1 0.5897 0.7151627368679494 11.9823308993936 16.789328543452633 0 0 0
583 1 2 -1.1794 2.8842962090538906 17.39293936543985 17.62677487805192 0 0 0
716 1 1 0.5897 3.3518472446251946 17.267381134249874 19.33894057366072 0 0 0
117 1 1 0.5897 9.07236741016612 13.732839560957608 20.308219806002064 0 0 0
696 1 1 0.5897 1.5425241933784286 21.94983660877815 2.7868838818262875 0 0 0
343 1 2 -1.1794 0.7752283806727791 19.122812884945645 1.7232133827191947 0 0 0
413 1 1 0.5897 0.6013200160634959 21.267817310447917 4.951397517900797 0 0 0
450 1 1 0.5897 6.845497409956418 18.057034767410606 2.781552487652508 0 0 0
695 1 1 0.5897 0.6828035732946646 20.71506468993806 2.619740716309644 0 0 0
266 1 1 0.5897 4.511275344574351 22.26870099202592 3.0290417915141696 0 0 0
226 1 2 -1.1794 5.55897530933116 19.16250158791486 2.081985838883191 0 0 0
344 1 1 0.5897 1.599687165200825 18.863430816007394 2.1344803497098406 0 0 0
228 1 1 0.5897 5.619937242119333 19.996033213642193 2.5485778979461835 0 0 0
227 1 1 0.5897 4.686979232996547 18.83091706074294 2.2959952271734045 0 0 0
345 1 1 0.5897 0.8818681463141724 18.886543720654508 0.8017648021989063 0 0 0
817 1 2 -1.1794 7.443018863693231 23.37255186974435 2.177397442135253 0 0 0
189 1 1 0.5897 3.1877633449544103 22.690005208208603 1.434473155735461 0 0 0
265 1 2 -1.1794 5.329916958363727 21.848610960723143 3.292651341154102 0 0 0
267 1 1 0.5897 6.012460310665953 22.357839829721087 2.8556456042016345 0 0 0
818 1 1 0.5897 8.272458320647527 22.945667368434258 2.391813366422826 0 0 0
249 1 1 0.5897 5.337150646781237 21.49693663527269 5.057450536121309 0 0 0
187 1 2 -1.1794 3.0129038662803898 22.878479460136674 2.356511271394835 0 0 0
292 1 2 -1.1794 3.2075940391911457 18.080289388830842 2.933845479090601 0 0 0
694 1 2 -1.1794 0.7230794209620675 21.55254262553867 3.081502067652095 0 0 0
294 1 1 0.5897 3.305510930490162 18.125334119225357 3.8849740855066615 0 0 0
498 1 1 0.5897 7.711846838983127 23.28717462441255 0.29535451467043883 0 0 0
321 1 1 0.5897 8.882279539783736 18.63551393121822 2.4871266546226005 0 0 0
238 1 2 -1.1794 2.926252219540182 17.816924814340823 5.614873769915333 0 0 0
602 1 1 0.5897 5.320973855156327 19.19521116244215 0.2774673262993801 0 0 0
39 1 1 0.5897 3.85202769530631 22.308302490363076 9.713475615134922 0 0 0
240 1 1 0.5897 3.6772483148440607 18.09475767674099 6.1392482980235625 0 0 0
554 1 1 0.5897 6.151777175279028 21.840009088599103 10.069891941243135 0 0 0
405 1 1 0.5897 0.803658314703264 19.887804539556356 9.829087263474744 0 0 0
403 1 2 -1.1794 0.6891127607210683 18.990661801904153 9.515708751818211 0 0 0
341 1 1 0.5897 1.5818478774618394 18.429188013787503 6.5057421729978415 0 0 0
385 1 2 -1.1794 5.150026733713429 18.65766904565936 6.811320700561427 0 0 0
86 1 1 0.5897 7.75817016474989 22.594080921671306 8.79117366571433 0 0 0
87 1 1 0.5897 8.561513923188658 21.891927346696136 9.86515077985958 0 0 0
38 1 1 0.5897 2.3437794249397377 22.333226666130052 9.586201469769115 0 0 0
31 1 2 -1.1794 7.428799961517868 22.860212255824727 6.938105086028389 0 0 0
702 1 1 0.5897 2.104411321252279 22.435229230152736 6.312497283157874 0 0 0
33 1 1 0.5897 6.649068209460211 22.38254760215012 6.655258533916831 0 0 0
414 1 1 0.5897 0.8311588230076488 20.508271995501246 6.240649827738984 0 0 0
700 1 2 -1.1794 2.8781082228951824 22.962184848600828 6.512205497525447 0 0 0
386 1 1 0.5897 6.031758692453544 18.47318946873432 6.487828378601276 0 0 0
340 1 2 -1.1794 0.7623720345584368 18.793623164158305 6.840069217979755 0 0 0
342 1 1 0.5897 0.898185177441006 18.86246315811632 7.785096364050666 0 0 0
85 1 2 -1.1794 7.790058880031251 22.443554869107807 9.735939887819747 0 0 0
404 1 1 0.5897 1.4892103858723515 18.538847285787092 9.783726746002616 0 0 0
101 1 1 0.5897 6.217194776132411 18.247855827077906 9.915915469537271 0 0 0
248 1 1 0.5897 4.371414416127839 21.806206732894054 6.181503070436296 0 0 0
555 1 1 0.5897 5.374926579242217 20.545384071035222 9.959585666498215 0 0 0
102 1 1 0.5897 5.472205986733477 18.59955255965167 8.645805726824145 0 0 0
37 1 2 -1.1794 3.140136750101154 22.725689222151864 9.228523285973898 0 0 0
100 1 2 -1.1794 5.501395331427255 18.78943508849583 9.583549490569618 0 0 0
32 1 1 0.5897 8.14642895381845 22.46038408718814 6.446812921922174 0 0 0
553 1 2 -1.1794 5.324582056689828 21.429820107964375 10.322119195088757 0 0 0
701 1 1 0.5897 2.998351258306196 22.8636204786672 7.456716064594721 0 0 0
387 1 1 0.5897 5.003956925892608 19.579201869288994 6.597706160629824 0 0 0
383 1 1 0.5897 3.876259141371204 18.19090210456028 10.136428124267178 0 0 0
94 1 2 -1.1794 0.9243811062577524 21.494672633134698 10.423480238212395 0 0 0
247 1 2 -1.1794 5.178612908436934 21.33021366667488 5.986603571899884 0 0 0
412 1 2 -1.1794 0.614751498567211 21.377090736479254 5.902260180026608 0 0 0
382 1 2 -1.1794 3.0957222544805187 17.66025721017315 10.295515312569464 0 0 0
309 1 1 0.5897 8.023995613570028 17.941976169201325 6.14049848330545 0 0 0
788 1 1 0.5897 7.590806916139572 22.415617201526437 14.852873646430348 0 0 0
381 1 1 0.5897 1.5573716765127286 21.283099195970614 13.528732575382332 0 0 0
474 1 1 0.5897 5.1553091518330545 18.95226529207003 15.658780484192677 0 0 0
350 1 1 0.5897 2.5653672268091925 22.686779529024577 15.652824759624933 0 0 0
738 1 1 0.5897 3.8467418881581956 21.85817477156305 13.762129338298084 0 0 0
379 1 2 -1.1794 0.7344367137973751 21.115476674908635 13.06957520000763 0 0 0
502 1 2 -1.1794 0.7288922148764642 18.5047551695787 13.852218110521745 0 0 0
380 1 1 0.5897 0.5760093226082509 20.179850498991506 13.194844980199179 0 0 0
88 1 2 -1.1794 5.3845156969154555 21.318997886192243 12.966396050674975 0 0 0
736 1 2 -1.1794 2.9679310292078287 22.109756156877964 14.04588238350017 0 0 0
763 1 2 -1.1794 5.129491886550923 18.738976295179526 13.90664246936798 0 0 0
89 1 1 0.5897 5.393600320448477 21.336383474671152 12.009381745665376 0 0 0
787 1 2 -1.1794 7.680571171778918 22.505672229018757 13.904141632284189 0 0 0
503 1 1 0.5897 1.563578061741414 18.085480783503215 13.643335869617308 0 0 0
789 1 1 0.5897 6.881865340738447 22.11531859144155 13.54936126456432 0 0 0
90 1 1 0.5897 5.3124378097213585 20.39083605417357 13.188890725176094 0 0 0