LAMMPS data file via write_data, version 30 Jul 2021, timestep = 7000000

972 atoms
2 atom types
648 bonds
1 bond types
324 angles
1 angle types

0.1096929077072879 19.89030809229584 xlo xhi
-0.01911666154932412 20.019117661551135 ylo yhi
0.03021461771301759 20.669783382294746 zlo zhi

Masses

1 1.008
2 15.999

Pair Coeffs # lj/cut/tip4p/long/omp

1 0 0
2 0.21084 3.1668

Bond Coeffs # harmonic/omp

1 450 0.9572

Angle Coeffs # harmonic/omp

1 55 104.52

Atoms # full

4 2 2 -1.1794 4.2000862508021735 1.3716330268254386 3.339125704047251 0 0 0
17 6 1 0.5897 4.3898718767740625 4.529995678120041 2.726928604058391 0 0 0
5 2 1 0.5897 4.391630795894148 0.8032165742813453 2.5931455917870405 0 0 0
10 4 2 -1.1794 1.3794162483822865 4.144091673282533 3.8521731021041252 0 0 0
11 4 1 0.5897 1.3382674082852426 3.354023180651801 3.3133719855068655 0 0 0
12 4 1 0.5897 2.3152927888664823 4.297324810307488 3.982369225220429 0 0 0
16 6 2 -1.1794 4.130875590451945 4.1710060225755905 3.575657546686687 0 0 0
18 6 1 0.5897 4.191822248574606 3.2223802258578984 3.463614097115277 0 0 0
23 8 1 0.5897 2.617005200011419 0.9904038486423035 4.320864118155356 0 0 0
31 11 2 -1.1794 0.8907931765206806 2.0390606266209095 2.154798510353744 0 0 0
33 11 1 0.5897 1.522598397090635 2.226461530885736 1.4605266374759303 0 0 0
3 1 1 0.5897 3.5894829213905464 2.352564704849942 0.44243408256156175 0 0 0
1 1 2 -1.1794 2.6915893242971523 2.47950311740101 0.13588177486156505 0 0 0
6 2 1 0.5897 4.7966111114365955 1.0748757705247043 4.0264348557019565 0 0 0
22 8 2 -1.1794 1.9582939177680079 0.8776761381905749 5.006217548956733 0 0 0
236 79 1 0.5897 0.7577765282065053 0.20001031060197463 1.952544906922869 0 1 0
335 112 1 0.5897 1.1492427251084005 3.4764002037047823 10.247251808868251 0 0 0
27 9 1 0.5897 2.7423676233416687 4.58049491122413 6.54578593582505 0 0 0
325 109 2 -1.1794 2.7508779516265927 2.777202346067763 6.991717215746872 0 0 0
326 109 1 0.5897 2.425649302804495 2.224736001085725 6.280905414076624 0 0 0
327 109 1 0.5897 3.636092514613143 2.454534096419279 7.160696842611892 0 0 0
330 110 1 0.5897 4.194815519281985 0.6984664192283122 9.31477855305961 0 0 0
355 119 2 -1.1794 0.8876684119118572 2.0945353269082045 9.182281298855399 0 0 0
356 119 1 0.5897 1.6153452808120947 2.245788249061357 8.579025005677055 0 0 0
342 114 1 0.5897 4.342609296727878 4.775490744333898 10.044932722798547 0 0 0
328 110 2 -1.1794 3.9607396175574543 1.422548841420456 9.89541499006856 0 0 0
341 114 1 0.5897 4.171011741681677 3.2836582610270533 10.236568278364805 0 0 0
561 187 1 0.5897 1.0342506021733398 0.13384012558437006 9.08124951189813 0 1 0
24 8 1 0.5897 2.1523138716376082 0.021204367520021708 5.387018428204364 0 0 0
683 228 1 0.5897 4.4428478155335664 2.572247373060783 14.347039706467722 0 0 0
329 110 1 0.5897 4.5197676806161 1.3046837744216557 10.663475219538137 0 0 0
346 116 2 -1.1794 1.8793631789946226 0.878800124784237 11.92030449179644 0 0 0
347 116 1 0.5897 0.923070046536134 0.917313205202669 11.938143322019997 0 0 0
348 116 1 0.5897 2.113349817265954 1.1366216486114111 11.028621768162516 0 0 0
350 117 1 0.5897 2.414165709638231 4.163738282184508 13.685956741726585 0 0 0
649 217 2 -1.1794 2.781391986459628 2.4261901225670597 14.042474958477122 0 0 0
650 217 1 0.5897 2.581267334639222 1.899786180118156 13.26844351586394 0 0 0
651 217 1 0.5897 2.1191737492563307 2.170301279918934 14.684572964441864 0 0 0
336 112 1 0.5897 2.2856065348077337 4.232660450793846 10.902041380330484 0 0 0
334 112 2 -1.1794 1.3311010596767792 4.211259364828981 10.833038154795146 0 0 0
340 114 2 -1.1794 4.1937950220100495 4.110900711622083 10.717547207164605 0 0 0
884 295 1 0.5897 0.7362585371126213 0.018310834622139213 15.462984892026546 0 1 0
652 218 2 -1.1794 4.233000234590445 1.2864556870041586 17.12872716973965 0 0 0
653 218 1 0.5897 3.4100519345291045 0.9407453062819476 17.474423374680367 0 0 0
654 218 1 0.5897 4.391648420982606 0.7780338529275552 16.33336399820917 0 0 0
658 220 2 -1.1794 1.0103044839879192 4.021914809633023 17.49592329462725 0 0 0
659 220 1 0.5897 0.3947320906461138 4.186647154576932 18.21023706661247 0 0 0
664 222 2 -1.1794 3.9629824927200756 3.9736036237558805 17.4294016450748 0 0 0
665 222 1 0.5897 3.0128871174116787 4.049297268307188 17.51817959022396 0 0 0
666 222 1 0.5897 4.115670335483749 3.042258957879041 17.269851028064483 0 0 0
670 224 2 -1.1794 1.9496599994536892 0.9629622603718545 18.51076624738626 0 0 0
671 224 1 0.5897 2.0846733280762533 1.6747116740799903 19.136397642649627 0 0 0
672 224 1 0.5897 0.9984107162753627 0.8824621368757687 18.440443104354685 0 0 0
681 227 1 0.5897 0.8196234163579544 2.56465188329352 16.478868590281134 0 0 0
679 227 2 -1.1794 0.6121490628011772 1.866463923276579 15.857798681768768 0 0 0
660 220 1 0.5897 0.8098057930006642 4.695571241750305 16.846129480674364 0 0 0
2 1 1 0.5897 2.6186437565992096 3.42278928329797 20.63035917044451 0 0 -1
674 225 1 0.5897 1.7430119920284473 5.55965990155702 0.6251368648363557 0 0 1
141 47 1 0.5897 0.8743545798429783 7.8320607933107755 2.1414748348726445 0 0 0
139 47 2 -1.1794 0.9829584094232752 8.76555453218695 1.9599149746779556 0 0 0
114 38 1 0.5897 3.409085183294867 7.603227899877338 3.7344483586839106 0 0 0
126 42 1 0.5897 4.3876283321171465 9.52100561616549 3.293617593853244 0 0 0
14 5 1 0.5897 4.03252436809324 5.494056421258109 0.913849315597207 0 0 0
111 37 1 0.5897 3.6163381978821616 9.320798444003454 0.258867194858707 0 0 0
19 7 2 -1.1794 0.720536988697028 6.0710672655675975 1.9424072675339084 0 0 0
140 47 1 0.5897 1.1278481863908398 9.161850028755005 2.8191373321840345 0 0 0
112 38 2 -1.1794 4.235795232010519 7.6739984229684675 3.257112189878391 0 0 0
20 7 1 0.5897 0.8932240337624446 5.394840275052659 2.5974973794934666 0 0 0
110 37 1 0.5897 2.150703601132518 9.19346189346425 0.6162944153119574 0 0 0
15 5 1 0.5897 4.510199442204957 6.381092695414563 2.0438874468940402 0 0 0
130 44 2 -1.1794 2.0588237377353806 7.559572098966856 4.92828458711879 0 0 0
13 5 2 -1.1794 4.782422480231035 5.651200687078515 1.4876691297225992 0 0 0
132 44 1 0.5897 1.1131373593382294 7.608834703251514 5.068103729893998 0 0 0
113 38 1 0.5897 4.910193751694888 7.578065315831831 3.9296386756030346 0 0 0
673 225 2 -1.1794 2.4405866998467545 5.278463395068105 0.033005320192518894 0 0 1
339 113 1 0.5897 4.167642098567136 5.645851356518224 7.9263397967736084 0 0 0
464 155 1 0.5897 1.4069734016328728 8.945506273732517 8.445859241994047 0 0 0
25 9 2 -1.1794 2.7050413221219514 5.533579835031299 6.625767394202008 0 0 0
437 146 1 0.5897 4.350190542079576 7.217008154600775 9.807272582849972 0 0 0
468 156 1 0.5897 4.490822587571542 9.137145740398847 7.289931595282198 0 0 0
435 145 1 0.5897 2.4823868787785046 8.653650813056556 6.308344013900619 0 0 0
433 145 2 -1.1794 2.6779946110399373 9.21689555553358 7.05718731771187 0 0 0
463 155 2 -1.1794 0.7680351608903752 8.528560697114504 9.023960670175798 0 0 0
345 115 1 0.5897 0.9989658935826556 6.685036061293304 8.792121740116569 0 0 0
337 113 2 -1.1794 4.706873408304744 5.895252931287746 8.676881180944278 0 0 0
343 115 2 -1.1794 0.8130717335485612 5.779367512713227 8.54437704779709 0 0 0
26 9 1 0.5897 1.9792423089772597 5.695598890484391 7.228491246746325 0 0 0
344 115 1 0.5897 1.084937346658553 5.262515064660519 9.30281938143265 0 0 0
438 146 1 0.5897 4.187197186456353 8.633273642439933 10.316561544103283 0 0 0
131 44 1 0.5897 2.3588866516025955 6.895445736094658 5.548851543694825 0 0 0
757 253 2 -1.1794 2.7377508900697256 9.36535566993485 14.158978401538693 0 0 0
668 223 1 0.5897 1.0142994177887605 5.590746835515744 14.888197426530978 0 0 0
533 178 1 0.5897 0.3493359907117485 7.639547208396082 12.218492620977125 1 0 0
792 264 1 0.5897 4.555735996914285 9.388649123717457 14.367158265854346 0 0 0
351 117 1 0.5897 3.1168313992677685 5.374451428728223 14.262396543790517 0 0 0
454 152 2 -1.1794 2.075344139259172 7.4811062520589795 12.25145769809917 0 0 0
455 152 1 0.5897 2.8213550717171074 7.612316005771952 11.66617239222674 0 0 0
456 152 1 0.5897 2.2264105800409855 6.6211625100186735 12.643724446770626 0 0 0
759 253 1 0.5897 2.4132836995097993 8.823771046807567 13.439502406910607 0 0 0
349 117 2 -1.1794 2.393827553160286 5.120681059920516 13.688666407754011 0 0 0
789 263 1 0.5897 1.7026839980441788 8.7436790067776 15.504497732183069 0 0 0
661 221 2 -1.1794 4.377836928299665 5.751343723857264 15.38869208209231 0 0 0
436 146 2 -1.1794 4.223135513559391 7.722872882174666 10.609914013697045 0 0 0
443 148 1 0.5897 0.9787441456348749 9.800497542810508 10.39150688596923 0 0 0
858 286 1 0.5897 0.32163159458411483 7.438835997691631 18.68208868228349 1 0 0
788 263 1 0.5897 0.969373060300433 9.39698053839054 16.656658319885686 0 0 0
663 221 1 0.5897 4.205128714103971 6.550189877653597 15.886910567678186 0 0 0
779 260 1 0.5897 2.495215551711327 8.109211022136071 19.53630095658765 0 0 0
780 260 1 0.5897 2.834781645728515 7.530791636480285 18.179021745783174 0 0 0
675 225 1 0.5897 2.348401841020802 5.845286411585047 19.90674899871113 0 0 0
760 254 2 -1.1794 4.214778878468347 7.874012931485946 17.106505368598388 0 0 0
761 254 1 0.5897 4.172204471190173 8.829205799707934 17.150801998156663 0 0 0
778 260 2 -1.1794 2.239782339754326 7.421946784964812 18.920944040398798 0 0 0
787 263 2 -1.1794 0.9591358753183868 8.622003229935954 16.094948229801766 0 0 0
662 221 1 0.5897 4.2823520809933795 5.044864018456569 16.027447761246023 0 0 0
669 223 1 0.5897 0.7262243438975278 6.80420525654364 15.746342297915037 0 0 0
667 223 2 -1.1794 0.42081524128051584 5.915267490600732 15.565513477871427 0 0 0
762 254 1 0.5897 4.848670495439178 7.630505595639044 17.781185904364467 0 0 0
109 37 2 -1.1794 2.736780712983976 9.467176213156716 20.55024967921366 0 0 -1
783 261 1 0.5897 2.095529546085793 12.326283513878526 0.3842133967976028 0 0 1
118 40 2 -1.1794 1.632360628338546 10.728579672193614 3.8137758318343935 0 0 0
119 40 1 0.5897 2.576649911054503 10.623973237204291 3.696857905711869 0 0 0
120 40 1 0.5897 1.3995613702119873 11.460944705148364 3.2430979029287306 0 0 0
222 74 1 0.5897 4.361447879494091 14.104445561802647 2.531174290877135 0 0 0
123 41 1 0.5897 4.354657696017256 12.596262366433375 0.7848934413974111 0 0 0
124 42 2 -1.1794 4.3254027030156195 10.472562641961623 3.376285435931267 0 0 0
240 80 1 0.5897 2.717493749849458 14.572702567225827 4.3557356536189005 0 0 0
127 43 2 -1.1794 1.054467625419975 12.573608125938144 1.7817483364367666 0 0 0
129 43 1 0.5897 1.227304763956486 13.477347410129541 2.045499105954823 0 0 0
220 74 2 -1.1794 4.074687557528546 14.653970645796516 3.260596334084344 0 0 0
121 41 2 -1.1794 4.895472678334388 12.676585142871753 1.570629158021624 0 0 0
238 80 2 -1.1794 2.00770144437994 14.36283580810403 4.962743560186377 0 0 0
122 41 1 0.5897 4.670783196438526 11.908772521337026 2.096176325986258 0 0 0
125 42 1 0.5897 4.8432343415787775 10.680253029151878 4.154122244132998 0 0 0
128 43 1 0.5897 0.15593849452544717 12.587488300643853 1.451969692378783 0 0 0
188 63 1 0.5897 0.32234247466384036 10.996908679361434 4.967141751426605 1 0 0
133 45 2 -1.1794 2.7224239890665474 11.945403607172677 6.573358605572456 0 0 0
134 45 1 0.5897 1.9960162726308965 12.024828595474352 7.191692872608878 0 0 0
135 45 1 0.5897 3.5070217760219187 12.068109380211562 7.107811412201045 0 0 0
239 80 1 0.5897 2.2921909834322096 13.557921447153538 5.395571724176659 0 0 0
445 149 2 -1.1794 4.808835983097182 12.548964126535918 8.388935008052567 0 0 0
446 149 1 0.5897 4.577296753391442 13.26240688043271 8.983597357571002 0 0 0
450 150 1 0.5897 4.278799789160845 11.211463455253693 9.51249119406521 0 0 0
451 151 2 -1.1794 0.9278036417409208 12.269147398948672 8.73236341583669 0 0 0
453 151 1 0.5897 0.9302826330143956 11.689581760700268 9.494184197236121 0 0 0
573 191 1 0.5897 1.0320341997009073 14.46227641466271 9.402355035602554 0 0 0
434 145 1 0.5897 2.578696638771279 10.10723817657709 6.720120192941923 0 0 0
544 182 2 -1.1794 4.250794720130353 14.646086263758393 10.141010507821006 0 0 0
448 150 2 -1.1794 3.910413705951938 10.758169969297617 10.270848428712045 0 0 0
317 106 1 0.5897 0.250120124030577 14.078681615231796 5.216596004604651 1 0 0
442 148 2 -1.1794 1.1905002339508663 10.588915048053556 10.89127469881812 0 0 0
545 182 1 0.5897 3.498059109301637 14.444826651271594 10.697054591549719 0 0 0
457 153 2 -1.1794 2.497241088172885 12.065591523396826 13.428315610368433 0 0 0
458 153 1 0.5897 1.7989035525044779 12.202987657236996 14.06843204179434 0 0 0
459 153 1 0.5897 3.299412335284644 12.302807927075301 13.893652221102903 0 0 0
642 214 1 0.5897 0.2407899626973341 14.209624977425195 12.002550184188763 1 0 0
449 150 1 0.5897 4.4118796826789435 11.08986828752823 11.015696021388736 0 0 0
562 188 2 -1.1794 1.990469830759557 14.11744190906995 11.761368190280745 0 0 0
563 188 1 0.5897 2.1727631646392873 13.276693619641836 12.181027687214533 0 0 0
444 148 1 0.5897 2.1360574458147736 10.693594121297794 10.78514184771362 0 0 0
758 253 1 0.5897 2.4848132332602817 10.257270235006695 13.920864057355413 0 0 0
769 257 2 -1.1794 4.5350527194717545 12.566349686182834 15.304463903754796 0 0 0
564 188 1 0.5897 2.2827707439577662 14.77106611130791 12.396653668842108 0 0 0
546 182 1 0.5897 5.0109801407904415 14.50028706112193 10.704183580019242 0 0 0
766 256 2 -1.1794 1.5557786325485286 10.850462423332537 17.564898591676787 0 0 0
767 256 1 0.5897 1.062250345478021 11.101545562420824 18.345727038200565 0 0 0
768 256 1 0.5897 1.312913248285278 11.502436018559884 16.90747972880811 0 0 0
772 258 2 -1.1794 4.229184391009892 10.622758657854877 17.283792162044477 0 0 0
773 258 1 0.5897 3.293077728477534 10.711374833920212 17.463105491944415 0 0 0
774 258 1 0.5897 4.412794935531717 11.29584389850803 16.628434232015454 0 0 0
868 290 2 -1.1794 4.333085318916901 14.767703446690424 17.10043177209477 0 0 0
965 322 1 0.5897 0.3215341635459762 14.37248164258793 18.73788715109479 1 0 0
869 290 1 0.5897 3.545294047016053 14.656515543477006 17.632721693334613 0 0 0
886 296 2 -1.1794 2.1254814370789994 14.371381938440074 18.676543898728166 0 0 0
888 296 1 0.5897 2.34746898021097 13.543418721254655 19.102457449399612 0 0 0
781 261 2 -1.1794 2.7831648213482674 12.157027583155612 20.379716143228485 0 0 0
771 257 1 0.5897 4.37543646131267 13.441650653311319 15.657379652369407 0 0 0
782 261 1 0.5897 2.776208689536045 11.206742966060684 20.265357048544843 0 0 0
777 259 1 0.5897 1.2186465531380384 13.647899226891342 15.79406556837347 0 0 0
870 290 1 0.5897 5.053651799960928 14.538478289812236 17.68741214692667 0 0 0
764 255 1 0.5897 5.046157248397451 11.093212406689126 18.85695201561937 0 0 0
775 259 2 -1.1794 0.9312560523141107 12.747447493655674 15.643198699983577 0 0 0
249 83 1 0.5897 1.6769035343675693 15.79534420826373 1.403091484835231 0 0 0
248 83 1 0.5897 1.209645901540756 15.978764406494832 2.8314349657108546 0 0 0
247 83 2 -1.1794 1.1235472132530475 15.39789721385432 2.075490762136803 0 0 0
890 297 1 0.5897 1.7695635600241904 19.28416193560797 0.34889554899935854 0 0 1
226 76 2 -1.1794 1.4141092552882806 17.675414506935716 3.7413136201905655 0 0 0
227 76 1 0.5897 1.166478505304082 18.28559094108936 3.0466069506400624 0 0 0
228 76 1 0.5897 0.821844440995329 17.8818070646091 4.464446994389411 0 0 0
229 77 2 -1.1794 4.424715943541503 19.445246960855364 1.492735328220736 0 0 0
230 77 1 0.5897 3.982878560038085 19.386274420516656 0.645605348374154 0 0 0
232 78 2 -1.1794 4.174217673039729 17.450438996001786 3.408228746726969 0 0 0
233 78 1 0.5897 4.2763075268839845 18.204390741088005 2.827405497271402 0 0 0
234 78 1 0.5897 3.2457954364662713 17.451007040134492 3.6413130799911806 0 0 0
235 79 2 -1.1794 0.6484628236013101 19.314221038442497 1.728028257109498 0 0 0
221 74 1 0.5897 4.288283942740936 15.546079347442944 2.9873148411483426 0 0 0
219 73 1 0.5897 3.4198478352651924 16.04785609827465 0.20528125117816803 0 0 0
571 191 2 -1.1794 0.9838691842017439 15.385035778108445 9.152627762559414 0 0 0
576 192 1 0.5897 4.553708715991258 15.869112843432685 7.392427977245854 0 0 0
559 187 2 -1.1794 1.0054191559202685 19.27291638625421 8.754388601930563 0 0 0
241 81 2 -1.1794 2.703839006544882 18.754228069709768 6.644332864241862 0 0 0
242 81 1 0.5897 2.6606617820665206 17.799476147443166 6.591928207425515 0 0 0
243 81 1 0.5897 2.0506997012310233 18.988150601236583 7.303876456898142 0 0 0
541 181 2 -1.1794 2.733367732025435 16.058316317552816 7.1923909387598215 0 0 0
542 181 1 0.5897 2.1148359888811896 15.813084422424168 7.88056481513751 0 0 0
553 185 2 -1.1794 4.574717054330106 19.10885516583061 8.628793008225344 0 0 0
558 186 1 0.5897 4.669975159797682 17.848836763297427 9.84392995130422 0 0 0
555 185 1 0.5897 4.049113845542058 18.977257530180104 7.839663910424471 0 0 0
572 191 1 0.5897 1.4257874831911046 15.8493915081156 9.863501885434188 0 0 0
551 184 1 0.5897 1.7857055971485443 18.243753141079637 10.044365807834248 0 0 0
557 186 1 0.5897 4.55012147956869 16.376801848034447 10.176330521443282 0 0 0
543 181 1 0.5897 2.4796919735490928 15.52369154984259 6.4399978142100105 0 0 0
885 295 1 0.5897 1.4715313183358287 19.003105974851273 14.662014761628377 0 0 0
866 289 1 0.5897 3.834045268409813 16.08006603853508 13.778018940536505 0 0 0
879 293 1 0.5897 4.382324248030373 19.29789261115662 14.64196875011436 0 0 0
867 289 1 0.5897 2.4409040844873657 15.992780706145764 14.36419967466166 0 0 0
550 184 2 -1.1794 1.9152109591224096 17.581496437222725 10.723261004849073 0 0 0
552 184 1 0.5897 2.8637820273928702 17.45870892492016 10.760909114398888 0 0 0
565 189 2 -1.1794 2.9147170449308075 18.945154922489834 13.586736515740329 0 0 0
566 189 1 0.5897 3.0066069856654507 18.054317583174978 13.248933913921997 0 0 0
567 189 1 0.5897 2.691535802197211 19.471148478688576 12.818764465475937 0 0 0
865 289 2 -1.1794 2.9081523397998184 16.106873147897183 13.536571779183673 0 0 0
556 186 2 -1.1794 4.619687200392804 17.241092189194305 10.581744392815237 0 0 0
896 299 1 0.5897 0.3383308761165146 15.618739941993002 15.216225730072516 0 0 0
621 207 1 0.5897 0.41058072976038035 17.84884592442161 12.109296421684407 1 0 0
883 295 2 -1.1794 0.7348774349817195 19.120747750510006 15.261850638632565 0 0 0
877 293 2 -1.1794 4.977033212559225 19.4094802802012 15.383711439324372 0 0 0
881 294 1 0.5897 3.2027390248465357 17.590947891442987 17.301658769928366 0 0 0
897 299 1 0.5897 1.2178462189638088 16.048602513597757 16.371106213443017 0 0 0
891 297 1 0.5897 2.3328987373140975 19.668718348988918 19.636845893803542 0 0 0
882 294 1 0.5897 4.355688262305181 16.639232439847305 17.06315227619371 0 0 0
880 294 2 -1.1794 4.150843980560754 17.567888208147515 17.17182293719256 0 0 0
874 292 2 -1.1794 1.3078192238664677 17.439064727987677 17.409995091834944 0 0 0
875 292 1 0.5897 0.8395633412699205 17.664356961972523 18.213915778188703 0 0 0
876 292 1 0.5897 0.9834136912082312 18.06280945220609 16.760417925429923 0 0 0
895 299 2 -1.1794 1.1703122289676389 15.423699767672579 15.647572637199525 0 0 0
878 293 1 0.5897 4.731766925045123 18.714614742438414 15.994638055857147 0 0 0
889 297 2 -1.1794 2.376425299089336 18.989141057872438 20.30953976026188 0 0 0
218 73 1 0.5897 2.4881315886044315 17.19219008494678 20.506790046022235 0 0 -1
217 73 2 -1.1794 2.501013800316928 16.248553842292374 20.666633286305323 0 0 -1
887 296 1 0.5897 2.3246584612862464 15.039526611284487 19.332409240807838 0 0 0
69 23 1 0.5897 6.786282354617828 2.4830321244458338 1.7527304147422476 0 0 0
53 18 1 0.5897 9.86582022927658 4.299016905190167 4.1826469357112765 0 0 0
68 23 1 0.5897 8.274416756681875 2.2886060912628516 1.5534345310645166 0 0 0
67 23 2 -1.1794 7.571040379533179 2.1493924133925084 2.18762203698002 0 0 0
46 16 2 -1.1794 7.928834255566435 4.23741000686456 3.9228126691399483 0 0 0
47 16 1 0.5897 7.783345207760983 3.41685129110362 3.4519324245149368 0 0 0
48 16 1 0.5897 7.221688059105153 4.273097158793678 4.567007906492021 0 0 0
58 20 2 -1.1794 8.746491140500238 0.6926767291173359 4.989373779957737 0 0 0
34 12 2 -1.1794 5.382444999911554 2.4569695700062044 0.5583283162759168 0 0 0
29 10 1 0.5897 7.000375698786524 0.5649586369492997 5.096885818536103 0 0 0
273 91 1 0.5897 7.481952678421366 0.23452498484565398 2.133819435097935 0 1 0
41 14 1 0.5897 9.84127395126112 1.2274647147721336 3.716956139114558 0 0 0
9 3 1 0.5897 5.146279989942512 4.471504280075437 5.112181862998172 0 0 0
36 12 1 0.5897 5.491502015573394 3.279151165398648 0.0804899335340572 0 0 0
8 3 1 0.5897 5.739850997185339 3.966182641151396 6.410029721103603 0 0 0
391 131 2 -1.1794 7.449464114473286 1.840284610737834 9.212038208591053 0 0 0
393 131 1 0.5897 7.395227467794312 0.8849588855270508 9.236091782807879 0 0 0
59 20 1 0.5897 8.981541110580102 1.4147813611651037 5.572083691239034 0 0 0
361 121 2 -1.1794 9.248816288312154 2.6007615637868713 7.071890992897378 0 0 0
392 131 1 0.5897 8.191017848551438 2.0241116963849546 8.635312197981472 0 0 0
362 121 1 0.5897 9.203777895611585 3.511091081943817 6.779589707615146 0 0 0
358 120 2 -1.1794 5.5422411701377055 2.4003874712993722 7.361248408641857 0 0 0
359 120 1 0.5897 6.084840301333345 2.1361050793037517 8.10424363893627 0 0 0
360 120 1 0.5897 5.662224511798597 1.7032414382965733 6.716394051252351 0 0 0
7 3 2 -1.1794 5.821010552197575 4.6665140808272865 5.762581047665555 0 0 0
28 10 2 -1.1794 6.056362417661544 0.4872314527056132 5.235075513284511 0 0 0
371 124 1 0.5897 7.735461726111942 3.206647526759649 10.341010049603968 0 0 0
352 118 2 -1.1794 5.57520928970624 0.8651325552811854 12.23653887521223 0 0 0
353 118 1 0.5897 6.504480825169613 1.0369836927402911 12.084156832330187 0 0 0
354 118 1 0.5897 5.385026431310633 1.2957059268420064 13.070047897457517 0 0 0
684 228 1 0.5897 5.613841039289468 3.283461735768777 13.702870954258637 0 0 0
372 124 1 0.5897 7.456810598281967 4.124630792162337 11.512185785139454 0 0 0
685 229 2 -1.1794 9.090978141377397 2.753795279422331 13.654242280971843 0 0 0
382 128 2 -1.1794 8.466484136336755 0.7455530634446437 11.954118309166704 0 0 0
383 128 1 0.5897 8.763397374724294 1.488065607156566 12.480183385310744 0 0 0
384 128 1 0.5897 9.024701455331043 0.7637127676427062 11.176695470366077 0 0 0
331 111 2 -1.1794 6.1306781821071175 4.61850549994185 12.58163529104671 0 0 0
686 229 1 0.5897 8.651353874385368 2.6309340827194028 14.495638610034678 0 0 0
682 228 2 -1.1794 5.399047412417864 2.6161080206987277 14.354600094625722 0 0 0
386 129 1 0.5897 8.82372550016229 4.645329073715354 13.754670925767421 0 0 0
370 124 2 -1.1794 7.998389671041795 4.042063509173735 10.727206207114316 0 0 0
377 126 1 0.5897 9.824361139061203 3.899960022988681 10.56641738475104 0 0 0
332 111 1 0.5897 5.420716770763585 4.509897518517 11.94881487294946 0 0 0
717 239 1 0.5897 6.750652574073353 2.217744004312149 15.446730016541814 0 0 0
710 237 1 0.5897 9.23366031675383 4.5751412398427425 20.40652757434183 0 0 0
38 13 1 0.5897 8.977924979136645 2.188945133792841 19.732272802585175 0 0 -1
655 219 2 -1.1794 5.904661480893181 4.559440209934033 19.409513064247818 0 0 0
657 219 1 0.5897 6.727093896667755 4.38458343731687 18.95198213236562 0 0 0
676 226 2 -1.1794 6.019455772780971 0.6813084963546772 19.235841405170465 0 0 0
35 12 1 0.5897 5.7122271209083895 1.7863180534185452 20.599808363150874 0 0 -1
694 232 2 -1.1794 8.047582342374962 4.105701055281753 17.80765942091626 0 0 0
695 232 1 0.5897 7.810085318314163 3.3743388579258133 17.23762388792965 0 0 0
716 239 1 0.5897 7.729257051365922 1.1762310871889385 15.946217854984459 0 0 0
706 236 2 -1.1794 8.660966458855215 0.8300934577523086 18.600455738564023 0 0 0
708 236 1 0.5897 7.7135301718457 0.9060121369111482 18.714009652677714 0 0 0
715 239 2 -1.1794 7.54675767433186 2.1155800995749034 15.968340388860334 0 0 0
702 234 1 0.5897 9.720755871412482 3.955584612007541 17.55508302597166 0 0 0
677 226 1 0.5897 5.458163169969434 0.88870695999284 18.48868105443114 0 0 0
696 232 1 0.5897 7.857941753785142 4.886603851971454 17.287613850193328 0 0 0
656 219 1 0.5897 5.226219337873299 4.397918536199524 18.75381531112915 0 0 0
707 236 1 0.5897 8.928855882977842 0.1782904609325553 19.24824354556163 0 0 0
689 230 1 0.5897 9.995553617492307 1.0192433892462416 17.402480985558334 0 0 0
37 13 2 -1.1794 9.218718240716507 2.73949477368482 20.47738007199634 0 0 -1
143 48 1 0.5897 6.182174371155323 8.921165001869008 1.1216101485883372 0 0 0
176 59 1 0.5897 7.591377257067575 7.74146498881384 2.223183306942337 0 0 0
57 19 1 0.5897 7.733458143287133 5.397399683404701 2.595228596212838 0 0 0
711 237 1 0.5897 8.770864158540004 5.751963257745588 0.5992373209589265 0 0 1
175 59 2 -1.1794 7.586033914999228 8.695737185707323 2.2973727386661738 0 0 0
55 19 2 -1.1794 7.510655291189457 5.970563025221449 1.8616790906339222 0 0 0
56 19 1 0.5897 6.599077518531864 5.759147481900469 1.6601411033258515 0 0 0
177 59 1 0.5897 8.118185466090376 8.9966764697077 1.560788434144689 0 0 0
166 56 2 -1.1794 8.908533413923067 7.486746808074202 5.1536611073061405 0 0 0
142 48 2 -1.1794 5.508097867955277 9.095124402690335 0.46460239912672596 0 0 0
138 46 1 0.5897 7.0164899396196985 7.394080533874523 5.058500624037832 0 0 0
145 49 2 -1.1794 9.203202585595857 9.36303234380072 0.08906292384664896 0 0 0
466 156 2 -1.1794 5.434395913690164 9.184982103757847 7.13605169069483 0 0 0
501 167 1 0.5897 6.605965337790133 8.79351231032102 8.576382670047451 0 0 0
380 127 1 0.5897 7.529614056889382 6.733091327391224 8.937950542841666 0 0 0
467 156 1 0.5897 5.607992526784253 8.496916762642519 6.493652497085321 0 0 0
499 167 2 -1.1794 7.246615491482109 8.527022406916265 9.235819365101692 0 0 0
137 46 1 0.5897 6.023517528907072 6.353599360229082 5.5310565521711315 0 0 0
338 113 1 0.5897 5.607685728642835 5.786876845613462 8.371772483717747 0 0 0
469 157 2 -1.1794 9.301110832678324 9.293622595353918 7.131886638116593 0 0 0
500 167 1 0.5897 7.377303884870184 9.30837722843028 9.773056677521167 0 0 0
470 157 1 0.5897 8.81995079148619 9.048594224828626 7.922294057163725 0 0 0
61 21 2 -1.1794 9.287006625859803 5.220824303553522 6.549770442390521 0 0 0
62 21 1 0.5897 8.532064138568066 5.3439932758702975 7.125272485620169 0 0 0
379 127 2 -1.1794 7.552535045410785 5.8455152563872605 8.580377329179612 0 0 0
168 56 1 0.5897 8.9906220240712 8.169216937079844 5.819775613897485 0 0 0
381 127 1 0.5897 7.729244245007787 5.286506578936147 9.33705012945456 0 0 0
136 46 2 -1.1794 6.092979202197069 7.274712010037352 5.280267432110293 0 0 0
167 56 1 0.5897 9.03817372278935 6.667845229950519 5.631962666614534 0 0 0
791 264 1 0.5897 5.933579145644121 9.319620277977544 14.9907423379289 0 0 0
794 265 1 0.5897 9.18579013250606 8.376512526622049 13.44417110451035 0 0 0
491 164 1 0.5897 9.484000958652143 7.540225775242754 11.211750100821572 0 0 0
462 154 1 0.5897 5.664139944097691 7.547101323989565 11.699722436468448 0 0 0
333 111 1 0.5897 6.188195441052816 5.564171534592993 12.717847552623997 0 0 0
793 265 2 -1.1794 9.366282403395116 8.939537018716697 14.196967134911368 0 0 0
790 264 2 -1.1794 5.487363393375283 9.42884073279325 14.150930652176294 0 0 0
387 129 1 0.5897 9.061334053581081 6.055520105570864 13.258032854456935 0 0 0
460 154 2 -1.1794 6.224527717700433 7.477602977700486 12.472668598878219 0 0 0
461 154 1 0.5897 5.921041575465847 8.175931152566529 13.052725692669155 0 0 0
492 164 1 0.5897 8.077525090189944 7.327619453396149 11.730097037466214 0 0 0
490 164 2 -1.1794 8.997300970472672 7.254847696699871 11.985050772760966 0 0 0
385 129 2 -1.1794 8.940922290236816 5.545262848147123 14.058913635092546 0 0 0
705 235 1 0.5897 7.652639140354536 5.816417979244153 15.229622837485785 0 0 0
824 275 1 0.5897 8.117601418593004 8.811166061728029 15.421722228739474 0 0 0
795 265 1 0.5897 9.139042136780493 9.819981953182928 13.898022864256097 0 0 0
814 272 2 -1.1794 8.744690898092198 7.534682970084295 18.802546502278467 0 0 0
786 262 1 0.5897 6.9449749410356425 7.35647589155306 19.011227350834524 0 0 0
815 272 1 0.5897 8.945750530218945 6.670033910400887 19.160510562595796 0 0 0
825 275 1 0.5897 7.307829197920901 7.839625808529065 16.25375369075094 0 0 0
785 262 1 0.5897 5.87161242247414 6.388139911856016 19.46082677884803 0 0 0
703 235 2 -1.1794 7.101627954756291 6.0828135226946385 15.965642154294127 0 0 0
816 272 1 0.5897 8.931520917002944 8.140597388100568 19.519638232957654 0 0 0
823 275 2 -1.1794 7.484885636647271 8.773243835741297 16.139039321824022 0 0 0
784 262 2 -1.1794 6.004345000770813 7.292518814023788 19.17682153575089 0 0 0
144 48 1 0.5897 5.643443839364041 8.421882730358089 20.43733397833586 0 0 -1
709 237 2 -1.1794 9.351946066783235 5.5187716442704176 20.514754579843558 0 0 0
704 235 1 0.5897 6.206022911695402 5.944266322500368 15.657426836829531 0 0 0
154 52 2 -1.1794 8.300293620856769 10.781810153560182 4.0585840557237844 0 0 0
819 273 1 0.5897 8.674664830222962 12.549296738546804 0.8858092619270747 0 0 1
156 52 1 0.5897 9.255090760893331 10.732721505225538 4.011175683596762 0 0 0
163 55 2 -1.1794 7.668588725635429 12.966387280155956 2.2791158087750096 0 0 0
164 55 1 0.5897 6.78396194984026 12.798203843858769 1.9544071574732134 0 0 0
165 55 1 0.5897 7.839695776482498 12.250659204763567 2.8912382314120735 0 0 0
276 92 1 0.5897 9.169279411644295 14.32031495836376 4.384998157551132 0 0 0
275 92 1 0.5897 7.755703953056811 14.167494236301385 4.9051150661263065 0 0 0
285 95 1 0.5897 7.68706043169635 14.78222218472021 2.107517930995526 0 0 0
155 52 1 0.5897 7.995958888474645 10.0226749593626 3.5612783296806123 0 0 0
246 82 1 0.5897 5.357265743590612 14.407566893399546 4.484657908620384 0 0 0
274 92 2 -1.1794 8.67118053209357 14.148056842774402 5.184085642550408 0 0 0
116 39 1 0.5897 6.784801756410647 11.242324223320653 4.880049938799894 0 0 0
817 273 2 -1.1794 9.196934891074804 12.210940504788422 0.15845186154389937 0 0 1
244 82 2 -1.1794 5.996104005161515 14.160295781194105 5.153275673210103 0 0 0
169 57 2 -1.1794 9.594831927475711 12.085444769384756 6.865000000044372 0 0 0
170 57 1 0.5897 9.393593811812348 12.525915316939646 6.039309169697099 0 0 0