LAMMPS data file via write_data, version 30 Jul 2021, timestep = 24750000

1296 atoms
2 atom types
864 bonds
1 bond types
432 angles
1 angle types

-10.649724521804439 12.62972452180444 xlo xhi
-9.240444153870207 12.230442153870207 ylo yhi
0.09145711076080154 21.768541889240275 zlo zhi
-9.014181568568674 1.8774914181278919 2.9514553961700396 xy xz yz

Masses

1 1.008
2 15.999

Pair Coeffs # lj/cut/tip4p/long/omp

1 0 0
2 0.21084 3.1668

Bond Coeffs # harmonic/omp

1 450 0.9572

Angle Coeffs # harmonic/omp

1 55 104.52

Atoms # full

280 94 2 -1.1794 -9.3574796682961 -4.640123023123044 1.319041354015402 1 1 0
270 90 1 0.5897 -8.494523225787361 -7.526512747671838 2.0171397529469584 1 1 0
269 90 1 0.5897 -9.300048565804191 -6.266874478846843 2.25477216559718 1 1 0
268 90 2 -1.1794 -9.156727378974818 -7.149502338994102 2.5963733569950587 1 1 0
314 105 1 0.5897 -8.765073124902347 -6.947305320658684 4.383482753728089 1 1 0
299 100 1 0.5897 -6.306615433784106 -8.107852210376663 4.15903069623401 1 1 0
163 55 2 -1.1794 -7.007072993811802 -8.094165416610105 0.9633304018774554 1 1 0
164 55 1 0.5897 -6.167383387596317 -8.458745957873711 1.2429211139123029 1 1 0
298 100 2 -1.1794 -5.701459895190779 -7.368320879746782 4.103088774302127 1 1 0
73 25 2 -1.1794 -8.252912018260231 -4.0245535853164345 4.679233080945018 1 0 0
324 108 1 0.5897 -7.135490028376695 -4.7638509271765 3.4912590786130857 1 1 0
107 36 1 0.5897 -9.34462734517604 1.4478463456193609 3.2697802377801994 1 0 0
282 94 1 0.5897 -10.199261145739223 -4.250482102046798 1.5551280362831528 1 1 0
84 28 1 0.5897 -7.889725255424926 -0.5249615747642942 4.0802212175521 1 0 0
75 25 1 0.5897 -9.04469915910378 -3.6769772581454605 4.2688278038811776 1 0 0
281 94 1 0.5897 -8.735911224629133 -3.913530695343984 1.3635526352442915 1 1 0
301 101 2 -1.1794 -7.7816449703112465 -2.2708677367292465 1.5573342863978072 1 1 0
53 18 1 0.5897 -12.216383018779009 0.9851141426862338 2.476933162928618 1 0 0
241 81 2 -1.1794 -0.9318749370236183 -6.507515391563266 5.258787201055426 0 1 0
310 104 2 -1.1794 -3.346889403123537 -8.694092135518133 3.696664116325504 1 1 0
322 108 2 -1.1794 -6.357722471996357 -4.96136620145664 2.969550209843489 1 1 0
300 100 1 0.5897 -4.836428997090412 -7.77129549216467 4.02897883604167 1 1 0
309 103 1 0.5897 -2.7704073174177895 -1.404570423797451 0.21717945167317193 1 1 0
256 86 2 -1.1794 -11.89843455945022 -3.5964732805261246 1.6989570256302202 1 1 0
258 86 1 0.5897 -12.309446496298143 -2.9804916982821883 1.0924752632518693 1 1 0
165 55 1 0.5897 -7.242196555699682 -8.601516862798752 0.18641378785093943 1 1 0
90 30 1 0.5897 -3.6842222574610686 0.03938239023228007 2.1618928157251767 1 0 0
69 23 1 0.5897 -10.97160669803296 -2.7234221010964976 3.136088785772592 1 0 0
272 91 1 0.5897 -9.412791719019713 -1.4888564871844734 1.4066084974272886 1 1 0
83 28 1 0.5897 -9.373908175377386 -0.8222578383720442 4.101731248653217 1 0 0
82 28 2 -1.1794 -8.74463157364707 -0.1043687186849791 4.171818268520523 1 0 0
271 91 2 -1.1794 -10.20782934371072 -1.0453315340048963 1.1110111010648136 1 1 0
98 33 1 0.5897 -11.719280802246349 0.2185592707147137 4.542831860240019 1 0 0
54 18 1 0.5897 -11.38102309979513 -0.2565003900980365 2.2476292910944005 1 0 0
67 23 2 -1.1794 -10.454127663306593 -2.3864500632749435 3.867441867030924 1 0 0
68 23 1 0.5897 -10.99067640855146 -2.55953363430561 4.64089724791124 1 0 0
52 18 2 -1.1794 -12.07970335807819 0.09440164421540587 2.7997725489351284 1 0 0
261 87 1 0.5897 -6.569408082212058 -5.188367361794788 1.1827321190902362 1 1 0
323 108 1 0.5897 -6.079897060004781 -5.826406120208755 3.270820899880149 1 1 0
275 92 1 0.5897 -10.43367177776692 -8.202383150679342 3.2719365874247313 1 1 0
59 20 1 0.5897 -13.526010567371625 -0.8612272990066696 3.391424571633209 1 0 0
103 35 2 -1.1794 -2.8442010245188127 -2.461516144401812 3.7342768070121255 1 0 0
27 9 1 0.5897 -3.824141651506844 1.799528191707033 5.406797262005938 0 0 0
44 15 1 0.5897 -9.745161217569414 0.6737066466752673 0.4589230032042298 1 0 0
3 1 1 0.5897 -1.3179970768507214 -3.508885856539105 4.269367191864646 0 0 0
88 30 2 -1.1794 -4.41215589514789 0.3161569043378769 2.718348571386287 1 0 0
302 101 1 0.5897 -7.289270851848853 -2.0661799641352667 2.3522483842947772 1 1 0
273 91 1 0.5897 -10.411788515551452 -1.4538133181475486 0.26970113495659065 1 1 0
306 102 1 0.5897 -0.7296347560943719 -7.348598363070361 1.9416139749618064 1 1 0
304 102 2 -1.1794 -1.380980901947673 -7.024871436473559 2.563786325009938 1 1 0
318 106 1 0.5897 -2.6259378005568603 -4.064409851600618 1.3599474723014249 1 1 0
242 81 1 0.5897 -0.8643858494750081 -6.758556060858025 4.337584426976537 0 1 0
305 102 1 0.5897 -1.5618581658857238 -6.12943252725733 2.2778572908107186 1 1 0
316 106 2 -1.1794 -1.7762709280297564 -4.499916231538315 1.2923912708926644 1 1 0
311 104 1 0.5897 -2.6048855380059024 -8.203811372581729 3.342885410718904 1 1 0
293 98 1 0.5897 -4.9132144349204765 -3.808079656697374 2.1788782262317494 1 1 0
303 101 1 0.5897 -7.12898045945802 -2.2459560671180245 0.8576980432800776 1 1 0
294 98 1 0.5897 -4.720083924255833 -2.8973662728097684 0.9851648498768399 1 1 0
99 33 1 0.5897 -11.636655050326997 1.4781166784849447 5.3788242801013055 1 0 0
96 32 1 0.5897 -5.91679297206534 -1.9916270933365734 4.405940081886776 1 0 0
95 32 1 0.5897 -5.569105997545526 -0.9070174681093341 3.4087249828635215 1 0 0
105 35 1 0.5897 -3.2936773597358995 -2.579460479846311 2.8974606413878727 1 0 0
94 32 2 -1.1794 -6.312838969409027 -1.3374928517607634 3.830225904614639 1 0 0
104 35 1 0.5897 -3.474198538429059 -2.7615167767133526 4.389396169701218 1 0 0
26 9 1 0.5897 -4.061441086233624 0.6928240884229506 4.4012858556207135 0 0 0
292 98 2 -1.1794 -4.235656546234293 -3.4052050118633437 1.6360112606683141 1 1 0
89 30 1 0.5897 -4.75607634725724 1.100662813358019 2.291152458583335 1 0 0
243 81 1 0.5897 -0.815599737824277 -5.557352664923773 5.257861971022513 0 1 0
25 9 2 -1.1794 -3.9767797427616314 0.8568434752146885 5.3404976136709355 0 0 0
317 106 1 0.5897 -1.1379878860691353 -3.810025360706099 1.4738458183064596 1 1 0
260 87 1 0.5897 -7.006275572638174 -6.280080554863423 0.2290746501369119 1 1 0
313 105 2 -1.1794 -8.684212540941381 -6.675037921956745 5.2975643283671685 1 1 0
74 25 1 0.5897 -8.02170130649352 -3.3748084729464365 5.343084761831354 1 0 0
97 33 2 -1.1794 -11.81205812774168 0.5390669857058654 5.439973523650827 1 0 0
315 105 1 0.5897 -8.536257785345086 -5.730271457167467 5.254497542597492 1 1 0
403 135 2 -1.1794 -4.930396790763627 -3.04504648230294 5.502463494319384 1 0 0
199 67 2 -1.1794 0.6330207897315763 -8.191621170539722 0.7410240210740409 1 1 0
259 87 2 -1.1794 -6.687180646592321 -5.377873237028355 0.25191835931660767 1 1 0
420 140 1 0.5897 -9.00501792743304 -6.450686668652492 9.730341513405575 1 0 0
618 206 1 0.5897 -7.679480711824596 -7.598409998281767 6.557753233201421 1 1 0
413 138 1 0.5897 -7.461352360388962 -3.8613373285864547 7.664721453746652 1 0 0
419 140 1 0.5897 -8.988899830720372 -5.421160360748976 8.620605419170296 1 0 0
418 140 2 -1.1794 -9.575084286142985 -6.001118380835275 9.10658313576092 1 0 0
414 138 1 0.5897 -6.722769936894604 -5.1725441394692515 7.4995563173817485 1 0 0
350 117 1 0.5897 -6.8953744697757955 -4.2342638238393455 9.871238427086821 0 0 0
412 138 2 -1.1794 -7.361424036381878 -4.728565432916904 8.057389087306893 1 0 0
429 143 1 0.5897 -6.5020559968072735 -7.397231365907261 8.661189881574073 1 0 0
427 143 2 -1.1794 -5.970359079895614 -7.108197508820912 9.402807336554282 1 0 0
428 143 1 0.5897 -6.523933732917907 -7.260201066181299 10.168659651376688 1 0 0
442 148 2 -1.1794 -7.366614986096849 2.5316959731536706 9.676274091189754 0 0 0
616 206 2 -1.1794 -7.207828055343478 -8.107721078437631 7.216781169891373 1 1 0
330 110 1 0.5897 -3.0328736013121826 -0.1530800084642152 6.6340818662117895 0 0 0
435 145 1 0.5897 -7.471919689868011 -0.8503646988455724 9.942310124286283 0 0 0
425 142 1 0.5897 -7.19765986140184 -1.5017514223614175 6.825335218571194 1 0 0
400 134 2 -1.1794 -10.296151861285693 -0.8429038122309755 7.286687360133835 1 0 0
536 179 1 0.5897 -9.585891212272067 0.11533839592267547 10.149018726745263 1 0 0
402 134 1 0.5897 -10.705342344424936 -0.33822315949794834 6.583814508357258 1 0 0
526 176 2 -1.1794 -12.617239672091634 1.2075979762674365 9.400667946355647 1 0 0
405 135 1 0.5897 -4.816479840526311 -2.623203383570382 6.354124841850255 1 0 0
537 179 1 0.5897 -9.32775233657308 -0.3470288139850517 8.730794576551252 1 0 0
426 142 1 0.5897 -8.694988431502335 -1.7101643270889895 6.904044039588091 1 0 0
401 134 1 0.5897 -11.02010361465351 -1.3194928604062337 7.6927379973492656 1 0 0
527 176 1 0.5897 -11.85349478588856 1.5132312872867164 8.911408868235055 1 0 0
535 179 2 -1.1794 -8.91149646367834 0.09614193668533844 9.47011899388878 1 0 0
424 142 2 -1.1794 -7.866819857822422 -2.185999829883265 6.841703060636105 1 0 0
528 176 1 0.5897 -12.272431409379902 0.5355196336200478 9.98855392184764 1 0 0
626 209 1 0.5897 -10.56598776940115 -6.818216189363422 7.7069121756963925 1 1 0
337 113 2 -1.1794 -6.203259355378808 0.2397034803837208 7.035077768283079 0 0 0
544 182 2 -1.1794 0.4677781336932192 -8.092697760267935 7.236172541459098 0 1 0
631 211 2 -1.1794 -5.491252236943785 -5.63694349222286 6.226627802706715 1 1 0
415 139 2 -1.1794 -8.447124214338137 1.7085480070558248 6.456069231171637 1 0 0
329 110 1 0.5897 -3.42426867152908 -1.062345770109026 7.77936994386906 0 0 0
454 152 2 -1.1794 -4.890555816692159 1.5641028613712713 9.24080971201714 0 0 0
335 112 1 0.5897 -4.873047833243832 -5.525993522729168 9.389212393639463 0 0 0
433 145 2 -1.1794 -6.612477739734454 -1.2291682013862655 10.126790756094154 0 0 0
356 119 1 0.5897 1.005936653620548 -7.046666904288828 10.097719824678085 0 0 0
417 139 1 0.5897 -8.846222182978076 1.0862515462780262 5.8479708175628575 1 0 0
555 185 1 0.5897 -2.4558752076406254 -6.672601847571205 6.332052651135388 0 1 0
416 139 1 0.5897 -7.578292047620943 1.3478389308112142 6.632657509849013 1 0 0
347 116 1 0.5897 -1.1262879706419398 -5.367699272600339 8.751966715478611 0 0 0
348 116 1 0.5897 -1.3961393972384553 -6.288259705054885 9.923029057230933 0 0 0
336 112 1 0.5897 -3.459873303053784 -4.992018295379109 9.291747707494656 0 0 0
359 120 1 0.5897 -4.808870064416026 -3.089489367287409 8.50998523132847 0 0 0
346 116 2 -1.1794 -1.8346629272084645 -5.810840995786801 9.218805604106185 0 0 0
632 211 1 0.5897 -4.701398596539452 -5.913473681813519 6.691203621896774 1 1 0
546 182 1 0.5897 0.09275621002161927 -7.571616009689456 6.526243832911476 0 1 0
553 185 2 -1.1794 -3.138386831857371 -6.902775741832634 6.96234375911132 0 1 0
554 185 1 0.5897 -2.717668416480226 -6.808098724889032 7.816876317324246 0 1 0
334 112 2 -1.1794 -4.375985348694517 -4.714882872968785 9.282921562735494 0 0 0
627 209 1 0.5897 -10.271302407546873 -7.110495441483834 6.251077589622095 1 1 0
338 113 1 0.5897 -5.911510476359212 0.8023784034213968 7.752421232293935 0 0 0
411 137 1 0.5897 -13.292561462202173 0.5452583859027182 6.388649118017853 1 0 0
456 152 1 0.5897 -4.523679879388127 0.8925126514235302 9.815761594953832 0 0 0
360 120 1 0.5897 -5.403418973529384 -1.7103392530383328 8.70119079009243 0 0 0
328 110 2 -1.1794 -2.662641788288978 -0.7021349936332335 7.325195337273907 0 0 0
339 113 1 0.5897 -5.547492936875215 0.3656619970872086 6.349378677589262 0 0 0
455 152 1 0.5897 -4.127987848541131 1.969263432610802 8.82795706806687 0 0 0
520 174 2 -1.1794 -10.582433761902509 2.5172677035002486 8.195690739757678 1 0 0
444 148 1 0.5897 -6.460249334055815 2.241954277893033 9.572908966047756 0 0 0
358 120 2 -1.1794 -4.877988434578433 -2.2305172882234237 8.093285375013705 0 0 0
443 148 1 0.5897 -7.881683665631837 1.7256519259280907 9.640660619700457 0 0 0
464 155 1 0.5897 -1.8562808988833606 0.34441566836798465 10.167359838534027 0 0 0
522 174 1 0.5897 -9.856292973874226 2.22047839949051 7.647261999983424 1 0 0
434 145 1 0.5897 -6.307421940501028 -0.763981137588928 10.905774277574798 0 0 0
351 117 1 0.5897 -6.852349989517957 -2.8844561764077445 10.555634619095743 0 0 0
349 117 2 -1.1794 -7.028030161264926 -3.8110584216524668 10.719489237122193 0 0 0
633 211 1 0.5897 -5.614079004280901 -6.299451549732601 5.546686822339864 1 1 0
669 223 1 0.5897 -4.21070318782224 -3.464136382162426 10.81039816334734 0 0 0
404 135 1 0.5897 -5.23777031091519 -3.927330345750465 5.710715825211649 1 0 0
652 218 2 -1.1794 -5.820020792770119 -5.137829975558183 12.817269072808424 0 0 0
780 260 1 0.5897 -7.291109582591511 -4.0657359837455695 15.113244142674601 0 0 0
779 260 1 0.5897 -7.115920491386252 -2.9505912648159 14.104527053072454 0 0 0
778 260 2 -1.1794 -7.774130755421498 -3.381786044886251 14.649443598396516 0 0 0
768 256 1 0.5897 -9.337356329904855 -2.578565722386349 15.296846183695818 0 0 0
654 218 1 0.5897 -6.1157476682064615 -4.648257091056085 12.049791226397854 0 0 0
653 218 1 0.5897 -6.581391455602919 -5.654953985595235 13.080043098241774 0 0 0
662 221 1 0.5897 -8.82071252513275 -3.9805398375434917 13.154015398745518 0 0 0
661 221 2 -1.1794 -9.176409485067428 -4.392616930320865 12.36665640285141 0 0 0
663 221 1 0.5897 -8.540476836097024 -4.188819393601522 11.680995150742271 0 0 0
684 228 1 0.5897 -8.399376055528938 -6.392071617900573 14.314946075540444 0 0 0
682 228 2 -1.1794 -7.779253459880634 -6.8838883191735185 13.776657473782778 0 0 0
689 230 1 0.5897 1.2066913058739104 -5.919349265798441 13.094960076171565 0 0 0
888 296 1 0.5897 -10.617767158558912 3.3180449780750134 15.241554620822834 0 0 0
924 308 1 0.5897 -2.7688898257035515 3.2906145896318595 15.14089086499217 0 0 0
740 247 1 0.5897 -10.65006519254365 -3.4250264598246005 11.988568991192246 1 0 0
766 256 2 -1.1794 -10.224979431311024 -2.2255406634017687 15.357263791919989 0 0 0
729 243 1 0.5897 -8.01307952620898 -7.172887635330328 11.968632595938603 1 0 0
764 255 1 0.5897 -3.492684147228787 -0.9858964018629397 11.117562845424155 0 0 0
790 264 2 -1.1794 -10.724162690292669 0.3291338223537217 14.001922269749318 0 0 0
762 254 1 0.5897 -9.178998624690522 2.341643845930271 12.04388895712121 0 0 0
761 254 1 0.5897 -9.45943026316082 1.4120207212455416 13.20526899058404 0 0 0
771 257 1 0.5897 -11.638071928361972 2.7952221957009833 11.722198337388312 0 0 0
792 264 1 0.5897 -11.467652531243285 0.7306913733303144 14.451513595896499 0 0 0
739 247 2 -1.1794 -11.449353559856672 -3.0143042154828885 11.659006066186759 1 0 0
760 254 2 -1.1794 -8.74469896818049 1.779722138815444 12.685603783250489 0 0 0
837 279 1 0.5897 -10.937036309755811 0.0235183728149142 12.169175387420935 1 0 0
791 264 1 0.5897 -10.620320674122869 -0.5236124881091104 14.424167150161365 0 0 0
769 257 2 -1.1794 -12.314983557080124 2.6511101737478118 12.38333431207094 0 0 0
788 263 1 0.5897 -4.676559310475091 -4.774574342852004 15.601278761245526 0 0 0
902 301 1 0.5897 -4.743970626092125 2.0104844395003205 16.296987803168747 0 0 0
896 299 1 0.5897 -8.132658528387573 2.8469020449297524 15.55533450091685 0 0 0
758 253 1 0.5897 -9.440488295105265 -5.329201888294011 16.34160478313646 0 0 0
836 279 1 0.5897 -11.12957152944703 -1.232002911112927 11.345281426201781 1 0 0
805 269 2 -1.1794 -4.529730224929196 2.7580538828443366 12.357910029009513 0 0 0
897 299 1 0.5897 -7.80333964025564 2.5326694358125135 14.111545825340471 0 0 0
678 226 1 0.5897 -4.3242935712932615 -6.462255900065341 12.481002055226764 0 0 0
802 268 2 -1.1794 -2.478659169754577 -1.9697227707231786 15.161526248056074 0 0 0
816 272 1 0.5897 0.2956554668187916 -3.8693247141383385 15.189747590127814 0 0 0
770 257 1 0.5897 -11.986717812305864 3.0971658501409536 13.164071484595278 0 0 0
667 223 2 -1.1794 -3.9336773279840775 -2.9029715327795262 11.534728798457452 0 0 0
789 263 1 0.5897 -4.576631865078875 -4.636290413586785 14.097109036579793 0 0 0
676 226 2 -1.1794 -3.4049073892711705 -6.722196367436494 12.423619684471843 0 0 0
814 272 2 -1.1794 -0.17595843385806198 -3.3272967849547523 14.557318452195373 0 0 0
785 262 1 0.5897 -5.651577555531416 1.3348623702635702 12.302108200960706 0 0 0
657 219 1 0.5897 -0.2513866601873094 -7.225790085753998 11.970618611263339 0 0 0
803 268 1 0.5897 -3.157588796173709 -2.6436953263984133 15.128968473301907 0 0 0
795 265 1 0.5897 -2.60549897162646 -5.497352188482834 15.256974438385509 0 0 0
720 240 1 0.5897 -0.7049224594936074 -6.487601079401637 14.31367944077081 0 0 0
804 268 1 0.5897 -1.6665886103637444 -2.43771924875454 14.967376379817294 0 0 0
698 233 1 0.5897 -1.4875795078735337 -4.0639685013144735 13.302782135563701 0 0 0
699 233 1 0.5897 -1.1810597786444603 -4.195599647605386 11.826167607819889 0 0 0
697 233 2 -1.1794 -1.8819698266834308 -4.313735833114839 12.467138680185387 0 0 0
718 240 2 -1.1794 -0.12242109355064379 -6.921971309694341 13.69062632308542 0 0 0
677 226 1 0.5897 -2.9277129212614064 -5.897507589965283 12.331776039863563 0 0 0
668 223 1 0.5897 -3.188964745023074 -3.362272216568374 11.92281118652748 0 0 0
793 265 2 -1.1794 -1.9073203852943195 -6.006991416604992 15.668046065499336 0 0 0
773 258 1 0.5897 -5.867851972742596 -0.9478224047091803 13.141640185376124 0 0 0
774 258 1 0.5897 -5.1469976783115285 -2.246894263467885 12.850351723407307 0 0 0
818 273 1 0.5897 -5.471588124391371 -1.6122614921644614 15.348361871174307 0 0 0
787 263 2 -1.1794 -4.080010238709344 -4.5018641742042975 14.904263701873225 0 0 0
901 301 2 -1.1794 -4.945465030171741 1.318478175527261 15.667020775519347 0 0 0
772 258 2 -1.1794 -5.797561113918869 -1.8566042438492882 13.433967942819997 0 0 0
827 276 1 0.5897 -2.8933139172350195 -0.40348324206916786 14.250596952545884 0 0 0
765 255 1 0.5897 -3.5945343968042085 0.2963037820562917 11.91617231383676 0 0 0
784 262 2 -1.1794 -6.304615314300087 0.6357131621811298 12.27077404642981 0 0 0
828 276 1 0.5897 -3.8308084887893834 0.7819595151430452 14.33891865893776 0 0 0
826 276 2 -1.1794 -3.156195102219611 0.3900988912999779 13.784384755397966 0 0 0
797 266 1 0.5897 -1.813434378164727 1.336868856423278 13.135915120865734 0 0 0
895 299 2 -1.1794 -7.403885108272972 2.8101960124146856 14.935953597514237 0 0 0
903 301 1 0.5897 -5.7942854577894884 1.5668882356863243 15.301018271102183 0 0 0
786 262 1 0.5897 -7.1445701067114324 1.0884906661860239 12.345890069434557 0 0 0
757 253 2 -1.1794 -9.613998710929403 -5.886302322148223 15.58277233039623 0 0 0
767 256 1 0.5897 -10.794062617946283 -2.988186857315992 15.253356304760402 0 0 0
835 279 2 -1.1794 -11.04564038416285 -0.281544284491698 11.268417925139039 1 0 0
807 269 1 0.5897 -3.9707394583307254 2.9497521785517957 11.605023579827284 0 0 0
817 273 2 -1.1794 -5.396484535899241 -1.3012501097183122 16.250491615041717 0 0 0
819 273 1 0.5897 -5.1925706086383165 -0.3696977623580491 16.167129016067662 0 0 0
727 243 2 -1.1794 -8.021330071145337 -7.423238187207831 11.044808776796405 1 0 0
806 269 1 0.5897 -4.000267419863972 3.0000691892552993 13.117728971094987 0 0 0
865 289 2 -1.1794 -12.683609127572842 1.2002943017769798 15.701925801940037 0 0 0
763 255 2 -1.1794 -3.5483418166145775 -0.03531615335351823 11.019452187288465 0 0 0
655 219 2 -1.1794 -0.4471301025665504 -7.508577599378581 11.077351817559778 0 0 0
1150 384 2 -1.1794 -5.878010814582 -4.299290915056375 19.25397830930794 0 0 0
1152 384 1 0.5897 -6.652147417719586 -3.937294428610034 19.68504945160715 0 0 0
1227 409 1 0.5897 -8.741515959532302 -2.9618726710221814 20.44582180450284 0 0 0
1109 370 1 0.5897 -8.558746762318503 -3.3760370227974086 17.778178654942067 0 0 0
1089 363 1 0.5897 -6.010477199617261 -4.7128604797485 17.467054939318594 0 0 0
1151 384 1 0.5897 -5.851986416566473 -5.213788643228007 19.535584898635676 0 0 0
1108 370 2 -1.1794 -9.214157241522454 -4.062757338756159 17.655254280592587 0 0 0
1225 409 2 -1.1794 -7.92867820670345 -3.321559495044543 20.800910464372286 0 0 0
1253 418 1 0.5897 -4.028186692642509 3.8316820176638586 17.500055370833877 0 0 0
1195 399 2 -1.1794 -9.64376505971452 2.4198837533243527 16.480848882508035 0 0 0
1165 389 2 -1.1794 0.05183341606167424 -1.8922941114241567 18.02033376655801 0 0 0
1232 411 1 0.5897 -1.8622991793354462 1.479697923926711 16.56481251002566 0 0 0
1130 377 1 0.5897 -7.190898737332022 -1.4316553426217205 18.83189759399591 0 0 0
1248 416 1 0.5897 -5.549911154720656 -1.2058677899426513 20.687169175523444 0 0 0
866 289 1 0.5897 -12.447545639112544 1.7530938884761724 16.446900046724934 0 0 0
1129 377 2 -1.1794 -7.637860789903284 -1.72907622695773 18.03942912904955 0 0 0
1272 424 1 0.5897 -0.014162422037001576 -0.03969205441249102 20.49663882736006 0 0 0
1131 377 1 0.5897 -6.996134359722907 -1.6034822782051945 17.340507319494577 0 0 0
201 67 1 0.5897 2.2778440508611713 -5.853354188771419 21.720847373446645 1 1 -1
1246 416 2 -1.1794 -6.091715308485387 -0.6331306025070838 20.144389323771378 0 0 0
1123 375 2 -1.1794 1.1659301185388937 -4.946912160267956 16.42895432921182 0 0 0
1250 417 1 0.5897 -11.64856855359672 0.6545906774858423 20.734052259297833 0 0 0
1231 411 2 -1.1794 -1.8762952234449255 2.4363544956209218 16.534052558897642 0 0 0
1121 374 1 0.5897 -4.7206273616976295 -3.1439244683070413 18.57505736426255 0 0 0
1097 366 1 0.5897 -9.062527821331107 -5.648949050299359 18.430436127404782 0 0 0
1099 367 2 -1.1794 -10.050195372872361 -0.2062802318669128 17.231180942323512 0 0 0
1236 412 1 0.5897 -7.580059097880586 0.21291693754523422 20.320137907738733 0 0 0
1009 337 2 -1.1794 -11.137810512201057 3.7592541456468105 21.045617656487615 0 -1 0
1100 367 1 0.5897 -9.24884286194703 -0.5080160418579549 17.65890726673291 0 0 0
1234 412 2 -1.1794 -8.469544682756279 0.5663876510740149 20.31467625069763 0 0 0
1259 420 1 0.5897 -8.791334761278371 2.1311464951992622 19.579558270887304 0 0 0
1258 420 2 -1.1794 -9.147822823473552 2.931592652454766 19.194268615188555 0 0 0
1260 420 1 0.5897 -9.68412566097358 3.314081590229762 19.88870816055666 0 0 0
1216 406 2 -1.1794 -12.46532498091465 2.9592106492727304 17.860396772485146 0 0 0
1197 399 1 0.5897 -9.548982308248862 2.633322239355202 17.409105899329056 0 0 0
1206 402 1 0.5897 -11.350641014038633 0.28130406038834366 18.24691446147998 0 0 0
1235 412 1 0.5897 -9.034062224171263 -0.20525894973179426 20.268165810061284 0 0 0
1285 429 2 -1.1794 -3.7761835789132103 1.185596635213276 21.53035542297816 0 0 0
1143 381 1 0.5897 -8.529643047438919 -4.902917062186159 21.420690985865484 0 0 0
1295 432 1 0.5897 -1.3559590969163473 1.9048307214416695 19.495319136587014 0 0 0
1137 379 1 0.5897 -2.284297527059925 -0.8923772083275523 16.488435622333093 0 0 0
1187 396 1 0.5897 1.7929883637826212 -5.159373412344616 19.479846575696627 0 0 0
1221 407 1 0.5897 -10.590891919372106 -1.8210565388011979 19.453863467928585 0 0 0
1125 375 1 0.5897 1.1890014820655583 -4.690193975020016 17.350782150892428 0 0 0
1220 407 1 0.5897 -10.694267580680414 -1.933483755746506 20.959957090785537 0 0 0
1219 407 2 -1.1794 -10.100886680211898 -1.6605831120462682 20.260310427008456 0 0 0
1011 337 1 0.5897 -11.997739783755712 4.048351970531456 20.74048472775162 0 -1 0
1101 367 1 0.5897 -10.272247582574975 -0.905873069429429 16.616695492971303 0 0 0
1096 366 2 -1.1794 -8.946679129117722 -6.515123520588801 18.821028675597617 0 0 0
1252 418 2 -1.1794 -4.762587183242076 3.2214498713802335 17.566978032420465 0 0 0
1240 414 2 -1.1794 -3.9513678490196398 0.7656321002109383 18.81429928647279 0 0 0
1141 381 2 -1.1794 -8.744921480205045 -5.830169203725886 21.52153590460137 0 0 0
1088 363 1 0.5897 -6.392321228804585 -5.9273105196657045 16.64760207891173 0 0 0
1247 416 1 0.5897 -5.475291162449359 -0.22509778536546676 19.536422161095693 0 0 0
1205 402 1 0.5897 -12.357131810937487 1.3753306044359963 18.533276005987297 0 0 0
1145 382 1 0.5897 -1.0240750646065813 -3.3452310839449133 17.815455890237082 0 0 0
1122 374 1 0.5897 -4.486000788238636 -2.132465089391289 17.473423058730674 0 0 0
1242 414 1 0.5897 -3.2720232450553155 0.4865028002513654 18.200530095469453 0 0 0
1270 424 2 -1.1794 -0.9171302913196779 0.261413925703728 20.59726704679003 0 0 0
1271 424 1 0.5897 -1.4425570068003566 -0.5376218312152403 20.555329498945163 0 0 0
1144 382 2 -1.1794 -1.610975421121335 -4.098758113355062 17.878673030127153 0 0 0
1263 421 1 0.5897 -1.2088111362303025 -3.0521050113240396 20.63848134371301 0 0 0
1133 378 1 0.5897 -1.1021838931715333 -5.801522343345463 18.565361791652265 0 0 0
1188 396 1 0.5897 0.978828191677076 -3.8959376390984604 19.661234299389847 0 0 0
1257 419 1 0.5897 -3.092845661894322 -1.9710892939474167 19.530163015951196 0 0 0
1255 419 2 -1.1794 -2.6215532135817927 -1.8489136355697795 20.354274657674985 0 0 0
1261 421 2 -1.1794 -0.3791471465485028 -3.3677820234876776 20.996491636281718 0 0 0
1256 419 1 0.5897 -3.235950409565188 -2.140845416189064 21.027604378823682 0 0 0
1120 374 2 -1.1794 -4.0356279645958235 -2.6143589432181553 18.167046408538667 0 0 0
1146 382 1 0.5897 -2.4868253194734677 -3.7166692869124027 17.933943145086452 0 0 0
1142 381 1 0.5897 -8.794569903883952 -6.163927862230025 20.625787625929014 0 0 0
1045 349 2 -1.1794 -3.5219086791859224 3.8551625826439935 20.868868242585698 0 -1 0
1296 432 1 0.5897 -2.0410815004022496 3.2316636350678234 19.744712433854517 0 0 0
1254 418 1 0.5897 -5.528144450811758 3.7808886913622413 17.69786005187369 0 0 0
1135 379 2 -1.1794 -1.9776515217484665 -0.23602918263453532 17.11413514814724 0 0 0
1286 429 1 0.5897 -3.8021665288810205 0.8549972652413942 20.63243995671649 0 0 0
1136 379 1 0.5897 -1.2433086041666908 -0.6560576883174054 17.56190010603428 0 0 0
1196 399 1 0.5897 -9.81656915320174 1.4784516347617274 16.467379469905246 0 0 0
1241 414 1 0.5897 -4.220640558253111 1.6281558737983381 18.49838346558775 0 0 0
1186 396 2 -1.1794 1.6130134766592192 -4.310308403411792 19.076188870012707 0 0 0
1217 406 1 0.5897 -11.880637163648712 3.7131997019415284 17.783651475547167 0 0 0
1233 411 1 0.5897 -1.7825342221473601 2.7073232210142244 17.44728824391578 0 0 0
1124 375 1 0.5897 1.242015115163296 -5.901030060845145 16.443457271957847 0 0 0
1110 370 1 0.5897 -10.053715771710744 -3.6117630986862475 17.744220381113173 0 0 0
1229 410 1 0.5897 -7.87469246045493 3.9754065392413303 18.34673993578477 0 0 0
1087 363 2 -1.1794 -6.160799429204046 -5.001988080980827 16.567037684619038 0 0 0
1179 393 1 0.5897 -0.648558478168006 -5.116585760359156 21.573459146368435 0 0 0
1249 417 2 -1.1794 -11.569934333751636 0.9854416109165154 21.628804961093245 0 0 0
1294 432 2 -1.1794 -1.4015654683907979 2.805416076385539 19.174177944347626 0 0 0
1251 417 1 0.5897 -11.403457299175448 1.9223228267027324 21.524616666481073 0 0 0
1177 393 2 -1.1794 -0.7000361228084007 -6.072264544301842 21.59260299787747 0 0 0
1226 409 1 0.5897 -7.75913226253768 -2.8014782010247554 21.58643763273154 0 0 0
1287 429 1 0.5897 -3.7264610571351007 2.1367531020159873 21.43467623297417 0 0 0
1218 406 1 0.5897 -13.345509605460961 3.3335104754305753 17.82398806274861 0 0 0
1166 389 1 0.5897 0.46144370851024696 -1.570023954416878 18.823206004206995 0 0 0
1178 393 1 0.5897 -0.7532809853291429 -6.328322555422755 20.67183960450224 0 0 0
1047 349 1 0.5897 -4.364736217553307 4.209678362645631 20.58580655398078 0 -1 0
1262 421 1 0.5897 -0.16250410690742356 -2.7420427458806493 21.687746009946444 0 0 0
1010 337 1 0.5897 -10.916956944817866 4.366821693480439 21.751590934387842 0 -1 0
794 265 1 0.5897 -1.6604525533162011 -5.497063213194428 16.43961315473286 0 0 0
40 14 2 -1.1794 -15.19381772765179 3.854489820225643 1.930689657441906 1 0 0
177 59 1 0.5897 -14.001013759600404 4.496107033562732 3.322025690631512 1 0 0
56 19 1 0.5897 -12.373611499231213 5.760396110561736 1.3685610055939024 1 0 0
66 22 1 0.5897 -13.694331061503837 2.8665461637940517 1.7790562535968069 1 0 0
65 22 1 0.5897 -12.25214939367715 3.315028529759413 1.675889738189633 1 0 0
64 22 2 -1.1794 -12.795533232607628 2.539433913795083 1.8152987495446056 1 0 0
191 64 1 0.5897 -12.542712343102862 6.158225120135453 4.071017235035061 1 0 0
183 61 1 0.5897 -12.08754494296352 3.536133623452889 4.392160251387605 1 0 0
175 59 2 -1.1794 -13.52869303875897 4.696436993452428 4.130110383509189 1 0 0
176 59 1 0.5897 -14.168844926638952 4.546522137942912 4.82567513518208 1 0 0
181 61 2 -1.1794 -11.28699264292557 3.2060335378762 4.799982496863676 1 0 0
55 19 2 -1.1794 -13.16438162557693 6.182533426604094 1.0329248960662678 1 0 0
42 14 1 0.5897 -15.47206402823311 4.406197624008318 1.1996884832379282 1 0 0
108 36 1 0.5897 -10.06640918474122 2.73240950771158 3.617625308407835 1 0 0
215 72 1 0.5897 -12.222938161787656 8.503384605146461 3.4001407216093824 1 0 0
190 64 2 -1.1794 -11.96895662747944 6.923640913551651 4.105883279015867 1 0 0
194 65 1 0.5897 -13.2946691137236 12.031084556287865 2.2234856715620253 1 0 0
153 51 1 0.5897 -12.733000560387778 8.998365180645038 1.237258755786582 1 0 0
216 72 1 0.5897 -13.156049688480275 9.67704253365179 3.609388710639288 1 0 0
162 54 1 0.5897 -14.437323451283817 6.7778732557377595 2.1060937344972124 1 0 0
167 56 1 0.5897 -16.500999762357534 6.233206471024168 3.4559626045569085 1 0 0
148 50 2 -1.1794 -18.06476065361621 11.034366776303735 1.6065172741417688 1 0 0
174 58 1 0.5897 -16.409357879446198 10.208941411439245 1.3904301368474474 1 0 0
214 72 2 -1.1794 -12.411271619541559 9.38667292556574 3.08296411617145 1 0 0
193 65 2 -1.1794 -13.755550319582412 11.780415809704525 1.4228705936148742 1 0 0
206 69 1 0.5897 -14.904420929219206 7.372586442663454 4.388625097294258 1 0 0
160 54 2 -1.1794 -15.175547483693794 7.134658275352489 2.5999334482847214 1 0 0
173 58 1 0.5897 -14.912312887788808 10.40332026651263 1.50330145910794 1 0 0
85 29 2 -1.1794 -11.02512153170181 4.688268434912347 1.549969008211674 1 0 0
312 104 1 0.5897 -11.994230641614994 12.281645393075124 4.429062297162987 1 0 0
291 97 1 0.5897 -15.148157724229092 10.689276434116461 4.477903183829587 1 0 0
161 54 1 0.5897 -15.331306400133094 7.995174769784779 2.2107009603844787 1 0 0
172 58 2 -1.1794 -15.579568235039932 9.733123335885953 1.3554230852725075 1 0 0
289 97 2 -1.1794 -14.396609814204902 10.222720925696386 4.8435208406531505 1 0 0
283 95 2 -1.1794 -16.65750356215199 11.777209285721074 3.982877308009395 1 0 0