LAMMPS data file via MDAnalysis

        2016  atoms
        1344  bonds
         672  angles
           0  dihedrals
           0  impropers

           2  atom types
           1  bond types
           1  angle types
           0  dihedral types
           0  improper types

0.000000 18.035000 xlo xhi
0.000000 47.303101 ylo yhi
0.000000 19.372656 zlo zhi
-0.270800 -6.470805 0.097351 xy xz yz


Masses

1 1.008000
2 15.999000

Atoms

1 0 2 -1.179400 0.470610 8.536387 12.720512
2 0 1 0.589700 0.907317 7.686778 12.769467
3 0 1 0.589700 0.813090 9.027047 13.464513
4 0 2 -1.179400 6.187303 0.885908 2.462435
5 0 1 0.589700 6.429385 0.089906 1.991240
6 0 1 0.589700 6.758569 1.562951 2.103979
7 0 2 -1.179400 5.961496 7.093964 14.267715
8 0 1 0.589700 5.371074 6.611918 14.842792
9 0 1 0.589700 5.510021 7.919154 14.094780
10 0 2 -1.179400 6.370149 -0.635664 5.175788
11 0 1 0.589700 6.547719 -0.138561 4.380227
12 0 1 0.589700 5.423373 -0.754715 5.177466
13 0 2 -1.179400 -3.068817 19.787264 0.777191
14 0 1 0.589700 -2.887498 18.999317 1.287488
15 0 1 0.589700 14.434861 19.494364 0.093186
16 0 2 -1.179400 7.525641 4.869373 18.936523
17 0 1 0.589700 -9.629600 4.980729 18.994175
18 0 1 0.589700 7.230028 5.608995 18.408092
19 0 2 -1.179400 -7.040551 6.027814 13.953119
20 0 1 0.589700 -7.548949 5.862566 14.743327
21 0 1 0.589700 -6.131684 5.992604 14.241464
22 0 2 -1.179400 -4.872984 5.620453 11.188289
23 0 1 0.589700 -5.767150 5.495402 10.879529
24 0 1 0.589700 -4.734234 4.909380 11.811553
25 0 2 -1.179400 -1.082101 15.635719 9.778615
26 0 1 0.589700 -0.669546 14.786218 9.626672
27 0 1 0.589700 -1.037636 16.079813 8.934810
28 0 2 -1.179400 5.533567 13.307451 17.472786
29 0 1 0.589700 5.846645 13.760143 18.252762
30 0 1 0.589700 6.327634 13.045835 17.012609
31 0 2 -1.179400 -3.482866 -0.641039 17.615747
32 0 1 0.589700 -4.421896 -0.480994 17.558868
33 0 1 0.589700 -3.161225 0.035136 18.209373
34 0 2 -1.179400 -4.619956 6.072680 15.097969
35 0 1 0.589700 -4.605488 5.161268 15.388982
36 0 1 0.589700 -3.718554 6.257869 14.845339
37 0 2 -1.179400 2.062287 9.653313 2.342995
38 0 1 0.589700 2.808279 9.142682 2.650851
39 0 1 0.589700 1.300889 9.198780 2.697025
40 0 2 -1.179400 0.252051 15.975751 18.686781
41 0 1 0.589700 7.427152 15.418266 -0.012018
42 0 1 0.589700 -0.687185 15.845590 18.793840
43 0 2 -1.179400 -4.086889 3.555167 5.046483
44 0 1 0.589700 -4.647520 4.321992 4.937929
45 0 1 0.589700 -4.673509 2.808382 4.936427
46 0 2 -1.179400 1.407535 18.213669 17.711979
47 0 1 0.589700 0.976720 18.852266 18.277107
48 0 1 0.589700 0.932982 17.397230 17.863033
49 0 2 -1.179400 1.976037 9.217646 10.323927
50 0 1 0.589700 1.349317 9.109417 11.035051
51 0 1 0.589700 2.396953 10.058092 10.500875
52 0 2 -1.179400 0.275792 8.433567 4.128638
53 0 1 0.589700 -0.092268 7.553346 4.057825
54 0 1 0.589700 -0.438902 8.967620 4.469457
55 0 2 -1.179400 -4.645126 3.465371 12.973862
56 0 1 0.589700 -5.509587 3.109563 13.167094
57 0 1 0.589700 -4.218293 3.532535 13.824336
58 0 2 -1.179400 7.170812 12.951711 3.167551
59 0 1 0.589700 7.202132 13.728829 3.723523
60 0 1 0.589700 7.704209 12.304623 3.625469
61 0 2 -1.179400 -3.018422 12.933988 8.579292
62 0 1 0.589700 -3.536709 12.329594 9.107148
63 0 1 0.589700 -3.285038 13.803897 8.874721
64 0 2 -1.179400 4.820845 22.419270 2.279096
65 0 1 0.589700 5.722126 22.725330 2.350360
66 0 1 0.589700 4.603392 22.107883 3.154475
67 0 2 -1.179400 6.600456 18.422419 18.230522
68 0 1 0.589700 6.875736 17.716543 18.813005
69 0 1 0.589700 5.661248 18.502453 18.378777
70 0 2 -1.179400 3.157141 -0.852010 1.984071
71 0 1 0.589700 3.464898 -0.026207 1.612667
72 0 1 0.589700 3.649988 46.035336 2.330092
73 0 2 -1.179400 -1.471009 4.187550 17.049498
74 0 1 0.589700 -1.226826 3.263136 17.009459
75 0 1 0.589700 -1.938510 4.275704 17.876366
76 0 2 -1.179400 3.957464 4.089815 0.172596
77 0 1 0.589700 4.309760 4.843237 0.643847
78 0 1 0.589700 -3.679657 4.325562 19.191532
79 0 2 -1.179400 8.716319 1.645028 9.143507
80 0 1 0.589700 8.006766 1.261656 9.654155
81 0 1 0.589700 8.426584 2.538314 8.960499
82 0 2 -1.179400 -1.748364 12.028798 2.293367
83 0 1 0.589700 -0.976687 11.827259 2.817225
84 0 1 0.589700 -2.483163 11.885926 2.884984
85 0 2 -1.179400 12.541197 -0.228083 5.345631
86 0 1 0.589700 12.462523 0.378153 4.611694
87 0 1 0.589700 11.916348 -0.924830 5.151822
88 0 2 -1.179400 -7.591501 7.533312 17.702528
89 0 1 0.589700 -8.233666 7.980623 17.155682
90 0 1 0.589700 -6.762311 7.956320 17.490255
91 0 2 -1.179400 2.450873 17.336861 10.081572
92 0 1 0.589700 2.352400 17.892454 9.311125
93 0 1 0.589700 1.778766 17.645678 10.684655
94 0 2 -1.179400 -5.405020 4.040300 18.335939
95 0 1 0.589700 -6.250202 4.271515 18.713976
96 0 1 0.589700 -5.616198 3.688839 17.474203
97 0 2 -1.179400 3.547874 -0.410769 5.465697
98 0 1 0.589700 3.089146 -0.007025 6.198956
99 0 1 0.589700 2.663203 46.206982 5.160125
100 0 2 -1.179400 0.469787 18.721123 11.367415
101 0 1 0.589700 -0.439100 18.465651 11.507141
102 0 1 0.589700 0.519316 19.620541 11.689922
103 0 2 -1.179400 1.889148 5.231389 5.924332
104 0 1 0.589700 2.646385 4.822089 5.511467
105 0 1 0.589700 1.801741 4.780083 6.760952
106 0 2 -1.179400 3.740252 6.361890 15.656260
107 0 1 0.589700 4.018296 5.662468 16.245125
108 0 1 0.589700 3.863934 7.165874 16.158871
109 0 2 -1.179400 -1.571104 4.153292 2.609617
110 0 1 0.589700 -1.174488 4.713378 3.273777
111 0 1 0.589700 -1.789397 3.345699 3.072767
112 0 2 -1.179400 5.264853 5.290244 7.812444
113 0 1 0.589700 4.554634 5.921309 7.913827
114 0 1 0.589700 5.086020 4.858376 6.980187
115 0 2 -1.179400 4.451497 3.160922 13.997040
116 0 1 0.589700 3.902495 2.609476 13.443284
117 0 1 0.589700 5.268620 3.248962 13.512363
118 0 2 -1.179400 9.583061 4.017138 6.355599
119 0 1 0.589700 9.094183 4.068895 7.173120
120 0 1 0.589700 10.271400 3.377290 6.528141
121 0 2 -1.179400 -6.966493 3.018802 16.305918
122 0 1 0.589700 -7.541145 2.348629 16.671713
123 0 1 0.589700 -6.719040 2.677494 15.449787
124 0 2 -1.179400 -1.907864 2.444298 6.636988
125 0 1 0.589700 -1.278434 2.450090 5.920124
126 0 1 0.589700 -2.648532 2.950328 6.309380
127 0 2 -1.179400 0.779290 5.663972 16.915482
128 0 1 0.589700 1.514466 5.121110 16.637882
129 0 1 0.589700 0.014170 5.103917 16.799999
130 0 2 -1.179400 -0.331363 1.606801 16.974808
131 0 1 0.589700 -0.067073 0.968114 17.634298
132 0 1 0.589700 0.142273 1.346154 16.188557
133 0 2 -1.179400 7.256989 19.502750 15.938544
134 0 1 0.589700 6.996263 18.954660 16.675817
135 0 1 0.589700 8.190902 19.335726 15.835868
136 0 2 -1.179400 -5.159270 10.146936 6.552185
137 0 1 0.589700 -4.579100 9.501354 6.152724
138 0 1 0.589700 12.321760 10.371529 5.862685
139 0 2 -1.179400 -0.434757 5.668602 4.534619
140 0 1 0.589700 0.450130 5.540389 4.867831
141 0 1 0.589700 -0.982039 5.702265 5.315260
142 0 2 -1.179400 -5.494365 0.106335 9.766742
143 0 1 0.589700 -6.117917 0.734714 10.126118
144 0 1 0.589700 -5.978412 -0.347085 9.080067
145 0 2 -1.179400 -3.328724 4.751338 8.768464
146 0 1 0.589700 -3.591861 5.319646 9.489506
147 0 1 0.589700 -2.612904 4.227839 9.122914
148 0 2 -1.179400 -1.002579 15.556702 4.244339
149 0 1 0.589700 -1.641827 15.238597 3.611102
150 0 1 0.589700 -1.186318 15.059080 5.038177
151 0 2 -1.179400 8.704202 -0.336078 7.364570
152 0 1 0.589700 8.965968 0.461051 7.823184
153 0 1 0.589700 8.842978 -0.135743 6.442220
154 0 2 -1.179400 12.296210 46.141747 2.087380
155 0 1 0.589700 12.651299 -0.468280 1.433006
156 0 1 0.589700 11.965112 45.384216 1.607381
157 0 2 -1.179400 5.252059 -0.791263 17.416515
158 0 1 0.589700 5.647928 -0.143770 16.836094
159 0 1 0.589700 5.672974 45.918243 17.638197
160 0 2 -1.179400 1.209150 1.970158 0.680034
161 0 1 0.589700 1.127827 1.161786 0.175776
162 0 1 0.589700 1.201813 2.666251 0.025374
163 0 2 -1.179400 -1.232449 8.768138 10.614366
164 0 1 0.589700 -0.746945 8.712543 11.433641
165 0 1 0.589700 -1.544808 9.671973 10.581816
166 0 2 -1.179400 -3.481307 14.964403 3.047863
167 0 1 0.589700 -3.732247 14.470129 2.270504
168 0 1 0.589700 -3.707350 14.390211 3.776800
169 0 2 -1.179400 13.938432 5.409657 2.278948
170 0 1 0.589700 14.112195 5.308874 1.346439
171 0 1 0.589700 -3.571791 4.788394 2.700293
172 0 2 -1.179400 -1.370953 2.838737 9.363971
173 0 1 0.589700 -1.559940 2.484478 8.498228
174 0 1 0.589700 -2.053830 2.476231 9.923733
175 0 2 -1.179400 5.188037 14.044482 8.572842
176 0 1 0.589700 4.755585 13.200216 8.450021
177 0 1 0.589700 5.977895 13.837125 9.066494
178 0 2 -1.179400 -0.506590 16.436563 14.787188
179 0 1 0.589700 -0.089741 16.198393 13.962650
180 0 1 0.589700 -0.328343 17.371668 14.885644
181 0 2 -1.179400 0.622167 1.326080 10.650277
182 0 1 0.589700 1.483949 1.729173 10.570761
183 0 1 0.589700 0.020260 1.982222 10.303514
184 0 2 -1.179400 -2.488377 -0.109029 5.429185
185 0 1 0.589700 -3.304642 -0.408045 5.823161
186 0 1 0.589700 -2.258803 0.679043 5.919489
187 0 2 -1.179400 12.313808 7.907906 1.128931
188 0 1 0.589700 12.043302 7.106097 0.683671
189 0 1 0.589700 13.186128 8.089315 0.787249
190 0 2 -1.179400 0.201205 -0.075671 19.046892
191 0 1 0.589700 1.082173 -0.443302 19.054127
192 0 1 0.589700 -0.372244 -0.835409 18.957392
193 0 2 -1.179400 2.528977 12.703811 15.203338
194 0 1 0.589700 2.016057 13.467191 15.464493
195 0 1 0.589700 3.389075 13.058199 14.989188
196 0 2 -1.179400 0.527793 22.004257 16.690845
197 0 1 0.589700 -0.354475 22.089931 16.337727
198 0 1 0.589700 0.427211 21.434509 17.450682
199 0 2 -1.179400 12.543628 6.133394 5.128747
200 0 1 0.589700 12.425670 6.033705 6.070055
201 0 1 0.589700 -4.915349 6.835772 5.040707
202 0 2 -1.179400 11.043396 19.052088 6.345119
203 0 1 0.589700 11.935301 19.220263 6.050485
204 0 1 0.589700 11.100895 18.227348 6.825772
205 0 2 -1.179400 8.554981 15.050745 4.458917
206 0 1 0.589700 8.521483 16.002937 4.550001
207 0 1 0.589700 9.234198 14.896367 3.806878
208 0 2 -1.179400 -5.208637 20.780977 18.277542
209 0 1 0.589700 -5.776248 20.021139 18.157084
210 0 1 0.589700 -5.188770 20.917664 19.221411
211 0 2 -1.179400 0.029997 2.264208 4.717381
212 0 1 0.589700 0.434947 2.871964 4.101636
213 0 1 0.589700 -0.082891 1.455051 4.220507
214 0 2 -1.179400 4.895427 15.501846 3.106468
215 0 1 0.589700 4.204620 16.107855 3.367701
216 0 1 0.589700 5.628298 16.066551 2.868945
217 0 2 -1.179400 11.129203 8.457910 3.589624
218 0 1 0.589700 11.073621 7.578962 3.963191
219 0 1 0.589700 11.555483 8.330926 2.745683
220 0 2 -1.179400 -2.188959 9.952450 8.063944
221 0 1 0.589700 -2.441406 10.871015 7.973329
222 0 1 0.589700 -1.275890 9.982247 8.339334
223 0 2 -1.179400 6.494448 9.128244 1.660300
224 0 1 0.589700 5.911917 8.939116 0.928721
225 0 1 0.589700 6.146263 9.932579 2.042658
226 0 2 -1.179400 -3.895418 15.441735 8.199120
227 0 1 0.589700 -3.582743 15.887912 7.415262
228 0 1 0.589700 -4.033095 16.144138 8.832306
229 0 2 -1.179400 -8.273038 18.712505 15.157863
230 0 1 0.589700 -8.376927 17.792685 14.915349
231 0 1 0.589700 -7.744861 19.088205 14.457232
232 0 2 -1.179400 3.291919 11.942656 8.240907
233 0 1 0.589700 3.869161 11.250078 7.923883
234 0 1 0.589700 3.130471 11.718054 9.153973
235 0 2 -1.179400 8.720376 0.919250 12.830371
236 0 1 0.589700 9.016968 0.472215 12.040771
237 0 1 0.589700 9.007703 0.354291 13.544765
238 0 2 -1.179400 -3.628878 8.029860 5.711526
239 0 1 0.589700 -3.383431 7.945786 4.793586
240 0 1 0.589700 -3.028300 7.448152 6.173415
241 0 2 -1.179400 -1.798947 10.058031 4.842837
242 0 1 0.589700 -2.219956 9.666617 5.604783
243 0 1 0.589700 -2.505361 10.504677 4.381267
244 0 2 -1.179400 5.710331 11.585775 11.994111
245 0 1 0.589700 6.444880 10.989264 12.125566
246 0 1 0.589700 5.491117 11.893643 12.870287
247 0 2 -1.179400 3.928665 1.769672 3.578708
248 0 1 0.589700 4.646420 1.239299 3.238611
249 0 1 0.589700 3.467357 1.187091 4.178821
250 0 2 -1.179400 9.243611 17.814259 4.527484
251 0 1 0.589700 8.559156 18.479984 4.566848
252 0 1 0.589700 9.906892 18.118814 5.142370
253 0 2 -1.179400 9.460881 17.247780 1.640576
254 0 1 0.589700 10.042735 17.563768 2.327857
255 0 1 0.589700 9.836744 17.591755 0.833633
256 0 2 -1.179400 6.197046 1.727072 6.601908
257 0 1 0.589700 6.736852 2.216949 5.985201
258 0 1 0.589700 6.213823 0.827399 6.276755
259 0 2 -1.179400 2.756190 17.566463 13.569768
260 0 1 0.589700 3.090903 16.850605 13.032216
261 0 1 0.589700 1.833936 17.631777 13.333890
262 0 2 -1.179400 10.599800 12.050497 8.020189
263 0 1 0.589700 11.345709 12.385342 7.527750
264 0 1 0.589700 10.052166 12.819077 8.173499
265 0 2 -1.179400 2.179029 3.695911 15.309648
266 0 1 0.589700 3.014817 3.516663 14.885533
267 0 1 0.589700 2.195752 3.165116 16.103216
268 0 2 -1.179400 8.499450 13.100440 13.467187
269 0 1 0.589700 9.444377 12.967579 13.473677
270 0 1 0.589700 8.379745 13.951990 13.048404
271 0 2 -1.179400 10.476157 16.349442 7.437967
272 0 1 0.589700 10.017423 15.510667 7.408731
273 0 1 0.589700 10.337524 16.668392 8.326561
274 0 2 -1.179400 7.788996 8.721557 19.072609
275 0 1 0.589700 -2.620744 8.948257 -0.033259
276 0 1 0.589700 7.824616 8.169860 18.293961
277 0 2 -1.179400 -4.543711 11.455552 10.451086
278 0 1 0.589700 -4.623147 11.025732 11.299650
279 0 1 0.589700 -5.250248 12.098760 10.439725
280 0 2 -1.179400 10.888280 5.060909 10.003644
281 0 1 0.589700 11.173091 4.175109 9.781058
282 0 1 0.589700 10.301809 4.942451 10.746743
283 0 2 -1.179400 -7.219811 18.934929 18.021763
284 0 1 0.589700 -7.809475 18.931742 17.271854
285 0 1 0.589700 -7.776975 18.715757 18.764671
286 0 2 -1.179400 8.602443 14.011898 7.143367
287 0 1 0.589700 8.168187 14.618014 7.740483
288 0 1 0.589700 8.534959 14.431902 6.288910
289 0 2 -1.179400 0.423151 11.507050 3.790299
290 0 1 0.589700 1.016664 10.915809 3.331317
291 0 1 0.589700 -0.107299 10.931668 4.337910
292 0 2 -1.179400 -4.822046 22.005198 7.072237
293 0 1 0.589700 -4.840197 21.400879 6.332763
294 0 1 0.589700 -5.718723 22.010592 7.398329
295 0 2 -1.179400 8.434367 20.494625 2.243281
296 0 1 0.589700 7.982850 20.067251 2.967656
297 0 1 0.589700 9.360288 20.339659 2.414318
298 0 2 -1.179400 4.244396 8.322803 11.286217
299 0 1 0.589700 3.417883 8.578335 10.883297
300 0 1 0.589700 4.155808 7.382657 11.441835
301 0 2 -1.179400 12.591607 15.731755 5.474786
302 0 1 0.589700 11.949595 15.954874 6.144490
303 0 1 0.589700 -4.751366 16.274817 5.680851
304 0 2 -1.179400 9.855157 8.557329 10.233598
305 0 1 0.589700 10.683407 8.744894 9.798423
306 0 1 0.589700 9.247711 9.204266 9.879386
307 0 2 -1.179400 2.056106 6.327439 2.105420
308 0 1 0.589700 2.588622 6.713669 2.797024
309 0 1 0.589700 1.885572 5.434046 2.402281
310 0 2 -1.179400 -0.032631 19.050413 15.491804
311 0 1 0.589700 0.510534 18.865484 16.254074
312 0 1 0.589700 0.519894 19.588757 14.928819
313 0 2 -1.179400 -4.602020 19.758215 5.233027
314 0 1 0.589700 -3.718076 19.650620 5.575851
315 0 1 0.589700 -4.477989 20.139126 4.366785
316 0 2 -1.179400 10.995978 5.687893 0.045284
317 0 1 0.589700 11.416753 5.301357 0.809827
318 0 1 0.589700 4.343772 4.989238 18.670975
319 0 2 -1.179400 -3.103172 14.813074 11.480830
320 0 1 0.589700 -2.925732 15.186789 12.340872
321 0 1 0.589700 -2.434808 15.191889 10.914330
322 0 2 -1.179400 -2.482274 -0.246952 13.045852
323 0 1 0.589700 -2.561866 0.184033 13.893811
324 0 1 0.589700 -1.557778 -0.473900 12.978108
325 0 2 -1.179400 7.604475 16.259851 8.451793
326 0 1 0.589700 8.384473 16.724421 8.747643
327 0 1 0.589700 7.523746 16.492819 7.530150
328 0 2 -1.179400 4.071446 16.227247 7.064191
329 0 1 0.589700 4.774975 16.849869 6.890279
330 0 1 0.589700 4.450927 15.598800 7.675508
331 0 2 -1.179400 -3.520592 12.772592 4.951605
332 0 1 0.589700 -2.815384 12.849408 5.589572
333 0 1 0.589700 -4.319635 12.838348 5.468825
334 0 2 -1.179400 11.357641 21.471119 0.192773
335 0 1 0.589700 11.395671 20.872210 0.935854
336 0 1 0.589700 10.476458 21.836983 0.223703
337 0 2 -1.179400 -0.533553 18.152203 4.477511
338 0 1 0.589700 0.310354 18.309587 4.894108
339 0 1 0.589700 -0.585602 17.200289 4.392454
340 0 2 -1.179400 8.060070 21.539886 13.808663
341 0 1 0.589700 7.112618 21.579136 13.914809
342 0 1 0.589700 8.223278 20.675539 13.432801
343 0 2 -1.179400 -5.889360 14.830899 13.447529
344 0 1 0.589700 -5.601985 15.716216 13.226335
345 0 1 0.589700 -5.088196 14.370137 13.687492
346 0 2 -1.179400 0.810938 14.619234 16.343760
347 0 1 0.589700 0.478624 14.799129 17.219740
348 0 1 0.589700 0.298047 15.187880 15.772944
349 0 2 -1.179400 4.341008 1.251332 -0.017401
350 0 1 0.589700 5.212720 1.192404 0.366051
351 0 1 0.589700 4.158999 2.190138 -0.055537
352 0 2 -1.179400 -5.993818 17.612663 12.063329
353 0 1 0.589700 -6.039287 18.450935 12.521492
354 0 1 0.589700 -5.306466 17.734135 11.412899
355 0 2 -1.179400 -8.552198 5.364385 16.219767
356 0 1 0.589700 -8.018104 4.582489 16.352549
357 0 1 0.589700 -8.253615 5.977727 16.888464
358 0 2 -1.179400 6.780890 6.997991 17.043056
359 0 1 0.589700 7.070583 6.973616 16.134552
360 0 1 0.589700 6.060266 7.625360 17.047804
361 0 2 -1.179400 1.352286 21.981770 5.055441
362 0 1 0.589700 1.121028 22.021620 5.980002
363 0 1 0.589700 0.596958 22.351814 4.604077
364 0 2 -1.179400 -2.907003 16.398468 13.699873
365 0 1 0.589700 -2.065032 16.323471 14.142396
366 0 1 0.589700 -3.493329 16.760712 14.360159
367 0 2 -1.179400 8.110573 7.897962 3.515963
368 0 1 0.589700 8.570421 8.711437 3.719294
369 0 1 0.589700 7.513014 8.133131 2.810213
370 0 2 -1.179400 -1.047945 9.953790 0.727659
371 0 1 0.589700 -1.324359 10.609170 1.365570
372 0 1 0.589700 -0.356402 10.384554 0.230005
373 0 2 -1.179400 -2.558020 16.579683 18.732950
374 0 1 0.589700 -2.752122 16.106079 17.927078
375 0 1 0.589700 -3.392203 16.617918 19.194477
376 0 2 -1.179400 -0.869460 16.930355 7.351290
377 0 1 0.589700 -0.033139 16.839117 6.901152
378 0 1 0.589700 -0.797707 17.758230 7.824619
379 0 2 -1.179400 8.678255 15.881674 12.269374
380 0 1 0.589700 9.158060 15.384732 11.610182
381 0 1 0.589700 9.245760 15.871109 13.036112
382 0 2 -1.179400 -5.527969 14.000607 10.307055
383 0 1 0.589700 -5.403397 14.572381 9.552300
384 0 1 0.589700 -4.837677 14.255267 10.914725
385 0 2 -1.179400 -4.239476 20.413900 9.196792
386 0 1 0.589700 -3.363779 20.653902 9.490596
387 0 1 0.589700 -4.392231 20.962563 8.430264
388 0 2 -1.179400 7.011388 4.304246 15.483111
389 0 1 0.589700 7.258387 3.851704 14.679691
390 0 1 0.589700 7.826647 4.680865 15.806826
391 0 2 -1.179400 -1.653835 22.407244 14.849496
392 0 1 0.589700 -1.052694 23.047743 14.473591
393 0 1 0.589700 -2.357167 22.933964 15.223637
394 0 2 -1.179400 0.480175 10.514022 8.574570
395 0 1 0.589700 0.955964 10.072266 9.274438
396 0 1 0.589700 1.130166 10.643628 7.888306
397 0 2 -1.179400 -8.410336 0.853189 17.373663
398 0 1 0.589700 -8.355674 0.683245 18.310766
399 0 1 0.589700 -9.247585 1.297684 17.259098
400 0 2 -1.179400 4.166575 21.750462 7.205420
401 0 1 0.589700 3.278660 22.017601 7.431521
402 0 1 0.589700 4.722224 22.435366 7.573460
403 0 2 -1.179400 4.018149 18.168755 18.815714
404 0 1 0.589700 3.140643 18.151957 18.441446
405 0 1 0.589700 4.304887 17.256096 18.794065
406 0 2 -1.179400 6.327383 8.585295 9.389095
407 0 1 0.589700 5.810205 8.444809 10.178365
408 0 1 0.589700 6.939669 7.851402 9.371278
409 0 2 -1.179400 4.043292 15.207968 12.258409
410 0 1 0.589700 4.817741 15.553451 11.820293
411 0 1 0.589700 3.440662 14.997027 11.549370
412 0 2 -1.179400 -1.757323 20.145374 5.761362
413 0 1 0.589700 -1.679239 21.004850 5.348881
414 0 1 0.589700 -1.481183 19.527212 5.087461
415 0 2 -1.179400 9.618183 17.604908 9.920192
416 0 1 0.589700 9.985552 16.976046 10.538446
417 0 1 0.589700 10.203560 18.359400 9.965780
418 0 2 -1.179400 6.355043 17.249063 6.194181
419 0 1 0.589700 6.327696 17.646843 5.327030
420 0 1 0.589700 6.304852 17.989750 6.796247
421 0 2 -1.179400 11.033821 2.267740 10.544341
422 0 1 0.589700 -7.096054 2.139971 11.489221
423 0 1 0.589700 10.129064 2.159956 10.261003
424 0 2 -1.179400 3.093961 19.260551 2.255092
425 0 1 0.589700 3.764836 19.467999 1.609071
426 0 1 0.589700 2.391675 19.883717 2.078130
427 0 2 -1.179400 8.070937 22.413128 4.735276
428 0 1 0.589700 7.289564 22.949945 4.851645
429 0 1 0.589700 8.048604 21.793863 5.462253
430 0 2 -1.179400 -1.336027 12.769690 18.382521
431 0 1 0.589700 -1.850499 13.489051 18.019993
432 0 1 0.589700 -1.931734 12.326069 18.982330
433 0 2 -1.179400 2.921697 21.265448 9.941586
434 0 1 0.589700 3.872007 21.350584 9.954939
435 0 1 0.589700 2.612746 22.094826 9.579193
436 0 2 -1.179400 -1.991656 6.391057 14.043416
437 0 1 0.589700 -2.516586 6.944849 13.469044
438 0 1 0.589700 -1.656391 6.989900 14.707775
439 0 2 -1.179400 -3.621486 10.283077 19.152229
440 0 1 0.589700 -2.993233 9.599782 18.924774
441 0 1 0.589700 2.960565 10.181643 0.755578
442 0 2 -1.179400 -1.865903 21.631350 9.805486
443 0 1 0.589700 -2.051549 22.316875 9.166197
444 0 1 0.589700 -1.309731 22.056986 10.454181
445 0 2 -1.179400 7.650417 12.933456 10.213869
446 0 1 0.589700 7.846770 12.098471 9.790880
447 0 1 0.589700 6.949489 12.729282 10.828260
448 0 2 -1.179400 7.716001 20.650318 6.963465
449 0 1 0.589700 6.858813 20.331036 7.236116
450 0 1 0.589700 8.261330 20.565664 7.741630
451 0 2 -1.179400 -6.174486 19.716949 13.762868
452 0 1 0.589700 -6.618337 20.343050 13.193950
453 0 1 0.589700 -5.581257 20.252039 14.286140
454 0 2 -1.179400 4.523769 5.742811 12.187745
455 0 1 0.589700 5.062285 6.242030 12.798104
456 0 1 0.589700 3.647696 5.769444 12.564791
457 0 2 -1.179400 -2.792049 1.394110 2.867768
458 0 1 0.589700 -2.473554 0.885304 2.125225
459 0 1 0.589700 -2.638711 0.831134 3.623798
460 0 2 -1.179400 6.787686 12.212048 6.479935
461 0 1 0.589700 6.123196 12.665825 5.966025
462 0 1 0.589700 7.330524 12.912936 6.837017
463 0 2 -1.179400 -2.294290 18.290972 11.683571
464 0 1 0.589700 -2.399433 19.197218 11.971988
465 0 1 0.589700 -2.598980 17.765762 12.420541
466 0 2 -1.179400 -0.754262 7.156869 1.483848
467 0 1 0.589700 -0.604501 8.085557 1.308021
468 0 1 0.589700 0.054237 6.856218 1.892334
469 0 2 -1.179400 1.555844 15.942783 6.208556
470 0 1 0.589700 2.384256 16.071035 6.664310
471 0 1 0.589700 1.557330 15.017651 5.963882
472 0 2 -1.179400 1.438730 12.600599 12.573154
473 0 1 0.589700 0.502197 12.540624 12.745721
474 0 1 0.589700 1.847742 12.473347 13.425549
475 0 2 -1.179400 -6.118304 16.211792 16.946356
476 0 1 0.589700 -5.920065 15.421363 17.446449
477 0 1 0.589700 -6.530755 16.799576 17.576225
478 0 2 -1.179400 4.186205 20.419716 16.168379
479 0 1 0.589700 4.049619 20.685961 17.074360
480 0 1 0.589700 4.262440 19.466375 16.206318
481 0 2 -1.179400 -1.432145 22.100965 1.227779
482 0 1 0.589700 -1.910266 21.292425 1.048418
483 0 1 0.589700 -1.785083 22.734070 0.605443
484 0 2 -1.179400 10.754415 22.090197 8.091909
485 0 1 0.589700 10.982998 22.722942 8.770156
486 0 1 0.589700 10.611152 21.270548 8.563220
487 0 2 -1.179400 -1.225603 13.617379 6.438899
488 0 1 0.589700 -0.316436 13.375849 6.599813
489 0 1 0.589700 -1.659882 13.486486 7.278155
490 0 2 -1.179400 0.336791 20.259918 18.982430
491 0 1 0.589700 -0.565026 19.974627 19.110104
492 0 1 0.589700 7.428279 20.514019 0.542693
493 0 2 -1.179400 -3.998717 7.862195 8.890482
494 0 1 0.589700 -3.293032 8.440611 8.607756
495 0 1 0.589700 -4.730946 8.450207 9.065627
496 0 2 -1.179400 6.819369 19.279026 4.028503
497 0 1 0.589700 6.491797 18.741386 3.310485
498 0 1 0.589700 6.095994 19.866291 4.239283
499 0 2 -1.179400 3.648947 15.380253 16.987089
500 0 1 0.589700 4.177183 14.672373 17.352272
501 0 1 0.589700 2.811575 14.969766 16.782648
502 0 2 -1.179400 10.763175 21.734314 4.852649
503 0 1 0.589700 9.906955 22.153791 4.802815
504 0 1 0.589700 10.632634 20.988401 5.435965
505 0 2 -1.179400 3.259369 -0.640031 15.300336
506 0 1 0.589700 3.366376 -0.143954 14.491636
507 0 1 0.589700 3.703236 46.056274 15.309902
508 0 2 -1.179400 0.597699 -0.653052 15.086967
509 0 1 0.589700 1.547493 -0.634920 15.176584
510 0 1 0.589700 0.433623 -0.312355 14.210801
511 0 2 -1.179400 -5.267737 13.124180 7.000666
512 0 1 0.589700 -4.468632 12.981909 7.502273
513 0 1 0.589700 -5.259467 14.059024 6.796062
514 0 2 -1.179400 -3.313218 17.157013 6.032669
515 0 1 0.589700 -2.419662 17.195354 6.365070
516 0 1 0.589700 -3.222017 17.263924 5.089180
517 0 2 -1.179400 -3.793083 3.536560 15.800660
518 0 1 0.589700 -3.524136 2.622925 15.708028
519 0 1 0.589700 -3.016635 3.984372 16.129644
520 0 2 -1.179400 11.875598 17.449207 3.041509
521 0 1 0.589700 11.713702 16.776934 3.700910
522 0 1 0.589700 12.046762 16.958424 2.240660
523 0 2 -1.179400 -4.433014 10.818395 15.383708
524 0 1 0.589700 -4.696885 10.026301 15.849724
525 0 1 0.589700 -4.682493 10.655164 14.477520
526 0 2 -1.179400 6.918825 7.001254 6.093571
527 0 1 0.589700 6.612032 6.819461 6.978419
528 0 1 0.589700 7.869011 6.935833 6.151640
529 0 2 -1.179400 9.484678 5.640170 3.955262
530 0 1 0.589700 9.666353 5.907140 4.853076
531 0 1 0.589700 8.934433 6.339222 3.606019
532 0 2 -1.179400 12.612684 1.658607 3.515136
533 0 1 0.589700 13.455792 1.755439 3.079031
534 0 1 0.589700 12.150368 2.473842 3.324812
535 0 2 -1.179400 -4.571339 6.989578 18.645958
536 0 1 0.589700 -4.862152 6.144406 18.305468
537 0 1 0.589700 1.897147 7.054287 0.230635
538 0 2 -1.179400 11.798559 6.514368 7.926115
539 0 1 0.589700 11.557113 5.966475 8.670068
540 0 1 0.589700 -5.467202 6.903532 8.175075
541 0 2 -1.179400 6.391876 10.143294 15.883575
542 0 1 0.589700 5.735095 10.312853 16.554562
543 0 1 0.589700 5.887961 9.885453 15.115421
544 0 2 -1.179400 5.031391 10.023646 7.218032
545 0 1 0.589700 5.265864 9.386919 7.890541
546 0 1 0.589700 5.704399 10.699339 7.279684
547 0 2 -1.179400 -6.787004 1.918403 13.626336
548 0 1 0.589700 -7.711832 1.710489 13.736775
549 0 1 0.589700 -6.328039 1.157521 13.979021
550 0 2 -1.179400 8.659069 9.342693 0.235176
551 0 1 0.589700 7.992370 9.307014 0.916642
552 0 1 0.589700 9.452723 9.614024 0.690458
553 0 2 -1.179400 -1.971689 6.130315 6.823516
554 0 1 0.589700 -1.243632 6.429565 7.363149
555 0 1 0.589700 -2.454254 5.525960 7.384236
556 0 2 -1.179400 4.852769 18.425655 10.319684
557 0 1 0.589700 3.934988 18.193239 10.439918
558 0 1 0.589700 5.332887 17.639139 10.574924
559 0 2 -1.179400 4.551167 9.645058 13.779972
560 0 1 0.589700 4.274187 9.344266 12.917812
561 0 1 0.589700 3.737759 9.765325 14.264019
562 0 2 -1.179400 -1.295259 8.182981 16.026871
563 0 1 0.589700 -0.434037 8.237079 16.433983
564 0 1 0.589700 -1.614529 9.084962 16.022448
565 0 2 -1.179400 1.209197 8.483087 16.968477
566 0 1 0.589700 1.467866 8.617310 17.876814
567 0 1 0.589700 1.226236 7.533259 16.851883
568 0 2 -1.179400 -4.000508 17.633865 9.642207
569 0 1 0.589700 -4.119237 18.451679 9.161021
570 0 1 0.589700 -3.216838 17.778391 10.166973
571 0 2 -1.179400 -6.082419 -0.288294 18.495708
572 0 1 0.589700 -6.744400 -0.597989 17.881969
573 0 1 0.589700 -5.794243 -1.077427 18.952225
574 0 2 -1.179400 0.290718 -0.885578 12.333559
575 0 1 0.589700 0.694350 45.764637 12.341143
576 0 1 0.589700 0.704051 -0.094357 11.990929
577 0 2 -1.179400 -3.560325 7.856412 12.167749
578 0 1 0.589700 -4.155217 7.163078 11.887053
579 0 1 0.589700 -2.941274 7.946850 11.447503
580 0 2 -1.179400 -9.441064 15.440538 17.352180
581 0 1 0.589700 8.036206 14.976974 16.797728
582 0 1 0.589700 -8.877265 14.752265 17.701084
583 0 2 -1.179400 2.961086 0.909030 13.074777
584 0 1 0.589700 2.149864 1.402079 13.178661
585 0 1 0.589700 3.047738 0.786489 12.132749
586 0 2 -1.179400 -3.093010 1.927621 11.448912
587 0 1 0.589700 -3.629568 2.421030 12.065652
588 0 1 0.589700 -2.903388 1.104721 11.897699
589 0 2 -1.179400 -5.601841 -0.243394 14.841492
590 0 1 0.589700 -5.073828 -1.040629 14.836106
591 0 1 0.589700 -6.479089 -0.541470 15.070774
592 0 2 -1.179400 -8.561674 -0.610600 15.033543
593 0 1 0.589700 8.803454 45.862988 15.206274
594 0 1 0.589700 -8.477138 -0.199608 15.890829
595 0 2 -1.179400 -5.945959 9.624148 9.158835
596 0 1 0.589700 -5.494591 10.208897 9.764375
597 0 1 0.589700 -5.548891 9.807130 8.310879
598 0 2 -1.179400 7.406960 2.218118 17.703161
599 0 1 0.589700 7.015693 1.811450 18.472975
600 0 1 0.589700 7.223222 3.151959 17.803438
601 0 2 -1.179400 4.403155 8.280507 17.378330
602 0 1 0.589700 4.152809 9.179006 17.591574
603 0 1 0.589700 4.133461 7.767851 18.137369
604 0 2 -1.179400 1.793477 3.673438 3.002233
605 0 1 0.589700 2.674249 3.414177 3.262739
606 0 1 0.589700 1.588627 3.108291 2.260135
607 0 2 -1.179400 3.986815 7.941123 3.083012
608 0 1 0.589700 4.715786 8.396545 3.498740
609 0 1 0.589700 4.399515 7.332607 2.473181
610 0 2 -1.179400 3.473169 7.238863 7.073356
611 0 1 0.589700 3.098850 8.119141 7.056716
612 0 1 0.589700 2.878292 6.713285 6.542434
613 0 2 -1.179400 4.808835 4.089037 17.054499
614 0 1 0.589700 4.514260 3.178690 17.044317
615 0 1 0.589700 5.530571 4.113374 16.431036
616 0 2 -1.179400 13.375553 11.378866 0.572583
617 0 1 0.589700 12.500030 11.179674 0.895730
618 0 1 0.589700 13.645535 10.585617 0.112048
619 0 2 -1.179400 11.730556 11.052444 4.149796
620 0 1 0.589700 12.644237 11.122519 3.883849
621 0 1 0.589700 11.512910 10.129820 4.018893
622 0 2 -1.179400 3.192883 1.735092 16.908836
623 0 1 0.589700 3.285061 0.901515 16.449177
624 0 1 0.589700 2.930514 1.490543 17.792946
625 0 2 -1.179400 -0.182164 -0.263187 8.274107
626 0 1 0.589700 0.090515 0.148931 9.090725
627 0 1 0.589700 -1.133682 -0.303980 8.332710
628 0 2 -1.179400 6.438571 -0.943183 8.553996
629 0 1 0.589700 7.219190 -0.658227 8.084682
630 0 1 0.589700 6.178951 -0.180413 9.068460
631 0 2 -1.179400 1.928968 9.510278 6.110310
632 0 1 0.589700 1.497775 8.947097 5.470740
633 0 1 0.589700 2.429394 10.132442 5.585751
634 0 2 -1.179400 7.799373 2.980680 4.526154
635 0 1 0.589700 8.113518 2.077564 4.491206
636 0 1 0.589700 8.469361 3.450347 5.018287
637 0 2 -1.179400 -4.949599 10.170276 12.784040
638 0 1 0.589700 -5.852244 9.885206 12.906236
639 0 1 0.589700 -4.461058 9.359851 12.645951
640 0 2 -1.179400 -1.839977 11.421903 11.014822
641 0 1 0.589700 -1.339616 12.174107 10.702188
642 0 1 0.589700 -2.751556 11.670286 10.880020
643 0 2 -1.179400 -2.908958 -0.543020 8.855883
644 0 1 0.589700 -3.540084 0.062090 9.240810
645 0 1 0.589700 -3.736911 46.102406 8.415301
646 0 2 -1.179400 8.270241 10.481503 12.500022