LAMMPS data file via write_data, version 30 Jul 2021, timestep = 750000

864 atoms
2 atom types
576 bonds
1 bond types
288 angles
1 angle types

0.3571218324973984 17.850450567502833 xlo xhi
1.512173616819231 22.117004183182736 ylo yhi
0.43568780150761377 21.77750799848898 zlo zhi

Masses

1 1.00794
2 15.9994

Pair Coeffs # lj/cut/tip4p/long/omp

1 0 0
2 0.21084 3.1668

Bond Coeffs # harmonic/omp

1 450 0.9572

Angle Coeffs # harmonic/omp

1 55 104.52

Atoms # full

770 1 1 0.5897 2.676765880934029 5.369539054290981 0.8118000538530963 4 -1 1
387 1 1 0.5897 1.5835005871367682 4.68649544234863 4.940072245552033 -3 1 1
386 1 1 0.5897 2.6032264139377825 3.5774504805462017 5.088451631396821 -3 1 1
409 1 2 -1.1794 1.093789698616053 2.2756636488378383 2.3227339754554848 4 3 -4
385 1 2 -1.1794 2.5254810921915927 4.5273505618521215 4.999829755825905 -3 1 1
812 1 1 0.5897 0.6605364140885119 5.5746936965208524 0.9330137775846953 -5 6 -3
230 1 1 0.5897 3.279001584803936 5.7639833406623415 3.7856404327588415 4 4 1
411 1 1 0.5897 1.6705641831515983 2.8895713317033875 1.8681579207938137 4 3 -4
487 1 2 -1.1794 3.6894782186387913 1.8777058466476964 5.162108290393183 1 -5 3
842 1 1 0.5897 3.8663126392963534 3.5232679881883295 1.4987906226881595 -2 3 1
841 1 2 -1.1794 3.168107344067968 3.661035216621372 0.8586964120273614 -2 3 1
231 1 1 0.5897 4.437601396964405 6.54656997309353 3.205075440228452 4 4 1
229 1 2 -1.1794 3.5021818161569387 6.610164557087929 3.3978770595801335 4 4 1
769 1 2 -1.1794 2.3245454927474105 6.258032335438271 0.7596480100517922 4 -1 1
771 1 1 0.5897 2.569882840370386 6.66266379728223 1.5916805552146807 4 -1 1
410 1 1 0.5897 1.007426060554964 1.5367051139196235 1.7205087106324746 4 3 -4
172 1 2 -1.1794 3.29745208735585 3.5472831448238553 10.699531707388003 2 2 -2
425 1 1 0.5897 1.2417306054472723 5.098143204877162 7.462740072274546 8 -3 1
173 1 1 0.5897 3.413257258307567 4.454529143683962 10.981839541222653 2 2 -2
522 1 1 0.5897 3.0944451747806845 2.412630656959585 8.136044078788487 -2 0 -3
174 1 1 0.5897 4.134059284443329 3.126011373109293 10.89655553518535 2 2 -2
424 1 2 -1.1794 0.8814160602424452 5.952368970254866 7.224619109276849 8 -3 1
560 1 1 0.5897 3.726043254797241 4.776549033633337 6.7961967840437065 4 1 2
589 1 2 -1.1794 1.7492032286036236 3.4680524063619886 8.162490793796106 3 5 2
559 1 2 -1.1794 4.4757642981718275 5.251749150352876 7.154493001981575 4 1 2
488 1 1 0.5897 3.7368817580046283 1.7468461704812273 6.1091143727598425 1 -5 3
591 1 1 0.5897 2.1781809192971893 3.9188132586557143 8.889806772472282 3 5 2
520 1 2 -1.1794 3.8540420539705824 1.8349657947166675 8.06184314854408 -2 0 -3
590 1 1 0.5897 1.032911507888562 2.9816616283083137 8.570590828934261 3 5 2
426 1 1 0.5897 1.0540269678599823 6.506332340733964 7.985900193195227 8 -4 1
232 1 2 -1.1794 2.396647600505215 6.458582987085803 9.870210109433161 -2 1 0
149 1 1 0.5897 0.6622375728291803 1.6877561376511596 10.63519090872095 -4 0 2
521 1 1 0.5897 4.604130071312347 2.428419538452093 8.024724220964462 -2 0 -3
278 1 1 0.5897 0.8380096394247193 4.844423444509449 10.676419797577399 1 1 1
683 1 1 0.5897 2.717502345421019 2.635396216964088 14.733396722175504 5 0 -5
281 1 1 0.5897 1.0663861485590425 5.548807748450666 13.19810360672599 -3 0 2
682 1 2 -1.1794 1.7604954031857605 2.627592876986431 14.716309444526718 5 0 -5
280 1 2 -1.1794 1.4468783968490608 4.7129643256444655 12.928324346761299 -3 0 2
282 1 1 0.5897 2.390914777560744 4.87079717368567 12.91933023989406 -3 0 2
210 1 1 0.5897 1.1382634202751651 4.446379815264671 15.689219634735272 1 -2 2
684 1 1 0.5897 1.5279982739084865 3.2369722405799086 14.015724205389 5 0 -5
88 1 2 -1.1794 3.917402436625279 6.328817671007077 15.00096814020987 7 -1 4
90 1 1 0.5897 3.4422408336766424 6.195746477485674 15.821157186633638 7 -1 4
611 1 1 0.5897 4.112988834496706 6.603731207025521 11.946861187967121 3 3 -1
610 1 2 -1.1794 4.064220492062054 5.719877657123604 12.311023177372451 3 3 -1
612 1 1 0.5897 4.124617535682594 5.8467569247305935 13.257831610993497 3 3 -1
148 1 2 -1.1794 1.2111463218203768 1.7164231348042285 11.418822476396395 -4 0 2
661 1 2 -1.1794 4.529131516523654 2.6837775237272172 15.162166573264736 -2 -3 0
208 1 2 -1.1794 0.8069493249554525 5.079863680293401 16.32572910021263 1 -2 2
150 1 1 0.5897 1.6488388541200985 2.566503240808126 11.374265917223086 -4 0 2
158 1 1 0.5897 1.2643049585461383 3.6614296331127782 20.04596541319279 2 3 -3
670 1 2 -1.1794 2.058954692671712 4.723401961801084 18.89546686820718 6 2 1
843 1 1 0.5897 3.347614094092657 3.02425319740833 21.50879840648649 -2 3 0
671 1 1 0.5897 1.6310212524988097 4.77279578844232 18.040696148389834 6 2 1
672 1 1 0.5897 2.936615285542083 4.391929190325988 18.705647404090534 6 2 1
369 1 1 0.5897 3.8237131856234 6.528690709439505 21.244585718735884 4 6 -3
344 1 1 0.5897 4.4630905597539385 3.0818915684225203 17.252356115313994 -1 1 -2
343 1 2 -1.1794 4.4605289304932265 3.7037796873935043 17.97998803456636 -1 1 -2
157 1 2 -1.1794 0.615290645661521 3.0810899838390977 20.443676655472245 2 3 -3
529 1 2 -1.1794 3.1098662192265394 10.130662401623947 5.2376841994594745 -3 -1 -5
826 1 2 -1.1794 1.8471996304791036 7.739964827425514 5.311825762363587 1 2 2
540 1 1 0.5897 1.6700986089585228 11.020272467498238 2.728112248710474 -2 -3 0
541 1 2 -1.1794 1.9879816330194888 9.924794510214442 1.4504755277114914 -5 1 3
542 1 1 0.5897 1.5771042771403088 10.225636624581588 0.6399989712992034 -5 1 3
543 1 1 0.5897 1.393414568991511 9.254067086936317 1.7863484661947413 -5 1 3
740 1 1 0.5897 3.77577047772281 9.592331914142685 1.039944515818136 -1 0 3
530 1 1 0.5897 2.524826606601007 9.383336364935845 5.361894310764981 -3 -1 -5
827 1 1 0.5897 2.4793239287404827 7.270981167684238 4.76707308066957 1 2 2
531 1 1 0.5897 2.5834675969031538 10.770473518941806 4.758318493763309 -3 -1 -5
538 1 2 -1.1794 1.7142222621151533 11.69534644810604 3.4052678659825055 -2 -3 0
739 1 2 -1.1794 4.718978213783807 9.433089004064513 1.005335486254614 -1 0 3
41 1 1 0.5897 4.395598912423668 9.588855507162657 4.223770997139837 0 0 4
776 1 1 0.5897 0.5822862063770534 8.09150656321691 3.859139227034769 4 -4 1
328 1 2 -1.1794 0.9614450476009148 9.01717473318157 8.173115479236033 3 5 0
329 1 1 0.5897 1.1144179157177931 9.958088365612173 8.259573318089814 3 5 0
112 1 2 -1.1794 3.641354360233807 7.905104250089288 8.056576977722493 -3 -2 2
114 1 1 0.5897 2.7825281416894247 8.236430907885453 7.794192633477261 -3 -2 2
461 1 1 0.5897 3.864780068900222 10.904541781361841 6.691228614537945 2 3 -1
330 1 1 0.5897 0.7432867791530551 8.727127249883438 9.058822499530823 3 5 0
192 1 1 0.5897 3.724706996572204 10.86896775223145 9.12655266042834 4 3 -5
113 1 1 0.5897 3.849970970631143 7.236151694356705 7.404518666943851 -3 -2 2
234 1 1 0.5897 1.7892543878051057 7.084783931243398 10.264110228839643 -2 1 0
233 1 1 0.5897 3.017197092266738 7.000328772366796 9.382728398761932 -2 1 0
190 1 2 -1.1794 3.7650402003985657 10.667619042246711 10.061455915034495 4 3 -5
191 1 1 0.5897 4.61958355079905 10.995944377323577 10.341011537594337 4 3 -5
145 1 2 -1.1794 0.9522767102350678 11.68877577367027 8.317169006975767 0 1 -4
460 1 2 -1.1794 4.313604961542463 11.256585226500444 7.4598957079244865 2 3 -1
828 1 1 0.5897 1.4370176134929749 7.058421684851953 5.844308548202869 1 2 2
751 1 2 -1.1794 0.6796936093957702 8.381261547914855 11.086895257474058 3 1 0
681 1 1 0.5897 2.0766091472254766 11.059769711748 10.912856572860223 -6 -5 0
696 1 1 0.5897 4.069972046288072 9.072124759975544 10.781849951807622 2 -2 0
465 1 1 0.5897 2.1519360660535494 10.374041897731846 16.05034485098544 6 2 -2
850 1 2 -1.1794 4.295782474480591 10.816600619678809 14.891460283813267 -6 0 -3
852 1 1 0.5897 3.9182447588913654 9.988844445520249 14.593999971135252 -6 0 -3
679 1 2 -1.1794 1.4672801448974298 11.029615800022762 11.65041907073967 -6 -5 0
784 1 2 -1.1794 2.536638536476986 8.513372640536312 14.015193715957041 5 5 3
680 1 1 0.5897 1.8636978339441748 11.595904524287931 12.312505717732446 -6 -5 0
785 1 1 0.5897 2.680270736299 8.680040397827133 13.0836447533058 5 5 3
786 1 1 0.5897 3.169715464520387 7.830657177166629 14.23723888219941 5 5 3
694 1 2 -1.1794 4.29546364823651 8.43978780504738 11.464119387161313 2 -2 0
752 1 1 0.5897 0.9063036978589164 9.279157942633955 11.329051989920057 3 1 0
602 1 1 0.5897 0.5872183333696991 7.746992379967865 14.020233725761607 3 4 -3
736 1 2 -1.1794 1.565281749868415 7.613799112325963 19.84285058696905 1 -1 -1
463 1 2 -1.1794 2.1698939792184047 10.184999450402227 16.98850749103064 6 2 -2
177 1 1 0.5897 2.236689179148665 10.797714961133895 19.47067204176978 -2 -3 5
368 1 1 0.5897 4.525138146553801 7.867988696205205 21.323975900644626 4 6 -2
175 1 2 -1.1794 1.4562532704580635 10.449104614271265 19.901472536579057 -2 -3 5
774 1 1 0.5897 2.016155167609125 7.229277367176773 18.091530388176714 1 -4 3
176 1 1 0.5897 1.4902191894719714 9.507290839411551 19.73406864746459 -2 -3 5
464 1 1 0.5897 1.964659371171071 9.252040940113057 17.049308252474532 6 2 -2
772 1 2 -1.1794 2.2996232777832972 7.295931092050983 17.179720511326636 1 -4 3
219 1 1 0.5897 3.846225378762125 7.657252865713678 17.95305676452751 5 -1 -2
737 1 1 0.5897 1.67865932131771 6.986975828284044 20.557292073481378 1 -1 -1
738 1 1 0.5897 0.6697164154808192 7.4698704663298345 19.53717754760965 1 -1 -1
617 1 1 0.5897 4.144136302724533 11.566894798077103 18.541200193991173 -1 2 0
773 1 1 0.5897 1.5882980180787007 6.898323245559598 16.67758130556188 1 -4 3
367 1 2 -1.1794 4.577264634110318 7.00997547769518 20.902855653221202 4 6 -2
433 1 2 -1.1794 4.136744607873014 12.811718202962423 2.667364758525003 1 3 -1
645 1 1 0.5897 2.522180241740724 14.886192469169966 4.054247310123158 3 -3 0
857 1 1 0.5897 0.8326658377399035 13.664319085590789 2.5405829214835007 0 0 -3
644 1 1 0.5897 2.917992191677121 16.020084766760476 4.975897600167915 3 -3 0
858 1 1 0.5897 1.4587764466290425 14.950867908746343 2.0459846949736127 0 0 -3
856 1 2 -1.1794 1.1687972511169242 14.507845757972408 2.8433910246888945 0 0 -3
643 1 2 -1.1794 3.0180566172062155 15.076412697745742 4.850563598381189 3 -3 0
434 1 1 0.5897 4.360822806199941 12.530558512837604 1.7802693041889173 1 3 -1
539 1 1 0.5897 2.492315561346828 12.206922962376805 3.1837593354723634 -2 -3 0
474 1 1 0.5897 1.7794144760090884 13.996191844587091 5.69986660931056 1 0 -2
106 1 2 -1.1794 2.0425390684537277 16.08502174436653 8.376843334046708 -1 0 3
82 1 2 -1.1794 2.23500329710125 13.637608842128458 9.854265096671524 -2 -2 -6
472 1 2 -1.1794 1.2650823372154836 13.556615553997652 6.3769557499317 1 0 -2
146 1 1 0.5897 1.019179988304752 12.291250355443093 7.5763880148916 0 1 -4
107 1 1 0.5897 1.8628900406856193 15.196748176274506 8.68488112672119 -1 0 3
83 1 1 0.5897 3.118985797117122 13.508384013634101 10.197912155540585 -2 -2 -6
84 1 1 0.5897 1.999824598262404 12.791829587378805 9.472768922648612 -2 -2 -6
108 1 1 0.5897 2.437154886823255 16.524925589114773 9.129807437841349 -1 0 3
555 1 1 0.5897 4.5349415599947855 13.12083659499743 6.667527135410856 -5 -6 3
666 1 1 0.5897 3.8876727553368258 15.75235923973327 8.230264661370455 2 1 3
816 1 1 0.5897 0.532372965992365 16.497664756053744 7.462672351785872 -3 7 -3
378 1 1 0.5897 1.355987473526432 14.413517175327026 11.048443333096882 2 4 4
554 1 1 0.5897 4.3966644153054135 14.370832879692665 5.8248017070783185 -5 -6 3
292 1 2 -1.1794 4.643000805318036 13.583653603283311 10.690271759986688 -2 0 2
473 1 1 0.5897 0.38830784904083115 13.931478625801184 6.293569189717591 1 0 -2
439 1 2 -1.1794 3.031002520594563 16.84557155261583 10.87301330525426 1 -1 -2
614 1 1 0.5897 3.6958731619229406 14.488357642243352 13.128703218942691 -6 1 3
613 1 2 -1.1794 4.005664966244247 15.379653290712685 13.28938830608397 -6 1 4
767 1 1 0.5897 3.6712549211980385 12.289172520069949 13.723802941931298 -1 -2 1
766 1 2 -1.1794 2.9523149672262368 12.807757784265366 13.362715433616032 -1 -2 1
615 1 1 0.5897 4.194183360662772 15.40271675288845 14.227533754109643 -6 1 4
768 1 1 0.5897 2.47211309081217 13.119179849717375 14.129926249222551 -1 -2 1
838 1 2 -1.1794 1.7912088614752388 14.115940155583635 15.496925603678102 -3 -3 -3
839 1 1 0.5897 1.006540286207616 14.36684437451694 15.009453052221813 -3 -3 -3
440 1 1 0.5897 3.240768525383463 16.080910315609188 11.409189593607742 1 -1 -2
840 1 1 0.5897 1.9855236776778942 14.875337450909726 16.0462396583627 -3 -3 -3
376 1 2 -1.1794 0.6462635598877566 14.80918996130897 11.554350561720215 2 4 4
819 1 1 0.5897 2.4251473349234947 16.947376537889443 16.30304275728504 3 -2 0
87 1 1 0.5897 0.43596071724018515 13.45984318663549 19.149647947577087 -1 5 1
379 1 2 -1.1794 4.252398791543145 14.634773017628008 18.299198089095533 8 3 0
381 1 1 0.5897 3.4518238234417455 15.040139609659533 17.96604033646473 8 3 0
380 1 1 0.5897 4.00901326518961 13.72410902379052 18.46547380492892 8 3 0
618 1 1 0.5897 4.076544188242775 12.039251560590301 19.977902796932575 -1 2 0
335 1 1 0.5897 1.7907900750539734 14.94141029776716 20.81231195303019 6 0 2
616 1 2 -1.1794 3.651892867492096 12.142664962032663 19.126333374884915 -1 2 0
818 1 1 0.5897 1.6438976592887293 16.668341780813318 17.569369474520784 3 -1 0
817 1 2 -1.1794 2.366315005052248 16.33558550739469 17.03683667560024 3 -1 0
862 1 2 -1.1794 0.6121286504345425 12.648842176967074 17.62221567688988 0 -1 2
803 1 1 0.5897 0.414954972304302 13.42892666544499 21.542970182243323 5 3 -2
864 1 1 0.5897 0.8099555717254585 13.210340072743866 16.872652661023857 0 -1 2
85 1 2 -1.1794 0.4006680887125472 14.192968497618182 19.764067771963447 -1 5 1
334 1 2 -1.1794 2.0714359003491736 15.605730174631208 21.441704580192003 6 0 2
863 1 1 0.5897 1.338609004731305 12.0264232992543 17.654116416850655 0 -1 2
336 1 1 0.5897 3.023878715177644 15.63510747788332 21.350932526481913 6 0 2
595 1 2 -1.1794 0.9098165746647981 20.653569162718313 0.5369348592533136 2 -4 2
548 1 1 0.5897 4.021690014948348 19.10783797491512 0.7296673041464103 5 -1 6
186 1 1 0.5897 2.131365843849114 18.13377248904927 4.003281826930346 1 5 4
584 1 1 0.5897 1.7927252175193171 18.02932863660282 1.920528235010789 2 -4 2
562 1 2 -1.1794 3.452773982705495 18.919566012071655 2.632700738710673 3 0 4
563 1 1 0.5897 3.015939742961656 19.607741522862277 3.134478691361416 3 0 4
564 1 1 0.5897 4.209815056963395 18.677439522875808 3.1660435260242905 3 0 4
184 1 2 -1.1794 1.8135647944120294 17.821608585305427 4.850495481850294 1 5 4
583 1 2 -1.1794 0.8632369478172544 18.073206954661387 1.69612095475317 2 -4 2
339 1 1 0.5897 1.2758457902184654 20.693312468389223 4.65584044671934 -2 0 3
337 1 2 -1.1794 1.995178155990897 20.815378717374003 4.036207410449419 -2 0 3
338 1 1 0.5897 1.6584315002101582 21.444843844962023 3.3985752709793853 -2 0 3
185 1 1 0.5897 2.4890665007182062 18.089272274178384 5.47361385657292 1 5 4
585 1 1 0.5897 0.7773276930938917 17.51944320254696 0.920122643868031 2 -4 2
596 1 1 0.5897 0.8784923240110214 19.71025796222309 0.6963505468641383 3 -4 2
489 1 1 0.5897 3.054222499875766 21.83265743599742 4.861555238657331 1 -6 3
727 1 2 -1.1794 4.1034674766581745 18.505171511562303 6.777447037365522 -1 1 0
333 1 1 0.5897 0.669643668263982 19.930995222933255 6.5708077984362845 -1 -2 -3
289 1 2 -1.1794 3.090740035962682 20.73243797569451 10.150014630214272 -7 -5 -6
729 1 1 0.5897 4.589588218236849 19.05476962448187 6.1627465863173985 -1 1 0
586 1 2 -1.1794 1.751844747968166 19.48333939067735 7.916566447306506 0 1 5
290 1 1 0.5897 3.506626222976152 21.33912044348297 9.537504244005554 -7 -5 -6
441 1 1 0.5897 3.8804959694368835 17.238546676153632 10.672698597720853 1 -1 -2
587 1 1 0.5897 2.126007646107527 20.14937326514567 8.493284706692478 0 1 5
291 1 1 0.5897 2.292119120729695 21.181295344674886 10.427372490612912 -7 -5 -6
588 1 1 0.5897 2.5047759825283964 18.971860172409187 7.620452362632419 0 1 5
620 1 1 0.5897 0.38087062793463894 18.730814219904993 8.95343628429062 1 -2 4
728 1 1 0.5897 4.618665933013634 17.70085389846288 6.839409886322554 -1 1 0
516 1 1 0.5897 3.3639481165034315 20.707152396502522 13.04180831090832 -4 -4 -1
13 1 2 -1.1794 1.2267485098001343 18.579970529266525 12.01352943827408 1 -4 -3
515 1 1 0.5897 1.9891107631375045 21.237849662927246 13.388234498152716 -4 -4 -1
14 1 1 0.5897 1.9312509124867918 18.07755270070006 11.604334453348422 1 -4 -3
126 1 1 0.5897 2.7868106908004364 18.807873575676204 14.778888245668554 0 0 2
514 1 2 -1.1794 2.5925755782437547 20.519088883220178 13.576427195633915 -4 -4 -1
124 1 2 -1.1794 2.8920410641026635 17.894344954724545 15.044576148391876 0 0 2
15 1 1 0.5897 1.6773349398239976 19.242511900249085 12.537170244866704 1 -4 -3
125 1 1 0.5897 2.9531834308536187 17.410415117513466 14.221009778611625 0 0 2
407 1 1 0.5897 4.162904203044053 20.83959527324793 11.339102779874514 -5 -2 3
288 1 1 0.5897 1.2657774877519379 21.991784593924848 15.935085503954237 3 0 1
287 1 1 0.5897 0.49948389959037265 20.73426310826951 16.286143466172604 3 0 1
286 1 2 -1.1794 1.2423924159104343 21.27025867360223 16.563613201982385 3 0 1
763 1 2 -1.1794 2.7990502163087485 18.103035016914887 19.326814177980523 -4 0 -4
499 1 2 -1.1794 3.9619305124115045 21.975015691472848 20.298355813465932 -1 -1 -3
500 1 1 0.5897 3.849178037919263 21.494333537028467 19.478339615457408 -1 -1 -3
704 1 1 0.5897 2.905891223684394 20.977766924004577 17.22037007523582 3 -2 -2
705 1 1 0.5897 3.7193726629849695 19.883033644271414 17.877328104026596 3 -2 -2
764 1 1 0.5897 3.413977652261295 18.313151584241957 20.02959733290936 -4 0 -4
765 1 1 0.5897 3.3519985543407484 17.79931819236959 18.606947127637504 -4 0 -4
703 1 2 -1.1794 3.7447419654523433 20.812675873241183 17.650796660347034 3 -2 -2
547 1 2 -1.1794 4.285502935160759 19.32823743991085 21.17816639654106 5 -1 5
549 1 1 0.5897 4.055808971181883 20.252377370305787 21.08119840274186 5 -1 5
66 1 1 0.5897 0.4514414327303748 21.46255447595967 18.12153008009051 4 -1 -4
639 1 1 0.5897 1.107979598916556 18.509476638677526 19.87726820785653 -6 0 2
597 1 1 0.5897 1.0254657061158587 20.733241700551545 20.931914952171674 2 -4 1
10 1 2 -1.1794 6.056524011778822 6.555574357221827 2.662352755328691 -3 0 5
215 1 1 0.5897 6.307556678345415 5.634178411470373 4.170992105900169 -1 1 2
12 1 1 0.5897 5.946243601113914 6.006032162026423 1.8864352541051401 -3 0 5
24 1 1 0.5897 8.335821633652216 3.630092124418522 3.0108986000196927 -4 3 2
216 1 1 0.5897 6.589896044145258 4.612671080313658 5.252016366009389 -1 1 2
22 1 2 -1.1794 7.715776011477096 3.1558898872736494 2.4569453499611758 -4 3 2
214 1 2 -1.1794 6.25210283346818 5.498005836090457 5.116814345736936 -1 1 2
853 1 2 -1.1794 6.945285853941778 2.8779849709203975 5.3205840768303325 -3 1 2
23 1 1 0.5897 8.11634361963478 3.163222252236073 1.587644764629737 -4 3 2
404 1 1 0.5897 6.05259661070903 3.300788946315602 2.792987521458113 6 -2 0
854 1 1 0.5897 7.868760460787576 3.049016100705744 5.135815049906134 -3 1 2
405 1 1 0.5897 4.890237459978271 2.837573997541505 3.645139573159503 6 -2 0
403 1 2 -1.1794 5.096853440483788 3.2501408471365183 2.80650952550308 6 -2 0
855 1 1 0.5897 6.913996514651712 2.7238705569813275 6.264762608614169 -3 1 2
413 1 1 0.5897 6.1443007584992975 4.346078352253672 9.784206170067804 1 -2 3
445 1 2 -1.1794 6.6821506989681385 2.6221779786984527 8.007035965796078 2 0 -1
36 1 1 0.5897 8.869993886976536 4.709555802689879 7.6564742213206625 -4 2 -1
34 1 2 -1.1794 8.530243078348658 5.591437372004433 7.8083161536669445 -4 2 -1
447 1 1 0.5897 7.319795877424423 2.9482059133176177 8.642107125115704 3 0 -1
561 1 1 0.5897 5.007680062673443 5.472413445846135 6.389896394900559 4 1 2
412 1 2 -1.1794 6.256608989482488 5.221258463648722 9.413180025767346 1 -2 3
141 1 1 0.5897 6.523325494202641 6.611639599065681 10.717951611026924 -2 -1 0
35 1 1 0.5897 7.666915287527778 5.452291396278634 8.197552562301148 -4 2 -1
414 1 1 0.5897 5.556308808722771 5.29893276922683 8.765306989832512 1 -2 3
235 1 2 -1.1794 8.564307145357681 3.120281505402013 10.045785369228222 0 -2 -4
237 1 1 0.5897 7.8883398251885435 2.809267516579493 10.647902352248943 0 -2 -4
236 1 1 0.5897 8.905325460926738 3.914362726513506 10.45730865832047 0 -2 -4
446 1 1 0.5897 6.517481202153233 1.718086408718406 8.2748048096029 2 0 -1
1 1 2 -1.1794 6.040989920620222 2.7297328118837223 11.017098227372175 1 -6 3
3 1 1 0.5897 6.007434771808505 3.3947801788052328 11.704683921279283 1 -6 3
372 1 1 0.5897 6.669481956404585 5.1527310781489115 14.108274999131712 3 7 -2
662 1 1 0.5897 5.18652170649437 3.107738006225545 14.610532778070914 -2 -3 0
432 1 1 0.5897 8.539522019682092 6.232775141292384 11.243095395411116 -6 -2 -2
2 1 1 0.5897 5.663898915912209 1.9480139488297779 11.420715990549915 1 -6 3
371 1 1 0.5897 7.5662292956703805 3.941066657625368 14.248062118133037 3 7 -2
370 1 2 -1.1794 6.729891858761608 4.2252877145425956 13.879326064216801 3 7 -2
663 1 1 0.5897 4.891258056202448 1.8164492867487947 15.343474600307752 -2 -3 0
89 1 1 0.5897 4.836253961673775 6.190585987858169 15.230781193968784 7 -1 4
640 1 2 -1.1794 6.840832435301749 3.4300986061962586 19.36801703716616 3 2 -5
642 1 1 0.5897 7.495512658432331 3.333535693235374 18.676446547405426 3 2 -5
128 1 1 0.5897 6.8068277840766935 1.8416404853461636 20.5051679800944 -1 1 -5
674 1 1 0.5897 7.583602579510939 6.365838688664475 20.179829519765576 -3 -2 -4
673 1 2 -1.1794 7.082431253024074 5.855679856668455 20.81605314162487 -3 -2 -4
641 1 1 0.5897 7.109841386112705 4.215009946316291 19.84523589915056 3 2 -5
577 1 2 -1.1794 8.833683318487603 3.136409890002605 17.368914410422292 1 1 -2
48 1 1 0.5897 5.576200119406476 4.983438595578004 17.3199233323336 3 -2 -1
46 1 2 -1.1794 6.081329165867181 5.767236786415737 17.10381270719042 3 -2 -1
675 1 1 0.5897 6.218267780925161 6.267152224068884 20.82632671746419 -3 -2 -4
143 1 1 0.5897 7.634920845142098 6.231925012600766 17.97340127514751 0 4 2
345 1 1 0.5897 5.230957445377831 3.4704064689603142 18.49784797280075 -1 1 -2
142 1 2 -1.1794 8.328483955730846 6.569866672859369 18.539959461267166 0 4 2
579 1 1 0.5897 9.048243519332683 3.450131169558155 16.490432108266845 1 1 -2
578 1 1 0.5897 8.665518677471335 2.2009971373225965 17.255269126227923 1 1 -2
47 1 1 0.5897 5.600746607969896 6.484141501317691 17.517680150844974 3 -2 -1
154 1 2 -1.1794 7.570673387645619 8.352162396743118 1.236227918897822 4 3 -4
206 1 1 0.5897 6.4281003094459495 8.531408951101557 4.7466186265605605 -5 4 -3
42 1 1 0.5897 5.6942456887459985 10.264261403912535 3.8374916907578474 0 0 4
11 1 1 0.5897 6.494454230045559 7.3427488855342125 2.338657822773751 -3 0 5
205 1 2 -1.1794 7.101288210476514 8.147421601489416 5.308372759267111 -5 4 -3
155 1 1 0.5897 8.194943721522325 7.65085662622317 1.0500443202200958 4 3 -4
207 1 1 0.5897 7.00610804833175 7.202918237554182 5.185723719642443 -5 4 -3
429 1 1 0.5897 8.901467498611954 9.763636767504055 1.8353652604941957 1 0 -2
40 1 2 -1.1794 5.151285555626717 9.500329003626987 3.642989097821733 0 0 4
706 1 2 -1.1794 9.010582485416855 11.463011639667055 4.601357859903391 -1 -2 -6
741 1 1 0.5897 4.966837382026836 9.261310050158002 1.9137844066992997 -1 0 3
366 1 1 0.5897 8.075857977853506 11.443611345138526 7.148495818838017 2 4 2
492 1 1 0.5897 7.598076051100023 9.12200999897119 8.915609163401955 0 4 3
546 1 1 0.5897 6.49381326177059 8.903509939745113 6.949581259742209 -3 4 4
271 1 2 -1.1794 6.28709304873033 11.447451540109618 10.95869190003768 -2 3 3
544 1 2 -1.1794 6.159088549893041 9.310119263238159 7.748857674514534 -3 4 4
545 1 1 0.5897 5.422421735923537 8.757096243549345 8.00906224158295 -3 4 4
140 1 1 0.5897 7.350030309706348 7.878221050649644 10.782454845233264 -2 -1 0
462 1 1 0.5897 4.975853402704746 10.599204275537625 7.6731228029120295 2 3 -1
490 1 2 -1.1794 8.093869723004083 8.817108885152642 9.675493735645974 0 4 3
272 1 1 0.5897 7.1586196497196655 11.662606070259164 10.626487648221477 -2 3 3
491 1 1 0.5897 8.783845284441012 8.265836968876826 9.306401038143328 0 4 3
260 1 1 0.5897 9.00137864129229 10.709135449208157 9.986576113257978 1 -2 6
54 1 1 0.5897 7.3964992259512075 10.416632835474521 13.674715228360576 -4 -1 3
745 1 2 -1.1794 6.609833609194135 7.325583929442464 14.07348846041794 3 3 -7
52 1 2 -1.1794 6.536117308640327 10.179591454214751 13.328656423580961 -4 -1 3
53 1 1 0.5897 6.545227038257984 9.222956456679247 13.297495463655117 -4 -1 3
746 1 1 0.5897 7.554911706020758 7.372658385869766 14.217856954387262 3 3 -7
695 1 1 0.5897 5.153786826696815 8.103955238034786 11.205866693378404 2 -2 0
273 1 1 0.5897 6.448940219869539 11.03200574429419 11.80568588619296 -2 3 3
747 1 1 0.5897 6.5144025770332465 7.278970897655503 13.122210167517459 3 3 -7
139 1 2 -1.1794 6.80573332715884 7.3014431420965975 11.318455728701872 -2 -1 0
851 1 1 0.5897 5.128700273190516 10.88206913188537 14.424374786395807 -6 0 -3
8 1 1 0.5897 4.80336265673336 10.632901169752392 16.769695699695546 3 -1 -1
7 1 2 -1.1794 5.292639266311651 10.600245019390222 17.59172905708065 3 -1 -1
217 1 2 -1.1794 4.735111748867273 7.920742963343973 18.191119873212195 5 -1 -2
247 1 2 -1.1794 7.864221381521735 11.326691600071703 16.729631869142622 -2 2 -4
144 1 1 0.5897 8.577834256225362 7.404166039698734 18.14248197719057 0 4 2
179 1 1 0.5897 7.326706277206928 10.127762413746531 19.11759930082053 -7 1 -1
178 1 2 -1.1794 7.418864816831126 10.044605352265775 20.06669650352022 -7 1 -1
9 1 1 0.5897 5.232320402170958 9.68663015952191 17.870775830052445 3 -1 -1
180 1 1 0.5897 7.478627129017314 10.946412265201873 20.38193777116117 -7 1 -1
248 1 1 0.5897 6.949839663812681 11.158247798598959 16.95706496070939 -2 2 -4
341 1 1 0.5897 8.633975681892624 9.764300158914072 17.103153901556055 2 4 2
111 1 1 0.5897 4.981625252572283 11.06411629011779 21.686500825124547 0 -1 -7
340 1 2 -1.1794 8.964185614550324 8.887329864580916 17.29827579774907 2 4 2
218 1 1 0.5897 4.796978842410686 7.736977644255659 19.12845451103817 5 -1 -2
156 1 1 0.5897 7.306217658751099 8.67317884978395 21.715954890978928 4 3 -5
831 1 1 0.5897 5.81423084119423 12.72913362075947 4.9407712230684275 4 3 4
805 1 2 -1.1794 8.184572950898815 14.984580156114756 2.1750024428108454 1 -2 -3
806 1 1 0.5897 7.284242591762705 15.02832130770014 2.497025326600409 1 -2 -3
435 1 1 0.5897 4.892862354001727 12.559367394392243 3.197283756217037 1 3 -1
308 1 1 0.5897 7.692499847998186 13.317421055371378 0.706363812396432 0 4 -1
525 1 1 0.5897 8.333943333053805 15.798653773160899 5.463662587920607 2 -1 2
469 1 2 -1.1794 5.466626559954493 15.153123483291317 2.2339679998900106 2 -4 3
524 1 1 0.5897 8.593239488604702 15.161084576958629 4.115305291067735 2 -1 2
830 1 1 0.5897 7.062759208092472 12.053856814618342 4.4144716226679765 4 3 4
807 1 1 0.5897 8.173186792107039 15.488669593513922 1.3613901764555882 1 -2 -3
829 1 2 -1.1794 6.108686846975452 12.046686922582783 4.3376469869483465 4 3 4
470 1 1 0.5897 5.174541201958124 15.364453419168017 1.3472606194426993 2 -4 3
722 1 1 0.5897 5.248928256316289 16.608954616709255 3.3864654877020794 1 0 0
309 1 1 0.5897 8.270021443304136 11.943896694297319 0.9741182944261793 0 4 -1
523 1 2 -1.1794 9.000596471516044 15.32545916447692 4.965762549561852 2 -1 2
471 1 1 0.5897 4.9692225742310585 14.370157862421973 2.470207816854852 2 -4 3
77 1 1 0.5897 7.699230381692767 13.297469681352846 8.981649450878209 -6 -5 -4
293 1 1 0.5897 5.0692793386628345 12.796753283889755 11.02978055265141 -2 0 2
76 1 2 -1.1794 7.6033316910665345 13.96215407544865 9.663718816502683 -6 -5 -4
664 1 2 -1.1794 4.811175326054309 15.922673028554211 8.044915518521154 2 1 3
364 1 2 -1.1794 7.591013236240182 12.23012346879674 7.3985385745628385 2 4 2
78 1 1 0.5897 7.7449571815367335 14.793262792635154 9.210496038324726 -6 -5 -4
553 1 2 -1.1794 5.040775466538633 13.845098323102714 6.299053582383722 -5 -6 3
294 1 1 0.5897 5.299797210157188 13.986253775621536 10.122181112418223 -2 0 2
161 1 1 0.5897 7.655770725010042 16.439222960081377 7.8297918254463275 2 7 1
665 1 1 0.5897 5.1058640237403825 15.14965400353013 7.563439471575632 2 1 3
365 1 1 0.5897 6.70485779716055 12.080685150418626 7.069000494028488 2 4 2
160 1 2 -1.1794 8.16871219136748 16.35400765180341 8.633420118371147 2 7 1
162 1 1 0.5897 9.079604648816739 16.376174353691237 8.340199175241786 2 7 1
228 1 1 0.5897 7.027262601645625 16.16381901041986 12.567706874310197 2 -2 0
483 1 1 0.5897 6.956781535032335 12.542524959060064 15.54840450993603 0 3 -1
227 1 1 0.5897 5.578113310501528 16.445584601025047 12.902996338960982 2 -2 0
193 1 2 -1.1794 7.609953081235284 14.32702707101952 12.542162488721361 2 -4 0
482 1 1 0.5897 6.8909538591165225 13.495100527113912 14.373641983604047 0 3 -1
391 1 2 -1.1794 5.162233952274503 15.31839614034702 15.763359481104693 4 -3 -1
481 1 2 -1.1794 6.347306452404075 13.081451781943814 15.044116061210795 0 3 -1
194 1 1 0.5897 8.559965286211241 14.219235915656146 12.587427711008921 2 -4 0
393 1 1 0.5897 5.581979879996807 14.481153463133998 15.56575158169694 4 -3 -1
195 1 1 0.5897 7.411735833796892 14.317805418627364 11.605775330133863 2 -4 0
226 1 2 -1.1794 6.369932268626857 16.85955159985864 12.559664728008805 2 -2 0
168 1 1 0.5897 8.246342551958366 16.100003937994636 15.942244257730476 -2 0 3
249 1 1 0.5897 8.086756162920924 12.12622357894084 17.206549925389034 -2 2 -4
6 1 1 0.5897 8.167318439009616 15.168977111398252 19.750229431965508 1 -1 -1
712 1 2 -1.1794 5.029276565299474 15.654089897545697 20.89953928086961 -5 -1 3
791 1 1 0.5897 8.451992006814393 14.571538493721514 17.585110017855314 2 4 -1
166 1 2 -1.1794 7.717903532593172 16.24888649100849 16.726331019335454 -2 0 3
714 1 1 0.5897 5.722274702684481 16.300822172390955 20.766463241207674 -5 -1 3
4 1 2 -1.1794 8.43306778244123 15.369722306544938 20.64760608751257 1 -1 -1
713 1 1 0.5897 4.8208013053844905 15.341159794546167 20.019297026081453 -5 -1 3
167 1 1 0.5897 6.872835285789071 15.846378746836528 16.52617511217877 -2 0 3
110 1 1 0.5897 6.068835639260216 12.11687159472884 21.647788594088865 0 -1 -7
392 1 1 0.5897 4.741720629803649 15.181566840852035 16.612276764415164 4 -3 -1
109 1 2 -1.1794 5.136862967467931 11.984480766304495 21.47429186993486 0 -1 -7