LAMMPS data file via write_data, version 30 Jul 2021, timestep = 7250000

1920 atoms
2 atom types
1280 bonds
1 bond types
640 angles
1 angle types

-0.03941478372677665 24.769415783727574 xlo xhi
-0.0898678391919745 24.819868839186654 ylo yhi
-0.07517995559183888 22.885179955594076 zlo zhi

Masses

1 1.008
2 15.999

Pair Coeffs # lj/cut/tip4p/long/omp

1 0 0
2 0.21084 3.1668

Bond Coeffs # harmonic/omp

1 450 0.9572

Angle Coeffs # harmonic/omp

1 55 104.52

Atoms # full

1 1 2 -1.1794 4.343964963519727 1.6156723579352623 4.214689666830144 0 0 0
2 1 1 0.5897 4.523301689766222 2.3343731432173596 4.820957862566643 0 0 0
3 1 1 0.5897 5.051232385876276 1.6621665977347004 3.5713928339152226 0 0 0
4 2 2 -1.1794 2.878747758543892 1.5746237713084592 1.8147352368094292 0 0 0
5 2 1 0.5897 3.147766251209476 1.7287921554705585 2.720352888201613 0 0 0
6 2 1 0.5897 1.9286697025430644 1.6904810609349739 1.8236091024771803 0 0 0
10 4 2 -1.1794 3.308939142531756 4.7447689120620185 3.530294154129101 0 0 0
11 4 1 0.5897 2.7773478987240345 5.4761392176120856 3.8444932134849004 0 0 0
12 4 1 0.5897 2.891297047994498 4.479040472107715 2.711005624197368 0 0 0
13 5 2 -1.1794 1.499151071465828 3.183055627017341 5.091943997729922 0 0 0
14 5 1 0.5897 2.2786729960145826 3.5074428403077498 4.641044011995151 0 0 0
15 5 1 0.5897 1.7365706522604887 2.300709625452571 5.377131424969448 0 0 0
22 8 2 -1.1794 1.5717062734477762 4.750631261214768 1.3905475936988456 0 0 0
24 8 1 0.5897 1.5222368414937086 5.4675676182696975 0.7582402604877285 0 0 0
23 8 1 0.5897 0.8456675185427541 4.911580856738269 1.9931931300470351 0 0 0
20 7 1 0.5897 3.909267631725918 2.851986224082952 1.1173107223588992 0 0 0
9 3 1 0.5897 5.074382174644949 4.746920571463951 3.582625196402068 0 0 0
21 7 1 0.5897 5.421244126631227 2.798251615496172 1.1697210442316073 0 0 0
19 7 2 -1.1794 4.694179462357663 3.204207667209261 0.6977274629343808 0 0 0
27 9 1 0.5897 4.748991304064457 5.12942195629046 0.45811671131526577 0 0 0
7 3 2 -1.1794 6.005506403771761 4.611559834852169 3.7582495210759173 0 0 0
150 50 1 0.5897 1.6371105716052152 6.09751094185948 5.597611502317654 0 0 0
387 129 1 0.5897 4.148097810204053 0.019443896425192023 1.2166351233582633 0 1 0
28 10 2 -1.1794 1.545814008064494 0.21018406883029217 4.923260488327401 0 0 0
99 33 1 0.5897 0.11726339104607192 3.899354241366339 3.8680288885238996 1 0 0
16 6 2 -1.1794 0.20127902055704938 1.5464884191551074 1.880691935887567 0 0 0
25 9 2 -1.1794 4.531288802093325 6.046131180091843 0.6269182168854647 0 0 0
98 33 1 0.5897 0.15206177581828065 5.406184139845362 4.0099372451801925 1 0 0
47 16 1 0.5897 5.9646141731424125 0.8048330196097666 1.6864483898371287 0 0 0
867 289 1 0.5897 4.604586664637916 0.16445182293569888 5.534518288410186 0 1 0
1455 485 1 0.5897 1.7299065713818045 3.3993881283548832 -0.011050362926035395 0 0 1
29 10 1 0.5897 2.311137289979537 -0.015739342201474216 4.3946419293623595 0 0 0
579 193 1 0.5897 0.21356072525644476 5.087789502103522 9.826464345674989 1 0 0
487 163 2 -1.1794 5.8826800211572845 4.885254129321024 9.108529808949557 0 0 0
527 176 1 0.5897 5.763217119776106 0.8649544755020824 7.29720367217202 0 0 0
578 193 1 0.5897 0.11126054701678065 3.5929192367428238 9.610162629131008 1 0 0
508 170 2 -1.1794 1.0136825282386204 0.20269861232921177 10.463330274223756 0 0 0
629 210 1 0.5897 2.438900824515065 5.697128258593536 10.405683097133275 0 0 0
528 176 1 0.5897 5.810003922934146 2.377742249767878 7.262576784221546 0 0 0
493 165 2 -1.1794 1.5292257113580963 2.7613082513566813 10.609834165759503 0 0 0
502 168 2 -1.1794 1.446201161248829 4.887136672980716 7.1724710644076 0 0 0
500 167 1 0.5897 4.249190310486355 3.2486358209711135 6.889473816025748 0 0 0
503 168 1 0.5897 0.724427989012104 4.835964722253676 7.799078671815112 0 0 0
483 161 1 0.5897 4.1243116833417135 1.94507338782816 10.505921594353437 0 0 0
504 168 1 0.5897 1.3803267688256973 4.0788611976964315 6.663938311804627 0 0 0
481 161 2 -1.1794 4.2780985405835175 1.1738039435389755 9.96026495554777 0 0 0
485 162 1 0.5897 3.305336235410354 1.632503814639166 8.597952141379386 0 0 0
490 164 2 -1.1794 3.205190152909928 4.5108529193543685 9.218539469564858 0 0 0
482 161 1 0.5897 5.163471901768179 1.2950868187605464 9.617372518747407 0 0 0
484 162 2 -1.1794 3.0146484365884354 1.7683170896006328 7.696098546541513 0 0 0
486 162 1 0.5897 3.3431861986567473 1.0053317850286203 7.220537942659115 0 0 0
494 165 1 0.5897 1.2603045482108637 1.8429196933599898 10.631413297028194 0 0 0
489 163 1 0.5897 4.977246511425413 4.590583600338104 9.206085177272461 0 0 0
499 167 2 -1.1794 4.967579356726359 3.5213676063470554 6.3187358306567445 0 0 0
492 164 1 0.5897 2.675635530761503 3.9213637437903097 9.75548411268885 0 0 0
491 164 1 0.5897 2.731157940313425 4.570982119070787 8.389119880631387 0 0 0
501 167 1 0.5897 4.711502985862276 4.390121327415329 6.009015093305721 0 0 0
498 166 1 0.5897 1.0404715708266485 1.5778417942308687 7.713483131682713 0 0 0
628 210 2 -1.1794 1.5795615913578311 5.9907555137997095 10.708165831397661 0 0 0
505 169 2 -1.1794 4.248981754819764 6.053760265382067 6.051960397465906 0 0 0
496 166 2 -1.1794 0.08836354751472775 1.5705679468930924 7.615548161998189 0 0 0
510 170 1 0.5897 1.7135160673364813 -0.051818145329981746 9.861941870417672 0 0 0
961 321 2 -1.1794 4.097643498772988 1.543451711307627 15.712129879014476 0 0 0
962 321 1 0.5897 4.844693239367383 1.7257287700260884 15.142132672173481 0 0 0
963 321 1 0.5897 4.2916008062494475 0.6882727249744611 16.095923984997743 0 0 0
964 322 2 -1.1794 2.862826193451914 1.3894986294175318 13.355791326439173 0 0 0
965 322 1 0.5897 3.0949208038414717 1.580941616078881 14.264509458573109 0 0 0
966 322 1 0.5897 1.9214499462712586 1.2180288915064224 13.379578854956849 0 0 0
970 324 2 -1.1794 3.238115688384075 4.514047545170914 14.905434124371524 0 0 0
971 324 1 0.5897 4.194451968542558 4.480581176797632 14.92673591019058 0 0 0
972 324 1 0.5897 2.960242537727709 3.686022988251495 15.297095050679804 0 0 0
973 325 2 -1.1794 1.293435325130585 2.84001789162104 16.546885775766146 0 0 0
975 325 1 0.5897 0.6186495014088385 3.4426967064701333 16.234412357632152 0 0 0
982 328 2 -1.1794 1.3510965668679267 4.317772115926194 12.85456492232914 0 0 0
983 328 1 0.5897 1.4205896975822672 5.0161879417184325 12.203685365338686 0 0 0
984 328 1 0.5897 1.979857708049023 4.559878268659654 13.534471319456708 0 0 0
980 327 1 0.5897 3.7388551192074195 3.129020793297028 12.194739742972468 0 0 0
981 327 1 0.5897 5.229647645102287 2.937572396688242 12.375250016554068 0 0 0
979 327 2 -1.1794 4.578532420159921 3.2702005142410635 11.757484574578285 0 0 0
990 330 1 0.5897 1.1915983339606577 1.051743636402424 16.28266308280036 0 0 0
986 329 1 0.5897 4.571602898316119 5.070401318406435 11.847950597885175 0 0 0
967 323 2 -1.1794 5.926951856495344 4.622610617833309 14.798922104454627 0 0 0
495 165 1 0.5897 1.4348228318968697 3.060332149527772 11.5142465414396 0 0 0
1110 370 1 0.5897 2.2780932756521106 5.541269961925353 16.080035934316733 0 0 0
1460 487 1 0.5897 4.620791251379369 2.6149489501110126 17.007119025789088 0 0 0
988 330 2 -1.1794 1.3766349485374445 0.11812688462178961 16.18089313376197 0 0 0
1109 370 1 0.5897 0.7771561558109936 5.571955271149713 16.27481346501055 0 0 0
1346 449 1 0.5897 3.83216113263861 -0.020782888553305526 12.694503329461952 0 1 0
1008 336 1 0.5897 5.6407658024859035 0.9537264455863506 12.996444302299137 0 0 0
1058 353 1 0.5897 0.1107674682627291 4.424086692859596 14.237352763338183 1 0 0
985 329 2 -1.1794 4.637330741035861 6.023452373043124 11.908029207405523 0 0 0
1006 336 2 -1.1794 5.968613622018747 1.6000041453743974 13.621824668887987 0 0 0
976 326 2 -1.1794 0.08902804559112454 1.4640258160867488 13.440607211900538 0 0 0
1108 370 2 -1.1794 1.5865515297429926 5.99410796530593 16.562649731892247 0 0 0
386 129 1 0.5897 4.873999506092372 0.06304719654333932 22.84916418474357 0 1 -1
1539 513 1 0.5897 0.09928944367019069 5.264546752613849 21.28546141587807 1 0 0
1456 486 2 -1.1794 0.36710204612553704 1.7064525673041102 19.387368917973326 0 0 0
1446 482 1 0.5897 3.587988488373006 2.056532717992803 18.868419095373042 0 0 0
1465 489 2 -1.1794 4.2668822628105785 5.738053058439961 17.7685318401705 0 0 0
1464 488 1 0.5897 1.057933461803771 4.614512698413026 19.34813140961283 0 0 0
1826 609 1 0.5897 3.867284379728572 0.15991761619288164 18.16793704272411 0 1 0
1538 513 1 0.5897 0.2426283230349593 3.763020131302427 21.156028345255255 1 0 0
1451 484 1 0.5897 4.230688087887661 4.855851286659499 20.818959516338623 0 0 0
1444 482 2 -1.1794 3.1608455469334347 1.314465986266335 19.296344040322744 0 0 0
1453 485 2 -1.1794 1.8257182412215427 2.9163002854066447 22.12850206091803 0 0 0
1469 490 1 0.5897 1.8371371835111516 0.8319701631057449 22.138733658019913 0 0 0
974 325 1 0.5897 1.674624906523238 3.2797184928541827 17.306897265712546 0 0 0
1454 485 1 0.5897 2.4828068667993635 3.4080216351022328 21.63590361107567 0 0 0
1442 481 1 0.5897 4.15024080320131 1.2595010538868388 20.791594313103285 0 0 0
1443 481 1 0.5897 4.374700976908972 2.087458693451065 22.03903097865646 0 0 0
1441 481 2 -1.1794 4.7310942309181785 1.347580328597816 21.54730061910254 0 0 0
1466 489 1 0.5897 4.30124146606047 4.782144927890045 17.80439016524399 0 0 0
1462 488 2 -1.1794 1.8008293317256414 4.392767597713927 18.786757329350554 0 0 0
1461 487 1 0.5897 5.5494108113229155 2.83700601517143 18.181971162427462 0 0 0
1450 484 2 -1.1794 3.2793384668010956 4.820043175267154 20.917968534671786 0 0 0
1445 482 1 0.5897 2.22630776218121 1.5160349742353392 19.249799423729677 0 0 0
1452 484 1 0.5897 2.956826964703546 4.57570247348633 20.050466799731026 0 0 0
1463 488 1 0.5897 1.7743277060187197 5.043600260561429 18.08534532440557 0 0 0
1459 487 2 -1.1794 4.8011408802803155 3.2214592997427123 17.725372978152556 0 0 0
1487 496 1 0.5897 6.113867758216265 1.3963250403654905 20.32677388773661 0 0 0
1488 496 1 0.5897 5.733518779345541 0.8548095636061668 18.96511620660826 0 0 0
1458 486 1 0.5897 -0.013618385824539558 1.1289392149431094 18.72571822752744 0 0 0
1467 489 1 0.5897 5.139524213520875 6.02001680633435 18.042690987726658 0 0 0
1590 530 1 0.5897 2.21449080767522 5.966889554466168 21.667897500522134 0 0 0
121 41 2 -1.1794 4.337304430178065 7.600110845895427 3.8693011268305475 0 0 0
122 41 1 0.5897 3.620553327289206 7.899737994117872 3.3101081825291807 0 0 0
123 41 1 0.5897 5.10497858489326 7.603052499203326 3.297573595434467 0 0 0
124 42 2 -1.1794 2.7885212175021143 7.9515763235216355 1.6817926852391345 0 0 0
125 42 1 0.5897 3.291254062897712 7.175041193399596 1.4358936040819148 0 0 0
126 42 1 0.5897 3.2905453608643347 8.684973439642388 1.326385148096647 0 0 0
129 43 1 0.5897 5.168366102186342 11.051554533068645 3.705034798569875 0 0 0
130 44 2 -1.1794 3.3656228218270265 11.0370217724066 3.49187589015862 0 0 0
132 44 1 0.5897 2.9877296906381168 10.261995549604972 3.9075233242510836 0 0 0
133 45 2 -1.1794 1.7490727799181827 9.144723708893812 4.540486961095235 0 0 0
135 45 1 0.5897 1.0385229533404206 9.55545124591075 4.047914486997879 0 0 0
137 46 1 0.5897 0.9685098066940867 7.87662334015742 1.8667678299767825 0 0 0
139 47 2 -1.1794 4.558976602201854 9.668632863908607 0.5810188974681405 0 0 0
142 48 2 -1.1794 1.5169517005322846 11.026448833779233 1.1835276788708893 0 0 0
143 48 1 0.5897 2.320827920955469 11.324561345948565 1.609112551195352 0 0 0
144 48 1 0.5897 1.4144011351603625 11.60795505344629 0.4301289945096045 0 0 0
149 50 1 0.5897 1.4105075532301246 7.410323250774093 4.878516386463675 0 0 0
131 44 1 0.5897 2.944648269247969 11.775073443636092 3.932655968862803 0 0 0
140 47 1 0.5897 4.625802818233308 10.622882477397303 0.6151968732372936 0 0 0
134 45 1 0.5897 1.7573811852618237 9.605738833081361 5.379345130202095 0 0 0
621 207 1 0.5897 4.487226254335019 9.009368472787317 5.552796369970541 0 0 0
507 169 1 0.5897 4.220900897882011 6.622634686321545 5.282633350152967 0 0 0
148 50 2 -1.1794 1.2994172882390798 6.464645477345937 4.780638725592146 0 0 0
218 73 1 0.5897 0.2038351941216132 11.164203764970761 2.5958954571001396 1 0 0
26 9 1 0.5897 5.306009227696848 6.400330666860204 1.0634375188417449 0 0 0
136 46 2 -1.1794 0.020902876122589995 8.007937708927752 1.8359847148535016 0 0 0
168 56 1 0.5897 6.02639214793896 8.378533123935576 1.4462763714666156 0 0 0
145 49 2 -1.1794 4.655779940286164 12.278598371476967 0.6875371060768375 0 0 0
127 43 2 -1.1794 6.113970317118868 10.949153805605757 3.5977891635791646 0 0 0
270 90 1 0.5897 1.0534048683787003 12.180257292759297 4.449041847348315 0 0 0
616 206 2 -1.1794 0.22654354024316808 7.693947256468431 7.578906331787941 0 0 0
625 209 2 -1.1794 4.424380936303125 12.151502700203311 6.4516930012566505 0 0 0
647 216 1 0.5897 5.802222129241677 7.30068489829434 8.338290046103575 0 0 0
698 233 1 0.5897 0.42758105753164166 11.24152093295625 9.580552096538147 1 0 0
611 204 1 0.5897 3.8157781467733978 10.819510074664079 9.126127132688355 0 0 0
748 250 2 -1.1794 1.447093379152094 12.255425402733952 10.631082940001882 0 0 0
602 201 1 0.5897 4.954297652280476 6.972442801004717 10.528665482903719 0 0 0
620 207 1 0.5897 4.958247982563705 8.689094516245053 6.955500382282667 0 0 0
604 202 2 -1.1794 2.949844087797848 7.604169770813463 7.909958173082933 0 0 0
630 210 1 0.5897 1.5733133950648817 6.932298939449728 10.535864277832252 0 0 0
623 208 1 0.5897 1.8968800737835259 10.769168332898271 7.652320937604229 0 0 0
619 207 2 -1.1794 4.453200797815421 9.329379581056392 6.454307994104865 0 0 0
1101 367 1 0.5897 4.566572385383849 9.06500317468277 10.996824444109816 0 0 0
622 208 2 -1.1794 1.338195691392031 10.654935852773898 6.883511732838249 0 0 0
648 216 1 0.5897 5.870110783125816 6.812534839008246 6.906808868748044 0 0 0
615 205 1 0.5897 0.692048784975266 8.897712327913215 10.23156205281133 0 0 0
606 202 1 0.5897 2.0083766986754723 7.637418079149771 7.740573843822926 0 0 0
603 201 1 0.5897 4.243211278415012 7.25938351358313 9.223296299096392 0 0 0
607 203 2 -1.1794 5.448261227339854 10.89460463560177 9.1696098587212 0 0 0
699 233 1 0.5897 0.2733319574577835 10.652542827233829 8.194426932945374 1 0 0
610 204 2 -1.1794 2.8684219913476494 10.690338736035562 9.081548463045204 0 0 0
612 204 1 0.5897 2.5044495091284813 11.398092379596486 9.613382453683803 0 0 0
614 205 1 0.5897 2.1925182457491013 9.010017170335946 10.065211131891488 0 0 0
601 201 2 -1.1794 4.917847094242829 7.6027079995222575 9.809143071441504 0 0 0
613 205 2 -1.1794 1.5199542919081486 8.630659645129011 10.630858389269603 0 0 0
626 209 1 0.5897 4.513938950101058 11.198515205423856 6.4561565224066655 0 0 0
605 202 1 0.5897 3.2966634826852195 8.392970614738433 7.4931231213797345 0 0 0
624 208 1 0.5897 1.4353812480344361 11.471025634069031 6.3927979101516526 0 0 0
506 169 1 0.5897 3.678835983713602 6.483742727712366 6.689360146744569 0 0 0
609 203 1 0.5897 5.953319440297235 10.136847974748717 9.464454093598459 0 0 0
608 203 1 0.5897 5.868333940390391 11.64281296920121 9.59381494656219 0 0 0
1081 361 2 -1.1794 4.5204806367487675 7.742245271027809 15.73072246721376 0 0 0
1082 361 1 0.5897 4.70470204697046 8.468224716477465 16.326770044731617 0 0 0
1083 361 1 0.5897 4.230999797203374 7.030568274755032 16.301657309801605 0 0 0
1084 362 2 -1.1794 2.8450639407072758 7.5596679028860745 13.400961428241809 0 0 0
1085 362 1 0.5897 3.027250726297865 7.708658214392892 14.328807962253993 0 0 0
1086 362 1 0.5897 3.2683726861914546 8.291829447342312 12.952654625039349 0 0 0
1089 363 1 0.5897 5.072053792200113 10.70501226110673 15.134611852587497 0 0 0
1090 364 2 -1.1794 3.1757906001469536 10.55729772920466 14.819935747166815 0 0 0
1091 364 1 0.5897 2.739833092330409 11.380098498974217 15.041658742489853 0 0 0
1092 364 1 0.5897 2.833217577839047 9.926069741718273 15.452740962061789 0 0 0
1095 365 1 0.5897 0.7844897624090388 9.247894539885793 15.936466890283132 0 0 0
1097 366 1 0.5897 0.9998061927983404 7.663353585764536 13.312640537622858 0 0 0
1099 367 2 -1.1794 4.60004894149724 9.458054760002055 11.86899385969361 0 0 0
1102 368 2 -1.1794 1.3621264961479094 10.367296734647079 12.719988608137092 0 0 0
1104 368 1 0.5897 2.1875185604332903 10.388625618062035 13.204212511169002 0 0 0
1093 365 2 -1.1794 1.5331855488315862 8.825699236249793 16.35765378173521 0 0 0
1103 368 1 0.5897 1.47841114343118 9.666729227152867 12.078161153279641 0 0 0
1100 367 1 0.5897 5.2629249297051635 8.949540281256333 12.336138066162228 0 0 0
1094 365 1 0.5897 1.2722929090580648 7.909199624158822 16.448156599643642 0 0 0
1107 369 1 0.5897 4.414915460524567 11.160645888604412 12.104653070545591 0 0 0
750 250 1 0.5897 1.4830153137794688 11.724597684686211 11.426825826696403 0 0 0
1127 376 1 0.5897 5.727880476608502 7.701022623149067 14.378866681147246 0 0 0
987 329 1 0.5897 3.8444171281645505 6.289837917234952 12.37334185360109 0 0 0
1087 363 2 -1.1794 6.018797338002669 10.63957793282161 15.009904899959478 0 0 0
1178 393 1 0.5897 0.3609449043849789 11.304590081432902 15.50369371857819 1 0 0
1179 393 1 0.5897 0.2520958063587347 10.50974005386269 14.219803563143815 1 0 0
1128 376 1 0.5897 5.792172732192578 7.0053536858545025 13.035758954372085 0 0 0
1096 366 2 -1.1794 0.05719607904600474 7.576907698707459 13.170622025524683 0 0 0
1105 369 2 -1.1794 4.254678614243328 12.093928133519599 12.244426709928778 0 0 0
1585 529 2 -1.1794 4.482650786822903 12.225542253278368 17.906215015848627 0 0 0
1608 536 1 0.5897 5.879829138940097 7.534582665119975 19.894027703734757 0 0 0
1710 570 1 0.5897 2.1183722542505308 12.258888957964096 21.39178482313005 0 0 0
1588 530 2 -1.1794 1.4925688690152508 6.279947486619098 22.212900502675485 0 0 0
1576 526 2 -1.1794 0.18945082524730308 7.55572264158203 19.242540986346985 0 0 0
1709 570 1 0.5897 0.6177949387064713 12.076649533555353 21.309634443685596 0 0 0
141 47 1 0.5897 4.772515636635098 9.44539806611318 22.635368385183195 0 0 -1
1580 527 1 0.5897 3.919564139075496 9.118997775846381 18.271514389951804 0 0 0
1581 527 1 0.5897 5.41404604355229 8.910240457460295 18.392506597969117 0 0 0
1570 524 2 -1.1794 3.348909033760539 10.959757349427031 20.814479121284222 0 0 0
1575 525 1 0.5897 2.1397957023001277 9.35329710952108 21.41969815039849 0 0 0
1582 528 2 -1.1794 1.7167173809446388 10.443839845090428 18.60731271192714 0 0 0
1563 521 1 0.5897 4.007733863275907 7.741859623555551 20.810004138850044 0 0 0
1573 525 2 -1.1794 1.3963366876214673 9.1160233809875 21.973930421729353 0 0 0
1589 530 1 0.5897 1.5873608734374411 7.232441555796733 22.21284192791891 0 0 0
1579 527 2 -1.1794 4.760026524529589 9.497360511906917 18.013363735851502 0 0 0
1561 521 2 -1.1794 4.720535625048002 7.849192894060816 21.43977378089034 0 0 0
1562 521 1 0.5897 4.486816200856682 7.272785002141208 22.167374709583584 0 0 0
1571 524 1 0.5897 2.960211295382536 10.854135037059438 19.94613107914064 0 0 0
1587 529 1 0.5897 4.6538933661970106 11.284051674309705 17.883758134100077 0 0 0
1584 528 1 0.5897 1.5561784697807417 9.757819003376975 17.9593475656611 0 0 0
1564 522 2 -1.1794 2.924236424806211 7.79016645346054 19.369002281598643 0 0 0
1583 528 1 0.5897 0.868105480027263 10.579124145274102 19.02890240866473 0 0 0
1566 522 1 0.5897 3.0760938655359427 7.05692714427247 18.77272133726027 0 0 0
1572 524 1 0.5897 4.29307118518955 10.932432133612858 20.659661174132804 0 0 0
1565 522 1 0.5897 1.9725592517345802 7.829599053079079 19.463378172410067 0 0 0
1567 523 2 -1.1794 5.98986604049632 10.8796221414442 20.52284752394619 0 0 0
1230 410 1 0.5897 1.8447226087123594 12.0239774441508 17.336969497737524 0 0 0
1574 525 1 0.5897 1.5496554132092546 9.584267888907913 22.79461079432416 0 0 0
241 81 2 -1.1794 4.499046739836465 13.958589890364632 4.363878506803352 0 0 0
242 81 1 0.5897 4.370647215024657 13.157239085896721 4.871422260243743 0 0 0
243 81 1 0.5897 3.7418990563596086 13.996485564598004 3.7794985508797247 0 0 0
244 82 2 -1.1794 2.7718540748451286 14.0060644139065 2.143164689145828 0 0 0
245 82 1 0.5897 1.869030356731 14.084881691849386 1.8351666574461987 0 0 0
246 82 1 0.5897 3.2697828767437644 14.59976921949069 1.5811924510781468 0 0 0
250 84 2 -1.1794 3.1178898003281463 17.436269355598693 3.4491281029514633 0 0 0
251 84 1 0.5897 2.6198606265668283 17.266476519891686 2.6495079192588338 0 0 0
252 84 1 0.5897 4.032198536415057 17.317254230405837 3.192148829912928 0 0 0
253 85 2 -1.1794 1.5687850310242613 15.525852102724002 4.768270570541637 0 0 0
255 85 1 0.5897 2.178594340305674 15.976233900278142 4.183866013409526 0 0 0
259 87 2 -1.1794 4.712823632117915 15.668319386638709 0.8544193348312707 0 0 0
262 88 2 -1.1794 1.273207632446164 17.059295678019602 1.5004908178246807 0 0 0
263 88 1 0.5897 1.5006680085325466 16.39449425374021 0.8504485366456728 0 0 0
264 88 1 0.5897 1.051687531850999 17.834101264023506 0.983917319824243 0 0 0
269 90 1 0.5897 1.449168728605481 13.599089254342655 4.798561690076586 0 0 0
254 85 1 0.5897 0.7024996053487097 15.738206772768583 4.42095483068698 0 0 0
260 87 1 0.5897 4.756380931757495 16.618677132944644 0.7487941641346711 0 0 0
147 49 1 0.5897 5.452177700417178 12.412346251632243 1.201400528988996 0 0 0
288 96 1 0.5897 5.97726902143317 14.691459337940266 1.8265860536869136 0 0 0
338 113 1 0.5897 0.13414937675521046 17.17229407903161 2.7716418417840094 1 0 0
287 96 1 0.5897 5.892520900638059 13.861120127099976 3.0896630965346272 0 0 0
146 49 1 0.5897 3.959741761048313 12.665415562951551 1.2186873811704093 0 0 0
265 89 2 -1.1794 4.660818509986063 18.339042858189114 0.7449200449000065 0 0 0
247 83 2 -1.1794 5.87433766268295 17.22231724194709 3.400786448520709 0 0 0
256 86 2 -1.1794 0.0757093185693023 14.288238000113225 1.9428963582969523 0 0 0
261 87 1 0.5897 4.985520586976332 15.319784191637098 0.0056283069406317665 0 0 0
268 90 2 -1.1794 1.618641057945455 12.686522434717038 5.032503876701686 0 0 0
389 130 1 0.5897 2.002310897712386 18.506044634620988 4.403365614205827 0 0 0
627 209 1 0.5897 5.159863032069138 12.464139990952853 6.978499772967666 0 0 0
740 247 1 0.5897 4.356847651268315 15.418427800416703 5.769526356272943 0 0 0
736 246 2 -1.1794 0.17759154232066793 13.791300920304177 7.709159041098276 0 0 0
870 290 1 0.5897 2.299887716203931 18.428658597081824 10.689775903389634 0 0 0
818 273 1 0.5897 0.2575087913291954 17.001137367538064 8.552220670199523 1 0 0
725 242 1 0.5897 3.3374340820397617 14.664398088322319 7.6413189733168245 0 0 0
869 290 1 0.5897 0.8089350580220166 18.25091848036225 10.4969968985937 0 0 0
735 245 1 0.5897 0.9876396168488577 15.54493346735865 10.457799544242093 0 0 0
724 242 2 -1.1794 2.854631709155776 13.897869285023914 7.950429577892971 0 0 0
742 248 2 -1.1794 1.678858717209982 17.253787001667114 7.1399061948276525 0 0 0
723 241 1 0.5897 5.449355648340188 13.664061206346956 9.416348328863982 0 0 0
743 248 1 0.5897 1.5863394833825102 18.069864094968782 6.6482734151955825 0 0 0
745 249 2 -1.1794 4.833001684692291 18.4882402911331 6.1509393302858255 0 0 0
726 242 1 0.5897 3.2689949832501886 13.158088154861554 7.506296785063592 0 0 0
737 246 1 0.5897 1.1298657726139558 13.847923526157617 7.78738829873764 0 0 0
749 250 1 0.5897 1.3093034746058814 13.149177717983603 10.944855515681839 0 0 0
728 243 1 0.5897 4.906229747254979 16.915818429120083 9.458774285304415 0 0 0
731 244 1 0.5897 2.660447866646845 17.073869473095144 8.503990933200798 0 0 0
733 245 2 -1.1794 1.7501382624284123 15.04952720107744 10.756730941039539 0 0 0
739 247 2 -1.1794 4.56169572542924 15.76263979279267 6.63891922280073 0 0 0
730 244 2 -1.1794 3.0771692966607262 17.076743224479127 9.365734948671713 0 0 0
741 247 1 0.5897 4.496801307490522 16.712732556285612 6.5422602972633515 0 0 0
744 248 1 0.5897 1.898419121326317 16.59833052746145 6.477765648986376 0 0 0
722 241 1 0.5897 3.9387791950830264 13.73077598553245 9.490022174776254 0 0 0
732 244 1 0.5897 2.6009693012807884 16.41315810969345 9.864856605178819 0 0 0
721 241 2 -1.1794 4.722817976432901 13.702338524860982 10.038362385206174 0 0 0
727 243 2 -1.1794 5.859010855126999 16.966861419621765 9.382914997413305 0 0 0
768 256 1 0.5897 5.931596616474476 14.628595674673807 7.364947374873926 0 0 0
729 243 1 0.5897 6.075113770592493 17.855070205851924 9.666854190549515 0 0 0
1106 369 1 0.5897 4.3582725341736746 12.487596606842223 11.378067003053761 0 0 0
1201 401 2 -1.1794 4.392891770751996 13.872227805474466 15.73039283280831 0 0 0
1204 402 2 -1.1794 2.8267524598357063 14.182198116732788 13.428522711842493 0 0 0
1205 402 1 0.5897 3.215360001648696 14.05921574377152 14.294623683848682 0 0 0
1206 402 1 0.5897 3.246157682803701 13.51859918886241 12.880824887388377 0 0 0
1210 404 2 -1.1794 3.283795235916012 17.093649224323322 15.005037897660268 0 0 0
1211 404 1 0.5897 2.9485274450705266 17.818625995368556 15.532524916292207 0 0 0
1212 404 1 0.5897 4.226456628776484 17.092018445423566 15.171001774451227 0 0 0
1213 405 2 -1.1794 1.753437527958544 15.170953921158786 16.522532350314076 0 0 0
1214 405 1 0.5897 0.9059020840115671 15.445953138298075 16.17288717695691 0 0 0
1215 405 1 0.5897 2.395322074743956 15.66206308389913 16.00969006406915 0 0 0
1218 406 1 0.5897 0.9486034329470826 14.063684323033115 13.383046587180504 0 0 0
1222 408 2 -1.1794 1.2248328245792455 16.604870741710144 13.027145774806733 0 0 0
1223 408 1 0.5897 1.3175771427907668 17.36814038240101 12.456995295757313 0 0 0
1224 408 1 0.5897 1.9401345284458347 16.688000196637198 13.657739842031116 0 0 0
1229 410 1 0.5897 1.8010884163801029 13.307635325831308 16.535558706114816 0 0 0
1220 407 1 0.5897 4.052450451002662 15.42922481142531 12.736178875818707 0 0 0
1202 401 1 0.5897 5.2107331905077725 13.794047206845091 15.239260320634141 0 0 0
1203 401 1 0.5897 4.48960371695048 13.25685342012592 16.457187048054898 0 0 0
1219 407 2 -1.1794 4.8481952743913554 15.765479668045998 12.323975868270933 0 0 0
1227 409 1 0.5897 4.333985715884477 17.551637804114517 12.05419898368951 0 0 0
1225 409 2 -1.1794 4.221844356818426 18.499266447506564 12.129413546914092 0 0 0
1700 567 1 0.5897 4.682363413384183 15.151130671611282 17.1225173308418 0 0 0
1216 406 2 -1.1794 0.018737466597297796 13.926439577799023 13.563793141514326 0 0 0
1298 433 1 0.5897 0.3023679005445277 16.668885125707657 14.513499156295872 1 0 0
1247 416 1 0.5897 5.939511821360489 14.657683529777112 13.589765283075524 0 0 0
1248 416 1 0.5897 5.887167396521353 13.233037129490844 13.080308230724778 0 0 0
1350 450 1 0.5897 0.9244468843465917 18.300884210295546 16.050101850437652 0 0 0
734 245 1 0.5897 1.767073511574914 15.183666103457673 11.704368167099673 0 0 0
1207 403 2 -1.1794 6.07582402376078 16.808468584528963 15.16010671880497 0 0 0
1228 410 2 -1.1794 1.5326384354052618 12.389235991849755 16.509044379678006 0 0 0
1221 407 1 0.5897 5.011740903646753 15.16753547450944 11.594605008237005 0 0 0
1708 570 2 -1.1794 1.2966552384494905 12.564165257091348 21.7761996363172 0 0 0
1586 529 1 0.5897 5.2174739626062205 12.591455691162821 18.39849830228027 0 0 0
1689 563 1 0.5897 5.163463251181126 16.997823802631448 20.773288409404994 0 0 0
1779 593 1 0.5897 0.2764612002158505 17.574259725351624 21.30888347764211 1 0 0
1690 564 2 -1.1794 3.258315182009752 17.05196523827694 20.742938813600475 0 0 0
1705 569 2 -1.1794 5.024589218987359 18.457039667746123 17.976511406066706 0 0 0
1778 593 1 0.5897 0.20915028347767156 16.93998796746684 19.935860435689 1 0 0
1696 566 2 -1.1794 0.003665390137121159 13.721211735120992 19.489077115420823 0 0 0
1681 561 2 -1.1794 4.76341604983729 14.213399684332492 21.447945634091198 0 0 0
1685 562 1 0.5897 3.2867618458523356 13.148362071428208 19.094041716861756 0 0 0
1703 568 1 0.5897 1.4328818724319292 16.295937307393398 18.19331219188008 0 0 0
1699 567 2 -1.1794 4.690094536143976 15.588552774844935 17.97392063365008 0 0 0
1684 562 2 -1.1794 2.931493580339362 13.955511743120113 19.466226986925253 0 0 0
1707 569 1 0.5897 4.998780850795009 17.51029789499036 17.83779445202429 0 0 0
1686 562 1 0.5897 3.446653070059379 14.100996551283847 20.259761954764315 0 0 0
1694 565 1 0.5897 1.0237247711164974 15.591939285456636 21.796455208119013 0 0 0
1697 566 1 0.5897 0.9546023152745676 13.771460678966744 19.39240967289914 0 0 0
1683 561 1 0.5897 4.904252171468325 13.376341169118508 21.890369220159762 0 0 0
1687 563 2 -1.1794 6.111277515705739 16.95849088007436 20.900772185315034 0 0 0
1704 568 1 0.5897 1.6406581204487813 17.758596182708246 17.862590518757315 0 0 0
1682 561 1 0.5897 5.476125663038648 14.271463648768314 20.81163637752523 0 0 0
1695 565 1 0.5897 1.602943374375081 14.264793751586339 22.238108783069777 0 0 0
1692 564 1 0.5897 2.7269381443436074 16.94338197569627 19.95420527906243 0 0 0
1691 564 1 0.5897 2.898541920571183 16.418488058032384 21.36383928664248 0 0 0
1701 567 1 0.5897 3.9542968930967537 15.202290105893617 18.44889905616218 0 0 0
1693 565 2 -1.1794 1.713078114879294 15.210176793584727 22.339830682616302 0 0 0
1702 568 2 -1.1794 1.4659796917317818 17.165072359245837 18.593004150248277 0 0 0
1830 610 1 0.5897 2.3169512697852674 18.40493280022719 21.90810544590761 0 0 0
1728 576 1 0.5897 5.839640535131616 14.49656983919385 18.745393041420254 0 0 0
361 121 2 -1.1794 4.635324425248102 20.397843574822105 4.170212142958431 0 0 0
362 121 1 0.5897 4.05322055650799 20.3665971777627 3.410987799648218 0 0 0
364 122 2 -1.1794 3.0056320290995586 20.22241657890104 2.0160467901608556 0 0 0
365 122 1 0.5897 3.098507832900567 20.920268894119552 1.3674710527279934 0 0 0
370 124 2 -1.1794 3.2022023795205405 23.378757158193043 3.275136337805765 0 0 0
371 124 1 0.5897 4.135464962395323 23.404854080442494 3.486078080660048 0 0 0
372 124 1 0.5897 2.8947085098203775 22.552934654304085 3.6488923456743447 0 0 0
373 125 2 -1.1794 1.5280150972238986 21.709141241361117 4.624969236824902 0 0 0
382 128 2 -1.1794 1.3479358470986598 23.10187740446536 1.2759115701021866 0 0 0
383 128 1 0.5897 2.1111150616016734 23.08700922854415 1.8534389605842791 0 0 0
390 130 1 0.5897 1.461236952807459 19.845904175918513 4.854915454987442 0 0 0
375 125 1 0.5897 0.8981883914820558 22.318620053216836 4.240180735124565 0 0 0