LAMMPS data file via write_data, version 30 Jul 2021, timestep = 17250000

1296 atoms
2 atom types
864 bonds
1 bond types
432 angles
1 angle types

-10.44995128860007 12.429951288600071 xlo xhi
-9.21671178562659 12.20670978562659 ylo yhi
0.11069880932003429 21.749300190682796 zlo zhi
-9.091448899144028 1.698782704607088 2.90975142679203 xy xz yz

Masses

1 1.008
2 15.999

Pair Coeffs # lj/cut/tip4p/long/omp

1 0 0
2 0.21084 3.1668

Bond Coeffs # harmonic/omp

1 450 0.9572

Angle Coeffs # harmonic/omp

1 55 104.52

Atoms # full

165 55 1 0.5897 -7.037329870687142 -8.528093665252431 0.11964398952220538 1 1 0
298 100 2 -1.1794 -5.6735994773297245 -7.186888232095441 4.006737590951948 1 1 0
280 94 2 -1.1794 -9.514685348170794 -4.530829205311347 1.2311625961891415 1 1 0
299 100 1 0.5897 -6.36216231471878 -7.8481765420027605 4.076224394752125 1 1 0
270 90 1 0.5897 -8.40040815846186 -7.430525725842088 2.003576854799924 1 1 0
163 55 2 -1.1794 -6.893375429818503 -7.946061971087055 0.8658559882215815 1 1 0
164 55 1 0.5897 -6.260516438884032 -8.410332707594941 1.4136795053839437 1 1 0
269 90 1 0.5897 -9.19998236739563 -6.146344653389285 2.063301477780711 1 1 0
268 90 2 -1.1794 -9.03573251605376 -6.958707549089778 2.542131978800555 1 1 0
275 92 1 0.5897 -10.269786252172326 -7.944953966682016 3.380661453787151 1 1 0
324 108 1 0.5897 -6.783733901054427 -4.180688271604196 3.6170580856751244 1 1 0
73 25 2 -1.1794 -8.182606811001687 -3.7026730686404132 4.753601469111184 1 0 0
314 105 1 0.5897 -8.536503698173087 -6.671238974853777 4.267988025989585 1 1 0
281 94 1 0.5897 -8.910657796161503 -3.79254334742543 1.3108749667177357 1 1 0
282 94 1 0.5897 -10.377981531126451 -4.154023189956197 1.4014092365096866 1 1 0
259 87 2 -1.1794 -6.648579469995979 -5.1635696077367115 0.33745362439466786 1 1 0
315 105 1 0.5897 -8.353773286190012 -5.475459950176392 5.178422483089875 1 1 0
323 108 1 0.5897 -6.030525325171214 -5.489332872654256 3.5068251261321315 1 1 0
260 87 1 0.5897 -6.641026002386845 -6.120767971228847 0.338420630269716 1 1 0
75 25 1 0.5897 -9.043705060066195 -3.4673437250821344 4.408153804494414 1 0 0
313 105 2 -1.1794 -8.414249933902367 -6.430743809617742 5.1863894209732235 1 1 0
261 87 1 0.5897 -6.725027681329825 -4.923149877534384 1.2608229626332894 1 1 0
300 100 1 0.5897 -4.85747303607816 -7.686161965165477 4.036803344159038 1 1 0
429 143 1 0.5897 -6.301184348570197 -7.059142686166166 8.734103341800978 1 0 0
428 143 1 0.5897 -6.472473251350556 -7.109220942565507 10.237426596649195 1 0 0
427 143 2 -1.1794 -5.812758372736797 -6.989312578766089 9.554332920524814 1 0 0
419 140 1 0.5897 -8.904337494253499 -5.333965252869796 8.773565543310905 1 0 0
418 140 2 -1.1794 -9.558929774436747 -5.959956668913457 9.083193971703317 1 0 0
413 138 1 0.5897 -7.6128293637024855 -3.687368435268411 7.754715889039595 1 0 0
627 209 1 0.5897 -10.031064695315493 -6.6383739178542935 6.191065934395048 1 1 0
420 140 1 0.5897 -9.185066989112595 -6.32001752066695 9.88739370150554 1 0 0
618 206 1 0.5897 -7.620489340276507 -7.40781797931831 6.531068071944115 1 1 0
350 117 1 0.5897 -7.05445843448593 -4.231925039527568 9.938827173071504 0 0 0
414 138 1 0.5897 -6.719642603919367 -4.887107243076123 7.52045299229291 1 0 0
412 138 2 -1.1794 -7.3946999029917455 -4.54936675031594 8.109099788681682 1 0 0
626 209 1 0.5897 -10.375422459202813 -6.653460402189653 7.6651892722931105 1 1 0
351 117 1 0.5897 -6.93715821844488 -3.012467015561519 10.828398591699159 0 0 0
616 206 2 -1.1794 -7.1862310567166805 -7.894712113878971 7.231422988309436 1 1 0
349 117 2 -1.1794 -7.0631898177275145 -3.9609353349104897 10.85684050786063 0 0 0
633 211 1 0.5897 -5.6610692115101955 -6.2066916726831405 5.548399150767146 1 1 0
631 211 2 -1.1794 -5.504815382064734 -5.587552071702621 6.261529776627761 1 1 0
641 214 1 0.5897 -4.27925931714961 -8.283523132921024 6.695306915792373 1 1 0
684 228 1 0.5897 -8.340725547507581 -6.511206730843284 14.449409650399534 0 0 0
740 247 1 0.5897 -10.759665072885934 -3.3662159497361817 11.951731211307697 1 0 0
652 218 2 -1.1794 -5.776384874969984 -5.45197003133346 12.62955697130369 0 0 0
682 228 2 -1.1794 -7.729740893670472 -6.940848908631163 13.850756951139903 0 0 0
780 260 1 0.5897 -7.529536978282406 -4.084480754463915 15.117713455386077 0 0 0
779 260 1 0.5897 -7.14020431206772 -3.0445070032522956 14.088831625690212 0 0 0
778 260 2 -1.1794 -7.8960088866695965 -3.513192315087176 14.442819979812088 0 0 0
768 256 1 0.5897 -9.62207191231052 -2.6500971058610965 14.781546065331824 0 0 0
654 218 1 0.5897 -6.303841033554068 -4.959361647523497 12.000840755048104 0 0 0
653 218 1 0.5897 -6.406689614586689 -6.006963335087649 13.08878717606514 0 0 0
661 221 2 -1.1794 -9.290008963844041 -4.341904844366739 12.329659217266414 0 0 0
789 263 1 0.5897 -4.887839559957278 -4.771019880667159 14.026008033231083 0 0 0
662 221 1 0.5897 -8.915307091986184 -4.210226650643734 13.20056864816733 0 0 0
663 221 1 0.5897 -8.538486143127285 -4.309778422875123 11.73770361247321 0 0 0
766 256 2 -1.1794 -10.49487699932431 -2.281592327494706 14.918115401932043 0 0 0
729 243 1 0.5897 -8.113686314247829 -7.172366397480971 12.085027309007721 1 0 0
788 263 1 0.5897 -5.004375563663814 -4.795203889653649 15.535202664282208 0 0 0
758 253 1 0.5897 -9.563895398533086 -5.383210673648759 16.22500532866927 0 0 0
727 243 2 -1.1794 -8.201098338476568 -7.390364887394131 11.157082214219953 1 0 0
757 253 2 -1.1794 -9.727992541091393 -5.9821794006347915 15.49656247394337 0 0 0
1129 377 2 -1.1794 -7.982300933075541 -1.9684483890464923 17.746972593705642 0 0 0
1131 377 1 0.5897 -7.220432977053557 -1.764762275756505 17.20449634270081 0 0 0
1248 416 1 0.5897 -5.926515643442265 -1.4819736068575136 20.63710892145776 0 0 0
1143 381 1 0.5897 -8.426487195568459 -5.197010282753683 21.50461730912527 0 0 0
1152 384 1 0.5897 -6.6253164919555765 -4.061180310284745 19.814779015969485 0 0 0
1225 409 2 -1.1794 -8.108443292666056 -3.4053730191994154 20.886307945260267 0 0 0
1227 409 1 0.5897 -8.947144828988574 -3.0661758866729762 20.573689572662342 0 0 0
1109 370 1 0.5897 -8.831444231047017 -3.608877010509527 17.555727098394065 0 0 0
1108 370 2 -1.1794 -9.389724949129322 -4.3698135312798545 17.715560028896594 0 0 0
1089 363 1 0.5897 -6.437864957237431 -4.825908900537367 17.37574770415215 0 0 0
1226 409 1 0.5897 -7.802513038133766 -2.7490570834467194 21.51239077062075 0 0 0
1130 377 1 0.5897 -7.689472533806124 -1.8041538366770933 18.643347601483054 0 0 0
1219 407 2 -1.1794 -10.432752292602252 -2.0750233630234174 20.194475891341394 0 0 0
1151 384 1 0.5897 -5.90201188237503 -5.350332661180374 19.487712056769197 0 0 0
1150 384 2 -1.1794 -6.013151356912626 -4.447865563775066 19.18867372077588 0 0 0
1121 374 1 0.5897 -4.812957437744787 -3.163602176059502 18.71948859512596 0 0 0
1097 366 1 0.5897 -9.080623657002263 -6.02124444566568 18.552519588161736 0 0 0
1141 381 2 -1.1794 -8.494702917989443 -6.138385896304008 21.66404521624202 0 0 0
1088 363 1 0.5897 -6.621756403212638 -6.053935659386713 16.509551761022706 0 0 0
1087 363 2 -1.1794 -6.4895638040432875 -5.107066939632671 16.462216660344087 0 0 0
44 15 1 0.5897 -9.520268143951814 0.8547109025117763 0.15370753771378562 1 0 0
69 23 1 0.5897 -10.9279527842532 -2.7173223310375905 3.307699133843077 1 0 0
272 91 1 0.5897 -9.21183857025194 -1.2500336458473678 1.1540555612814989 1 1 0
271 91 2 -1.1794 -10.085047768033476 -0.9406921459851425 0.9131721818162715 1 1 0
59 20 1 0.5897 -13.316407473842862 -0.7431231971006245 3.4363179319671255 1 0 0
301 101 2 -1.1794 -7.845628784910347 -2.255104557158493 1.450276227027469 1 1 0
258 86 1 0.5897 -12.299133556364781 -2.861271163117456 1.4322214701887803 1 1 0
83 28 1 0.5897 -9.17070046712735 -1.0506185574563354 4.1416034432111 1 0 0
67 23 2 -1.1794 -10.485719315522916 -2.426241480508126 4.105166356623751 1 0 0
107 36 1 0.5897 -8.95602246458043 1.275516758937174 3.1599789765564195 1 0 0
68 23 1 0.5897 -11.167260334626778 -2.4424141465583524 4.777079679878826 1 0 0
52 18 2 -1.1794 -11.764527944643572 0.08543782527643273 2.9410219231803176 1 0 0
98 33 1 0.5897 -11.57109510735292 0.2880035096231346 4.62115787916164 1 0 0
53 18 1 0.5897 -11.944097846420522 0.8826679187112809 2.442661384243322 1 0 0
54 18 1 0.5897 -11.144005266578109 -0.40183566791492886 2.3989767050994413 1 0 0
82 28 2 -1.1794 -8.62358853981849 -0.26869606302397564 4.06728748933322 1 0 0
1010 337 1 0.5897 -12.306845540706702 1.1682045881153602 0.17881056965540876 0 -1 1
256 86 2 -1.1794 -11.838284191500291 -3.4506528859101424 2.0292255008893725 1 1 0
74 25 1 0.5897 -8.027201594541992 -3.0745517864761798 5.45903438745913 1 0 0
273 91 1 0.5897 -10.376171826373056 -1.5489947653871088 0.2338108015029583 1 1 0
527 176 1 0.5897 -11.72750110353881 1.5465395524668288 8.778056464787566 1 0 0
526 176 2 -1.1794 -12.429105506219141 1.0828536473647041 9.23517375646351 1 0 0
426 142 1 0.5897 -8.77310980732478 -1.8446704832154346 7.223920645315169 1 0 0
435 145 1 0.5897 -7.206877373318004 -0.7901855992431628 9.96417140631962 0 0 0
424 142 2 -1.1794 -7.918238653212992 -2.172608348991653 6.944826116018961 1 0 0
402 134 1 0.5897 -10.620710840324826 -0.511725094298761 6.7095610531222505 1 0 0
401 134 1 0.5897 -11.072024909406842 -1.3895571181001873 7.857364632171647 1 0 0
400 134 2 -1.1794 -10.287437887319884 -1.0721617085225112 7.410269703377507 1 0 0
537 179 1 0.5897 -9.142405726972347 -0.3095493985383797 8.631691971983953 1 0 0
536 179 1 0.5897 -9.579506531805206 -0.30933068154453913 10.08110664669282 1 0 0
535 179 2 -1.1794 -8.879947746515851 -0.007998523311444572 9.501430589238472 1 0 0
528 176 1 0.5897 -11.975645714649207 0.5198817930958093 9.862548534026734 1 0 0
522 174 1 0.5897 -9.650744215184838 2.116740189328917 7.576812812594034 1 0 0
411 137 1 0.5897 -13.089356987408813 0.2462812102547982 6.252830279376556 1 0 0
425 142 1 0.5897 -7.31444029339636 -1.4518841451270186 7.124473586749084 1 0 0
417 139 1 0.5897 -8.680589645746636 0.7707957134334098 5.527002065928888 1 0 0
516 172 1 0.5897 -13.93752268929801 2.0388780475407113 9.39427382638494 1 0 0
415 139 2 -1.1794 -8.509500906469917 1.27224883760692 6.324229139905717 1 0 0
410 137 1 0.5897 -13.51201089003975 0.5312586707710487 7.678345512817262 1 0 0
97 33 2 -1.1794 -11.556647593791897 0.4874402039310013 5.557245067782635 1 0 0
99 33 1 0.5897 -11.390873008707654 1.429258625420017 5.59952512950296 1 0 0
790 264 2 -1.1794 -10.819822628259525 0.0502333381025597 13.67455461414702 0 0 0
896 299 1 0.5897 -7.9046359560647605 2.591318626657289 15.404419982352252 0 0 0
762 254 1 0.5897 -9.17189685835218 1.9769927931401998 11.855085089009762 0 0 0
761 254 1 0.5897 -9.40274390816446 1.025286108765041 13.00949726122005 0 0 0
760 254 2 -1.1794 -8.719227598824965 1.5328476323185356 12.572008217821079 0 0 0
769 257 2 -1.1794 -12.302280233862819 3.023500448891779 12.345430862490197 0 0 0
792 264 1 0.5897 -11.514244287651625 0.5040168547261317 14.152198909479099 0 0 0
836 279 1 0.5897 -11.29949145632803 -1.5005775173494467 11.144390486748684 1 0 0
837 279 1 0.5897 -11.064938820053277 -0.23678649334041246 11.944382682408657 1 0 0
791 264 1 0.5897 -10.86549505824688 -0.8537479730213402 13.985913133344756 0 0 0
770 257 1 0.5897 -11.966977140828144 3.1855973003547007 13.2272048356235 0 0 0
888 296 1 0.5897 -10.610024501392212 3.1134898694906212 15.231434472395765 0 0 0
857 286 1 0.5897 -13.210268102841901 1.4378608437735103 12.505052976199512 1 0 0
835 279 2 -1.1794 -11.155918187010812 -0.5591400305874892 11.047677013224009 1 0 0
865 289 2 -1.1794 -12.614568195609444 1.3084574511114901 15.534178517875747 0 0 0
866 289 1 0.5897 -12.360660649569708 1.95820136536984 16.189685477507126 0 0 0
1009 337 2 -1.1794 -10.988833375559505 3.5444763522036595 21.119761789836563 0 -1 0
1260 420 1 0.5897 -9.85254271429959 3.0780979959005403 19.65901608011275 0 0 0
1251 417 1 0.5897 -11.249955690283702 1.78069380273695 21.494907875307945 0 0 0
1259 420 1 0.5897 -8.92584411353314 1.8908979719751784 19.50475227087226 0 0 0
1258 420 2 -1.1794 -9.088864217404865 2.772493308345119 19.16945433257918 0 0 0
1011 337 1 0.5897 -11.783090415338263 4.0140173365668055 20.865008792572862 0 -1 0
1205 402 1 0.5897 -12.09664361765632 1.257673077475408 18.174289492207556 0 0 0
1249 417 2 -1.1794 -11.526318716396936 0.8643027291582754 21.483391267762126 0 0 0
1236 412 1 0.5897 -7.962850354212041 -0.2835351472735397 20.400437860492765 0 0 0
1216 406 2 -1.1794 -12.284257999273548 2.8938919970933483 17.71273389375636 0 0 0
1235 412 1 0.5897 -9.450410825955984 -0.4519172784237142 20.175270228600407 0 0 0
1234 412 2 -1.1794 -8.773887974571188 0.21422715890898303 20.297107864434196 0 0 0
1099 367 2 -1.1794 -10.126424674722493 -0.5061972843550748 16.98681603220992 0 0 0
1100 367 1 0.5897 -9.319424198391719 -0.8730371911502814 17.347886664724577 0 0 0
1206 402 1 0.5897 -11.381228527712672 -0.07527950309008702 18.11566517448609 0 0 0
1246 416 2 -1.1794 -6.422843952439518 -0.9724585725024752 19.99664143326154 0 0 0
1197 399 1 0.5897 -9.494720083215121 2.521809377510282 17.284373334962037 0 0 0
1250 417 1 0.5897 -11.611055149975545 0.6507605171596786 20.55416136772131 0 0 0
1218 406 1 0.5897 -13.149669999679261 3.3023086570542937 17.735039119529077 0 0 0
1195 399 2 -1.1794 -9.619605397575535 2.1907853258357335 16.39493608522815 0 0 0
1196 399 1 0.5897 -9.786523860610433 1.2550717023405973 16.50823826644944 0 0 0
1229 410 1 0.5897 -7.860397977420872 3.7177204304151097 18.278327877504516 0 0 0
1217 406 1 0.5897 -11.67282675866462 3.6292755801430587 17.67240613172998 0 0 0
1101 367 1 0.5897 -10.427184820425158 -1.1614679233719585 16.357143982644015 0 0 0
40 14 2 -1.1794 -14.643565366137807 3.8032518586995767 1.6894941908881398 1 0 0
177 59 1 0.5897 -13.930363320778383 4.29593000778986 3.1537699106463695 1 0 0
42 14 1 0.5897 -15.083088352251552 4.434997535519148 1.1203883286657395 1 0 0
108 36 1 0.5897 -9.891956586269476 2.404487371790818 3.536141562279689 1 0 0
175 59 2 -1.1794 -13.451877609613994 4.345393865098432 3.981300925509766 1 0 0
55 19 2 -1.1794 -13.119244948245806 6.131228803097837 0.6733764670011574 1 0 0
56 19 1 0.5897 -12.317481625073427 5.753217277844572 1.0345965149887468 1 0 0
66 22 1 0.5897 -13.111620724914252 2.8762807940190775 1.3607886363483679 1 0 0
65 22 1 0.5897 -11.650350733286215 3.1834370756239583 1.6102785219480629 1 0 0
64 22 2 -1.1794 -12.264715801541012 2.4561674815592927 1.510726313697411 1 0 0
41 14 1 0.5897 -15.350834776944362 3.258083067131384 2.034141496403659 1 0 0
167 56 1 0.5897 -16.47899318846099 6.163628877747156 3.334834467210031 1 0 0
191 64 1 0.5897 -12.42518865936513 5.924032329748162 3.9321660874148967 1 0 0
182 61 1 0.5897 -11.01711151271787 3.8662062719380295 5.473883659235425 1 0 0
183 61 1 0.5897 -11.843493393349096 3.4142226615766678 4.288663117403754 1 0 0
181 61 2 -1.1794 -11.079687920571454 3.1756653796479117 4.8139074216734965 1 0 0
176 59 1 0.5897 -14.128171227754596 4.5007261255049595 4.640653084083685 1 0 0
85 29 2 -1.1794 -10.771081680943004 4.722302417716479 1.608322235764506 1 0 0
190 64 2 -1.1794 -11.91531775235618 6.714621572030417 3.7553908195029195 1 0 0
160 54 2 -1.1794 -14.976564965692813 7.042557327676686 2.6772138914951897 1 0 0
43 15 2 -1.1794 -9.465854387984924 1.8099418427450882 0.18292737677708798 1 0 0
106 36 2 -1.1794 -9.273830832033003 2.127097541309599 2.8599416110184346 1 0 0
162 54 1 0.5897 -14.30284996120271 6.648250654804498 2.1232141128935536 1 0 0
192 64 1 0.5897 -11.003702415694413 6.438225192687828 3.8491432342918808 1 0 0
508 170 2 -1.1794 -13.348819011327981 6.055959746366277 6.9933873523935475 1 0 0
645 215 1 0.5897 -12.52032574148959 6.839021351523364 8.274184300719327 1 0 0
644 215 1 0.5897 -12.724755854350281 7.08367129290998 9.75414227441343 1 0 0
643 215 2 -1.1794 -12.063052987449892 7.127953815747478 9.063913683370767 1 0 0
509 170 1 0.5897 -14.08610882123691 5.531721429463293 7.306106313172551 1 0 0
543 181 1 0.5897 -10.661365016840572 6.2300985264400115 9.637427663482946 0 0 0
532 178 2 -1.1794 -10.72583424027949 5.00474899623385 6.86381336766017 1 0 0
533 178 1 0.5897 -10.168546973144684 5.779540683447516 6.93735804623283 1 0 0
510 170 1 0.5897 -13.748793245626132 6.7259002703434145 6.438978837226892 1 0 0
534 178 1 0.5897 -11.618908837466176 5.348387795974322 6.8876786912139005 1 0 0
521 174 1 0.5897 -10.392665523392655 3.4347354311673755 7.6434784799224085 1 0 0
519 173 1 0.5897 -16.056575256616554 7.468660091363699 6.186583260596488 1 0 0
457 153 2 -1.1794 -10.03408117450412 3.215545534638906 10.815391017639003 0 0 0
458 153 1 0.5897 -10.079404580731715 2.94650726457367 9.897887214070325 0 0 0
459 153 1 0.5897 -9.910176774163787 4.164115610626029 10.781604269906566 0 0 0
518 173 1 0.5897 -16.564891279864753 7.6721019294625314 7.59801821887623 1 0 0
520 174 2 -1.1794 -10.276252392452204 2.607197719823793 8.110185668897387 1 0 0
636 212 1 0.5897 -15.119327378934564 8.01683299866701 9.675692932046326 1 0 0
541 181 2 -1.1794 -9.916530352896121 5.797130134686592 10.054496783867485 0 0 0
887 296 1 0.5897 -10.248233928031313 4.194685673173046 14.235507850446757 0 0 0
874 292 2 -1.1794 -13.403624837594403 5.108044191580397 14.663827087415033 0 0 0
876 292 1 0.5897 -12.516808506404601 4.766192253425796 14.777495856687814 0 0 0
848 283 1 0.5897 -13.714071662360688 4.11736546674077 11.875436718349713 1 0 0
945 315 1 0.5897 -13.98898378865464 7.467223885124895 11.84917493347011 1 0 0
869 290 1 0.5897 -12.495397764784604 8.317355924678907 13.038365297113755 0 0 0
900 300 1 0.5897 -14.59037883909431 7.790470632835312 14.305245704577947 0 0 0
899 300 1 0.5897 -13.659919508962636 6.647036679693175 13.96050857227108 0 0 0
898 300 2 -1.1794 -13.88702206539654 7.541304634194326 13.705686766945924 0 0 0
886 296 2 -1.1794 -10.994971513132077 3.797649994474174 14.683789561076587 0 0 0
847 283 2 -1.1794 -14.46691257977469 4.424197875855944 11.370191907418697 1 0 0
1209 403 1 0.5897 -13.185457903674486 6.280751672329735 16.158094081438033 0 0 0
875 292 1 0.5897 -13.974661964990934 4.373900612053147 14.890071822488459 0 0 0
771 257 1 0.5897 -11.535064886125314 3.1028676756611233 11.77859190968388 0 0 0
943 315 2 -1.1794 -14.049106642069978 7.179320708911632 10.938262344379638 1 0 0
944 315 1 0.5897 -14.210258596230272 6.237429227158481 10.994302551319457 1 0 0
1018 340 2 -1.1794 -11.849081015125568 7.41061443310274 20.15124979053534 0 -1 0
1019 340 1 0.5897 -12.352515457250465 6.599820943910446 20.077488607723694 0 -1 0
1020 340 1 0.5897 -10.935251783381455 7.131821361466589 20.09278522460626 0 -1 0
989 330 1 0.5897 -14.83364288905807 8.50569475605585 18.531205888479924 0 -1 0
1237 413 2 -1.1794 -10.722001030660557 5.127629661885251 17.819369221976086 0 0 0
1033 345 2 -1.1794 -14.608210371861269 8.311529454699432 21.478369565724197 0 -1 0
1030 344 2 -1.1794 -9.397381012157537 6.06597913197133 20.08401814363508 0 -1 0
1032 344 1 0.5897 -8.974215438424837 5.548982651255621 20.7694325125755 0 -1 0
980 327 1 0.5897 -12.69412466445595 8.457452853481751 16.560029498513387 0 -1 0
1207 403 2 -1.1794 -12.941400525561928 6.743990883129406 16.959428190025402 0 0 0
1208 403 1 0.5897 -12.158238466104828 6.28974628520732 17.270103777597704 0 0 0
1239 413 1 0.5897 -10.033148586648249 5.331456022030549 17.186795820033865 0 0 0
1238 413 1 0.5897 -10.311342976641889 5.263088674345383 18.673323054435194 0 0 0
990 330 1 0.5897 -14.174158559397469 7.179874999823948 18.215978164282728 0 -1 0
1035 345 1 0.5897 -14.518302698787764 9.263148694831127 21.529662123977037 0 -1 0
1043 348 1 0.5897 -12.088457372168255 9.238759628246946 19.461142845603284 0 -1 0
1003 335 2 -1.1794 -13.195528048513005 5.077599553919011 20.40747975705419 0 -1 0
988 330 2 -1.1794 -14.72749235490777 7.614807173343497 18.86478141449627 0 -1 0
1034 345 1 0.5897 -14.602433020599948 8.120037106105109 20.540529616041663 0 -1 0
1005 335 1 0.5897 -13.5225782266333 4.8093508765628545 19.548798934637077 0 -1 0
650 217 1 0.5897 -15.518049421649094 8.775431404321427 16.392932440766547 0 -1 0
57 19 1 0.5897 -11.690181258562122 8.425268370549869 21.630457070034037 1 0 -1
291 97 1 0.5897 -15.213259778488382 10.769564915490363 4.449899048312964 1 0 0
174 58 1 0.5897 -16.41531546462056 9.904856581085696 1.749350618845714 1 0 0
173 58 1 0.5897 -14.94709052846546 10.273302468887788 1.7277478192258777 1 0 0
172 58 2 -1.1794 -15.539889681509596 9.522867527631377 1.6864309384842664 1 0 0
283 95 2 -1.1794 -16.648904897048837 12.188005582902502 4.0686720129188725 1 0 0
161 54 1 0.5897 -15.17116368854569 7.881027604115275 2.258529716131247 1 0 0
207 69 1 0.5897 -14.55302561876069 8.715257938905879 5.206290366815582 1 0 0
206 69 1 0.5897 -14.686611674253879 7.450380804907802 4.3850611622179105 1 0 0
285 95 1 0.5897 -17.058556508546157 11.953738753432543 3.235878955796059 1 0 0
148 50 2 -1.1794 -17.932980331266627 10.868032477187622 2.044005428262061 1 0 0
289 97 2 -1.1794 -14.37029544709442 10.379316331237742 4.680799613686077 1 0 0
150 50 1 0.5897 -18.31025622538501 11.31406821588941 1.2858044028605387 1 0 0
284 95 1 0.5897 -17.298049048335002 11.95020953015943 4.730693221530901 1 0 0
290 97 1 0.5897 -14.043220764038194 10.921867542738987 5.39840861643985 1 0 0
216 72 1 0.5897 -13.102268010078763 9.427674964403131 3.530544445548746 1 0 0
193 65 2 -1.1794 -13.887263528247477 11.754716940903958 1.76546924000235 1 0 0
214 72 2 -1.1794 -12.402942255688496 9.261382156512262 2.8984481808126583 1 0 0
215 72 1 0.5897 -12.146797652242045 8.3528661739239 3.057329019314212 1 0 0
205 69 2 -1.1794 -14.644795303613488 7.765938674690641 5.2878045476716435 1 0 0
152 51 1 0.5897 -12.834756053817957 7.922409933283923 0.27541783982370077 1 0 0
153 51 1 0.5897 -12.73627239137709 9.132608384362157 1.1797908389608889 1 0 0
1118 373 1 0.5897 -15.609486833023968 8.608268621548 0.2216119125016415 0 -1 1
194 65 1 0.5897 -13.429977251663532 11.978621614704089 2.576023577450391 1 0 0
151 51 2 -1.1794 -12.744940514947062 8.875253517376752 0.25786419238170344 1 0 0
525 175 1 0.5897 -11.957341358724275 8.030995039456638 5.349038269827768 1 0 0
640 214 2 -1.1794 -13.927923786104968 12.37266844101963 6.826138729840663 1 0 0
630 210 1 0.5897 -12.99509157470161 9.400110291874856 7.375528366199419 1 0 0
629 210 1 0.5897 -13.543310821415897 10.790341765322328 7.617982158125397 1 0 0
628 210 2 -1.1794 -13.504282381833756 9.914445426156501 8.002016278009982 1 0 0
566 189 1 0.5897 -13.295726927773558 10.043082219383898 9.809545036626846 0 0 0
635 212 1 0.5897 -14.921110030157614 9.021349714249975 8.560626308896452 1 0 0
327 109 1 0.5897 -13.452258993269762 13.261468987742624 9.67845485098741 0 -1 0
642 214 1 0.5897 -14.814433942848943 12.728010621226343 6.88995911438947 1 0 0
523 175 2 -1.1794 -11.78587502443799 8.529486291732933 6.148041222864948 1 0 0
634 212 2 -1.1794 -15.57811635065886 8.44726536330958 8.95430737175562 1 0 0
617 206 1 0.5897 -16.99312173819399 13.121951613208882 7.7201859743768475 1 0 0
565 189 2 -1.1794 -13.259453679814625 10.365478038037427 10.71010922211322 0 0 0
567 189 1 0.5897 -12.9332414792705 11.261934716040525 10.631226983301211 0 0 0
658 220 2 -1.1794 -16.280675884348618 12.15054658663259 15.059519550461625 0 -1 0
870 290 1 0.5897 -12.277412737231023 9.356856847150912 11.959647615989228 0 0 0
680 227 1 0.5897 -10.986316330175244 9.655777681106247 15.563682060153456 0 -1 0
671 224 1 0.5897 -13.146476917379207 11.243755793691143 14.219549029272764 0 -1 0
670 224 2 -1.1794 -13.861300740473991 10.79593986440781 14.671983268610097 0 -1 0
672 224 1 0.5897 -13.426504674167731 10.25489639614402 15.331059412651033 0 -1 0
956 319 1 0.5897 -16.885763729199038 10.873147588010937 11.999756658358038 1 0 0
660 220 1 0.5897 -15.37805730197996 11.897074643271342 14.866438776717775 0 -1 0
879 293 1 0.5897 -14.624892521766224 10.082651335910999 11.741013227988851 0 0 0
878 293 1 0.5897 -15.034261207736272 10.132474120687828 13.1976494446813 0 0 0
877 293 2 -1.1794 -15.37338871057465 9.946882056713868 12.321991062731527 0 0 0
728 243 1 0.5897 -17.36568006342299 13.078769193858172 11.140496418577285 1 -1 0
683 228 1 0.5897 -16.63737061507298 13.637526539956749 14.261010729863742 0 -1 0
868 290 2 -1.1794 -11.808319014366315 8.81093151716885 12.590575656307022 0 0 0
659 220 1 0.5897 -16.74328274356752 11.320672489304027 15.175973544113884 0 -1 0
681 227 1 0.5897 -10.84524469728084 9.559476994584003 14.059463657370241 0 -1 0
1140 380 1 0.5897 -11.930644980967813 12.673646496194277 20.530270157605436 0 -1 0
1138 380 2 -1.1794 -12.360942086395 13.32546533435423 19.976966945079713 0 -1 0
1128 376 1 0.5897 -13.956901581735064 14.133377558466847 20.273857897629373 0 -1 0
1127 376 1 0.5897 -15.40081423922524 13.687485685016817 20.364425172969817 0 -1 0
1022 341 1 0.5897 -13.325202431550023 12.633308945165272 18.699076250259946 0 -1 0
1119 373 1 0.5897 -14.986659043795864 11.31289842722067 20.81516962433604 0 -1 0
1117 373 2 -1.1794 -14.128746367256403 10.99075535178661 21.09161055712836 0 -1 0
1044 348 1 0.5897 -12.803577519434349 10.544550064306762 19.736057503778557 0 -1 0
1042 348 2 -1.1794 -12.163650348458368 10.14076256530194 19.149766297591515 0 -1 0
979 327 2 -1.1794 -12.449518800962736 9.380905058929887 16.499385664367665 0 -1 0
1111 371 2 -1.1794 -16.528977825022896 11.999564161507752 20.296952852642917 0 -1 0
1098 366 1 0.5897 -17.378086982144673 14.128483635947052 18.354190212625653 0 -1 0
991 331 2 -1.1794 -15.984789923081733 13.735104787046076 17.230986027475417 0 -1 0
992 331 1 0.5897 -15.195218575556646 13.363204967712417 17.62398952770706 0 -1 0
1013 338 1 0.5897 -10.904728207959174 11.071850991711283 18.426624539969847 0 -1 0
1023 341 1 0.5897 -13.143384397979915 12.526146812588891 17.19996513452819 0 -1 0
1021 341 2 -1.1794 -13.773738694732096 12.356546024839325 17.90003401231326 0 -1 0
1001 334 1 0.5897 -14.727790245362542 10.76975455488012 17.86098142596096 0 -1 0
1000 334 2 -1.1794 -15.266284962259792 9.992299352781743 17.7130695563476 0 -1 0
981 327 1 0.5897 -12.481259366772717 9.69746404827994 17.402189188999333 0 -1 0
1126 376 2 -1.1794 -14.846492595380802 14.467479800762916 20.388903768581624 0 -1 0
1096 366 2 -1.1794 -17.982727947541505 14.557023322771109 18.960031320777176 0 -1 0
1002 334 1 0.5897 -16.166883002541184 10.302944969547244 17.806116825204796 0 -1 0
1142 381 1 0.5897 -17.702489271720147 14.902077383165818 20.79450995119383 0 -1 0
993 331 1 0.5897 -16.18306041232184 13.154924968728807 16.49586851075805 0 -1 0
305 102 1 0.5897 -1.3892633111045534 -6.281627745394666 2.5377093801006145 1 1 0
311 104 1 0.5897 -2.680049346729514 -8.143782923182304 3.646092647091171 1 1 0
318 106 1 0.5897 -2.570685937396741 -4.047175551783692 1.9522604910364094 1 1 0
322 108 2 -1.1794 -6.173778608687265 -4.657997870997041 3.0545463532861343 1 1 0
201 67 1 0.5897 0.36425310477617856 -8.64707667219668 0.2858507075547285 1 1 0
304 102 2 -1.1794 -1.2943291323949655 -7.175237737012435 2.867359396387235 1 1 0
316 106 2 -1.1794 -1.7159088789790164 -4.4773850069427 1.9749307280188604 1 1 0
242 81 1 0.5897 -1.07498195430599 -6.684850144141937 4.525682799646318 0 1 0
306 102 1 0.5897 -0.7026944089834135 -7.598931735989488 2.2454759996450075 1 1 0
3 1 1 0.5897 -1.393703280049861 -3.501968776573017 4.78016792206362 0 0 0
243 81 1 0.5897 -0.679890492832163 -5.550173831006333 5.4468565727404465 0 1 0
293 98 1 0.5897 -4.941457519958276 -3.6892244028910506 2.2458482711887133 1 1 0
241 81 2 -1.1794 -0.8950356736062925 -6.4829067436818795 5.443877439434092 0 1 0
1262 421 1 0.5897 -2.0006330137281036 -5.903962662277298 0.6419214751324444 0 0 1
317 106 1 0.5897 -1.0850329383828203 -3.7621500982855975 1.8931891000953058 1 1 0
632 211 1 0.5897 -4.655125297388773 -5.843911418532639 6.6200140863500705 1 1 0
555 185 1 0.5897 -2.4170772661790068 -6.760773221598766 6.47365208491611 0 1 0
554 185 1 0.5897 -2.821214484795558 -6.743162616305238 7.932494363560152 0 1 0
553 185 2 -1.1794 -3.180701866494787 -6.814799444228362 7.048271165802972 0 1 0
546 182 1 0.5897 0.016460742836322595 -7.563805356796651 6.602916906450304 0 1 0
359 120 1 0.5897 -4.520854014875421 -3.062397950591108 8.785610018979552 0 0 0
356 119 1 0.5897 1.1298809788215838 -7.023437939832713 10.08481713740621 0 0 0
348 116 1 0.5897 -1.3481211331108742 -6.4868726636546095 10.046786595751762 0 0 0
347 116 1 0.5897 -1.1456409483162453 -5.480689685333299 8.93399683941993 0 0 0
346 116 2 -1.1794 -1.8269810156023958 -5.949607998904824 9.415756439771013 0 0 0
336 112 1 0.5897 -3.3627284597901657 -4.989434520304426 9.590091897074513 0 0 0
334 112 2 -1.1794 -4.255737452534573 -4.645528726999533 9.567760161589897 0 0 0
544 182 2 -1.1794 0.39326825686950073 -8.095875951198867 7.303682207580347 0 1 0
335 112 1 0.5897 -4.811828847940404 -5.412786050454433 9.703105489109035 0 0 0
404 135 1 0.5897 -5.418960843404498 -3.8498096689770485 5.832328652069972 1 0 0
357 119 1 0.5897 1.2335641622182205 -7.170641429165151 8.581666963798876 0 0 0
326 109 1 0.5897 -3.2680904236397996 -7.747175705096473 10.640668090217721 0 0 0
802 268 2 -1.1794 -2.841441499061456 -2.2375602743354905 14.882490295078613 0 0 0
793 265 2 -1.1794 -2.0607305385091124 -5.790549651733636 15.49202775441584 0 0 0
795 265 1 0.5897 -2.9064303978408716 -5.4531370828178645 15.196821168624014 0 0 0
803 268 1 0.5897 -3.419042224721644 -2.9892378294982933 14.749732060259275 0 0 0
774 258 1 0.5897 -5.117177666610799 -2.377521120184162 12.772288412904192 0 0 0
787 263 2 -1.1794 -4.400507252364223 -4.574515176357735 14.826089113888713 0 0 0
718 240 2 -1.1794 -0.03401947961646812 -6.892762334252914 13.863007259560467 0 0 0
699 233 1 0.5897 -0.918156175054472 -4.301515237792664 11.731482029352382 0 0 0
697 233 2 -1.1794 -1.5577105308261014 -4.55784297223484 12.395914864664174 0 0 0
677 226 1 0.5897 -2.7326369281186107 -5.9889552069663665 12.321839547860169 0 0 0
676 226 2 -1.1794 -3.372210878100576 -6.691482337460116 12.43867616597226 0 0 0
698 233 1 0.5897 -1.1689767981033459 -4.27674462668586 13.22424164752061 0 0 0