LAMMPS data file via write_data, version 30 Jul 2021, timestep = 6000000

864 atoms
2 atom types
576 bonds
1 bond types
288 angles
1 angle types

0.6266048307133456 17.580967569282613 xlo xhi
1.8295889928693576 21.799588807133894 ylo yhi
0.7644564298894387 21.448739370105468 zlo zhi

Masses

1 1.00794
2 15.9994

Pair Coeffs # lj/cut/tip4p/long/omp

1 0 0
2 0.21084 3.1668

Bond Coeffs # harmonic/omp

1 450 0.9572

Angle Coeffs # harmonic/omp

1 55 104.52

Atoms # full

95 1 1 0.5897 4.785036434052669 5.445112856582166 2.0985588463011005 -3 1 -1
92 1 1 0.5897 2.0359288421473893 5.073678534447424 3.6477630945134734 3 -7 0
761 1 1 0.5897 4.838086582110567 4.243025457604869 5.056037806247987 1 -2 -3
93 1 1 0.5897 1.4930888840809462 5.355065932742409 5.032804930124326 3 -7 0
768 1 1 0.5897 2.6221453902954543 5.302690165438814 0.9924548833037933 -2 1 -2
222 1 1 0.5897 1.3217102182900007 2.0864585590671623 4.629494714409995 5 -2 6
766 1 2 -1.1794 3.084915735191021 5.633840180593962 1.7622216665048973 -2 1 -2
91 1 2 -1.1794 1.2435729197216805 4.999532776245044 4.179757418939437 3 -7 0
714 1 1 0.5897 3.1398383817279165 1.8772281804385358 4.244599221279043 -8 -1 1
760 1 2 -1.1794 4.131241607654169 4.852598130284136 5.268509097190871 1 -2 -3
767 1 1 0.5897 2.6002836508778637 6.4200873789125135 2.0138042300138617 -2 1 -2
789 1 1 0.5897 4.394663251504646 2.224303195858017 2.6280096761239466 1 0 6
660 1 1 0.5897 4.454102523504661 6.7260287225050375 4.220938730083042 -2 -1 2
436 1 2 -1.1794 3.7269985524745213 6.068912457913538 9.136403111514872 -3 4 3
690 1 1 0.5897 4.263582633226205 3.4846820021141593 10.818087623311785 2 -1 2
672 1 1 0.5897 0.9873440379461145 4.7966038208346236 10.057127766411268 5 1 3
438 1 1 0.5897 2.962927311440907 5.751463964552732 9.617822798250755 -3 4 3
537 1 1 0.5897 2.841002113538547 2.8627122835171024 6.710161556007665 6 5 2
192 1 1 0.5897 2.448369480413257 5.927931852254045 7.33829128774318 3 5 -8
437 1 1 0.5897 4.418048649184996 5.438654045430907 9.340363592350652 -3 4 3
536 1 1 0.5897 1.8522879999662303 3.5209687018006157 7.648945268724069 6 5 2
857 1 1 0.5897 2.2126412345822044 2.2185942564845127 8.904205066631198 2 -1 -6
190 1 2 -1.1794 1.8709663036073056 6.1343876364503105 6.603223165094439 3 5 -8
535 1 2 -1.1794 2.7875822269307196 3.3563861907157353 7.528567819960212 6 5 2
670 1 2 -1.1794 1.6226107286754412 5.215169834801992 10.638145839147418 5 1 3
191 1 1 0.5897 1.1185206398272163 6.56974577395439 7.004014263163498 3 5 -8
762 1 1 0.5897 3.663607669163704 4.435070780525972 5.99192610292428 1 -2 -3
717 1 1 0.5897 4.549101121563286 5.269536689689123 12.17480626026667 5 -9 -4
260 1 1 0.5897 2.149960059814025 3.624770401665727 15.549262424794785 2 -1 5
420 1 1 0.5897 4.516993734828097 3.467457180616587 13.408321223329278 -7 -4 5
419 1 1 0.5897 4.461333622733463 3.641918762115334 14.91119753103347 -7 -4 5
37 1 2 -1.1794 1.1246881345164321 3.994968493058879 13.985197241884608 0 3 -2
689 1 1 0.5897 2.9794915824450903 4.162801347818432 11.246414833148563 2 -1 2
39 1 1 0.5897 1.309876404345525 3.1881903576834243 13.50440746960574 0 3 -2
802 1 2 -1.1794 3.606834156256153 5.996219105078718 15.937814455379538 3 1 -3
803 1 1 0.5897 2.874117350811492 6.336903033554524 15.424500749529013 3 1 -3
272 1 1 0.5897 1.2771159913432042 5.8079173724546465 13.657656871446434 1 5 2
688 1 2 -1.1794 3.779377043144584 3.7679742256870385 11.593745953638319 2 -1 2
271 1 2 -1.1794 1.508058947345804 6.685035451263868 13.963770503036358 1 5 2
261 1 1 0.5897 3.276724447757016 4.341031447409439 16.26308546283012 2 -1 5
671 1 1 0.5897 1.1155554045122158 5.873004992005781 11.114057417481416 5 1 3
338 1 1 0.5897 1.6517933929704254 2.8046394595665576 20.43605120490874 1 0 2
154 1 2 -1.1794 1.0188991823774936 5.312567042604764 17.92116787529813 3 3 -5
109 1 2 -1.1794 1.258495219732877 4.556566848339404 20.61746776978564 3 1 -9
160 1 2 -1.1794 3.7238299794780247 6.690249071188173 18.555478699331765 2 7 2
204 1 1 0.5897 3.888418117302744 4.8840682278660115 19.56922252667082 -2 4 3
259 1 2 -1.1794 2.703031932186614 3.5775781556745914 16.329164587863012 2 -1 5
804 1 1 0.5897 3.4097918508697225 6.254672839755566 16.838222691088234 3 1 -3
111 1 1 0.5897 0.9252452404015468 4.7904362197505455 19.751085133497998 3 1 -9
156 1 1 0.5897 1.6875446511404955 4.937183754981411 17.348152406370396 3 3 -5
337 1 2 -1.1794 2.1019131180562303 1.9664654469839147 20.33005939323909 1 0 2
202 1 2 -1.1794 4.577630019739563 4.219825581968241 19.579760795373783 -2 4 3
240 1 1 0.5897 3.2536616080519907 2.130350026807541 17.381154907729798 -5 -5 -1
741 1 1 0.5897 1.2654987325521523 8.219829267277689 2.1539416100043005 1 -2 1
340 1 2 -1.1794 4.375927525468446 10.822264112103968 2.4787172327002756 2 6 1
341 1 1 0.5897 4.65805244750045 10.70865061575083 3.3863738446845453 2 6 1
852 1 1 0.5897 2.505513296327613 11.224238150341804 2.8365954016135433 -5 1 0
34 1 2 -1.1794 2.2296277101955457 8.625824007422706 5.19760437748244 -4 1 0
36 1 1 0.5897 1.7160808870654631 8.490429058398044 4.4011725130044335 -4 1 0
342 1 1 0.5897 4.864085532916328 10.158926178911155 1.990838751075914 2 6 1
739 1 2 -1.1794 0.9813180645886399 7.910407809435395 3.014084598035741 1 -2 1
659 1 1 0.5897 3.8810863438893386 8.124005709454838 4.3189824657196905 -2 -1 2
850 1 2 -1.1794 1.550579336609378 11.215393639993522 2.770424315008534 -5 1 0
35 1 1 0.5897 2.177825607953405 7.79010108378263 5.661545080834759 -4 1 0
658 1 2 -1.1794 4.575902052520631 7.618518868313223 3.8969366065333233 -2 -1 2
851 1 1 0.5897 1.364073353181444 11.640119132275416 1.933064609592643 -5 1 0
847 1 2 -1.1794 2.2607266975105973 8.414923374127987 9.071769660786751 6 -2 3
849 1 1 0.5897 2.860567836288079 7.689731174958585 8.896707835578125 6 -2 3
474 1 1 0.5897 3.0806406082711986 10.524698594300439 7.819236726679243 2 -1 0
472 1 2 -1.1794 2.7953754831947433 10.815791815244566 6.9530518376392045 2 -1 0
473 1 1 0.5897 2.918311235968464 10.051191899647952 6.390361096281271 2 -1 0
848 1 1 0.5897 1.4414991863884477 8.15600508882708 8.649665460669196 6 -2 3
749 1 1 0.5897 2.213410839547237 9.029464643978251 10.713030539358183 2 2 -2
390 1 1 0.5897 1.0039038833066227 10.482009852564737 10.797136810115644 4 5 3
185 1 1 0.5897 0.8933890677024603 10.251694373680722 6.313746806464685 1 6 4
352 1 2 -1.1794 4.758410029877245 10.573814748730372 9.289923247810897 7 1 -1
576 1 1 0.5897 1.4032502467696606 9.328571827634825 15.903819243709973 2 -1 -1
612 1 1 0.5897 2.9000684827186993 9.174044414097938 14.168340557830694 4 1 -1
676 1 2 -1.1794 0.9513452318039355 9.941015581652485 14.029516778448297 1 1 -2
610 1 2 -1.1794 3.7846855244676103 8.822108921328057 14.06857886778082 4 1 -1
750 1 1 0.5897 2.9552538697975943 9.618554326137652 11.894052313988826 2 2 -2
748 1 2 -1.1794 2.0862953366121326 9.332662679765264 11.612063841069656 2 2 -2
198 1 1 0.5897 0.8188961426066292 7.621284116931644 12.038135839782347 0 -3 1
677 1 1 0.5897 1.2551578064627187 9.919930081345404 13.121974461744273 1 1 -2
611 1 1 0.5897 3.652709092365382 7.899469460348062 13.850270272472347 4 1 -1
273 1 1 0.5897 0.7516381257110835 6.966505766299332 14.478507681936359 1 5 2
514 1 2 -1.1794 4.383596253703624 11.689951789879313 15.384313707006866 -1 -3 0
678 1 1 0.5897 1.1171743269316536 10.838812536614665 14.317314562505524 1 1 -2
515 1 1 0.5897 4.745193570382895 10.899389664587606 15.785077465179977 -1 -3 0
172 1 2 -1.1794 2.577931322831191 11.740096257594448 17.925878801503917 2 3 -3
566 1 1 0.5897 1.6960379338415086 8.000088807946012 20.359521195526757 -1 3 -8
119 1 1 0.5897 2.581395329922702 11.193125942069035 19.638049783174967 4 -5 -1
55 1 2 -1.1794 1.0566975854897729 7.868293829961799 18.77125944365114 -8 1 0
161 1 1 0.5897 4.226765400594843 7.48031497500613 18.35742830371014 2 7 2
162 1 1 0.5897 2.94865080216273 7.008850712074148 19.01804357502365 2 7 2
118 1 2 -1.1794 2.6647775690084994 10.794566907093945 20.50439634610845 4 -5 -1
567 1 1 0.5897 2.3251591542776002 9.053505464255117 21.24648471140293 -1 3 -8
120 1 1 0.5897 3.210016274308454 11.406695111332986 20.998722276976373 4 -5 -1
747 1 1 0.5897 3.815614194185453 9.495581326694776 18.187418418404885 3 1 -10
575 1 1 0.5897 2.04194155739473 10.106443250511223 17.034832959023277 2 -1 -1
56 1 1 0.5897 1.2590249934854034 8.396239761296215 17.99881000180879 -8 1 0
745 1 2 -1.1794 4.733481005598953 9.31358876963672 18.38927093875937 3 1 -10
574 1 2 -1.1794 2.002018855279683 9.233250787955207 16.64459403939172 2 -1 -1
57 1 1 0.5897 0.8907828884656008 6.991129317172628 18.42570749889656 -8 1 0
565 1 2 -1.1794 2.0130242456293663 8.148571392542312 21.25049263135181 -1 3 -8
595 1 2 -1.1794 3.1477481803458214 12.83158457619548 5.099057808654381 -1 -3 2
275 1 1 0.5897 3.031777504431039 15.405195912633555 3.5493989225078546 -1 4 -2
274 1 2 -1.1794 2.862321186355241 15.047362331088186 2.6778497670063097 -1 4 -2
492 1 1 0.5897 3.6071339929802906 14.549615841074448 5.328460023971195 2 3 5
509 1 1 0.5897 1.165129903017485 14.751861040508478 3.576363414558332 3 -1 6
490 1 2 -1.1794 3.6325587636224492 15.503513884689326 5.252298028842043 2 3 5
491 1 1 0.5897 2.936259517007225 15.809320043070576 5.833688894918053 2 3 5
785 1 1 0.5897 2.519660161632829 16.13254868611407 1.1639528250460986 6 7 2
276 1 1 0.5897 3.5652068517384556 14.41271056279679 2.5381437207855506 -1 4 -2
597 1 1 0.5897 2.3378647279932845 12.951987260271265 4.603141505748271 -1 -3 2
101 1 1 0.5897 4.8234279697544435 13.427800606845787 3.6320603580692574 9 -5 -1
596 1 1 0.5897 2.938779729938614 12.150223137160879 5.738158192031339 0 -3 2
102 1 1 0.5897 4.818776859924755 12.532745927019384 2.410979759282113 9 -5 -1
40 1 2 -1.1794 1.5063569372467762 16.537131357192564 7.164901411739293 -2 -1 3
305 1 1 0.5897 2.9058923991379806 13.565626787600221 9.139383738750526 3 -3 -8
306 1 1 0.5897 2.756263376706487 14.812044657065531 8.293047600533026 3 -3 -8
479 1 1 0.5897 1.3193347038059424 13.138430662180037 7.789359807574216 -4 4 -1
304 1 2 -1.1794 3.0361777820591644 13.8975773382163 8.25101627352194 3 -3 -8
19 1 2 -1.1794 2.190293895102385 15.594777658459934 10.498142051714195 -5 -3 1
329 1 1 0.5897 4.618489180147619 13.092370303415642 7.27500656648743 4 5 -3
21 1 1 0.5897 1.4469749546326782 15.633154384951336 11.100092584093927 -5 -3 1
653 1 1 0.5897 4.170646354073308 12.080481132989037 10.10789663873895 1 2 2
652 1 2 -1.1794 3.852544298859947 12.796805138540586 10.657469750506744 1 2 2
654 1 1 0.5897 4.645001329195454 13.256658075565344 10.934819793971693 1 2 2
41 1 1 0.5897 0.6355511449252963 16.731019157487573 6.817764504204201 -2 -1 3
20 1 1 0.5897 2.8630639467002847 15.111650146101171 10.978050814561724 -5 -3 0
468 1 1 0.5897 3.1878401060085784 12.107328400391781 13.783356394858536 4 -3 6
218 1 1 0.5897 4.530141572873622 14.648576769749205 12.997395814730522 4 -1 2
794 1 1 0.5897 1.1811257581974322 12.745332994967164 12.434574480113557 -6 2 6
217 1 2 -1.1794 3.8612801938425836 15.052066618348181 13.55072822347625 4 -1 2
219 1 1 0.5897 4.131232105827255 15.967501287504803 13.624698867203529 4 -1 2
721 1 2 -1.1794 2.304769165448821 14.07354454416845 15.813908728152747 3 0 1
467 1 1 0.5897 3.2829537244405915 12.211551416511885 12.27589574588564 4 -3 6
723 1 1 0.5897 2.7607836022397163 14.3315639697706 15.012729984489184 3 0 1
171 1 1 0.5897 0.8825170407810171 15.096136140502002 15.859601979503514 -4 4 -1
246 1 1 0.5897 1.3637290124001593 16.55105834826682 12.93722188160149 -5 4 -3
836 1 1 0.5897 1.0610581067784564 12.659347699052535 15.592530689343391 -1 1 -1
466 1 2 -1.1794 2.6980879950934 11.931042867178027 12.979943692396668 4 -3 6
711 1 1 0.5897 4.650531541129372 14.03748366394997 17.867874634571194 -6 -5 -2
779 1 1 0.5897 0.9889260552828771 15.564690643084074 18.201366614070864 -1 0 -2
589 1 2 -1.1794 3.606011519630514 13.589649656875915 20.848486134769647 6 6 2
280 1 2 -1.1794 0.8074481299274567 13.088720225754315 21.33302213419143 0 -1 -1
591 1 1 0.5897 4.142736121766612 12.890186841445319 20.475601571721235 6 6 2
174 1 1 0.5897 1.7307795377743143 12.148190559230228 18.105147083335584 2 3 -3
778 1 2 -1.1794 0.8312104610374556 16.414971707521698 18.611845114804094 -1 0 -2
282 1 1 0.5897 1.6834747936346246 13.472947572611234 21.368929136844546 0 -1 -1
786 1 1 0.5897 1.8635775782652213 16.397819467856934 20.50974440416528 6 7 1
709 1 2 -1.1794 3.8732760865726807 14.486897470735464 18.199903760635227 -6 -5 -2
710 1 1 0.5897 3.9219193258670457 14.380318651150104 19.14996554070593 -6 -5 -2
296 1 1 0.5897 3.503720537075432 16.20871840866193 17.30351005244386 -4 4 3
137 1 1 0.5897 4.414997255164679 16.39996163808924 20.817917200627477 5 -8 -2
590 1 1 0.5897 4.2129320754859325 14.320260841750596 20.967698426634513 6 6 2
784 1 2 -1.1794 2.428616993058097 16.80093694694083 21.169007039516362 6 7 1
173 1 1 0.5897 3.039014304092714 12.375089426313696 17.37766863950202 2 3 -3
722 1 1 0.5897 2.9228948944438384 14.273691814048991 16.516917256677242 3 0 1
188 1 1 0.5897 0.6881858804373806 13.369204320421057 19.635743836368484 0 5 0
713 1 1 0.5897 2.8118506885498324 20.59452810211253 5.029042238707037 -8 -2 1
277 1 2 -1.1794 2.9771609733835156 18.78839588860048 4.987036303912796 -1 -4 1
425 1 1 0.5897 0.7817621413172207 17.95465153151376 3.209981203271241 9 -7 4
279 1 1 0.5897 2.2595407738809046 18.260399552019447 4.636870805453154 -1 -4 1
530 1 1 0.5897 2.4553146667840915 20.48749247814063 2.2647124907044622 -1 -1 -4
529 1 2 -1.1794 2.640958798121385 21.426540782777177 2.2746916423328774 -1 -1 -4
278 1 1 0.5897 3.6499958499980907 18.760227102144906 4.306713294819495 -1 -4 1
424 1 2 -1.1794 0.9214971477680032 17.241972214043564 3.8336140248221144 9 -7 4
531 1 1 0.5897 2.5211323565559716 21.704540766478274 1.3665455340126456 -1 -1 -4
364 1 2 -1.1794 1.227174860152653 18.92860931416536 1.778199485377857 2 4 3
284 1 1 0.5897 4.474506665023627 19.297548775332473 2.143689392891745 2 -2 -2
366 1 1 0.5897 1.77144688038908 18.28042427198377 1.3310005255270043 2 4 3
283 1 2 -1.1794 4.771131503525345 19.234617289912304 3.0516579302065017 2 -2 -2
712 1 2 -1.1794 2.864778711913789 21.54681416746952 5.110876714728233 -8 -2 1
734 1 1 0.5897 3.221770055269541 20.997550546915168 10.243690091293644 -2 -1 -4
363 1 1 0.5897 3.195988040701825 19.366486298288343 6.781975476842078 4 -3 0
361 1 2 -1.1794 3.68568862645487 19.380393890013696 7.604378857011016 4 -3 0
362 1 1 0.5897 3.0313732399516646 19.18961292341533 8.276584563380299 4 -3 0
856 1 2 -1.1794 1.6970509686700392 21.63631235592426 9.492006069057574 2 -2 -6
498 1 1 0.5897 2.451847427781707 17.486794389837055 9.901985518539368 -3 1 0
497 1 1 0.5897 1.1876010126911936 18.309915144852397 9.774138508157112 -3 1 1
858 1 1 0.5897 1.0981781677899722 21.163872050348022 8.913643700301536 2 -2 -6
496 1 2 -1.1794 2.1134193686117926 18.301759249294975 9.530960964346633 -3 1 1
42 1 1 0.5897 1.5770950526894185 17.078127082514328 7.951481588164326 -2 -1 3
735 1 1 0.5897 3.450563424625467 19.60748935826411 10.79836623112939 -2 -1 -4
733 1 2 -1.1794 3.814054596806743 20.49309289282957 10.80142081539337 -2 -1 -4
213 1 1 0.5897 4.413900174026432 17.613951646663274 7.817782275115503 3 0 2
602 1 1 0.5897 4.772266453244588 17.138321574912073 10.12052850941226 1 4 0
601 1 2 -1.1794 4.597207771115421 17.31755902998905 11.044422588268782 1 4 1
67 1 2 -1.1794 1.9018318282636077 21.521632292915942 12.892699974598385 1 -3 -1
26 1 1 0.5897 3.121392438041293 18.20056293495653 13.684716982047402 -2 7 4
791 1 1 0.5897 2.4935477078306176 20.62777322610875 15.584416049132876 3 5 -1
25 1 2 -1.1794 2.687536728010209 17.903385166284338 12.884829448824382 -2 7 4
69 1 1 0.5897 2.436366600290099 21.300210987335614 12.130062491980038 1 -3 -1
27 1 1 0.5897 3.402298523625873 17.750626274734085 12.2666658609925 -2 7 4
68 1 1 0.5897 2.448295246308926 21.29078845725413 13.643986000955906 1 -3 -1
790 1 2 -1.1794 3.2578786506749178 20.276169407092386 15.127747216008515 3 5 -1
349 1 2 -1.1794 0.720675895700892 21.018451789312817 15.995175665987516 -10 0 -3
792 1 1 0.5897 3.8850754233154587 20.081621704684423 15.824279558641978 3 5 -1
407 1 1 0.5897 4.588428797744897 17.769038212293673 15.604886743598955 -4 -4 -1
291 1 1 0.5897 1.2392071527147166 18.754408300513063 12.076287238902655 -7 -6 -8
86 1 1 0.5897 1.6407707407023655 18.043783058261926 16.10350101740849 2 4 2
297 1 1 0.5897 3.1836512109325454 17.654144922729436 17.620477512175597 -4 4 3
666 1 1 0.5897 3.445705620487929 18.971113576612343 19.761308290357515 0 1 1
317 1 1 0.5897 1.2368506813106122 19.197795766671117 19.054873057260103 -5 -5 2
238 1 2 -1.1794 3.422519467130838 21.314704037144715 17.901345641426506 -5 -6 -1
664 1 2 -1.1794 2.9765577857009977 18.852119558787752 18.9354094652078 0 1 1
665 1 1 0.5897 3.098660963388669 19.678962981964368 18.468731953586236 0 1 1
295 1 2 -1.1794 3.396521803685664 17.067564468594675 16.894564433217468 -4 4 3
239 1 1 0.5897 2.9929990074997495 21.485051019248054 18.73970470748626 -5 -6 -1
85 1 2 -1.1794 0.7795478785972387 18.13387963434253 16.51162163057232 2 4 2
780 1 1 0.5897 1.0073663265457868 17.052093779187896 17.91946814977009 -1 0 -2
339 1 1 0.5897 1.3976378630956336 21.299292554359702 20.210245078881726 1 -1 2
775 1 2 -1.1794 4.723036432991024 19.464770945998833 21.09847838680395 7 -6 3
777 1 1 0.5897 4.659693694074861 20.415438948359945 21.00594235490104 7 -6 3
532 1 2 -1.1794 8.573533947630924 5.917678321043699 5.4587283511466 -6 -2 0
696 1 1 0.5897 7.985596104006007 4.316622524131707 3.8560983218750375 -1 -2 0
96 1 1 0.5897 5.51200490754652 4.2743621690823534 2.725510208000242 -4 1 -1
44 1 1 0.5897 6.415569804963391 5.58720273930234 0.8402646425079525 2 6 0
94 1 2 -1.1794 5.651050201347097 5.160257676677533 2.39048498266294 -4 1 -1
695 1 1 0.5897 7.928567193682955 2.8057053536754237 3.778160519917282 -1 -2 0
694 1 2 -1.1794 8.225891879680685 3.577865653909768 3.2967745467181873 -1 -2 0
461 1 1 0.5897 8.172933015592296 3.2556366193282518 1.6406898892565625 2 7 -1
787 1 2 -1.1794 5.1475783885529305 2.5790994123990822 3.100860755008714 1 0 6
788 1 1 0.5897 5.865189401529482 1.9805478093206483 2.8932033237672226 1 0 6
534 1 1 0.5897 8.343931921340944 6.756302146715831 5.058259611190675 -6 -2 0
72 1 1 0.5897 6.544703307197399 4.17328112969542 10.283649283471142 4 3 -5
561 1 1 0.5897 7.131009920930807 3.2455509439804007 6.767868678306329 6 2 0
559 1 2 -1.1794 6.33762693432123 3.0778042089225526 6.259168468191979 6 2 0
586 1 2 -1.1794 8.580212372391703 3.814504999681207 8.034742360849416 0 1 6
545 1 1 0.5897 7.071020395347289 6.403775865649854 10.053267768136172 -3 2 5
560 1 1 0.5897 6.060179008093797 2.2022182535083337 6.52890882822546 6 2 0
588 1 1 0.5897 8.19384126137242 4.189530518357319 8.82621460790622 0 1 6
243 1 1 0.5897 5.560102245852123 2.4788858228341777 9.312297817818795 -1 -2 3
636 1 1 0.5897 5.659017091741866 5.513310287475116 6.53865493434666 -6 1 4
70 1 2 -1.1794 7.317910470163868 4.535077680984591 10.716777473053257 4 3 -5
634 1 2 -1.1794 6.120792909898706 6.087221091213855 7.1499973494854085 -6 1 4
533 1 1 0.5897 7.833869628312447 5.714772374761129 6.031528390395554 -6 -2 0
241 1 2 -1.1794 5.174589387060359 3.3515726879525816 9.23381877284159 -1 -2 3
257 1 1 0.5897 9.061053099136547 5.018559018223641 10.882184460300405 -1 -1 1
546 1 1 0.5897 6.4634955817893385 6.820522986169821 8.730612129201145 -3 2 5
182 1 1 0.5897 9.082900127297785 2.201470983032545 8.933014853941444 -2 2 -2
242 1 1 0.5897 4.907459849905565 3.414360219921284 8.31673073206013 -1 -2 3
716 1 1 0.5897 5.572249553946081 5.818280812011299 13.146521157886514 5 -9 -4
18 1 1 0.5897 6.825139178797143 4.17587434279098 13.867058975629629 -2 4 4
616 1 2 -1.1794 8.129288524213084 2.2873533800884362 13.1088468880993 0 4 1
17 1 1 0.5897 6.891433598341549 5.468108753688018 14.653158742870417 -2 4 4
418 1 2 -1.1794 4.993397315573808 3.2609807351334132 14.212527658257374 -7 -4 5
158 1 1 0.5897 8.677842216186894 4.500738160565577 14.900195694327715 3 1 -1
16 1 2 -1.1794 7.232171331333935 5.042315819231417 13.86643160967517 -2 4 4
618 1 1 0.5897 8.404849102627907 1.886213973883674 13.933178701372901 0 4 1
554 1 1 0.5897 8.27511949773404 6.596751847628731 13.261380468716919 -5 -7 3
71 1 1 0.5897 7.207258494623437 4.302769233491788 11.638827855734558 4 3 -5
206 1 1 0.5897 5.811971746193545 5.704687585679478 16.277141076775287 -6 2 -1
205 1 2 -1.1794 6.472133797092842 6.360216577486844 16.051724292903515 -6 2 -1
715 1 2 -1.1794 4.905278863563072 6.0899818478859675 12.515906647421534 5 -9 -4
460 1 2 -1.1794 8.10583632332147 3.0143462401429657 21.401056992285625 2 7 -2
754 1 2 -1.1794 8.331229303727035 3.221627994597949 17.936663262327087 -5 -3 -7
631 1 2 -1.1794 5.696546923053294 3.7815194841393938 17.100634639713057 2 5 5
632 1 1 0.5897 6.6202717104473106 3.854496671121761 17.341051672194737 2 5 5
623 1 1 0.5897 7.54842214705637 6.547386639542443 19.12274728985182 5 0 5
633 1 1 0.5897 5.230647616370063 3.7758806392080606 17.93685321291661 2 5 5
462 1 1 0.5897 8.886875229669636 2.4868434416710947 21.23344468591164 2 7 -2
45 1 1 0.5897 7.5142784479356886 4.769815635261867 20.878866591073603 2 6 -1
681 1 1 0.5897 6.421308795102143 2.453730765701863 21.123550129425098 -6 -7 -2
203 1 1 0.5897 5.342147056124737 4.672853862441272 19.935599900710187 -2 4 3
207 1 1 0.5897 6.94631968123754 6.514152319562034 16.868913534035556 -6 2 -1
755 1 1 0.5897 8.818735161545476 3.2743580831554606 17.11452974731241 -5 -3 -7
43 1 2 -1.1794 6.971001861694705 5.546690151243166 20.745957700224526 2 6 -1
680 1 1 0.5897 5.124156047616448 2.749226335742438 20.40088730857456 -6 -7 -2
756 1 1 0.5897 8.982502801728069 3.4043239714917166 18.61401973320157 -5 -3 -7
679 1 2 -1.1794 5.605854652332507 2.04437658285463 20.833956061932895 -6 -7 -2
84 1 1 0.5897 6.2209804664033195 2.1627806592245724 16.440350778478503 -2 -3 -8
697 1 2 -1.1794 7.458737652958318 8.195570587223084 4.480749940222147 -1 3 -3
699 1 1 0.5897 7.796906845164809 8.83796754236219 3.8568028852905982 -1 3 -3
166 1 2 -1.1794 8.039230481825973 8.108412032082077 1.180482391907421 -3 -3 5
692 1 1 0.5897 7.831250446701319 10.902898472355625 2.902189519343825 2 0 1
698 1 1 0.5897 6.56466518844972 8.022223532168592 4.185916728910231 -1 3 -3
168 1 1 0.5897 7.244589092248522 8.64215808008123 1.1767615606608466 -3 -3 5
691 1 2 -1.1794 8.323188356903188 11.047320259162309 3.710580285531291 2 0 1
538 1 2 -1.1794 5.3816765082651585 8.41889070113614 1.4596547034737748 -6 -7 0
693 1 1 0.5897 7.767956727327687 11.630253328327573 4.228508550648332 2 0 1
65 1 1 0.5897 7.932376306450029 10.624966325131394 0.7679871977485246 3 1 -1
167 1 1 0.5897 7.725172020772882 7.20970261087673 1.0802949554131156 -3 -3 5
540 1 1 0.5897 4.8911539307420995 7.958072565784101 2.1403707507569383 -6 -7 0
64 1 2 -1.1794 7.19008938545745 10.767034461510688 1.3555103994346775 3 1 -1
6 1 1 0.5897 5.2041263756527485 9.883255906694444 5.651092083969151 -2 -1 -2
5 1 1 0.5897 5.132444630658131 11.395515411847061 5.638912825581385 -2 -1 -2
4 1 2 -1.1794 5.252382329334172 10.638707834250976 5.065140252662759 -2 -1 -2
66 1 1 0.5897 6.531635317214177 11.197971490143281 0.8104469973386195 3 1 -1
251 1 1 0.5897 4.955752542377204 9.245417914093995 7.8642808038310505 5 0 5
354 1 1 0.5897 5.5657284424718645 11.074760756034634 9.173126638907693 7 1 -1
445 1 2 -1.1794 7.839313572728016 9.716275876800339 6.949842938723157 4 1 -1
476 1 1 0.5897 5.943397616623091 8.259933240847001 10.61493537457352 7 -3 -3
731 1 1 0.5897 7.892239456241964 10.658045798932578 9.681261388118813 -1 -1 -3
353 1 1 0.5897 4.968595907810925 9.93536620673481 9.971499637477041 7 1 -1
833 1 1 0.5897 8.977772511829446 7.373631818688766 8.913055231276154 1 -3 -1
252 1 1 0.5897 6.258600901496958 9.023307025927863 7.125713861078771 5 0 5
730 1 2 -1.1794 7.652167427631676 11.394239594189504 9.118465514345257 -1 -1 -3
732 1 1 0.5897 7.862212532743732 11.097770919344292 8.232834923167058 -1 -1 -3
635 1 1 0.5897 5.682362667806859 6.933652549575259 7.062365623928252 -6 1 4
250 1 2 -1.1794 5.342100968304597 8.747497184143398 7.143747206617279 5 0 5
544 1 2 -1.1794 6.821692354423299 7.17527056202092 9.544370137416848 -3 2 5
446 1 1 0.5897 7.945208307064448 8.790771634252415 7.170444523896393 4 1 -1
661 1 2 -1.1794 8.698737017605948 9.818552948483212 11.047146135558648 -3 -5 1
447 1 1 0.5897 7.800718746161073 9.732157422676433 5.993489832382642 5 1 -1
772 1 2 -1.1794 7.639558986145815 10.846180117608565 15.014252626707274 3 -7 4
402 1 1 0.5897 6.246770162174867 8.198847366224495 16.126675998067725 -1 -3 1
773 1 1 0.5897 7.081797085136881 10.22170730223442 15.478240465823118 3 -7 4
555 1 1 0.5897 9.005268690071366 7.913297270353271 13.422089480600656 -5 -7 3
774 1 1 0.5897 7.099272499827612 11.156778506867985 14.287642853049247 3 -7 4
400 1 2 -1.1794 5.905791089317348 9.075335284616042 15.948217816778751 -1 -3 1
401 1 1 0.5897 5.188916870881685 8.932722629741932 15.330045179976583 -1 -3 1
807 1 1 0.5897 5.772076805509352 10.477626453354658 12.469404052550402 4 -1 -1
805 1 2 -1.1794 6.214804073575204 11.325525704026504 12.50717913523224 4 -1 -1
553 1 2 -1.1794 8.59411971002544 7.3509081340757145 12.76555349557361 -5 -7 3
475 1 2 -1.1794 5.546306035192599 8.687228881977504 11.373942333421976 7 -3 -3
806 1 1 0.5897 6.83453731283172 11.30541862665678 11.77786259842328 4 -1 -1
663 1 1 0.5897 8.630920897166485 8.939953057279709 11.421068359500634 -3 -5 1
500 1 1 0.5897 8.957100274971527 9.65756757357148 14.724570958489334 2 -2 -2
662 1 1 0.5897 9.077907966427965 10.349059343235218 11.747989389187566 -3 -5 1
477 1 1 0.5897 5.189957184243636 7.967775772379009 11.895249958614528 7 -3 -3
813 1 1 0.5897 6.265692647553536 11.803464891421417 19.392472160327102 -4 5 -5
2 1 1 0.5897 9.069944698335267 7.024503716710305 17.315013693051924 1 -6 4
812 1 1 0.5897 5.118999372380024 10.824366031114955 19.52896150723828 -4 5 -5
622 1 2 -1.1794 7.674635605358023 7.160655122692062 18.398653662955084 5 0 5
811 1 2 -1.1794 5.4773236545938175 11.627854077053232 19.90625789905085 -4 5 -5
759 1 1 0.5897 8.127455369789526 11.225577871038084 18.10708117147323 -1 3 2
624 1 1 0.5897 8.217462583219636 7.858002450761932 18.766603237466533 5 0 5
746 1 1 0.5897 5.1449219619328 9.17928353488966 17.53544509745944 3 1 -10
539 1 1 0.5897 5.016786636527576 8.091378386506024 21.321782421004084 -6 -7 -1
547 1 2 -1.1794 7.159762596928771 13.118570674623529 5.136392960622907 5 2 3
513 1 1 0.5897 5.587052437107718 15.914757978461632 5.4351882561960325 0 2 -2
549 1 1 0.5897 7.176142497276918 14.071784773395036 5.049858376211977 5 2 3
11 1 1 0.5897 7.790523320208553 12.97461688867329 1.436747010263926 -4 -1 3
512 1 1 0.5897 6.330209900404095 16.042160578631282 4.122278806724219 0 2 -2
10 1 2 -1.1794 7.590896227344303 13.861535005068527 1.7365367593114265 -4 -1 3
12 1 1 0.5897 6.751289081159329 13.77871781591405 2.188817636412958 -4 -1 3
637 1 2 -1.1794 6.340658479007163 16.714158672605613 2.260537654920552 -8 1 0
511 1 2 -1.1794 6.468859924537691 15.93237916257708 5.063065504081508 0 2 -2
524 1 1 0.5897 9.000287538736206 14.812406409388096 2.8905877009534477 2 -1 3
100 1 2 -1.1794 4.996151662194697 13.430935248977583 2.690518372008566 9 -5 -1
330 1 1 0.5897 6.081680859331799 13.286899251920085 7.611763118035818 4 5 -3
705 1 1 0.5897 7.678714173089001 15.283135925905945 9.880898120762314 6 -1 -1
328 1 2 -1.1794 5.4670787254220095 12.65029536550563 7.246595893279948 4 5 -3
703 1 2 -1.1794 8.262568449750217 15.584442754482309 10.577080677447315 6 -1 -1
384 1 1 0.5897 5.987014757022724 15.460272792102652 8.499605198089391 -10 -2 -5
383 1 1 0.5897 7.3873980522778755 15.26152982380959 7.959568568452588 -10 -2 -5
382 1 2 -1.1794 6.726959948630508 14.853286981130871 8.519521549378318 -10 -2 -5
409 1 2 -1.1794 8.73902346089072 15.76376128871032 6.822550632657545 5 3 -5
410 1 1 0.5897 8.357986075036973 15.824663969920827 5.946502823146552 5 3 -5
8 1 1 0.5897 8.960872284802418 13.563798512496659 10.885957463956412 0 -4 0
443 1 1 0.5897 9.075594771959429 12.68920511831255 8.940625870012795 6 4 -3
548 1 1 0.5897 6.737760519476381 12.961512703108133 5.981142278296573 5 2 3
374 1 1 0.5897 6.168657082739505 13.14625789437593 12.259022219814184 5 6 0
562 1 2 -1.1794 8.841300726501116 14.78495055068356 13.773090779485676 0 2 2
606 1 1 0.5897 8.874972861880694 12.179595344716933 15.53649562900644 -6 -1 -1
208 1 2 -1.1794 7.106760900173465 15.82372569079319 15.821375488395994 1 -5 5
743 1 1 0.5897 7.322074995358479 16.059672655598952 13.168875385386183 -4 0 -1
516 1 1 0.5897 4.926061393295846 12.40133461871814 15.724913392593013 -1 -3 0
373 1 2 -1.1794 6.070117818894476 14.054751422501283 11.973938614629349 5 6 0
375 1 1 0.5897 6.966813347412062 14.365769608228735 11.849255194719884 5 6 0
209 1 1 0.5897 8.062846192738263 15.802460352201152 15.86377446559196 1 -5 5
564 1 1 0.5897 9.031917795273005 14.233546447039682 14.532013676053824 0 2 2
179 1 1 0.5897 6.5005001050625575 14.069882269240562 16.276720405406834 -6 0 -4
180 1 1 0.5897 6.577657263422168 12.987927889599291 17.33293344279404 -6 0 -4
823 1 2 -1.1794 7.422594033362767 14.456708852673328 19.496307800529664 -2 5 2
824 1 1 0.5897 8.13026470580414 15.08879578901046 19.36974002387205 -2 5 2
136 1 2 -1.1794 5.1593001780920025 15.842165962167465 20.591576695412552 5 -8 -2
757 1 2 -1.1794 7.565874194008533 11.98102182948071 18.28106813961935 -1 3 2
825 1 1 0.5897 6.6558963589178415 14.9924220181099 19.70010868470406 -2 5 2
758 1 1 0.5897 8.17239637653907 12.67898297710494 18.528701506730055 -1 3 2
178 1 2 -1.1794 5.972147246698908 13.406854311335726 16.721216396753828 -6 0 -4
138 1 1 0.5897 5.758036453102846 15.92816219573603 21.333519341402287 5 -8 -2
210 1 1 0.5897 6.829296042532881 15.959549858215073 16.727452800428537 1 -5 5
345 1 1 0.5897 7.167955587240192 20.070732436597726 1.7032536873387016 -1 3 1
344 1 1 0.5897 7.858352738331461 20.4327951635062 3.0011309067850838 -1 3 1
639 1 1 0.5897 5.698408569409126 17.417540924269332 2.3561509052354612 -8 1 0