LAMMPS (30 Jul 2021)
  using 1 OpenMP thread(s) per MPI task
package omp 0
using multi-threaded neighbor list subroutines
echo both

include		in.partitions
variable        pid world 0
include		in.temp
variable        temperature equal 265.27
variable	tempDamp equal 100.0
include		in.pressure
variable        pressure equal 8625.0
variable        pressureDamp equal 1000.0 # This is 1 ps
include		in.seed
variable        seed world 745823

units		real
atom_style	full
read_restart	restart.lmp.${pid}
read_restart	restart.lmp.0
Reading restart file ...
  restart file = 30 Jul 2021, LAMMPS = 30 Jul 2021
  restoring atom style full from restart
  orthogonal box = (0.60559820 1.8048460 0.73882839) to (17.601974 21.824332 21.474367)
  4 by 4 by 4 MPI processor grid
  restoring pair style lj/cut/tip4p/long/omp from restart
  restoring bond style harmonic/omp from restart
  restoring angle style harmonic/omp from restart
  864 atoms
  576 bonds
  288 angles
Finding 1-2 1-3 1-4 neighbors ...
  special bond factors lj:    0        0        0       
  special bond factors coul:  0        0        0       
     2 = max # of 1-2 neighbors
     1 = max # of 1-3 neighbors
     1 = max # of 1-4 neighbors
     2 = max # of special neighbors
  special bonds CPU = 0.023 seconds
  read_restart CPU = 0.074 seconds
include 	in.setup
variable	out_freq equal 1000
variable	out_freq2 equal 10000
variable	out_freq3 equal 1000

timestep	2.0

neigh_modify    delay 7 every 1

include		in.tip4p
# This is TIP4P/Ice

# create groups ###
group ox type 2
288 atoms in group ox
group hy type 1
576 atoms in group hy

# set charges - beside manually ###
set group ox charge -1.1794
Setting atom values ...
  288 settings made for charge
set group hy charge 0.5897
Setting atom values ...
  576 settings made for charge

# ### TIP3P Potential Parameters ###
pair_style lj/cut/tip4p/long/omp 2 1 1 1 0.1577 8.5
pair_coeff 1 1*2 0.000 0.000
pair_coeff 2 2 0.21084 3.1668
bond_style  harmonic
bond_coeff  1 450 0.9572
angle_style harmonic
angle_coeff 1 55 104.52
kspace_style pppm/tip4p/omp 1.0e-5
pair_modify tail yes

thermo          ${out_freq}
thermo          1000
thermo_style    custom step temp pe etotal epair emol press lx ly lz vol pxx pyy pzz pxy pxz pyz enthalpy

restart 	${out_freq3} restart.lmp.${pid} restart2.lmp.${pid}
restart 	1000 restart.lmp.${pid} restart2.lmp.${pid}
restart 	1000 restart.lmp.0 restart2.lmp.${pid}
restart 	1000 restart.lmp.0 restart2.lmp.0


include         in.dump
dump            myDump all atom ${out_freq2} dump.water.${pid}
dump            myDump all atom 10000 dump.water.${pid}
dump            myDump all atom 10000 dump.water.0
dump            myDump2 all dcd ${out_freq2} dump.dcd
dump            myDump2 all dcd 10000 dump.dcd
dump_modify     myDump append yes
dump_modify     myDump2 append yes


variable natoms 	equal  "count(all)"                        # NUMBER ATOMS
variable H      	equal  "enthalpy/v_natoms"                 # ENTHALPY-per-atom
variable Vol      	equal  "vol/v_natoms"                 # volume-per-atom
fix AVG all 		ave/time ${out_freq} 1 ${out_freq} v_Vol v_H file vol_enthalpy.dat
fix AVG all 		ave/time 1000 1 ${out_freq} v_Vol v_H file vol_enthalpy.dat
fix AVG all 		ave/time 1000 1 1000 v_Vol v_H file vol_enthalpy.dat


timer           timeout 23:50:00 every 1000
New timer settings: style=normal  mode=nosync  timeout=23:50:00

fix 		1 all shake 1e-6 200 0 b 1 a 1
       0 = # of size 2 clusters
       0 = # of size 3 clusters
       0 = # of size 4 clusters
     288 = # of frozen angles
  find clusters CPU = 0.003 seconds
fix             2 all nph iso ${pressure} ${pressure} ${pressureDamp}
fix             2 all nph iso 8625 ${pressure} ${pressureDamp}
fix             2 all nph iso 8625 8625 ${pressureDamp}
fix             2 all nph iso 8625 8625 1000
fix             3 all temp/csvr ${temperature} ${temperature} ${tempDamp} ${seed}
fix             3 all temp/csvr 265.27 ${temperature} ${tempDamp} ${seed}
fix             3 all temp/csvr 265.27 265.27 ${tempDamp} ${seed}
fix             3 all temp/csvr 265.27 265.27 100 ${seed}
fix             3 all temp/csvr 265.27 265.27 100 745823

run             250000
PPPM initialization ...
  extracting TIP4P info from pair style
  using 12-bit tables for long-range coulomb (../kspace.cpp:340)
  G vector (1/distance) = 0.3741577
  grid = 24 24 24
  stencil order = 5
  estimated absolute RMS force accuracy = 0.0031728775
  estimated relative force accuracy = 9.5550262e-06
  using double precision FFTW3
  3d grid and FFT values/proc = 2535 216
Last active /omp style is kspace_style pppm/tip4p/omp
Neighbor list info ...
  update every 1 steps, delay 7 steps, check yes
  max neighbors/atom: 2000, page size: 100000
  master list distance cutoff = 10.8154
  ghost atom cutoff = 10.8154
  binsize = 5.4077, bins = 4 4 4
  1 neighbor lists, perpetual/occasional/extra = 1 0 0
  (1) pair lj/cut/tip4p/long/omp, perpetual
      attributes: half, newton on, omp
      pair build: half/bin/newton/omp
      stencil: half/bin/3d
      bin: standard
Per MPI rank memory allocation (min/avg/max) = 9.236 | 9.239 | 9.242 Mbytes
Step Temp PotEng TotEng E_pair E_mol Press Lx Ly Lz Volume Pxx Pyy Pzz Pxy Pxz Pyz Enthalpy 
 5750000     273.1693   -3850.9202   -3382.7174   -3850.9202            0    8513.5248    16.996376    20.019486    20.735539    7055.4477    7911.5494    9672.9707    7956.0544    543.70553    577.76665     485.3864   -2506.7057 
 5751000    268.90848   -3859.3804   -3398.4805   -3859.3804            0    8469.1854    16.937202    19.949787    20.663347    6982.0118    7903.7314    9308.3905    8195.4344   -1461.1595    795.23636   -198.98276   -2536.1016 
 5752000    279.80904   -3872.2146   -3392.6315   -3872.2146            0    8800.1342     16.97538    19.994755    20.709924    7029.3328    7977.9562    9434.0424     8988.404    1053.3256    346.92556   -1532.1628   -2490.4804 
 5753000    261.38843   -3854.1772   -3406.1664   -3854.1772            0    8053.7528    17.037734    20.068201    20.785996    7107.0785    6937.7288    8496.3103    8727.2193    1026.1419    241.30051   -703.50135   -2571.3994 
 5754000    244.39606   -3875.9876   -3457.1011   -3875.9876            0    7683.3915     17.05813    20.092224    20.810878    7132.6321    6703.5821    8557.1505    7789.4418   -623.89447    800.42045    743.36518   -2657.8584 
 5755000    265.44161   -3849.6435   -3394.6857   -3849.6435            0    8503.3133    16.958084    19.974383    20.688823    7007.8681    9385.8271    9857.7293    6266.3836      -413.72     404.2902   -696.99315   -2525.6252 
 5756000    276.93604   -3899.6582   -3424.9993   -3899.6582            0    8628.5494    16.979043    19.999069    20.714392    7033.8837    7059.2036    9222.0145    9604.4303    1464.2282    247.45539    557.06062   -2539.8657 
 5757000    270.17496   -3867.1616    -3404.091   -3867.1616            0    9493.3521    16.886998    19.890653    20.602098    6920.1089    8757.7102     9606.461    10115.885    874.43513    686.49043    1711.1873   -2445.9964 
 5758000    272.37936   -3869.9642   -3403.1153   -3869.9642            0    9015.0794    16.986362     20.00769    20.723322    7042.9839    10408.997    7782.2662    8853.9749   -411.46255    1606.1809    1392.3365   -2477.1341 
 5759000    268.48708   -3831.9559   -3371.7782   -3831.9559            0    9848.8689    17.011461    20.037254    20.753943    7074.2508    10161.034    10902.375    8483.1977    717.99589   -1074.4246     1133.425   -2355.6636 
 5760000    255.15547   -3825.1573   -3387.8296   -3825.1573            0    7746.3062    17.025949    20.054319    20.771618    7092.3403    7154.5383    6971.3491    9113.0312    1470.6887   -169.86856   -675.92801   -2586.5942 
 5761000    272.74028   -3846.3225    -3378.855   -3846.3225            0    10834.269    16.968498     19.98665    20.701528    7020.7873    10169.757    12154.424    10178.626   -223.02325    1454.5893    1894.9316   -2269.5236 
 5762000    276.35629    -3816.117   -3342.4518    -3816.117            0     7726.345    16.949701    19.964509    20.678596    6997.4808    6960.5409    7870.1212    8348.3728    618.63426     962.0176    847.50343   -2553.9699 
 5763000     275.7683    -3822.006   -3349.3486    -3822.006            0    7527.3589    16.912787    19.921029    20.633561    6951.8621    7578.3996    9404.6075    5599.0696   -111.68159   -317.03495    750.28679   -2586.1814 
 5764000    262.86843   -3894.5533   -3444.0058   -3894.5533            0    7082.0177    17.016994    20.043771    20.760693     7081.155    8338.3828    7116.3589    5791.3115   -850.47787    1581.7939   -138.87579   -2712.6361 
 5765000    267.70576   -3887.1744   -3428.3359   -3887.1744            0    7686.4172    16.940657    19.953856    20.667561     6986.285    8230.9262    7232.4943    7595.8312   -953.10358    1736.5054    687.55229   -2645.1838 
 5766000    279.88114   -3896.8271   -3417.1204   -3896.8271            0    10187.719    16.968031    19.986099    20.700958    7020.2069     11038.42    9846.4738    9678.2639    334.99001   -293.90233    -1654.787   -2374.0761 
 5767000    270.09398    -3867.101   -3404.1692    -3867.101            0    8450.3766    16.952881    19.968255    20.682476    7001.4203    6649.8929    9770.1105    8931.1263    14.354396    605.88289    992.12061   -2541.3136 
 5768000    264.10961   -3922.5698    -3469.895   -3922.5698            0    8050.0972    16.963209     19.98042    20.695075     7014.224    8452.3989    7140.2564    8557.6363    1095.4774    795.74331    430.70146   -2646.4082 
 5769000    263.96593   -3862.0364   -3409.6078   -3862.0364            0    7798.1098    16.997808    20.021172    20.737286     7057.231    6619.3847    9697.9338    7077.0109   -1085.6399    -115.5131    19.573946    -2607.007 
 5770000    260.12536   -3869.9798   -3424.1338   -3869.9798            0    8050.7312    16.954466    19.970122    20.684409    7003.3845    7908.5372    6282.0993    9961.5572   -220.62906    -313.5969    461.06545   -2601.8548 
 5771000    259.92357   -3844.4333   -3398.9332   -3844.4333            0    9976.6695    16.934094    19.946126    20.659555    6978.1691    10714.648    9995.0844    9220.2763   -215.73261    1381.9106    225.85224   -2383.6131 
 5772000    272.81528   -3859.1253   -3391.5292   -3859.1253            0     9045.273    16.958839    19.975272    20.689744    7008.8046    7937.7878    11124.735    8073.2964    439.37412    1133.8386   -1485.8254   -2466.9555 
 5773000    257.67912   -3876.5823   -3434.9291   -3876.5823            0    8744.8566    16.932909     19.94473     20.65811    6976.7046    10049.418    8383.5007    7801.6514   -15.827458    1727.2955    881.85047   -2545.1567 
 5774000    279.74086   -3823.0683   -3343.6021   -3823.0683            0    9082.4025    16.937243    19.949835    20.663397     6982.063    8661.1823    9257.1103    9328.9151   -495.82639    442.24278   -1346.7267   -2418.7753 
 5775000    255.21329   -3842.9133   -3405.4865   -3842.9133            0    7853.2598      16.9751    19.994425    20.709582    7028.9846     7969.434    6151.1118    9439.2336   -604.00238   -539.39772   -1028.6337   -2600.4446 
 5776000    290.42923   -3863.4206   -3365.6348   -3863.4206            0    9133.2521    16.901862    19.908161    20.620233    6938.3991    10438.246    9050.1509    7911.3598   -1604.9263   -124.94748     -318.543   -2441.4462 
 5777000    271.39228    -3847.996   -3382.8389    -3847.996            0    10155.467    16.917921    19.927076    20.639824    6958.1944    9944.5803    12197.744    8324.0775    96.122296   -1576.7865   -339.62808   -2352.2811 
 5778000    271.22094   -3877.4715   -3412.6081   -3877.4715            0     7442.937    16.938415    19.951216    20.664827    6983.5126    5869.4158    9472.8363    6986.5591    695.35563    876.79239    1177.7362   -2654.5645 
 5779000    259.87246   -3877.2829   -3431.8704   -3877.2829            0    7676.0765    16.975074    19.994395     20.70955    7028.9524    6599.7716    7446.7491    8981.7088   -229.34222   -270.75396    189.62581   -2644.9953 
 5780000     276.1765   -3843.2029   -3369.8458   -3843.2029            0    9006.2358    16.953796    19.969332    20.683591    7002.5535    9070.6426    9088.7529    8859.3121   -245.53469     901.0061    325.54987   -2450.0835 
 5781000     276.5243   -3830.7654   -3356.8122   -3830.7654            0      8713.38    16.945085    19.959072    20.672965    6991.7659     9851.318    8637.8206    7651.0014     -117.624   -227.41667    360.30418   -2468.3286 
 5782000    258.83717   -3839.8317   -3396.1936   -3839.8317            0    7741.6025    17.009212    20.034605    20.751199    7071.4448    8904.5031    7868.0221    6452.2822   -949.15466   -946.51645   -2321.5291   -2597.8039 
 5783000    271.47374   -3857.4076   -3392.1109   -3857.4076            0    9827.8094    16.932635    19.944408    20.657776    6976.3661    10577.499    9910.4688    8995.4599   -710.55833   -800.65921   -98.732745   -2392.1987 
 5784000     262.7664    -3883.194   -3432.8214    -3883.194            0    9119.6417    16.873083    19.874263    20.585122    6903.0164    11763.894    8395.2044    7199.8267    1171.5893    63.420052   -983.63616    -2514.716 
 5785000    257.88477    -3895.973   -3453.9674    -3895.973            0    8661.7317    16.974747     19.99401    20.709151    7028.5462    7033.2832    9807.8693    9144.0427    127.56356    332.30245    863.97939    -2566.104 
 5786000    245.12692   -3838.7718   -3418.6327   -3838.7718            0    11114.594    16.893659    19.898499    20.610224     6928.301    11582.514    10377.075    11384.192   -1670.7043   -1170.1659   -682.93012     -2295.59 
 5787000    268.95281   -3839.9499    -3378.974   -3839.9499            0    9685.9398    16.962661    19.979774    20.694406    7013.5436    10461.498    9906.9349    8689.3865    -1210.504   -1253.0873    1228.3151   -2388.2444 
 5788000    266.76795   -3830.0648   -3372.8336   -3830.0648            0    7828.9976    16.970458    19.988958     20.70392    7023.2206    7999.2419    7138.1619     8349.589    410.87005    1702.3209     -1568.26   -2570.9371 
 5789000    262.21815    -3832.928   -3383.4951    -3832.928            0    7057.3235    16.987271    20.008762    20.724431    7044.1155    7905.0756    6152.8528     7114.042     591.2454   -527.89473   -29.330229   -2658.4878 
 5790000    253.59455   -3823.9408   -3389.2884   -3823.9408            0    8258.0509    16.972833    19.991756    20.706817    7026.1697    7976.0626    8951.7039    7846.3862   -1327.0121   -598.57663    850.86699   -2543.0903 
 5791000    259.84513   -3817.9265   -3372.5609   -3817.9265            0    10637.834    16.910362    19.918173    20.630603    6948.8723    10816.016    9406.0575    11691.427    1391.4959   -185.04955   -676.78394   -2294.4997 
 5792000    264.83115   -3873.2573   -3419.3458   -3873.2573            0    7730.7117    16.977471    19.997218    20.712475    7031.9306    9178.8602    5567.3729     8445.902   -762.70725    -2450.555    635.64574   -2626.5343 
 5793000    266.87448   -3867.7843   -3410.3706   -3867.7843            0    6198.8706    17.029125     20.05806    20.775493    7096.3099    7025.2386    5565.9856    6005.3876   -1403.9619    1309.7044    117.92484   -2768.8345 
 5794000    263.22652   -3868.7479   -3417.5866   -3868.7479            0    9653.8293    16.981693    20.002191    20.717626    7037.1783     9840.509    9943.6249    9177.3539    1248.1361   -1972.5384    977.74572   -2426.8139 
 5795000     250.9188   -3906.8458   -3476.7796   -3906.8458            0    8593.5257     16.97233    19.991163    20.706203    7025.5449    8165.7031    8858.1337    8756.7404    1114.5724    95.235945   -235.09559   -2596.2838 
 5796000    273.57906   -3864.1734   -3395.2683   -3864.1734            0    8065.5931     17.02927    20.058231     20.77567    7096.4917    8865.2384     9592.809    5738.7318    823.58088   -1205.7711    347.21385   -2560.5193 
 5797000    259.14436   -3873.9852   -3429.8206   -3873.9852            0    8252.7605    16.990018    20.011997    20.727783    7047.5333    7461.8157     9309.585     7986.881   -130.31643   -123.36942   -575.51466   -2581.5933 
 5798000    266.60961     -3868.08   -3411.1203     -3868.08            0    9745.8695     16.98505    20.006146    20.721722    7041.3528    11945.714    7670.1585    9621.7364    827.06304    569.15557    172.78391   -2410.3081 
 5799000    264.84431   -3847.2976   -3393.3636   -3847.2976            0    11182.291    16.973545    19.992594    20.707686    7027.0539    10187.428    11597.756    11761.688    -1292.909    -1013.772    127.31362   -2247.3759 
 5800000    259.64606   -3864.0652   -3419.0407   -3864.0652            0    9104.9113    16.947689    19.962139     20.67614    6994.9887    10409.583    9031.9577    7873.1935    1367.6381   -1230.4651   -273.67489   -2490.2056 
 5801000    271.64746   -3814.1826   -3348.5882   -3814.1826            0    9332.8065    16.969616    19.987966    20.702892     7022.175    9344.3039    10531.506    8122.6092    -1539.607   -474.97086   -672.90324   -2392.8041 
 5802000    264.86105   -3848.6969   -3394.7341   -3848.6969            0    7597.6461    17.005214    20.029896    20.746322    7066.4604    7142.2212    7616.7595    8033.9575    713.40349    919.10448    1035.2646   -2611.7429 
 5803000    263.05499     -3841.66   -3390.7928     -3841.66            0    8590.5617    16.982571    20.003226    20.718697      7038.27    8507.9866      9231.36    8032.3384   -533.34576    1270.4352   -1121.7348   -2509.0064 
 5804000    275.67992   -3841.3717   -3368.8658   -3841.3717            0    7807.8351    16.995865    20.018884    20.734915     7054.811    8161.5251    5740.2983    9521.6818    1261.4631    649.07869   -913.64096   -2565.5396 
 5805000    264.72181   -3855.8909   -3402.1667   -3855.8909            0    9696.1477    17.001434    20.025443    20.741709    7061.7483    9783.9716    10918.883    8385.5887    495.19156   -1866.8035    559.53129   -2403.5764 
 5806000    279.68919   -3840.5022   -3361.1245   -3840.5022            0    7657.5758    16.982896    20.003608    20.719093    7038.6735    7558.4352    6880.6849    8533.6073    566.64328    1051.4914    1091.9297   -2575.0603 
 5807000    263.53946   -3862.5383   -3410.8407   -3862.5383            0    6736.8713    17.010517    20.036143    20.752792    7073.0734    7050.9845    5871.9615     7287.668     1122.131    -365.0481   -2385.9267   -2715.9087 
 5808000    261.54412   -3834.1928   -3385.9152   -3834.1928            0    8133.9555    16.957995    19.974278    20.688714    7007.7575    6575.6689    8744.7424    9081.4552   -1236.4628   -2135.3261   -1455.5513   -2554.6172 
 5809000    270.33241    -3847.848   -3384.5075    -3847.848            0    8214.5458    16.951873    19.967067    20.681245    7000.1709    8400.3404    7980.5042    8262.7927    1012.1703    1933.2035    -885.5901   -2545.8819 
 5810000    250.72034   -3857.0958   -3427.3698   -3857.0958            0    9184.0136     16.94592    19.960055    20.673982    6992.7985    10432.548    8686.1193    8433.3739   -2443.6826    562.67567     664.9647   -2490.7584 
 5811000     259.1965   -3840.9273   -3396.6734   -3840.9273            0    7966.4375    17.000117    20.023893    20.740103     7060.108    7423.9963    7080.1872    9395.1289   -612.95211   -96.834174    657.46065   -2576.4137 
 5812000    281.47061   -3861.3492   -3378.9182   -3861.3492            0    9730.8269     17.01494    20.041351    20.758187    7078.5912    9724.5437    8249.6464    11218.291   -1196.0385    565.21057    3009.6672   -2374.3661 
 5813000    278.57436   -3822.7614   -3345.2945   -3822.7614            0    10598.108    16.975161    19.994497    20.709657    7029.0605    8831.9617     11041.48    11920.883   -138.26394   -106.06763   -606.89481    -2258.865 
 5814000    257.75908   -3847.0589   -3405.2686   -3847.0589            0    8901.6293    16.977773    19.997574    20.712843    7032.3056    7733.0729    9155.5187    9816.2962   -272.34363     232.9247   -455.51663   -2492.3268 
 5815000    263.53502   -3880.9687   -3429.2787   -3880.9687            0    8961.1963    16.949957     19.96481    20.678907    6997.7974    9095.7314    7792.3546     9995.503    286.46613   -776.72934   -501.99755   -2514.7375 
 5816000    265.91275   -3810.9403   -3355.1749   -3810.9403            0    8927.6899    16.986667     20.00805    20.723694    7043.3635    8706.3759    9124.8266    8951.8671   -1388.6461     1343.039   -1167.0345   -2438.1205 
 5817000     250.7638   -3868.1448   -3438.3442   -3868.1448            0    7771.6573     16.99122    20.013413    20.729248    7049.0285     6829.843    7802.7366    8682.3924   -519.07029    580.01118   -1219.2914   -2639.3957 
 5818000    258.56783   -3834.5833   -3391.4069   -3834.5833            0    7938.3175    16.977772    19.997572    20.712842    7032.3042    6116.8732    9393.0663    8305.0129    479.93487    1009.7665   -5.4808438   -2577.2614 
 5819000    253.93143   -3888.5777    -3453.348   -3888.5777            0    7447.6859    16.984612    20.005629    20.721186    7040.8071    6432.0687    8385.9203    7525.0686   -691.06428    1642.2777   -231.47791   -2688.5976 
 5820000    263.81298   -3865.8271   -3413.6606   -3865.8271            0    7886.0398    17.048478    20.080855    20.799104    7120.5321    7946.4919    10039.472    5672.1559   -1272.9032    1460.8831    1335.4526   -2594.7297 
 5821000    262.56816   -3867.8551   -3417.8222   -3867.8551            0    8383.8545    16.978341    19.998243    20.713536    7033.0115    7885.6774    8730.1463    8535.7396    1207.6116   -121.55766    977.57238   -2557.8965 
 5822000    276.97161   -3811.2225   -3336.5026   -3811.2225            0    8315.2741    17.006975     20.03197    20.748469    7068.6549    8819.8209    6553.2785    9572.7229    -576.2454    2246.0841   -73.761347   -2479.2886 
 5823000    247.19658   -3849.5899   -3425.9034   -3849.5899            0    7626.9935    17.034391    20.064263    20.781918    7102.8959    8686.3858    7380.4455    6814.1491    450.29549   -96.554086    226.41705    -2635.835 
 5824000    264.29138   -3852.7529   -3399.7665   -3852.7529            0    6915.9554    17.013117    20.039204    20.755963    7076.3164    7359.4077    7391.9851    5996.4734   -742.84263   -549.97586    -47.64688   -2686.0342 
 5825000    252.62362   -3804.3231   -3371.3349   -3804.3231            0    8793.0883     16.95716    19.973295    20.687696    7006.7234    9718.9613    9475.8138    7184.4897   -214.46865   -210.30973     -41.9758   -2472.8054 
 5826000    268.51555   -3860.2187   -3399.9922   -3860.2187            0    6148.0458    16.972476    19.991335    20.706381    7025.7256    7389.1423    5262.4813    5792.5137     361.5021   -163.81886   -1449.2935    -2770.045 
 5827000    262.81479   -3888.1975   -3437.7419   -3888.1975            0    8933.2344    16.931961    19.943613    20.656953    6975.5323    8127.8864     9914.674    8757.1427    337.06439   -380.05888   -2045.1149   -2528.9552 
 5828000    282.96011   -3838.7667   -3353.7828   -3838.7667            0    8714.5995    16.913918    19.922361     20.63494    6953.2566    8809.3448    9212.6994    8121.7544    1723.4982    118.24295    1051.6194   -2470.0691 
 5829000    264.28994   -3869.2776   -3416.2937   -3869.2776            0    7895.3233    16.962847    19.979993    20.694634    7013.7748    8538.5763    7989.4355    7157.9581    1501.4086    411.04289   -396.27101   -2608.6912 
 5830000    285.25616   -3885.0912   -3396.1719   -3885.0912            0    7280.2671    17.010546    20.036176    20.752826    7073.1087    5896.2826    7584.7748    8359.7439    1479.7942   -1175.9622   -1869.7434   -2645.1829 
 5831000    267.76525   -3891.1662   -3432.2258   -3891.1662            0    7155.0983    17.048627     20.08103    20.799285    7120.7182    6618.3546    7528.2621    7318.6783    942.67719   -54.434803    -375.8536   -2689.1805 
 5832000    273.28882    -3918.833   -3450.4254    -3918.833            0    7177.6699    17.025957    20.054329    20.771628     7092.351    7108.1795    4812.8081    9612.0221   -183.06026    -726.0461    -662.5879   -2708.0055 
 5833000     246.1581    -3839.187   -3417.2804    -3839.187            0    9584.2755    16.957667    19.973892    20.688314    7007.3511    7928.3194    9653.8895    11170.617    498.70618   -854.19339   -1442.8967   -2437.8151 
 5834000    270.61406   -3811.9709   -3348.1477   -3811.9709            0    8050.2239    16.985104    20.006209    20.721787    7041.4198    8729.9418    9132.1755    6288.5545    1580.1938    85.930923   -433.44332    -2521.455 
 5835000    267.64252   -3863.4555   -3404.7254   -3863.4555            0    8792.4491    16.879936    19.882334    20.593482    6911.4305    8009.8184    10346.828    8020.7009   -349.63779   -2332.3459   -1929.5539   -2518.4806 
 5836000    267.30696   -3863.5294   -3405.3744   -3863.5294            0    6839.8968    16.918759    19.928064    20.640847     6959.229    8452.1396    6480.3172    5587.2337   -435.83774    1160.4522     -378.602   -2711.1713 
 5837000    259.30666    -3882.523   -3438.0802    -3882.523            0    8753.8227    16.963872      19.9812    20.695884    7015.0462      10818.6    7109.9681    8332.9002    292.41826     1702.256     453.8899   -2542.5007 
 5838000    277.49951   -3853.1519   -3377.5272   -3853.1519            0    8136.0828    16.973981    19.993107    20.708217    7027.5948    8829.5275     8015.741    7562.9799   -545.78269    -721.7953    1983.6746    -2543.658 
 5839000    251.89347   -3874.2167   -3442.4799   -3874.2167            0    10094.353    16.885486    19.888872    20.600253    6918.2502    8590.6338    10901.201    10791.225    1466.6749    2551.3762    1556.5501   -2424.0042 
 5840000    250.51023   -3839.8174   -3410.4515   -3839.8174            0    9543.4775    16.985238    20.006366     20.72195    7041.5858    10836.931    8149.9585    9643.5427   -886.70015    809.78842     1202.199   -2430.3907 
 5841000    263.77666   -3901.4301   -3449.3259   -3901.4301            0    8816.2806    16.973918    19.993033     20.70814    7027.5165    9831.4622    7420.5449    9196.8347  -0.16914619    980.26877     1474.509    -2545.753 
 5842000    268.14837   -3840.0914   -3380.4943   -3840.0914            0    9879.9203    16.967979    19.986038    20.700894    7020.1424    10276.202    8360.2233    11003.336     724.0008    308.27832   -422.50958   -2368.9725 
 5843000    261.85682   -3881.5384   -3432.7247   -3881.5384            0    10376.517     16.97468    19.993931     20.70907    7028.4629    11211.763    9284.2066     10633.58    660.03218    1010.8702   -4.3639257   -2369.1015 
 5844000    251.51898   -3849.6253   -3418.5304   -3849.6253            0    8689.9595     17.00199    20.026098    20.742388    7062.4412    8959.3789    8501.0203    8609.4793    898.28696      1376.28   -298.11818   -2523.4779 
 5845000    273.22319   -3903.2176   -3434.9224   -3903.2176            0    9156.2342     16.93738    19.949996    20.663564    6982.2322    7583.5565    10307.632    9577.5144    1605.3611   -1455.3377   -1294.4726    -2502.555 
 5846000    274.15748     -3843.13   -3373.2335     -3843.13            0    8804.9358    16.993605    20.016222    20.732158    7051.9973    7952.8789    9415.6174    9046.3113    435.05357   -589.46352    364.19759   -2467.6798 
 5847000    267.55935   -3842.7125   -3384.1249   -3842.7125            0    9307.7342    16.908713     19.91623     20.62859    6946.8386    11298.444    9507.3547     7117.404   -1037.4803    503.17661    1045.9523   -2441.1349 
 5848000    252.29203   -3866.8874   -3434.4675   -3866.8874            0    7548.4989    17.030615    20.059815    20.777311    7098.1731     8347.418    8803.6918    5494.3869   -301.77011    1535.7163   -607.28725   -2653.0501 
 5849000    254.42032   -3836.8592   -3400.7915   -3836.8592            0     9575.061      16.9596    19.976168    20.690672    7009.7475    10837.884    8256.9281    9630.3713   -60.570293    2356.0502    2168.5494   -2421.9332 
 5850000     266.7212   -3869.7522   -3412.6012   -3869.7522            0    9491.9061    16.960668    19.977427    20.691976     7011.073    9127.8032    9837.2025    9510.7127    -830.8756    831.52694    1712.3581   -2442.0604 
 5851000    252.46555   -3874.7385   -3442.0212   -3874.7385            0    8519.7076    16.998628    20.022138    20.738286    7058.2523    8842.6709    8870.9142    7845.5377   -585.96533    1061.8247   -764.37167   -2565.0249 
 5852000    267.46984   -3839.2848   -3380.8507   -3839.2848            0     7958.107    17.031814    20.061227    20.778773    7099.6723    8625.1078    7574.7129    7674.5003    1243.3901    469.91605    -1738.676   -2556.8568 
 5853000    282.82341   -3880.2922   -3395.5425   -3880.2922            0     9153.202    16.984849    20.005908    20.721476    7041.1022    8503.7148    8028.4479    10927.443    922.50761   -1220.0487    -1081.063   -2455.6253 
 5854000    272.21312   -3871.4643   -3404.9004   -3871.4643            0    8519.7765    16.957195    19.973336    20.687738    7006.7662    9984.0509    7780.8802    7794.3983    2517.7595   -1154.7989    250.22661   -2534.2943 
 5855000    259.45653   -3826.9656    -3382.266   -3826.9656            0    7800.5986    17.057046    20.090947    20.809557    7131.2731     7032.997    6563.4893    9805.3094    281.99236   -199.68013   -178.29594   -2570.9858 
 5856000    251.07899   -3840.6244   -3410.2836   -3840.6244            0    8799.6514    16.987845    20.009437    20.725131     7044.829    7089.1734    9181.1781    10128.603    -740.1519    2037.7605    774.02821   -2506.1933 
 5857000    267.38551   -3856.2355   -3397.9459   -3856.2355            0     10666.48    16.911252    19.919221    20.631687    6949.9685     10128.58    10122.256    11748.604   -441.26713   -2010.1042    -244.4481   -2316.8111 
 5858000     255.9643   -3849.4507   -3410.7366   -3849.4507            0    9018.2576    16.895236    19.900356    20.612149    6930.2417    10543.701    8229.7145     8281.357   -166.40044    1393.2457   -230.79319   -2499.2571 
 5859000    261.67865   -3861.8578   -3413.3496   -3861.8578            0    9311.3681    16.916036    19.924856    20.637525    6955.8691    9161.5598    9292.8958    9479.6488    277.33809    443.39353   -534.71973   -2468.7651 
 5860000    256.78801   -3854.3001   -3414.1743   -3854.3001            0    8460.9615    16.936271     19.94869    20.662211     6980.861    6219.6449    9531.3532    9631.8864    1705.1345    1832.4079    768.65605   -2552.7748 
 5861000    270.29576   -3861.4106    -3398.133   -3861.4106            0    11221.942    16.961335    19.978213    20.692789    7011.8999    11198.931    11612.107     10854.79   -1253.3128   -598.23321   -40.005991   -2250.5618 
 5862000    257.90088   -3857.4309   -3415.3976   -3857.4309            0    9445.7145    16.993866    20.016529    20.732477    7052.3221    8256.7286    8882.0769    11198.338   -1095.8333    2463.0801     589.6307   -2443.8975 
 5863000    256.84298   -3839.5302   -3399.3101   -3839.5302            0    9855.5318    16.986425    20.007765    20.723398    7043.0622    9763.4047    10318.672    9484.5188    -88.98983    670.88317    805.39557   -2386.9909 
 5864000    276.04823   -3840.8783   -3367.7411   -3840.8783            0     5986.621    16.997025     20.02025    20.736331    7056.2559    6368.3871    4400.5261    7190.9498   -840.10723    1593.6269    -402.3604   -2751.6684 
 5865000    271.57325    -3840.327   -3374.8597    -3840.327            0    9467.8979    16.939502    19.952495    20.666152    6984.8563    9126.4595    10146.394    9130.8404   -2309.5816   -13.279022    37.451623   -2410.3937 
 5866000    260.73874   -3861.7671   -3414.8698   -3861.7671            0    9114.1357    16.930769     19.94221    20.655499    6974.0597    10865.713    7401.9183    9074.7757   -412.04228    2.4208934   -522.20922   -2487.8756 
 5867000    251.73617   -3866.9271   -3435.4599   -3866.9271            0    8265.2175    16.976914    19.996562    20.711796    7031.2387     7662.328    8217.9701    8915.3544   -1156.7708    537.66557    1001.1977   -2587.9164 
 5868000    263.88695   -3874.9498   -3422.6566   -3874.9498            0    9424.5562    16.951559    19.966697    20.680862    6999.7817    9599.4919    9585.9559    9088.2206    551.15399    890.76508    1482.3461   -2460.5542 
 5869000    267.72756   -3861.2521   -3402.3762   -3861.2521            0    7820.1231    17.039641    20.070447    20.788323    7109.4654    8826.9095    6614.7523    8018.7075   -374.30626    712.40645    1415.3817   -2591.5525 
 5870000    256.24857   -3851.5576   -3412.3563   -3851.5576            0    8681.4972    16.971608    19.990313    20.705322    7024.6483    8266.1188    9300.2492    8478.1237    213.37304    498.00987    2004.2457   -2522.9604 
 5871000    261.12192   -3874.4616   -3426.9075   -3874.4616            0    9506.9724    16.942819    19.956403      20.6702    6988.9613    11686.904    9587.7536    7246.2597   -485.36358    515.73124    1856.6737    -2457.892 
 5872000    280.74713   -3853.3916   -3372.2006   -3853.3916            0    6861.5669    16.968753     19.98695    20.701839    7021.1035    6579.7215    6118.7884    7886.1909   -251.82625   -1218.3884     788.1441   -2669.6064 
 5873000    257.64891   -3883.8246   -3442.2232   -3883.8246            0    6842.7039     16.95324    19.968678    20.682914    7001.8652    6602.4057     9555.747    4369.9591    622.84702   -934.78084    774.65109   -2743.4803 
 5874000     272.7947   -3848.0217   -3380.4609   -3848.0217            0    8014.4252     16.97626    19.995792    20.710997    7030.4257    6902.0112    7345.0401    9796.2242    993.91101   -1569.8736   -665.57434   -2558.7295 
 5875000    285.63543   -3861.8629   -3372.2935   -3861.8629            0    9220.1159    17.016676    20.043397    20.760305    7080.7589    8980.8472    9105.5551    9573.9455    560.89056    1018.9773   -150.29088   -2420.1727 
 5876000    269.87046   -3869.9064   -3407.3576   -3869.9064            0     10598.89    16.871343    19.872213    20.582999    6900.8812    9261.8847    9599.4697    12935.316   -1180.1131   -352.02159    802.13543   -2340.6612 
 5877000    268.09345   -3850.8529     -3391.35   -3850.8529            0     9835.181     16.96222    19.979254    20.693869     7012.997    8623.0502    9059.0143    11823.478    178.09859    677.59132   -1166.8048   -2385.4335 
 5878000    261.89371   -3847.1294   -3398.2525   -3847.1294            0    8360.8296    17.016838    20.043588    20.760503    7080.9608    6138.0028    8641.5488    10302.937   -625.57954   -464.76249   -302.91356   -2534.8417 
 5879000    267.21318   -3839.8257   -3381.8315   -3839.8257            0     7348.017    17.077883    20.115491    20.834978    7157.4402    8034.6249    7186.6486    6822.7776   -388.71044    1696.4825     239.0212   -2614.8166 
 5880000    253.77786   -3875.5804   -3440.6138   -3875.5804            0    10366.288    16.996613    20.019765    20.735828    7055.7427    11247.857    11073.557    8777.4485    219.34215   -1712.5193    456.76162   -2373.9149 
 5881000    258.31617    -3894.603   -3451.8579    -3894.603            0    7429.0743    16.984101    20.005027    20.720563    7040.1718    7861.9342    6921.9231    7503.3657      479.503    440.47534    487.69589   -2689.0875 
 5882000    272.88317   -3854.5401   -3386.8277   -3854.5401            0    9210.1784    17.000823    20.024724    20.740965    7060.9878    11646.957    8054.6612    7928.9168   -665.57076   -1597.1823   -628.02737   -2438.3887 
 5883000    257.56416   -3866.0399   -3424.5837   -3866.0399            0    7156.2631    17.050023    20.082675    20.800988    7122.4681    8123.7376    6450.4042    6894.6474    77.569328    3.8070028   -799.46161   -2681.2348 
 5884000    255.06595   -3881.5227   -3444.3483   -3881.5227            0    8482.0582    16.989574    20.011475    20.727241    7046.9809    8940.3793    8803.3287    7702.4665    202.37344    705.53629   -654.82967   -2572.6219 
 5885000    256.35533   -3903.3724   -3463.9882   -3903.3724            0    7116.7994    17.016638    20.043351    20.760258    7080.7104     8718.371    6940.9729    5691.0543    838.12937   -606.31719   -858.91127   -2729.0726 
 5886000    258.36649   -3849.7624   -3406.9311   -3849.7624            0    8159.2295    16.947864    19.962346    20.676355    6995.2065    9136.8194    8044.9657    7295.9034    1282.2982   -146.61482   -1041.3868   -2574.5435 
 5887000    256.36762   -3873.4032   -3433.9979   -3873.4032            0     7756.039    17.035933    20.066079    20.783799    7104.8248    8757.9464    7970.5132    6539.6572    532.48286   -1286.3582   -931.35533   -2630.3436 
 5888000    272.83212   -3866.4691   -3398.8442   -3866.4691            0    8665.7899    17.011639    20.037464     20.75416    7074.4726    9594.1365     8841.872    7561.3611    67.189485    545.63303   -460.12383   -2504.7606 
 5889000    256.53386   -3877.9333    -3438.243   -3877.9333            0    6418.3411    16.995679    20.018665    20.734689    7054.5797    7228.8959    5933.2353    6092.8922    200.90644   -539.22671     1122.293   -2777.8996 
 5890000    264.63993   -3838.2229   -3384.6391   -3838.2229            0    8337.5735    16.987393    20.008905     20.72458    7044.2668    9346.5074     8561.938    7104.2751     812.3653    772.29548    120.52246   -2528.0917 
 5891000    257.09174   -3851.0217   -3410.3752   -3851.0217            0    7314.4374    16.945616    19.959697    20.673612    6992.4224    8426.8844    6741.0288    6775.3989    1082.8003   -638.38683   -487.61387   -2664.4686 
 5892000    256.87614   -3854.9999   -3414.7229   -3854.9999            0    7893.3068    17.013586    20.039757    20.756536    7076.9022    7682.5679    8114.3781    7882.9742   -513.17276    269.83455    1662.7515   -2600.0598 
 5893000    261.46066   -3876.9591   -3428.8245   -3876.9591            0    8363.2504    17.016553    20.043251    20.760155    7080.6046    7343.7263    9110.0855    8635.9394   -940.07446    1784.5338    747.71879   -2565.2072 
 5894000    258.63018    -3861.117   -3417.8337    -3861.117            0    7196.3601    16.937036    19.949591    20.663144    6981.8065    7068.9376    6723.3648    7796.7779   -1748.1609    62.586353    765.86715   -2685.0824 
 5895000      265.831   -3823.3761   -3367.7509   -3823.3761            0    7807.3505     16.91552    19.924249    20.636895     6955.233    6922.6082    7710.3465    8789.0969    1124.3912    1177.5151    1434.5289   -2575.8128 
 5896000    256.48114   -3852.4265   -3412.8266   -3852.4265            0    8286.8739    16.927634    19.938516    20.651673    6970.1855    7586.4524    8597.8357    8676.3336    -590.0574   -361.64725    945.64245   -2570.4409 
 5897000    250.60089   -3862.1324    -3432.611   -3862.1324            0    8927.4585    16.970275    19.988742    20.703695    7022.9923    9728.3048    6506.5474    10547.523   -1399.8253    1078.7516     1406.378   -2518.2327 
 5898000    256.36659   -3889.2196    -3449.816   -3889.2196            0    10805.442     16.92388    19.934095    20.647093    6965.5492    11935.943    9624.4509    10855.931   -1294.5059    1104.5655    997.59049    -2352.141 
 5899000    272.85921    -3827.801   -3360.1297    -3827.801            0    10377.987    16.938723    19.951578    20.665203    6983.8934    8998.5174    10509.492    11625.952   -1130.8396    112.57692     -255.036   -2303.1013 
 5900000    265.63744   -3865.2497   -3409.9563   -3865.2497            0     8809.346    16.969543     19.98788    20.702803    7022.0842    10275.038    8936.8682    7216.1319    1443.7184    1439.8839    1560.6723   -2507.7921 
 5901000    266.75963   -3825.7536   -3368.5367   -3825.7536            0    6371.9066    17.063326    20.098344    20.817218    7139.1522    6618.9778    6835.2882     5661.454    1181.1453    257.76177   -58.671521   -2705.1116 
 5902000    258.09881   -3875.6868   -3433.3143   -3875.6868            0    5371.8848    17.062737     20.09765    20.816499    7138.4125    6061.6351    4618.6022    5435.4171    387.36832   -241.58681   -26.315527   -2874.0666 
 5903000    268.56199    -3856.532    -3396.226    -3856.532            0    8107.7693    17.043908    20.075472    20.793528    7114.8073    8670.1472    7933.0319    7720.1288    412.48825   -100.84628   -902.24095   -2554.9463 
 5904000    264.45496   -3863.4981   -3410.2313   -3863.4981            0    8861.5145    16.942034    19.955478    20.669242    6987.9896    9248.6235    8487.7021     8848.218   -377.40926   -372.63437     1068.245   -2507.1308 
 5905000    263.22363   -3828.8579   -3377.7016   -3828.8579            0    8411.6515    16.929567    19.940794    20.654032     6972.574    8379.4517    7628.4046    9227.0982   -1721.0144   -453.68942    1047.6068   -2522.3389 
 5906000    244.95916   -3870.2651   -3450.4135   -3870.2651            0    8179.6571    16.963348    19.980583    20.695245    7014.3965    9570.2554    8886.5881    6082.1278   -832.14634   -620.40421   -588.01481   -2613.6528 
 5907000    256.02609   -3840.7561   -3401.9361   -3840.7561            0    9292.4901    16.921143    19.930872    20.643755    6962.1711    9935.5754    9775.2106    8166.6844   -205.75035    309.30271    204.17839   -2458.4127 
 5908000    273.47485   -3870.1678   -3401.4412   -3870.1678            0    8601.9069    16.953272    19.968715    20.682952    7001.9042    10853.808     7111.733    7840.1798     638.7948   -2166.1609    -669.8111   -2523.0524 
 5909000     261.3427   -3826.1467   -3378.2142   -3826.1467            0    9838.0062    16.922008     19.93189     20.64481    6963.2383    11066.471    8957.4854    9490.0623   -629.41549   -615.97414    1980.8552   -2379.1481 
 5910000    282.73669   -3825.6172   -3341.0162   -3825.6172            0    9755.3942     16.96441    19.981835    20.696541    7015.7143    10541.175    9681.5435    9043.4636   -67.153442   -335.40765     572.7112   -2342.8736 
 5911000    254.35919   -3838.0594   -3402.0964   -3838.0594            0    8676.3343    16.931549    19.943129    20.656451    6975.0238    8668.4061    7031.0704    10329.526    785.43217   -1506.3988   -387.61396   -2519.5087 
 5912000    261.96055    -3844.611   -3395.6196    -3844.611            0    7687.6279    17.034998    20.064977    20.782658    7103.6548    6986.9547     8783.976    7291.9529    2282.8933   -408.41254   -567.59048   -2599.1851 
 5913000    258.57241    -3824.198   -3381.0137    -3824.198            0    9285.3296    17.029397     20.05838    20.775825    7096.6502       6645.9    10476.342    10733.747   -453.16185    1371.2528    26.186757   -2420.0066 
 5914000    272.98331   -3857.2552   -3389.3711   -3857.2552            0     9430.601    16.969435    19.987753    20.702672    7021.9506     8130.781     11075.53    9085.4921   -12.071895    1688.7833    538.53791   -2423.6026 
 5915000    272.81162   -3835.9065   -3368.3167   -3835.9065            0    10144.891    16.901703    19.907973    20.620038    6938.2025    9944.0127    10336.191    10154.471   -836.17833   -166.44434    466.58595     -2341.79 
 5916000    262.51774   -3813.3453   -3363.3988   -3813.3453            0    8989.7108     16.98702    20.008465    20.724124    7043.8023    9773.2184    8813.6071    8382.3068     1570.282    592.72952   -427.10411   -2439.9161 
 5917000    259.26937   -3872.6626   -3428.2838   -3872.6626            0     7643.135    16.996816    20.020004    20.736076    7055.9956    8078.7677    6610.2134    8240.4238   -473.85622   -1291.8976   -753.32934   -2641.7711 
 5918000    275.36557   -3816.2593   -3344.2921   -3816.2593            0    8600.3557    16.983244    20.004018    20.719518    7039.1062    7913.4629    10327.836    7559.7686    826.32657   -580.84783    413.70768   -2461.3956 
 5919000    290.31945   -3865.0854   -3367.4878   -3865.0854            0    7938.0576    17.020419    20.047806    20.764872    7085.4325    9366.3207    7431.4354    7016.4167   -1291.2723   -49.745195    -795.7598   -2547.2184 
 5920000    269.20497   -3868.6162   -3407.2081   -3868.6162            0    8434.6742    16.991534    20.013783    20.729632    7049.4199    8452.8279    8869.9113    7981.2833    9.0586366     1533.408    1442.4399   -2540.0514 
 5921000    256.97496   -3854.0294   -3413.5831   -3854.0294            0    8355.1019    17.061998     20.09678    20.815597    7137.4854    7336.6556      8634.13      9094.52   -90.646859    -278.4594    339.09784   -2543.8763 
 5922000    257.91806   -3844.8313   -3402.7686   -3844.8313            0     10179.74    16.911954    19.920048    20.632544    6950.8347    9708.6275    10723.756    10106.837     1267.521   -179.61141    786.33153   -2370.8402 
 5923000     271.7656   -3886.7656   -3420.9687   -3886.7656            0    10628.034    16.936002    19.948373    20.661882    6980.5276    8601.7519     12181.54    11100.809    735.34221    -75.33289    2892.1566   -2338.9941 
 5924000    252.87878   -3868.0569   -3434.6313   -3868.0569            0    9298.4706    16.988379    20.010067    20.725783    7045.4935    10478.264     9186.076    8231.0714    113.88206    497.25371    182.99989   -2479.2014 
 5925000    280.89202    -3867.133   -3385.6937    -3867.133            0    10356.667    16.890335    19.894583    20.606169     6924.212    11814.506    10224.378    9031.1188    1808.4214     1487.876   -17.260998   -2339.8512 
 5926000    259.09066    -3899.442   -3455.3694    -3899.442            0    7816.9407    16.922669    19.932669    20.645617    6964.0548    8477.6012    7837.1442    7136.0765   -1406.0006   -241.32998   -685.32185   -2661.4528 
 5927000    280.51476   -3880.2408   -3399.4481   -3880.2408            0    9735.3845     16.89513    19.900231    20.612019    6930.1106    8604.9981     10933.64    9667.5158    963.48846   -1306.6989   -352.68229   -2415.5069 
 5928000    265.80346   -3869.2412   -3413.6632   -3869.2412            0    7182.9447    16.953992    19.969564    20.683831     7002.797    8491.1327     6107.307    6950.3944    182.48013   -1170.3237   -1841.5085    -2680.079 
 5929000    257.62565   -3881.4391   -3439.8775   -3881.4391            0    8399.3393       16.901    19.907146    20.619181    6937.3373    8231.3932    9502.6373    7463.9874    962.64642    822.80352    200.40593   -2590.0832 
 5930000    263.56264   -3881.1048   -3429.3674   -3881.1048            0    5004.3209    16.998336    20.021794     20.73793    7057.8883    4786.6364    4485.4278    5740.8984   -811.23294   -158.39277    758.91333   -2914.2624 
 5931000    268.07851   -3854.7863   -3395.3089   -3854.7863            0    7637.8992    16.956371    19.972365    20.686733    7005.7446    7881.9835     7263.029    7768.6852    316.75802    316.73313    648.60585   -2614.9325 
 5932000    269.66071   -3846.4651   -3384.2759   -3846.4651            0    8925.4431    16.925296    19.935763    20.648821    6967.2981     9904.435    9483.2543      7388.64   -593.55678    1770.1909    401.15998   -2477.3536 
 5933000    253.33966    -3876.734   -3442.5185    -3876.734            0    8336.7592    16.937024    19.949577    20.663129    6981.7916    8186.4698    8170.9173    8652.8906    1466.9806    -1.598095    276.71067   -2593.6507 
 5934000    261.93775   -3874.9565   -3426.0042   -3874.9565            0    7363.7057    16.982347    20.002961    20.718423    7037.9907    8948.3161     6888.939    6253.8622    -1155.517    1732.7321    369.82912   -2670.1796 
 5935000    274.79005    -3864.822   -3393.8412    -3864.822            0    7863.2607    17.028918    20.057816     20.77524    7096.0513    7266.1927    8062.2972    8261.2923    297.19411    351.44534    1023.4765   -2580.0831 
 5936000    270.82475   -3837.4286   -3373.2443   -3837.4286            0     8484.595    16.996163    20.019235    20.735279    7055.1823    9482.8885    6398.3011    9572.5955    775.21719   -1279.7072    -205.8102   -2500.2423 
 5937000    263.25921    -3870.143   -3418.9257    -3870.143            0    7593.9761    16.964046    19.981405    20.696096    7015.2621    8201.7582    7226.8802    7353.2897   -623.26748     107.5017   -462.30265   -2641.9829 
 5938000    275.43509   -3841.2364   -3369.1501   -3841.2364            0    10211.613    16.926151    19.936771    20.649865    6968.3548    9746.0825    10395.058      10493.7    596.73507   -685.75981    1927.1711   -2331.3816 
 5939000    260.97279   -3897.4627   -3450.1643   -3897.4627            0    8072.4933    16.953312    19.968762    20.683001     7001.954     8205.335    9353.0609    6659.0839    230.42068    609.45822    -1297.136    -2625.831 
 5940000    280.33044     -3845.42   -3364.9432     -3845.42            0    8956.4483    16.902961    19.909455    20.621573    6939.7522    9172.9043    8001.2977     9695.143   -97.145721   -2805.0558    578.08105   -2458.4685 
 5941000      255.223   -3829.8663   -3392.4228   -3829.8663            0    9952.1247    16.915932    19.924733    20.637397    6955.7406     9404.488    11211.628    9240.2576    -441.0329    840.06277    544.76914    -2382.856 
 5942000    262.18548   -3833.6262   -3384.2493   -3833.6262            0    9750.4859    16.972101    19.990893    20.705924    7025.2601    9704.9199    11252.671    8293.8666    1559.6607    257.97202   -630.43134   -2385.2515 
 5943000    281.27092    -3873.642   -3391.5533    -3873.642            0    10102.303    16.967166     19.98508    20.699902    7019.1333    9638.3029    10517.029    10151.577    761.33609    22.185589    577.89988   -2357.4123 
 5944000    281.16014   -3868.1501   -3386.2513   -3868.1501            0    8950.2503    16.942366    19.955869    20.669646    6988.3997    8755.8305    8733.5035    9361.4167   -1361.7018   -278.18665    878.64562   -2474.0539 
 5945000    253.64687    -3871.244    -3436.502    -3871.244            0    8150.8518    16.994739    20.017558    20.733542    7053.4096    7634.5004    8781.7793    8036.2757   -1143.6772   -138.97819   -681.05216   -2598.0504 
 5946000    254.78593    -3856.815   -3420.1207    -3856.815            0    7992.7523    17.011241    20.036995    20.753675    7073.9762    6552.6351    9195.9389     8229.683     2012.812    388.43526    864.88427   -2595.5349 
 5947000    267.19578   -3898.1376   -3440.1732   -3898.1376            0    6930.5964    17.003049    20.027346     20.74368     7063.761    5022.1522    5617.4099    10152.227   -641.10847    -639.1592    535.04961   -2726.1991 
 5948000    263.51279    -3875.348   -3423.6961    -3875.348            0    9365.9614    16.970491    19.988997    20.703959     7023.261    8394.5197      10337.3    9366.0643   -1049.3141   -1902.7727   -551.83266   -2464.3683 
 5949000    277.32901   -3872.6514    -3397.319   -3872.6514            0    7285.1212    16.974837    19.994115    20.709261    7028.6579    5867.0913     8486.801    7501.4714   -1116.6274    411.26308    191.97887   -2650.5521 
 5950000    248.24877   -3846.0678   -3420.5779   -3846.0678            0    6743.2154    16.952958    19.968345    20.682569     7001.515    7154.7128    6339.3913    6735.5422    909.66746   -229.69295    -299.0577   -2732.0287 
 5951000     270.2559   -3896.7293   -3433.5199   -3896.7293            0    7879.6547    16.959762    19.976359     20.69087    7009.9489    7754.5006    7536.7418    8347.7216   -402.05298    1672.8371     -519.876   -2627.9599 
 5952000    251.76158   -3846.3396   -3414.8289   -3846.3396            0    7968.0453    17.019213    20.046385      20.7634    7083.9256    7274.8442    8683.2447    7946.0469    -828.5601     664.9969    41.555243   -2591.6359 
 5953000    256.74495   -3880.2497   -3440.1976   -3880.2497            0    9674.8804     16.90084    19.906957    20.618986    6937.1404    12117.273    8139.4829    8767.8854   -588.81694    -1502.571     -609.749   -2461.3796 
 5954000     274.0169    -3906.847   -3437.1914    -3906.847            0    8536.2519    16.932343    19.944064    20.657419    6976.0052    8562.3949    9426.1376    7620.2234   -1756.4956    -468.1494   -807.74918   -2568.7312 
 5955000     253.3322   -3903.7703   -3469.5676   -3903.7703            0    7549.7739    16.923699    19.933882    20.646874    6965.3267     6668.656    6561.6753    9418.9903    185.74723    251.88314   -664.54684   -2702.6454 
 5956000    251.20471   -3877.4644   -3446.9081   -3877.4644            0     8800.591    16.922155    19.932064     20.64499    6963.4206    9597.5414    7476.4851    9327.7465   -1435.4421   -2194.8774   -631.75576   -2553.1698 
 5957000    258.68929   -3846.3975   -3403.0129   -3846.3975            0    9126.1535    16.924394    19.934701    20.647721    6966.1848    9627.7909    8425.4976    9325.1721   -1083.9578    434.08466     716.8481   -2475.8444 
 5958000    272.93761   -3858.2231   -3390.4174   -3858.2231            0    8056.4509    16.966253    19.984005    20.698789    7018.0007    8438.4341    9005.0389    6725.8798    1126.3425    579.51688    1100.4912   -2565.8368 
 5959000    244.80536   -3814.5782   -3394.9901   -3814.5782            0    7097.0848    17.022801    20.050611    20.767777     7088.407     4803.475    8109.2574    8378.5221    65.231067   -337.86995    1622.8459   -2661.3138 
 5960000    263.21392    -3788.128   -3336.9883    -3788.128            0    7466.2553    16.959021    19.975486    20.689966    7009.0298    7325.4984    8611.5421    6461.7254   -1254.3007   -933.41212   -1064.0936   -2573.7914 
 5961000    272.36447   -3863.9647   -3397.1413   -3863.9647            0    7595.2402    16.945677    19.959769    20.673686    6992.4982    7676.7574    7134.7071    7974.2561   -1087.4017   -827.95324     305.8138   -2622.5907 
 5962000    265.50177   -3840.7711   -3385.7102   -3840.7711            0     7680.955    17.020009    20.047323    20.764371      7084.92    7851.0956    7007.4588    8184.3107    771.90094   -1360.2963    2006.9448   -2592.0656 
 5963000    269.68932   -3853.0111   -3390.7728   -3853.0111            0    10062.181    17.013997    20.040241    20.757037    7077.4151    11770.543    9381.9834    9034.0149    1641.0043   -380.03827    354.55963   -2352.1863 
 5964000    269.62811   -3882.5098   -3420.3764   -3882.5098            0    7216.7808    17.014223    20.040507    20.757312    7077.6963    7691.9999    7243.5775     6714.765    1041.7875   -377.47845    220.10946   -2675.4535 
 5965000    250.32872   -3895.1665   -3466.1116   -3895.1665            0    6994.6226    17.017164    20.043971      20.7609    7081.3672    7012.3077    7197.8429    6773.7172    758.93269    464.58391    -1030.173   -2743.7456 
 5966000     263.8608   -3878.7023   -3426.4539   -3878.7023            0    7553.3732    17.034979    20.064955    20.782635    7103.6312    8990.0924    9068.8009    4601.2262   -145.82992   -709.51331    -1048.217   -2643.9307 
 5967000    251.65543   -3844.1445   -3412.8157   -3844.1445            0    10627.215    17.001362    20.025358    20.741621    7061.6582    11536.619    9732.2147    10612.811   -1095.8305     160.3233    583.21634   -2318.3503 
 5968000    271.22408   -3865.7098    -3400.841   -3865.7098            0    7349.4019    17.028855    20.057742    20.775163    7095.9726    7422.7792     8596.615    6028.8114    197.39824    1266.3975    1763.2859   -2640.2699 
 5969000    268.27852   -3841.0989   -3381.2787   -3841.0989            0    8964.6606    16.973931    19.993048    20.708156    7027.5324     8286.166    11859.784    6748.0318   -836.53096   -1971.3339    -875.4312   -2462.4964 
 5970000     251.2282   -3851.7019   -3421.1053   -3851.7019            0    7351.0835    16.989723    20.011649    20.727422    7047.1653    9147.1661    6930.7686    5975.3157   -1592.0758    603.23512   -1597.6278   -2665.5927 
 5971000    260.86493   -3852.1917   -3405.0781   -3852.1917            0     8042.758     17.01966    20.046911    20.763945    7084.4839    7470.5273    9002.7493    7654.9973   -1720.9874    998.75456   -147.67952   -2574.1009 
 5972000     270.1695   -3886.9414   -3423.8801   -3886.9414            0    9272.8727    16.956821    19.972895    20.687282    7006.3023     9259.856    9508.6956    9050.0666    585.06199   -1456.1425     1878.909   -2476.3805 
 5973000    266.20666     -3866.68   -3410.4109     -3866.68            0    7030.1941    16.996032     20.01908    20.735119     7055.019    8972.5079    5967.6247    6150.4496   -1201.6126   -306.38032    1175.9941   -2687.0727 
 5974000    266.21808     -3870.86   -3414.5713     -3870.86            0    8711.7014    17.007688     20.03281     20.74934    7069.5449    8034.4611    8361.6793    9738.9639    44.097276   -858.71368    2205.5043    -2516.377 
 5975000    271.38749   -3903.2129   -3438.0641   -3903.2129            0    9001.8296     16.95078     19.96578    20.679912    6998.8176    12055.901    4955.5771    9994.0109   -40.325741   -476.23086    511.63311   -2519.2421 
 5976000    267.33338   -3872.9478   -3414.7475   -3872.9478            0    6769.1181    17.068184    20.104066    20.823145    7145.2519    6320.4937    5605.4386    8381.4221    399.77122    833.02664   -23.394725   -2709.3636 
 5977000    288.28697   -3828.9936   -3334.8796   -3828.9936            0    7459.2851    16.984467    20.005459     20.72101    7040.6277    8529.5327    6008.1549    7840.1676    350.97871     1021.955    1538.0511   -2568.9577 
 5978000    266.81091   -3830.1401   -3372.8353   -3830.1401            0    6795.9742    17.027337    20.055954    20.773311    7094.0753    5407.4565    6907.3698    8073.0964    1279.8503    639.96567   -334.88332   -2669.7251 
 5979000     268.0761   -3848.8305   -3389.3572   -3848.8305            0    7725.6871    17.018555    20.045609    20.762597    7083.1039    8146.9441    7548.9828    7481.1344    464.11112     471.7904   -233.84595   -2591.2953 
 5980000    269.91582   -3824.7692   -3362.1427   -3824.7692            0     6818.682    17.008415    20.033667    20.750227    7070.4514    5469.3036    7495.2567    7491.4856     735.0164    662.58987    1497.9569   -2659.0324 
 5981000    276.80351   -3844.6906   -3370.2588   -3844.6906            0     8437.575    16.973287     19.99229     20.70737    7026.7325    8562.6641    7283.4611    9466.5998     461.4052    676.40798    912.15608   -2505.5957 
 5982000    268.18383   -3825.1232   -3365.4653   -3825.1232            0      10018.7    16.981872    20.002402    20.717844    7037.4006    9741.9999    10458.243    9855.8569    1199.7782   -333.01247   -1022.0521   -2337.2134 
 5983000    252.68908   -3808.1082   -3375.0078   -3808.1082            0    8983.1235    16.986337    20.007661    20.723291    7042.9525    9025.6621    10163.821    7759.8876    22.401342    967.88456    201.45417   -2452.3131 
 5984000    267.35062   -3804.0347   -3345.8048   -3804.0347            0    8590.3669    16.959723    19.976313    20.690822    7009.9003    7869.8194    8822.9203    9078.3611   -421.08595     72.33619     44.50506   -2467.5927 
 5985000    264.09636   -3855.2596   -3402.6074   -3855.2596            0    8771.2801     16.96408    19.981445    20.696138    7015.3044     9961.222    7036.5071    9316.1111   -1058.7819   -156.50021   -1377.3733   -2505.2088 
 5986000    272.09735   -3848.2751   -3381.9096   -3848.2751            0    9405.3997    16.995538    20.018498    20.734516    7054.4036    6311.6387    10555.046    11349.514   -359.16253   -635.84356   -516.01839   -2414.2704 
 5987000    268.47995   -3869.6095    -3409.444   -3869.6095            0    6339.1404    17.087535     20.12686    20.846753    7169.5825    6485.6779    5727.1477    6804.5954     638.4749   -1015.2602    393.28289   -2746.6171 
 5988000    261.94453   -3831.7505   -3382.7865   -3831.7505            0    9212.9751     17.04887    20.081316    20.799581    7121.0224    7976.7818    11115.689    8546.4545    860.04209   -733.58814     239.8845   -2425.9932 
 5989000    266.55905   -3866.0094   -3409.1363   -3866.0094            0    6695.1412     17.01191    20.037783    20.754491     7074.811    4376.9369    10500.219     5208.268   -39.558339    1293.1755   -289.19886   -2718.3393 
 5990000    267.61814    -3843.387   -3384.6987    -3843.387            0    10178.167    16.938846    19.951723    20.665352    6984.0449    11410.171    10041.327     9083.004    527.72093     711.1234    1029.3833   -2348.0002 
 5991000    255.67189    -3856.287   -3418.0742    -3856.287            0    9363.5647     16.91054    19.918382    20.630819    6949.0909    10945.554    8047.3476    9097.7924   -115.65202    1489.8063     262.5744   -2469.1203 
 5992000    261.96642   -3850.0772   -3401.0758   -3850.0772            0    8771.0524    16.974559    19.993788    20.708922    7028.3124    7952.3799    9750.5077    8610.2697   -55.955832   -739.18404   -1359.4617   -2502.0365 
 5993000    281.37212   -3838.8382    -3356.576   -3838.8382            0    8935.2313    17.004942    20.029575    20.745989    7066.1204    9536.6707    9334.7502    7934.2729    821.99202   -666.49467    -1248.153   -2435.7815 
 5994000    266.06305   -3842.5575   -3386.5345   -3842.5575            0    10786.875    16.921574    19.931379     20.64428    6962.7024    9559.3429    11383.456    11417.826   -55.326746   -1151.9528    662.38823   -2291.1935 
 5995000    268.54415    -3839.292   -3379.0166    -3839.292            0    8862.1295    16.989547    20.011442    20.727207    7046.9462    7908.1745    10129.038    8549.1762    230.16706    44.523802   -612.30633   -2468.2335 
 5996000    261.38257   -3860.6329   -3412.6321   -3860.6329            0    6088.8979    16.988382     20.01007    20.725787    7045.4974    7162.5366    5292.9745    5811.1826   -883.93718    466.18648    407.51489   -2786.9896 
 5997000    261.88026   -3873.2313   -3424.3775   -3873.2313            0    8022.4493     16.95718    19.973318     20.68772    7006.7474    4886.0224    9411.6613    9769.6641    413.60875   -387.70981   -1380.5439   -2604.5937 
 5998000    265.66035   -3829.3683   -3374.0356   -3829.3683            0    8729.5532    16.992908    20.015401    20.731308      7051.13    7961.2845    8936.1672     9291.208   -60.498374    440.97126   -592.56112   -2476.3451 
 5999000    251.47191   -3860.5107   -3429.4964   -3860.5107            0    8282.2047    17.005796    20.030581    20.747031    7067.1854    7764.8878    9376.6931    7705.0331    1747.5717   -1947.0792   -23.384285    -2575.869 
 6000000    280.40917   -3831.4134   -3350.8016   -3831.4134            0    6454.6204    16.954363        19.97    20.684283     7003.256    6871.3286    6263.1658    6229.3667   -459.17671   -386.77369    762.40968    -2691.557 
Loop time of 395.136 on 64 procs for 250000 steps with 864 atoms

Performance: 109.329 ns/day, 0.220 hours/ns, 632.694 timesteps/s
99.1% CPU use with 64 MPI tasks x 1 OpenMP threads

MPI task timing breakdown:
Section |  min time  |  avg time  |  max time  |%varavg| %total
---------------------------------------------------------------
Pair    | 21.359     | 26.723     | 31.535     |  48.2 |  6.76
Bond    | 0.26805    | 0.28246    | 0.2924     |   0.8 |  0.07
Kspace  | 165.71     | 173.36     | 180.76     |  26.1 | 43.87
Neigh   | 4.7968     | 5.7575     | 6.3333     |  15.3 |  1.46
Comm    | 84.518     | 89.771     | 100.64     |  33.8 | 22.72
Output  | 1.8041     | 1.8083     | 1.8126     |   0.3 |  0.46
Modify  | 89.287     | 93.293     | 95.858     |  17.4 | 23.61
Other   |            | 4.139      |            |       |  1.05

Nlocal:        13.5000 ave          18 max           8 min
Histogram: 2 2 3 7 7 12 8 8 7 8
Nghost:        2272.52 ave        2317 max        2221 min
Histogram: 5 4 4 4 7 13 9 7 9 2
Neighs:        4401.98 ave        6808 max        2461 min
Histogram: 3 4 9 10 12 13 6 4 2 1

Total # of neighbors = 281727
Ave neighs/atom = 326.07292
Ave special neighs/atom = 2.0000000
Neighbor list builds = 14444
Dangerous builds = 0

unfix		3
unfix		2
unfix		1

write_data	data.final.${pid}
write_data	data.final.0
System init for write_data ...
PPPM initialization ...
  extracting TIP4P info from pair style
  using 12-bit tables for long-range coulomb (../kspace.cpp:340)
  G vector (1/distance) = 0.37436183
  grid = 24 24 24
  stencil order = 5
  estimated absolute RMS force accuracy = 0.0031495862
  estimated relative force accuracy = 9.4848852e-06
  using double precision FFTW3
  3d grid and FFT values/proc = 2535 216
Last active /omp style is kspace_style pppm/tip4p/omp
WARNING: Not all mixed pair coeffs generated from mixing. Use write_data with 'pair ij' option to store all pair coeffs. (../write_data.cpp:312)

write_restart   restart.lmp.${pid}
write_restart   restart.lmp.0
System init for write_restart ...
PPPM initialization ...
  extracting TIP4P info from pair style
  using 12-bit tables for long-range coulomb (../kspace.cpp:340)
  G vector (1/distance) = 0.37436183
  grid = 24 24 24
  stencil order = 5
  estimated absolute RMS force accuracy = 0.0031495862
  estimated relative force accuracy = 9.4848852e-06
  using double precision FFTW3
  3d grid and FFT values/proc = 2535 216
Last active /omp style is kspace_style pppm/tip4p/omp
Total wall time: 0:06:35
