LAMMPS data file via write_data, version 30 Jul 2021, timestep = 35750000

864 atoms
2 atom types
576 bonds
1 bond types
288 angles
1 angle types

0.1686456388308759 18.038926761170046 xlo xhi
0.17983611267849398 23.449341687327035 ylo yhi
0.10807613775185132 22.105119662240924 zlo zhi

Masses

1 1.00794
2 15.9994

Atoms # full

707 1 1 0.5897 3.2072925001373425 1.999222579704042 3.747946690185342 0 0 0
706 1 2 -1.1794 3.227461126295608 2.019443977147926 2.7910488919563248 0 0 0
30 1 1 0.5897 5.555847429029601 3.956295724575667 2.1260272050310216 0 0 0
708 1 1 0.5897 2.4051149116805934 2.4416886685468073 2.5425113226565834 0 0 0
29 1 1 0.5897 4.738153151011035 2.683075058554861 2.1721529752414073 0 0 0
28 1 2 -1.1794 5.5513866815957185 3.0482259538945566 1.8233863489270568 0 0 0
495 1 1 0.5897 8.473166394286778 2.270031423250591 2.7664694114624977 0 0 0
1 1 2 -1.1794 0.8415291387796657 3.271666157921483 2.0845297207407465 0 0 0
494 1 1 0.5897 6.962425945339566 2.300219347297701 2.672102920600517 0 0 0
493 1 2 -1.1794 7.686191366675731 1.8223885699431772 3.0772682507677467 0 0 0
846 1 1 0.5897 7.579749820974353 2.0314845107589963 4.796470863978258 0 0 0
3 1 1 0.5897 0.9098358498783882 4.193407018229841 2.333384094919905 0 0 0
597 1 1 0.5897 0.9711997142894244 5.981584666377106 3.985761099067045 0 0 0
137 1 1 0.5897 5.464959567303121 5.65110223113966 3.957791093116357 0 0 0
20 1 1 0.5897 0.7120684820162806 2.957975190206761 0.19407722348600026 0 0 0
136 1 2 -1.1794 5.440375466505198 5.60539145258699 3.0018800941517756 0 0 0
595 1 2 -1.1794 0.9806207865562379 5.88383241640113 3.033491812152916 0 0 0
819 1 1 0.5897 7.485119962083752 0.29119436125174775 2.3097067542271636 0 0 0
188 1 1 0.5897 3.1148553308946494 0.192445549902453 2.2555031178883835 0 1 0
685 1 2 -1.1794 5.297307023935237 5.740885340619003 5.7796546113372065 0 0 0
487 1 2 -1.1794 3.1179681391661385 2.0303505532429087 5.643496401437066 0 0 0
673 1 2 -1.1794 3.0875105579984288 2.1049365448705233 10.391832771273549 0 0 0
356 1 1 0.5897 7.7612370316289105 1.2079721952216793 9.95034246764344 0 0 0
786 1 1 0.5897 0.23253629461505476 2.878395047684034 6.507634560399549 0 0 0
355 1 2 -1.1794 7.844148291557042 2.10944984992235 10.261243590301605 0 0 0
419 1 1 0.5897 8.897494466100852 2.724756300915101 6.470655959936037 0 0 0
181 1 2 -1.1794 0.9994036221981548 5.953372448839729 5.788528262384043 0 0 0
675 1 1 0.5897 2.9968910890728875 1.21710569278605 10.045791585913728 0 0 0
784 1 2 -1.1794 1.0103598819914037 3.3276283683049894 6.838526350398604 0 0 0
676 1 2 -1.1794 5.180628826004837 5.722424791215377 10.276844324118608 0 0 0
845 1 1 0.5897 7.436925336280671 1.205131702469816 6.057017899328387 0 0 0
34 1 2 -1.1794 0.7512249940628474 3.2259576672753454 9.514580212724075 0 0 0
686 1 1 0.5897 5.26801360944001 4.865296466213213 6.16527194263055 0 0 0
274 1 2 -1.1794 5.4649288643913865 3.1505758307011202 9.540353307675838 0 0 0
35 1 1 0.5897 0.7202325593844556 4.139428401040612 9.79883025154604 0 0 0
276 1 1 0.5897 6.317444923523284 2.8025677381728813 9.801957604174873 0 0 0
674 1 1 0.5897 3.919128852173329 2.4176246251256077 10.035507524526022 0 0 0
844 1 2 -1.1794 7.452356233738263 2.108900780267419 5.742114953915504 0 0 0
785 1 1 0.5897 0.9763315693338886 3.1997203775106744 7.786648810047752 0 0 0
488 1 1 0.5897 2.3324282083934684 2.4198182624330844 6.027637835442886 0 0 0
36 1 1 0.5897 1.6108949912564818 2.915261251520243 9.798776766914298 0 0 0
275 1 1 0.5897 5.495801546721099 3.1673083626457146 8.58367827530019 0 0 0
112 1 2 -1.1794 0.5840887132418404 5.788752945596498 10.23377960390407 0 0 0
678 1 1 0.5897 5.290881795054171 4.810100059650606 10.009075400584377 0 0 0
82 1 2 -1.1794 5.27962615442455 3.2308807825042014 6.780880147034195 0 0 0
183 1 1 0.5897 1.0206924374378774 5.0552948309453525 6.118980159978586 0 0 0
84 1 1 0.5897 6.05041318595162 2.840431464581698 6.368854390203091 0 0 0
489 1 1 0.5897 3.141723038962661 1.1407999770697428 5.996118204904381 0 0 0
83 1 1 0.5897 4.5368658500762304 2.814340648151541 6.3436947612361445 0 0 0
166 1 2 -1.1794 3.006775214054759 1.8629431483107648 13.094753562387636 0 0 0
167 1 1 0.5897 3.025933585187675 1.9279214243370568 12.139835176310266 0 0 0
457 1 2 -1.1794 5.209750185034106 3.230212698861399 14.040352767333836 0 0 0
458 1 1 0.5897 5.909863711608723 2.6553217681179673 13.731122521339662 0 0 0
459 1 1 0.5897 4.402329008123143 2.784373970317725 13.784220871679496 0 0 0
762 1 1 0.5897 5.366225172425963 5.036620459400788 13.341196313137026 0 0 0
594 1 1 0.5897 8.169385262599592 2.3407246891424074 13.316839918647405 0 0 0
168 1 1 0.5897 2.2559361159365166 2.3958438248268794 13.356581498438157 0 0 0
71 1 1 0.5897 5.207688340863222 3.201934799025433 15.869073488837573 0 0 0
592 1 2 -1.1794 7.355640280741014 1.939171686401317 13.01206562733477 0 0 0
466 1 2 -1.1794 0.7543588207894512 3.1190202926945325 14.002332645455098 0 0 0
593 1 1 0.5897 7.384273332214835 1.0469802751037236 13.357572341376967 0 0 0
468 1 1 0.5897 0.738450561029587 3.125970807180558 14.959494652764096 0 0 0
365 1 1 0.5897 0.6446028633857398 4.795410023962095 13.333848209438495 0 0 0
761 1 1 0.5897 5.140946710182498 5.821317910654007 12.066136207932516 0 0 0
760 1 2 -1.1794 5.208877803534762 5.922879122338269 13.015629623952597 0 0 0
113 1 1 0.5897 0.6235317611176077 5.8151103530245525 11.189928148306329 0 0 0
364 1 2 -1.1794 0.6453938789430671 5.6739050093461145 12.953771625346004 0 0 0
357 1 1 0.5897 7.744785693399148 2.0458552102065597 11.211264995644443 0 0 0
737 1 1 0.5897 2.895988286977286 0.25779705649674867 13.755299777639062 0 1 0
754 1 2 -1.1794 7.595025356351533 1.8852832101278336 17.5104908858078 0 0 0
133 1 2 -1.1794 0.8195808159356 3.006259025697035 16.740517725521716 0 0 0
599 1 1 0.5897 9.044121028303191 2.734570423906974 16.858368235848086 0 0 0
568 1 2 -1.1794 3.007013830706809 1.816494998526482 20.286167263551455 0 0 0
278 1 1 0.5897 5.366754102653061 4.824279287211195 17.61976577618082 0 0 0
569 1 1 0.5897 2.2027610315617223 2.295715705839392 20.48570588341493 0 0 0
70 1 2 -1.1794 5.2209626469018415 3.1563546886954743 16.825214535061757 0 0 0
21 1 1 0.5897 0.6911003655317168 3.8909623235292217 20.99894885470888 0 0 0
41 1 1 0.5897 6.736339478281903 2.4668754008569573 20.45069426625665 0 0 0
648 1 1 0.5897 0.7679381042968817 5.621903105336812 19.664129901068897 0 0 0
646 1 2 -1.1794 0.6934811095384024 5.683649788251629 20.616550284753192 0 0 0
290 1 1 0.5897 2.915572512728753 0.7712830361582939 17.31101599260331 0 0 0
291 1 1 0.5897 2.258697776807928 2.1341077912389634 17.256038281175087 0 0 0
143 1 1 0.5897 5.315737597516796 4.883562002847809 20.65829560603978 0 0 0
142 1 2 -1.1794 5.3338237687794905 5.829876305712806 20.515712523823478 0 0 0
756 1 1 0.5897 6.793760587747086 2.332059500666116 17.23723277123073 0 0 0
72 1 1 0.5897 4.4633594269485775 2.6162972255823727 17.05029499402533 0 0 0
667 1 2 -1.1794 5.282105759084658 3.1963514456507127 21.0713229191285 0 0 0
40 1 2 -1.1794 7.586502013796935 2.1068541216809096 20.197867237336038 0 0 0
144 1 1 0.5897 5.394037834330673 5.928314520176219 19.565373225893737 0 0 0
570 1 1 0.5897 3.003342111745985 1.7277813735929173 19.332976002532686 0 0 0
755 1 1 0.5897 7.612553121220634 1.9846545985347124 18.46247562302123 0 0 0
289 1 2 -1.1794 3.0431596129025467 1.683992027879172 17.569604817099435 0 0 0
134 1 1 0.5897 0.829914626221092 3.877127444838287 17.137633701502576 0 0 0
42 1 1 0.5897 7.549599278787497 1.1901399330490336 20.470751275336507 0 0 0
669 1 1 0.5897 4.467905360285339 2.7314663663747982 20.878303894815833 0 0 0
277 1 2 -1.1794 5.396826198641713 5.7600671621356385 17.81868944748418 0 0 0
19 1 2 -1.1794 0.6980677126262594 2.9631049774649845 21.23391754985431 0 0 0
571 1 2 -1.1794 0.6884209483072348 5.517960780621748 17.861214753375705 0 0 0
360 1 1 0.5897 8.974958062782807 2.7870767973946102 20.942376190293647 0 0 0
572 1 1 0.5897 1.4928195142769736 5.932135226232138 17.5486143301883 0 0 0
81 1 1 0.5897 2.9977827888798685 0.2457623770229631 20.99981554897668 0 1 0
668 1 1 0.5897 5.3458054556446655 3.182469511934091 22.026421289772586 0 0 -1
123 1 1 0.5897 3.102584852513491 8.690957561893635 2.7160810304605403 0 0 0
121 1 2 -1.1794 2.9934896192397082 9.617150268525045 2.9315878187310314 0 0 0
122 1 1 0.5897 2.9606619815670463 9.638799140057055 3.8881012409749354 0 0 0
44 1 1 0.5897 1.5860553612077237 10.496916856014975 2.229187199562565 0 0 0
218 1 1 0.5897 5.877314482535171 10.734644471941126 2.5707859992727764 0 0 0
417 1 1 0.5897 8.283926429919132 6.7911052051745715 2.562942129139504 0 0 0
219 1 1 0.5897 4.364548011900272 10.71590222952547 2.5131109890480197 0 0 0
254 1 1 0.5897 3.1740408646638874 6.920694853481385 1.1286686788994529 0 0 0
415 1 2 -1.1794 7.505193815050405 7.250616653452934 2.248728137018979 0 0 0
217 1 2 -1.1794 5.12288748829728 11.26541553484868 2.3150316679815255 0 0 0
66 1 1 0.5897 7.349891821479475 9.898750673354645 3.973759051878267 0 0 0
65 1 1 0.5897 7.375238376503476 8.94403503876994 2.799004606390632 0 0 0
64 1 2 -1.1794 7.386708527948093 9.875882308373916 3.0174208314916853 0 0 0
253 1 2 -1.1794 3.26383123043625 7.002942779900513 2.0782109952180527 0 0 0
255 1 1 0.5897 2.4788672882383174 6.583596217716739 2.430769079387931 0 0 0
416 1 1 0.5897 6.773382167713885 6.6975781074483205 2.5223740852140693 0 0 0
43 1 2 -1.1794 0.7222064250319191 10.845757717271116 2.0092128741500606 0 0 0
773 1 1 0.5897 8.867111276119003 10.601012745925345 2.2933516503719535 0 0 0
396 1 1 0.5897 0.9207265863759695 11.135471772571512 0.23463826037344665 0 0 0
138 1 1 0.5897 4.629828333608952 6.053997751759171 2.7608991095202433 0 0 0
162 1 1 0.5897 7.572174404082494 7.022550598213903 0.49704267864384405 0 0 1
45 1 1 0.5897 0.6979631170331893 11.707027522990355 2.4261585476152683 0 0 0
363 1 1 0.5897 5.3007860895878185 11.00576492147068 0.5865327087266294 0 0 1
165 1 1 0.5897 8.831098756113908 6.342313997122127 6.138039169128947 0 0 0
793 1 2 -1.1794 2.956662313702962 9.71213671373399 5.718302109629852 0 0 0
578 1 1 0.5897 5.860588788546671 10.677298382216453 6.420156959326843 0 0 0
712 1 2 -1.1794 7.217128709333804 9.916642288256908 5.7656675746825865 0 0 0
651 1 1 0.5897 3.6819879379220337 6.628823197367514 9.836551619325906 0 0 0
13 1 2 -1.1794 0.9045163636290113 10.898512992701324 9.266763945904989 0 0 0
794 1 1 0.5897 2.145736782860256 10.121116902382546 6.020715161804449 0 0 0
256 1 2 -1.1794 2.9534545957433083 9.642848080034307 10.58014547591842 0 0 0
114 1 1 0.5897 1.3510121426989699 6.285278954987864 9.948141141313265 0 0 0
146 1 1 0.5897 6.687834417697866 6.759228899817806 6.416423516419974 0 0 0
147 1 1 0.5897 7.40830029125541 7.214075466286458 7.667970157514607 0 0 0
677 1 1 0.5897 5.94569970942066 6.171969880888226 9.91783499270956 0 0 0
12 1 1 0.5897 3.1720849246823315 8.053288184960884 6.349615277485359 0 0 0
577 1 2 -1.1794 5.106216870244793 11.085032893407636 6.845604732912554 0 0 0
145 1 2 -1.1794 7.377967087336471 7.348672142416677 6.720648431204344 0 0 0
551 1 1 0.5897 0.7547630337643423 11.006392521581283 7.556562614517746 0 0 0
550 1 2 -1.1794 0.6935636400566668 10.988380807057196 6.601367956805811 0 0 0
526 1 2 -1.1794 7.279359157533004 7.0842708711429685 9.469824914752717 0 0 0
649 1 2 -1.1794 2.8966050409728052 7.080610814894736 9.527735881082506 0 0 0
714 1 1 0.5897 7.1900683466464015 9.005397142497541 6.05736900057729 0 0 0
10 1 2 -1.1794 3.212898266638366 7.171305012629907 6.719270893445686 0 0 0
713 1 1 0.5897 8.062492439857444 10.242504436997434 6.074695315916184 0 0 0
15 1 1 0.5897 1.579834958561089 10.382393865595327 9.707073406841992 0 0 0
528 1 1 0.5897 8.111264261749847 6.672594675751832 9.703836027946043 0 0 0
11 1 1 0.5897 2.43281582741784 6.732534390940927 6.37976882426269 0 0 0
581 1 1 0.5897 5.865531398492071 10.664761516565532 9.98968401772236 0 0 0
822 1 1 0.5897 8.252393970814362 10.12884819074394 10.077891488106784 0 0 0
687 1 1 0.5897 4.4822807213844085 6.155263617841516 6.063081039196618 0 0 0
258 1 1 0.5897 3.754174204382188 10.043038146209202 10.241011091047753 0 0 0
527 1 1 0.5897 7.333961145627414 7.964271240001677 9.842428098412707 0 0 0
650 1 1 0.5897 3.0326634106055574 7.1816883421655415 8.58554374046436 0 0 0
257 1 1 0.5897 2.925568548367778 8.777989699254682 10.17092347270798 0 0 0
820 1 2 -1.1794 7.433006429678472 9.767158398214974 10.415689809853417 0 0 0
582 1 1 0.5897 5.212949021713387 11.017182157486465 8.669711093476696 0 0 0
580 1 2 -1.1794 5.095917814255691 11.094744111018207 9.616691488940043 0 0 0
795 1 1 0.5897 3.6523801098241533 10.237474785747496 6.113648370581031 0 0 0
14 1 1 0.5897 1.0414659147207885 11.79177769507513 9.582247959406796 0 0 0
828 1 1 0.5897 7.519033548647336 7.059330873167511 14.794504570532377 0 0 0
261 1 1 0.5897 0.8093211252302002 11.17453593971423 15.006997565693034 0 0 0
332 1 1 0.5897 2.8865834403292823 7.920459365768835 13.663215411024783 0 0 0
797 1 1 0.5897 2.9128489259027663 9.682998099102974 12.430571653335372 0 0 0
796 1 2 -1.1794 2.944512649440828 9.651803526545459 13.386858663974037 0 0 0
798 1 1 0.5897 2.140810829620529 10.089228403621567 13.668024558831723 0 0 0
722 1 1 0.5897 4.457642857814095 10.507131733856273 13.828476638270246 0 0 0
259 1 2 -1.1794 0.8097193347801813 11.181991188510093 14.049702322085345 0 0 0
721 1 2 -1.1794 5.24953432438698 10.992300613930325 14.060453810830099 0 0 0
723 1 1 0.5897 5.311225100164912 10.91013355761627 15.01224287117634 0 0 0
331 1 2 -1.1794 2.8389025099276326 6.989308712640867 13.879692741349285 0 0 0
225 1 1 0.5897 2.961647307801206 6.79892427576704 15.893424943220626 0 0 0
826 1 2 -1.1794 7.540266128599858 7.096103630308417 13.838126809551072 0 0 0
475 1 2 -1.1794 7.5833771922058695 9.763999136134911 13.108897182859447 0 0 0
476 1 1 0.5897 6.77785578778286 10.16145335064811 13.439774924449704 0 0 0
477 1 1 0.5897 7.505715812749972 8.837933033947902 13.33813700234973 0 0 0
827 1 1 0.5897 6.703311045517452 6.720423603461357 13.564842061628763 0 0 0
333 1 1 0.5897 3.6892427015098574 6.637754086348802 13.615778917883633 0 0 0
366 1 1 0.5897 1.4392112535928117 6.083488120725637 13.297881387289678 0 0 0
851 1 1 0.5897 9.05246130750587 6.2642822812444985 13.270450727478877 0 0 0
821 1 1 0.5897 7.506431277085318 9.853310779583387 11.366293025962038 0 0 0
520 1 2 -1.1794 7.464294101411466 7.043063982431541 16.517711954439783 0 0 0
362 1 1 0.5897 5.333980909580979 11.772309325423851 21.278361405124567 0 0 0
445 1 2 -1.1794 1.016217395513324 10.897671276936892 16.842298649003613 0 0 0
679 1 2 -1.1794 5.283246124500799 10.753665792910898 16.869490499616322 0 0 0
688 1 2 -1.1794 3.147370427390751 9.741009595408853 20.397599746562136 0 0 0
711 1 1 0.5897 8.76338672421218 6.104120690822226 17.318119495174653 0 0 0
680 1 1 0.5897 4.512420885926801 10.285360025377479 17.19015093980784 0 0 0
681 1 1 0.5897 5.1914694789526905 11.637966226915701 17.22416454444474 0 0 0
287 1 1 0.5897 8.982624607312765 10.736632697246351 20.934319561645534 0 0 0
4 1 2 -1.1794 2.9653841840947845 7.060930716471051 21.288343318466705 0 0 0
6 1 1 0.5897 3.077030439498958 7.973352991422309 21.021477867024675 0 0 0
522 1 1 0.5897 7.56133084034934 7.908223638210561 16.915592714777535 0 0 0
139 1 2 -1.1794 7.509698002761756 9.57107504959661 20.551594188501127 0 0 0
627 1 1 0.5897 2.395089887502131 9.928963209689243 17.408924563426897 0 0 0
246 1 1 0.5897 9.030920797240062 10.150711623404366 16.90902347263141 0 0 0
223 1 2 -1.1794 3.022881989560047 6.702079575847686 16.843862748801957 0 0 0
9 1 1 0.5897 6.73748566565615 9.9136250526872 17.50647661390206 0 0 0
160 1 2 -1.1794 7.6110335789439025 7.052589795768512 21.538028079009845 0 0 0
5 1 1 0.5897 3.7773901014770943 6.6312293124078305 21.019425142379813 0 0 0
689 1 1 0.5897 3.9064367793477155 10.171448177197565 20.79112545487076 0 0 0
521 1 1 0.5897 6.6747215127247586 6.681103405260038 16.92008820161289 0 0 0
279 1 1 0.5897 4.581743658522799 6.108500221863457 17.45735374171616 0 0 0
690 1 1 0.5897 2.392470280341493 10.177780422141259 20.792155182510655 0 0 0
224 1 1 0.5897 3.06372512085229 7.599431977875763 17.17444854259204 0 0 0
141 1 1 0.5897 7.599525325046755 8.719912381063745 20.98018488166417 0 0 0
394 1 2 -1.1794 1.0189748087806199 11.180345529593927 21.28047109270404 0 0 0
361 1 2 -1.1794 5.369734923565524 10.885317379513678 21.636373718673468 0 0 0
8 1 1 0.5897 7.486461190519596 9.501363621501813 18.756043685901755 0 0 0
626 1 1 0.5897 3.115729930007439 9.531047537198777 18.67962659397024 0 0 0
625 1 2 -1.1794 3.1143280277143766 9.38691309770763 17.733222339528744 0 0 0
161 1 1 0.5897 6.781135888907645 6.670806563658698 21.251957081926246 0 0 0
140 1 1 0.5897 6.713846139468328 9.946602703710154 20.92832820877559 0 0 0
647 1 1 0.5897 1.4941756214209891 6.130451572285332 20.891429055951704 0 0 0
7 1 2 -1.1794 7.5470638969396004 9.496065670223683 17.800659229018283 0 0 0
446 1 1 0.5897 0.9245823172330636 11.782974039768337 17.194502268229577 0 0 0
462 1 1 0.5897 9.00689348068698 6.256022292234393 20.762373012349023 0 0 0
447 1 1 0.5897 0.2521809397379826 10.426764798197956 17.17516264700439 1 0 0
395 1 1 0.5897 0.293995644221269 10.656602426450865 20.939296277153595 0 0 0
200 1 1 0.5897 5.07673394616992 13.834996828739746 5.231045254139367 0 0 0
173 1 1 0.5897 4.149399517555846 14.27095102516353 2.987584069148355 0 0 0
172 1 2 -1.1794 4.8962045216175065 13.808458813933882 3.3679687618099767 0 0 0
293 1 1 0.5897 3.0113905615214605 16.811830858040135 2.737206414706729 0 0 0
558 1 1 0.5897 2.903816967052472 15.000475913381893 1.1618889177409948 0 0 0
556 1 2 -1.1794 2.8389750716341475 15.14418663860442 2.1061335555947864 0 0 0
557 1 1 0.5897 2.1160583649572797 14.582312086392296 2.3853656116556308 0 0 0
478 1 2 -1.1794 7.234418866276113 15.017834634771802 2.2915604683241053 0 0 0
174 1 1 0.5897 4.856090502646006 12.932150377687414 2.9849750732967326 0 0 0
479 1 1 0.5897 7.996445285460105 14.476165948316147 2.4969954776011916 0 0 0
449 1 1 0.5897 7.565574210165667 16.752655471987413 2.8564926656570546 0 0 0
480 1 1 0.5897 6.499712116917106 14.565831707257752 2.7065548540890036 0 0 0
373 1 2 -1.1794 0.8578803928556253 13.475448981586865 2.9123887120938807 0 0 0
374 1 1 0.5897 0.7583083781135984 13.43914764526713 3.8638224007394744 0 0 0
308 1 1 0.5897 7.568063637746908 17.52412177846839 4.954446433628261 0 0 0
317 1 1 0.5897 7.394998758590024 14.815002394612826 0.4944219206352322 0 0 0
552 1 1 0.5897 0.8314250313997584 11.89730473188816 6.334835085485737 0 0 0
579 1 1 0.5897 5.184057388078008 12.014879099528143 6.632283993445334 0 0 0
518 1 1 0.5897 7.591586072833646 15.77385618325323 6.532398914787279 0 0 0
454 1 2 -1.1794 5.236709899231593 13.710357458507469 10.331077780406755 0 0 0
655 1 2 -1.1794 0.6917346515857006 13.576656022847942 5.652543760877441 0 0 0
307 1 2 -1.1794 7.605591212552721 17.48383300027139 5.910181445402442 0 0 0
238 1 2 -1.1794 3.0605705237807594 17.593735901349838 5.774860061500978 0 0 0
16 1 2 -1.1794 2.836384634865941 15.058372839265514 6.715315569600527 0 0 0
186 1 1 0.5897 7.495034063588517 16.353020062938825 10.130146008620818 0 0 0
184 1 2 -1.1794 7.441106455258224 17.25785713675442 10.437644937256971 0 0 0
18 1 1 0.5897 3.6260670116336438 14.53651024138048 6.572671186881387 0 0 0
456 1 1 0.5897 5.0967766321057395 12.799352472153569 10.072864735448782 0 0 0
199 1 2 -1.1794 5.099907044154816 13.783829198548869 6.186717716590261 0 0 0
384 1 1 0.5897 3.0600324108245203 16.741059076378303 10.05747769266586 0 0 0
766 1 2 -1.1794 0.9036662986718899 13.47826462540668 10.209798697857345 0 0 0
377 1 1 0.5897 6.921156300897255 14.191001978293023 9.931466352793965 0 0 0
201 1 1 0.5897 5.921388923567744 14.210728938939404 6.43008791371609 0 0 0
656 1 1 0.5897 1.4624307294222219 14.100376423363468 5.8717064807703565 0 0 0
239 1 1 0.5897 2.99412260791899 16.71789907532638 6.15526560898614 0 0 0
519 1 1 0.5897 8.220380039790477 14.397434848705773 6.575639383371031 0 0 0
378 1 1 0.5897 7.610220829556443 14.745825876565492 8.702784134834541 0 0 0
813 1 1 0.5897 2.285014913072308 14.497043692339988 9.778455800545549 0 0 0
812 1 1 0.5897 3.787419747387921 14.682991003778898 9.796705341134528 0 0 0
517 1 2 -1.1794 7.48694754077414 14.905806174296403 6.921952232790255 0 0 0
17 1 1 0.5897 2.7489823850686097 15.106127238276791 7.667441455406666 0 0 0
376 1 2 -1.1794 7.725660264234381 14.623613075896163 9.64522451426866 0 0 0
811 1 2 -1.1794 2.9782080057555147 15.088324814482938 9.484948520733898 0 0 0
429 1 1 0.5897 5.860235653996457 14.07886114564783 13.382706643750803 0 0 0
232 1 2 -1.1794 3.034760509768058 15.088323035827491 13.838370593865974 0 0 0
234 1 1 0.5897 3.0823501258498958 14.989304748975957 14.789363213284693 0 0 0
606 1 1 0.5897 3.0425119112136665 16.753944079185775 13.277179666405749 0 0 0
427 1 2 -1.1794 5.123188127046063 13.582074378384815 13.027365127237124 0 0 0
233 1 1 0.5897 3.775455298729048 14.580646422463166 13.506808134276032 0 0 0
639 1 1 0.5897 1.500878672648409 14.185596206284782 13.259016769709172 0 0 0
428 1 1 0.5897 5.222376246488013 12.706044429347914 13.400112191656474 0 0 0
297 1 1 0.5897 8.130957801626096 14.36045534044717 13.797866280507716 0 0 0
296 1 1 0.5897 7.4481887573108 14.661692364078787 15.115238531608856 0 0 0
295 1 2 -1.1794 7.33762607640026 14.747497398482112 14.168204298362648 0 0 0
270 1 1 0.5897 7.350271418635355 16.42743382274389 13.552284786419492 0 0 0
638 1 1 0.5897 0.799931946893503 12.844062851906118 13.28686399135516 0 0 0
637 1 2 -1.1794 0.7022374404058415 13.742709159068138 12.972085503840576 0 0 0
268 1 2 -1.1794 7.394771718322801 17.326138317486944 13.225855028504938 0 0 0
269 1 1 0.5897 7.419474473069975 17.23459848435378 12.273242647759846 0 0 0
767 1 1 0.5897 0.867090125946927 13.551345882087992 11.163624921614609 0 0 0
455 1 1 0.5897 5.231540752908999 13.692090148275913 11.288210870673641 0 0 0
451 1 2 -1.1794 0.7923305530810688 13.715250315750554 20.412815062129138 0 0 0
610 1 2 -1.1794 7.45182975401369 17.15365480364983 17.809675336436115 0 0 0
53 1 1 0.5897 0.8625306643257804 13.653892943882763 18.630319108398382 0 0 0
823 1 2 -1.1794 3.115105046323739 14.828483632498768 16.610776786250497 0 0 0
117 1 1 0.5897 8.82626844918768 14.027160146883086 20.685156848775712 0 0 0
49 1 2 -1.1794 7.516623014058208 14.548956822913603 16.997934022457514 0 0 0
683 1 1 0.5897 6.043591482686954 13.877766385010046 20.970520489943727 0 0 0
126 1 1 0.5897 6.039512189079942 13.755720825015665 17.517444855165497 0 0 0
159 1 1 0.5897 7.315925729195749 17.208984409750546 19.58812412583258 0 0 0
50 1 1 0.5897 7.569614110038481 15.447661880920231 17.323076741079507 0 0 0
157 1 2 -1.1794 7.314950127710687 17.24364241025631 20.54481523833653 0 0 0
583 1 2 -1.1794 3.0520743285702956 17.37366902614444 17.69291582077956 0 0 0
824 1 1 0.5897 3.8429660800057808 14.32552134948416 16.97622491616143 0 0 0
318 1 1 0.5897 7.388404570525594 15.626409323016395 21.213252728164715 0 0 0
665 1 1 0.5897 2.359844788680874 14.39673930938491 20.917763511560427 0 0 0
715 1 2 -1.1794 2.7334519458249398 17.535797395106133 20.5214485737864 0 0 0
716 1 1 0.5897 2.8659161638541715 17.493342224787856 19.574290782764614 0 0 0
52 1 2 -1.1794 0.8925284889492775 13.583511015088275 17.676062352934007 0 0 0
125 1 1 0.5897 5.222418888124863 13.388020587256754 18.737889426648476 0 0 0
124 1 2 -1.1794 5.202207834256057 13.373835527487943 17.780887843402702 0 0 0
682 1 2 -1.1794 5.305323016950571 13.392799326173696 20.601633090443947 0 0 0
666 1 1 0.5897 3.067297494643498 15.734590572241997 20.956122107542562 0 0 0
584 1 1 0.5897 3.059130609522544 16.502157119774672 17.29714513093613 0 0 0
664 1 2 -1.1794 3.1385231754974083 14.831577434820694 21.265467197477044 0 0 0
316 1 2 -1.1794 7.4788271369110655 14.731813260986382 21.541460462846402 0 0 0
452 1 1 0.5897 0.9025652554471368 12.860453197874282 20.829215671771884 0 0 0
825 1 1 0.5897 2.3309724684636572 14.399904915311739 16.953961977288166 0 0 0
51 1 1 0.5897 8.296352131159372 14.119907002338927 17.35043796438616 0 0 0
684 1 1 0.5897 4.537084045842698 13.918041698623043 20.82572535828193 0 0 0
158 1 1 0.5897 8.164158936771134 17.62247950465514 20.772132887399223 0 0 0
612 1 1 0.5897 8.216216115930058 17.592027797488008 17.435700509662315 0 0 0
611 1 1 0.5897 6.704258385434103 17.555153404145596 17.36665792834604 0 0 0
267 1 1 0.5897 6.1469819767267015 21.861864883290924 2.5913677351746314 0 0 0
696 1 1 0.5897 1.645502708771881 21.905201190773006 2.643125360820718 0 0 0
266 1 1 0.5897 4.6330726889012785 21.849292787206807 2.583914788001144 0 0 0
265 1 2 -1.1794 5.391763802997596 21.41658479642395 2.9756649902610923 0 0 0
228 1 1 0.5897 5.387595210671915 19.75828314261505 2.2650593317986663 0 0 0
343 1 2 -1.1794 0.6909090574407422 18.959508817276358 2.323331199239574 0 0 0
249 1 1 0.5897 5.251248963802587 21.356697820441088 4.869893834378582 0 0 0
226 1 2 -1.1794 5.37754600041015 18.868593521775633 1.9121258840921656 0 0 0
187 1 2 -1.1794 3.133853013687018 22.54062288206469 1.9967022838448203 0 0 0
818 1 1 0.5897 8.240366414434302 22.254580072339632 2.1851741622053003 0 0 0
189 1 1 0.5897 3.091097796205652 22.558936611372022 1.0405123345361502 0 0 0
344 1 1 0.5897 1.5249820006933492 18.52480379112981 2.5012401380849356 0 0 0
817 1 2 -1.1794 7.464626240010942 22.714064288292377 1.8635911813288 0 0 0
345 1 1 0.5897 0.6136288196059522 18.949290975897878 1.3691853979414794 0 0 0
413 1 1 0.5897 0.7628916119752227 21.63233667338539 4.834776859981409 0 0 0
695 1 1 0.5897 0.8079913113733376 20.665012538748957 2.8719829104369143 0 0 0
227 1 1 0.5897 4.548082571249483 18.499463986748058 2.2155313952075697 0 0 0
694 1 2 -1.1794 0.8490868743704387 21.599047003996965 3.0770947856461426 0 0 0
602 1 1 0.5897 5.221162981380862 18.81094911492453 0.16035141738485242 0 0 0
450 1 1 0.5897 6.75058365253178 18.027029293414532 2.7963632041683963 0 0 0
321 1 1 0.5897 8.930794558126927 18.46463027269136 2.4315056379528133 0 0 0
294 1 1 0.5897 3.019268831437258 17.743179334182987 3.9308169815114926 0 0 0
292 1 2 -1.1794 3.0150038702164967 17.739368530742016 2.973512771357032 0 0 0
448 1 2 -1.1794 7.548356809136782 17.655745056618105 3.1732385967018377 0 0 0
382 1 2 -1.1794 3.0005970659665606 17.644736468299143 10.367364821322226 0 0 0
38 1 1 0.5897 2.2509920067702676 22.318506688348084 9.720065023105183 0 0 0
85 1 2 -1.1794 7.522477931063826 22.698325405521807 9.450628259477213 0 0 0
248 1 1 0.5897 4.662396574043937 21.764120406402743 6.203921584001463 0 0 0
342 1 1 0.5897 0.9446324847096152 18.85645486847982 7.6234873524922335 0 0 0
555 1 1 0.5897 5.258659619174494 20.62735669513371 9.995266051849539 0 0 0
403 1 2 -1.1794 0.6384572456139788 18.73291216156765 9.42185605266611 0 0 0
33 1 1 0.5897 6.734047455778252 22.258054511868444 6.316856825592955 0 0 0
39 1 1 0.5897 3.7644775591617883 22.3569055199077 9.72475716435167 0 0 0
404 1 1 0.5897 1.4230795496497577 18.286179798671203 9.739870385613036 0 0 0
31 1 2 -1.1794 7.490691751245824 22.782986555353546 6.578054124807954 0 0 0
247 1 2 -1.1794 5.331715452870811 21.20351078880106 5.811447202638344 0 0 0
341 1 1 0.5897 1.588478843400989 18.500502455345355 6.300185104857126 0 0 0
553 1 2 -1.1794 5.2339125974958325 21.534368477658926 10.300075628955923 0 0 0
414 1 1 0.5897 0.7629428584069569 20.69589205112805 6.024424384145493 0 0 0
37 1 2 -1.1794 2.997126552467791 22.799719274742483 9.362261784850498 0 0 0
87 1 1 0.5897 8.281571914088083 22.214087928823062 9.775578915834117 0 0 0
405 1 1 0.5897 0.7587276801827655 19.64539298871595 9.684744886187415 0 0 0
32 1 1 0.5897 8.247860719102487 22.26911975865231 6.297105957486802 0 0 0
86 1 1 0.5897 7.612785302754692 22.675066132349734 8.497862324913173 0 0 0
385 1 2 -1.1794 5.324707509636355 18.676744516822314 6.77381859514405 0 0 0
701 1 1 0.5897 3.147097947537921 22.762768177290486 7.647163127237276 0 0 0
102 1 1 0.5897 5.361202942552384 18.818100835810952 8.548398972399358 0 0 0
100 1 2 -1.1794 5.307582872110031 18.886482038981907 9.501772389357207 0 0 0
387 1 1 0.5897 5.391165802612362 19.576464867372838 6.4539868601087 0 0 0
702 1 1 0.5897 2.3482793288602024 22.377052539054304 6.4202005673537785 0 0 0
101 1 1 0.5897 6.057924418525609 18.385070342042162 9.820965009510092 0 0 0
700 1 2 -1.1794 3.1889897906860076 22.74615954404911 6.690904368433951 0 0 0
94 1 2 -1.1794 0.8803916871003837 21.327427722916944 10.115903394751772 0 0 0
185 1 1 0.5897 8.269852579032836 17.653072158097835 10.166914341210655 0 0 0
412 1 2 -1.1794 0.6870901299699568 21.62056063247739 5.789018357347835 0 0 0
554 1 1 0.5897 6.0623199318909355 21.91028953426027 10.00217401107495 0 0 0
240 1 1 0.5897 3.8304795750233787 17.979216813618986 6.193157150186303 0 0 0
386 1 1 0.5897 6.14666288825476 18.265611566058226 6.506096578082446 0 0 0
340 1 2 -1.1794 0.8469801416673624 18.973237527940828 6.67835015085076 0 0 0
383 1 1 0.5897 3.7376258448657693 18.09052940821921 9.949774693030886 0 0 0
309 1 1 0.5897 8.410550081668648 17.94877140988032 6.138591008312751 0 0 0
96 1 1 0.5897 0.7812146925517731 21.23859225416674 11.063918768462647 0 0 0
88 1 2 -1.1794 5.2629396345988555 21.537780777713017 13.056006883954847 0 0 0
381 1 1 0.5897 1.5359320980572186 21.82051398069252 13.281615722174257 0 0 0
90 1 1 0.5897 5.277961073790068 20.622251222276528 13.334875267683989 0 0 0
763 1 2 -1.1794 5.287963822018181 18.847071735418147 14.001003758923241 0 0 0
738 1 1 0.5897 3.722051391626277 22.258937240495985 13.782385485182525 0 0 0
89 1 1 0.5897 5.234959109240254 21.497095882022435 12.099960173863694 0 0 0
736 1 2 -1.1794 2.9010204767491303 22.634524933877277 14.100451553332901 0 0 0
789 1 1 0.5897 6.850828785145762 22.286937023598885 13.597582092527578 0 0 0
765 1 1 0.5897 6.0086721348588075 18.30598630073338 13.67835346363238 0 0 0
787 1 2 -1.1794 7.6759879470271875 22.652078762263244 13.917119113366239 0 0 0
503 1 1 0.5897 1.4156571358150523 18.370225061336548 13.627695616967964 0 0 0