LAMMPS (30 Jul 2021)
  using 1 OpenMP thread(s) per MPI task
package omp 0
using multi-threaded neighbor list subroutines
echo both

include		in.partitions
variable        pid world 0
include		in.temp
variable        temperature equal 207.08
variable	tempDamp equal 100.0
include		in.pressure
variable        pressure equal -625.0
variable        pressureDamp equal 1000.0 # This is 1 ps
include		in.seed
variable        seed world 745823

units		real
atom_style	full

read_restart	restart.lmp.${pid}
read_restart	restart.lmp.0
Reading restart file ...
  restart file = 30 Jul 2021, LAMMPS = 30 Jul 2021
  restoring atom style full from restart
  orthogonal box = (-0.10996173 -0.096962988 -0.22283362) to (20.109963 20.096964 20.922832)
  4 by 4 by 4 MPI processor grid
  restoring pair style lj/cut/tip4p/long/omp from restart
  restoring bond style harmonic/omp from restart
  restoring angle style harmonic/omp from restart
  972 atoms
  648 bonds
  324 angles
Finding 1-2 1-3 1-4 neighbors ...
  special bond factors lj:    0        0        0       
  special bond factors coul:  0        0        0       
     2 = max # of 1-2 neighbors
     1 = max # of 1-3 neighbors
     1 = max # of 1-4 neighbors
     2 = max # of special neighbors
  special bonds CPU = 1.818 seconds
  read_restart CPU = 2.263 seconds
include 	in.setup
variable	out_freq equal 1000
variable	out_freq2 equal 10000
variable	out_freq3 equal 1000

timestep	2.0

neigh_modify    delay 7 every 1

include		in.tip4p
# This is TIP4P/Ice

# create groups ###
group ox type 2
324 atoms in group ox
group hy type 1
648 atoms in group hy

# set charges - beside manually ###
set group ox charge -1.1794
Setting atom values ...
  324 settings made for charge
set group hy charge 0.5897
Setting atom values ...
  648 settings made for charge

# ### TIP3P Potential Parameters ###
pair_style lj/cut/tip4p/long/omp 2 1 1 1 0.1577 8.5
pair_coeff 1 1*2 0.000 0.000
pair_coeff 2 2 0.21084 3.1668
bond_style  harmonic
bond_coeff  1 450 0.9572
angle_style harmonic
angle_coeff 1 55 104.52
kspace_style pppm/tip4p/omp 1.0e-5
pair_modify tail yes

thermo          ${out_freq}
thermo          1000
thermo_style    custom step temp pe etotal epair emol press lx ly lz vol pxx pyy pzz pxy pxz pyz enthalpy

restart 	${out_freq3} restart.lmp.${pid} restart2.lmp.${pid}
restart 	1000 restart.lmp.${pid} restart2.lmp.${pid}
restart 	1000 restart.lmp.0 restart2.lmp.${pid}
restart 	1000 restart.lmp.0 restart2.lmp.0


include         in.dump
dump            myDump all atom ${out_freq2} dump.water.${pid}
dump            myDump all atom 10000 dump.water.${pid}
dump            myDump all atom 10000 dump.water.0
dump            myDump2 all dcd ${out_freq2} dump.dcd
dump            myDump2 all dcd 10000 dump.dcd
dump_modify     myDump append yes
dump_modify     myDump2 append yes


variable natoms 	equal  "count(all)"                        # NUMBER ATOMS
variable H      	equal  "enthalpy/v_natoms"                 # ENTHALPY-per-atom
variable Vol      	equal  "vol/v_natoms"                 # volume-per-atom
fix AVG all 		ave/time ${out_freq} 1 ${out_freq} v_Vol v_H file vol_enthalpy.dat
fix AVG all 		ave/time 1000 1 ${out_freq} v_Vol v_H file vol_enthalpy.dat
fix AVG all 		ave/time 1000 1 1000 v_Vol v_H file vol_enthalpy.dat


timer           timeout 02:55:00 every 1000
New timer settings: style=normal  mode=nosync  timeout=02:55:00

fix 		1 all shake 1e-6 200 0 b 1 a 1
       0 = # of size 2 clusters
       0 = # of size 3 clusters
       0 = # of size 4 clusters
     324 = # of frozen angles
  find clusters CPU = 0.245 seconds
fix             2 all nph aniso ${pressure} ${pressure} ${pressureDamp}
fix             2 all nph aniso -625 ${pressure} ${pressureDamp}
fix             2 all nph aniso -625 -625 ${pressureDamp}
fix             2 all nph aniso -625 -625 1000
fix             3 all temp/csvr ${temperature} ${temperature} ${tempDamp} ${seed}
fix             3 all temp/csvr 207.08 ${temperature} ${tempDamp} ${seed}
fix             3 all temp/csvr 207.08 207.08 ${tempDamp} ${seed}
fix             3 all temp/csvr 207.08 207.08 100 ${seed}
fix             3 all temp/csvr 207.08 207.08 100 745823


run             250000
PPPM initialization ...
  extracting TIP4P info from pair style
  using 12-bit tables for long-range coulomb (../kspace.cpp:340)
  G vector (1/distance) = 0.37137779
  grid = 24 24 25
  stencil order = 5
  estimated absolute RMS force accuracy = 0.0035348842
  estimated relative force accuracy = 1.0645199e-05
  using double precision FFTW3
  3d grid and FFT values/proc = 2366 288
Last active /omp style is kspace_style pppm/tip4p/omp
Neighbor list info ...
  update every 1 steps, delay 7 steps, check yes
  max neighbors/atom: 2000, page size: 100000
  master list distance cutoff = 10.8154
  ghost atom cutoff = 10.8154
  binsize = 5.4077, bins = 4 4 4
  1 neighbor lists, perpetual/occasional/extra = 1 0 0
  (1) pair lj/cut/tip4p/long/omp, perpetual
      attributes: half, newton on, omp
      pair build: half/bin/newton/omp
      stencil: half/bin/3d
      bin: standard
Per MPI rank memory allocation (min/avg/max) = 9.223 | 9.228 | 9.234 Mbytes
Step Temp PotEng TotEng E_pair E_mol Press Lx Ly Lz Volume Pxx Pyy Pzz Pxy Pxz Pyz Enthalpy 
18750000    217.71389   -4803.2929   -4383.4134   -4803.2929            0   -6.1118273    20.219924    20.193927    21.145665    8634.1912    -331.5908   -13.645782     326.9011   -87.796066    1436.7966    1116.6665    -4384.183 
18751000    202.22264   -4804.7912   -4414.7878   -4804.7912            0   -235.07616    20.157467    20.140275    21.247541    8626.0117    1352.0993   -1303.5084   -753.81939   -93.339103   -1651.4939   -248.36899   -4444.3608 
18752000    202.14974   -4796.4299   -4406.5671   -4796.4299            0   -803.18592    20.143807    20.329144    21.420564    8771.8574   -600.64185   -1627.8348   -181.08111   -87.344608   -258.20699    58.523348   -4509.3175 
18753000    199.76869   -4807.4274   -4422.1567   -4807.4274            0   -98.774633    20.182241    20.227029    21.161361     8638.634    -1545.021    237.93169    1010.7655    211.58766     491.4527   -1756.3824   -4434.6008 
18754000    197.59157   -4827.9339    -4446.862   -4827.9339            0   -975.42629    20.275541    20.181912    21.158669      8658.11   -2293.1618    495.42699   -1128.5441    -232.3418    789.38246    152.47692   -4570.0287 
18755000    203.55087   -4807.5674   -4415.0024   -4807.5674            0    104.76831    20.182838     20.23095    21.042841    8592.1703     474.2607   -577.38574    417.42997   -133.19958   -166.37116   -908.74595   -4401.8741 
18756000    212.76198   -4808.5781   -4398.2488   -4808.5781            0   -3217.9167    20.244869    20.128245    21.498029    8760.3107   -3363.5512   -2674.8532   -3615.3457   -45.190999    17.695873   -72.154834   -4809.3703 
18757000    215.86259   -4823.0268   -4406.7176   -4823.0268            0    35.954191     20.29718    20.164537    21.236736    8691.8402   -231.77733    -328.0651    667.70501   -76.874577   -1535.7881   -555.67579     -4402.16 
18758000    203.82999    -4805.331   -4412.2278    -4805.331            0   -1035.8491    20.273611    20.243469    21.049619    8638.9367   -634.94062   -2233.4668   -239.13972   -121.69562    909.05487   -41.941349   -4542.7344 
18759000    211.82795    -4790.958     -4382.43    -4790.958            0   -219.07988    20.091395    20.229375    21.323882    8666.8008    1065.6925   -1349.1218   -373.81032    3.8196389    745.39171    873.14765   -4410.1209 
18760000    219.00103   -4825.2588   -4402.8969   -4825.2588            0   -1091.9947    20.284998    20.088738    21.349985    8700.1193   -2188.6291    452.65173   -1540.0068   -348.07967   -624.23939   -1122.9067   -4541.4517 
18761000    208.71125   -4820.5652    -4418.048   -4820.5652            0   -68.400902    20.007052    20.302954    21.221561    8620.2459   -787.60366     512.2554    70.145554   -527.46842   -854.96989   -150.97211   -4426.6472 
18762000    215.28597   -4790.4864   -4375.2893   -4790.4864            0   -907.27287    20.392391    20.154539    21.087997    8667.1509   -1897.4469   -1883.1124    1058.7407    470.32585    626.53058   -785.90682   -4489.9699 
18763000    216.77817   -4792.3544   -4374.2795   -4792.3544            0   -49.977592    20.089093    20.115188    21.420319    8655.8628   -226.80519    1143.0911   -1066.2187   -503.42468   -482.75858   -36.505865   -4380.5885 
18764000    206.67535   -4818.6025   -4420.0117   -4818.6025            0   -373.55714    20.227823    20.274803    21.260575    8719.2835   -67.568961   -686.13451   -366.96797   -244.56403   -1275.3602    515.83045   -4467.5139 
18765000     205.6079   -4814.0205   -4417.4884   -4814.0205            0    198.88396    20.282686    20.175648    20.999073    8593.1639    459.24355   -335.36948    472.77782    -375.8343    1079.4719    255.88777   -4392.5637 
18766000    206.30732   -4804.7521   -4406.8711   -4804.7521            0    -1089.049    20.186207    20.178551    21.501895    8758.3321   -673.82642    -1286.686   -1306.6347    389.06505   -491.97018    744.52367   -4545.9768 
18767000    211.25503   -4825.6511    -4418.228   -4825.6511            0    137.21812    20.122585     20.17117    21.225037    8615.1592   -105.90887    1006.7078   -489.14459    156.81462    57.388607     653.3785   -4400.9875 
18768000    194.24132   -4810.4937    -4435.883   -4810.4937            0   -631.72605    20.131601    20.419066     21.02073    8640.9595   -993.21266   -610.14278    -291.8227   -394.86479   -483.51719   -707.12749   -4515.4928 
18769000     195.1816   -4792.0571   -4415.6329   -4792.0571            0   -2863.3294    20.215594    20.379308    21.184603    8727.6287   -3084.2347   -2500.7174   -3005.0361    -439.5858    9.4248939    173.65134   -4780.0876 
18770000    207.66565   -4818.9961   -4418.4954   -4818.9961            0    47.814579     20.25795     20.05179    21.237402    8626.8055    61.733098     616.1062   -534.39556    401.79492    790.10199   -821.36959   -4412.4797 
18771000    199.51371    -4815.605    -4430.826    -4815.605            0   -962.55926    20.375561    20.260692    21.007761    8672.4865   -2704.0385    5.4483048   -189.08758   -586.68034    165.42196    137.85201   -4552.5699 
18772000    209.91699   -4814.2446   -4409.4021   -4814.2446            0    -1342.353    20.290572    20.230243    21.082439    8653.9871   -1847.7445   -850.15984   -1329.1546    57.105575    802.31241   -932.56377   -4578.8198 
18773000    194.73623    -4810.887   -4435.3218    -4810.887            0   -751.63134    20.107981    20.169323    21.481886    8712.2876   -1293.5485    97.552137   -1058.8976   -527.61241   -552.61851    826.91827   -4530.8239 
18774000    215.66021   -4784.9733   -4369.0544   -4784.9733            0   -528.69096     20.38101    20.104891    21.170192    8674.6552   -501.44531   -912.47907    -172.1485   -101.27629    819.60483    -89.99145   -4435.9396 
18775000    220.18745   -4807.3793   -4382.7293   -4807.3793            0    206.93856    20.011662     20.16593    21.221328    8563.9474    574.42345     267.7317   -221.33947   -291.93028   -628.02011   -861.53313   -4356.8834 
18776000    211.14728   -4799.8529   -4392.6376   -4799.8529            0    229.89739    20.302273    20.250289    20.759609    8534.8333   -300.38394   -732.54739    1722.6235   -348.16206    1017.7166     -801.597   -4364.0219 
18777000    215.10944   -4793.9447    -4379.088   -4793.9447            0    762.29893    20.275556    19.963157    21.353106     8642.971     -1192.42    3145.9367    333.38004    -238.9397    1164.7942   -647.28529   -4283.0011 
18778000    200.23529   -4808.0846    -4421.914   -4808.0846            0   -1444.1658    20.085301    20.271534    21.401889      8713.99   -414.40957   -1803.8718    -2114.216   -574.23671    683.50662   -963.73353   -4605.4452 
18779000    212.89786   -4816.6049   -4406.0134   -4816.6049            0    723.07001    20.133591    20.122633    21.082599    8541.4228    1105.0945    220.95246    843.16309   -334.52812    741.33226    -311.8162   -4315.9421 
18780000    207.06833   -4788.2777    -4388.929   -4788.2777            0   -1682.2594    20.294757     20.22163    21.299779    8741.2816   -1991.4902   -1050.2075   -2005.0804      134.583    428.89264    1031.6056   -4603.3878 
18781000    214.01896    -4802.939   -4390.1854    -4802.939            0    563.73861    20.176033    20.331179     20.94186     8590.404    2142.9589   -259.04866   -192.69444     103.9856   -482.66617    559.98464    -4319.559 
18782000    206.23905   -4797.7452   -4399.9959   -4797.7452            0   -673.53222    20.100993    20.247291    21.200804    8628.5289    882.65388   -2002.0485   -901.20202    828.85216   -736.20879     223.1481    -4484.752 
18783000    205.37356   -4798.7099   -4402.6297   -4798.7099            0   -1070.1551    20.178579    20.260225    21.441397    8765.7266   -1699.4529   -242.34879   -1268.6635   -428.12349   -244.96976    1064.2568   -4539.4374 
18784000    207.41439   -4829.0787   -4429.0626   -4829.0787            0   -43.064053     20.21099    20.153658    21.201385    8635.8619   -1485.0092    1006.1176    349.69943   -138.12402    251.34935    555.99848   -4434.4863 
18785000    207.15739   -4848.8309   -4449.3104   -4848.8309            0    -473.6497    20.346696    20.146515    21.256753    8713.4625   -104.22087    -1083.764   -232.96422    495.78722    949.78926   -175.92201   -4509.5004 
18786000    206.26114   -4831.8253   -4434.0333   -4831.8253            0   -741.97183    20.318115    19.963355     21.21309    8604.4054   -1810.0403    1009.9302   -1425.8053    367.43762    -39.01609    2.3536209   -4527.1407 
18787000     208.4338   -4815.9944   -4414.0123   -4815.9944            0   -1955.6365    20.213415      20.4054    21.152718    8724.7097   -1007.6673   -3019.9789   -1839.2634   -731.77598    89.383525    588.55045   -4662.8493 
18788000    221.73061   -4823.9178   -4396.2917   -4823.9178            0    284.34615    20.136532    20.107374    21.309304    8627.9836    -467.7853    1189.4506    131.37314    144.64763    -770.9749    760.34331   -4360.5124 
18789000    201.47361   -4818.7621   -4430.2032   -4818.7621            0   -109.51382    20.181983     20.06725    21.229365    8597.8268   -366.44383   -323.73634    361.63872   -610.82575    46.695571    239.43148   -4443.9352 
18790000    205.21303    -4814.433   -4418.6624    -4814.433            0   -615.49673    20.162886    20.393585    20.910002    8598.0573   -919.67817     70.28964   -997.10166     -218.266   -0.9544674   -532.69272   -4495.8419 
18791000    211.16845   -4819.9598   -4412.7037   -4819.9598            0   -1308.6189    20.158398    20.099967    21.282523    8623.3194   -1917.8083   -765.62593   -1242.4225   -272.53849   -171.30745   -213.95938   -4577.2786 
18792000    198.31678   -4798.2398   -4415.7692   -4798.2398            0   -609.12685    20.428389    20.144598    21.192761    8721.2806   -1680.5812   -155.55377    8.7544321   -501.19946   -198.55956   -570.18315   -4493.2446 
18793000    209.56812   -4804.8148    -4400.645   -4804.8148            0    612.84392    20.120954     20.30214     21.18175    8652.7116    696.28524   -22.553462       1164.8   -538.38562    218.88295   -662.00275   -4323.3097 
18794000    195.82304   -4817.7626   -4440.1014   -4817.7626            0    -81.89364    20.146028    20.036751    21.514894    8684.7225    1336.0511   -420.79985   -1160.9322    -174.5898    996.34741   -345.80873   -4450.4739 
18795000    203.27634   -4833.9018   -4441.8662   -4833.9018            0   -579.47544    20.302166    20.180856    21.034551    8618.1728   -1241.7264    173.31661   -670.01659   -565.16153    1145.3702    2158.8188   -4514.6989 
18796000    202.34874   -4815.6473   -4425.4008   -4815.6473            0   -940.26098    20.191325    20.304901    21.157074    8674.0377   -2485.6744    13.900888   -349.00946   -452.64763    773.40042    307.70685   -4544.3456 
18797000    209.53241   -4820.9613   -4416.8605   -4820.9613            0    46.442697    20.149259    19.922305    21.446258    8608.9498    1250.1938   -92.956386   -1017.9093   -210.84441    1431.3541   -436.39061   -4411.0295 
18798000     196.2292   -4815.9602   -4437.5157   -4815.9602            0    130.43932    20.225549    20.099714    21.030871    8549.6329   -651.16816    879.08866    163.39747    193.13058   -710.71592   -352.63694   -4421.2515 
18799000    209.72637   -4808.9259    -4404.451   -4808.9259            0   -998.40385    20.293931      20.2569    20.968068    8619.8079   -858.42441   -1401.1779   -735.60923   -141.13323    512.34948    427.62253   -4529.9614 
18800000    195.05742   -4814.6125   -4438.4279   -4814.6125            0   -611.67949    20.303718    20.149185     21.22669    8683.9104   -829.07091   -780.97109   -224.99648   -871.36091   -499.67902    26.713674   -4515.8946 
18801000    222.72854   -4776.5031   -4346.9523   -4776.5031            0   -1670.4555    20.325809    20.146066    21.334271    8736.0658   -1622.1816   -811.17126   -2578.0138     422.3438   -273.09858    687.41598   -4559.7793 
18802000    203.38901   -4828.6009   -4436.3481   -4828.6009            0   -1260.9209    20.208842    20.296075    21.082176     8647.069   -559.87196   -2030.5292   -1192.3617   -440.32007    913.08245   -873.52966   -4595.3611 
18803000    189.79362   -4808.7289    -4442.696   -4808.7289            0   -1676.7815    20.400805    20.217599    21.191188    8740.4179   -1895.3668   -2198.6885   -936.28919   -710.28308    1540.1001    861.52638   -4656.4354 
18804000    212.11412   -4797.4894   -4388.4094   -4797.4894            0   -1307.3252    20.231118    20.192162    21.380209    8734.0295   -1978.9537   -466.50073   -1476.5211    192.41696    689.70094    246.61354   -4554.9324 
18805000    210.79965   -4816.4038    -4409.859   -4816.4038            0   -553.74153    20.300725    20.208185     20.91384    8579.7104   -1901.7092   -309.60152    550.08614    340.32213   -333.83024   -224.32351   -4479.1466 
18806000    216.25123   -4796.4215   -4379.3628   -4796.4215            0    639.71653    20.045402    20.255905    21.240703    8624.5276    873.62953    1072.9259   -27.405835   -39.175958   -1224.4493    841.42574   -4298.8994 
18807000    199.76672   -4823.7867   -4438.5198   -4823.7867            0    500.28752    20.163616    20.061751    21.265191    8602.1409    561.87179    904.65681    34.333971   -264.99835    180.02899    1040.4441    -4375.757 
18808000    213.20436   -4823.5551   -4412.3726   -4823.5551            0   -53.843506    20.357328    20.371614    20.823272    8635.6529   -170.69618   -1087.6631    1096.8288   -139.98661    750.31617   -833.41848   -4419.1538 
18809000    208.63397   -4822.9265   -4420.5584   -4822.9265            0   -722.25047    20.179759    20.162788    21.254277    8647.9442   -882.91841   -882.45437   -401.37864   -87.112342   -293.54793    58.402201   -4511.6496 
18810000    204.64156   -4809.2615   -4414.5931   -4809.2615            0   -263.79459    20.079723    20.145621    21.394894    8654.6298   -772.07486    653.16921   -672.47812    517.61675   -837.12763    33.808284   -4447.8889 
18811000    203.97507   -4799.5871   -4406.2041   -4799.5871            0   -1652.6974     20.44613    20.202379    20.989319    8669.8581   -4271.5991    -327.8065   -358.68657    238.03122    409.42947    1137.2456   -4615.1728 
18812000    219.39929   -4801.2899   -4378.1599   -4801.2899            0    364.64488    20.317864    20.268623     20.99525    8646.1621    479.51936   -501.86901    1116.2843    171.68223   -1014.7421   -364.27291   -4332.1799 
18813000    219.42615   -4810.9362   -4387.7544   -4810.9362            0   -1269.0585    20.193283    20.240787    21.343263    8723.5881   -3735.2731    1108.6801   -1180.5827    59.410253    852.79318   -760.86068   -4549.2098 
18814000    205.10704   -4806.4511    -4410.885   -4806.4511            0   -972.69917    20.336053    20.090002    21.252397    8682.6955   -653.83037   -1124.2662   -1140.0009   -59.085368     705.8266   -768.97415   -4534.0561 
18815000    205.39517   -4814.8873   -4418.7654   -4814.8873            0    102.60184    20.175569    20.249021    21.099357    8619.8369    1101.2227   -568.43131   -224.98587    280.06032    -482.0499    666.61072   -4405.8672 
18816000     210.9533   -4780.5819   -4373.7408   -4780.5819            0   -726.28203     20.24877    20.120655    21.360161    8702.5249   -419.46579   -928.80093   -830.57938   -41.935351    511.36386   -501.30966   -4465.9186 
18817000    202.15328   -4818.3603   -4428.4907   -4818.3603            0   -1525.6615    20.184191    20.292731    21.015061    8607.6084   -65.604483   -3345.1292   -1166.2509   -366.93485   -184.70008   -269.75562   -4620.0118 
18818000    209.67025   -4817.9785   -4413.6118   -4817.9785            0   -981.43678    20.138155    20.220054     21.29609    8671.6525    621.34086   -2382.8944   -1182.7569    88.087063    789.87133   -1527.2785   -4537.7313 
18819000    199.33093   -4823.5477   -4439.1212   -4823.5477            0    805.43274    20.203657    19.907761    21.397161    8606.1433    -116.6404    2175.2496    357.68907   -429.94955    730.57152   -775.10696   -4338.0299 
18820000    205.94416   -4799.5956    -4402.415   -4799.5956            0   -1497.6473    20.282614    20.298782    21.153838     8709.296   -1585.7371   -1710.0702   -1197.1347   -450.17174    173.50396   -22.151599   -4592.6404 
18821000    212.81649   -4818.2311   -4407.7966   -4818.2311            0     73.42274    20.281125    20.152698    21.055743    8605.8907   -1360.4684    818.99543    761.74121    168.88365    393.64376      531.341   -4398.5815 
18822000    226.93431   -4793.6921   -4356.0302   -4793.6921            0    -738.0253    20.277634    20.126751    21.426013    8744.4465   -1574.0266    5.9257299     -645.975   -57.096574   -892.46816   -334.29653   -4450.1496 
18823000     201.5096   -4828.9319   -4440.3037   -4828.9319            0    239.61538    20.047663    20.244726    21.272571    8633.6738   -584.27476    166.91301    1136.2079   -488.11049   -780.42492    928.04066   -4410.1329 
18824000    199.51609   -4819.8617   -4435.0782   -4819.8617            0   -381.53093    20.340959    20.098588    21.136256    8641.0207   -461.29406   -605.68483   -77.613897   -476.90227    1452.7528   -565.75518   -4483.1589 
18825000    203.75892   -4812.7559   -4419.7897   -4812.7559            0   -1217.9747     20.34673    20.077077     21.20277    8661.3924   -1040.5107    -573.2784   -2040.1351   -10.668713    436.08212    291.45744   -4573.6413 
18826000    210.02885   -4820.2505   -4415.1922   -4820.2505            0   -1031.4674    20.268036    20.218157    21.200042    8687.4025   -2217.0727   -1274.4052    397.07564   -503.67077    351.02232    1138.0453   -4545.8759 
18827000    188.76655   -4813.4432    -4449.391   -4813.4432            0   -1654.7894    20.252262    20.085757     21.35457     8686.655   -1638.2893   -928.38406    -2397.695     652.6492    328.43671    619.01665   -4659.0296 
18828000     219.0614    -4801.381   -4378.9027    -4801.381            0    197.17792    20.236319    20.047602    21.356206    8663.9923    1742.5792   -507.06962   -643.97581    -301.9267    1052.6094    767.16712   -4353.9882 
18829000    205.23094   -4828.0309   -4432.2258   -4828.0309            0   -1063.2168    20.187075    20.358532    21.102316    8672.6136   -776.01429   -1573.6752   -839.96103   -267.99183   -1086.2393   -604.18177   -4566.7027 
18830000    215.30372    -4815.236   -4400.0046    -4815.236            0    -619.1358    20.290516    20.066495    21.160239    8615.5931    275.00532   -1532.5632   -599.84947   -196.93919   -556.46696    369.10169   -4477.7988 
18831000    203.22651   -4794.7465   -4402.8071   -4794.7465            0   -2186.3201    20.119179    20.214932    21.540884    8760.8463    -1421.049   -1603.0212   -3534.8902    206.54529      332.525    204.70718   -4682.1488 
18832000    206.89782   -4832.1027   -4433.0828   -4832.1027            0   -523.35599    20.147388    20.287127    21.080554      8616.31   -1510.5474    61.716059   -121.23662   -319.91193    -349.9387    228.27881   -4498.8478 
18833000    201.21005   -4783.8546   -4395.8041   -4783.8546            0   -2976.4032    20.480698    20.278551    21.111711    8768.0919   -2243.7628   -3629.7361   -3055.7107    224.22911   -184.43989   -672.81861   -4776.4075 
18834000    205.71771   -4775.6564   -4378.9125   -4775.6564            0   -1134.4634    19.953752    20.432866    21.155078    8625.1869    194.62145   -2446.8833   -1151.1282   -369.69976   -442.38752    2.5582983   -4521.6161 
18835000    205.73029     -4824.33   -4427.5618     -4824.33            0   -2213.8165    20.226929    20.188161    21.432317    8751.7685    -1292.523   -1319.2981   -4029.6284   -28.759744    174.68268    196.29708   -4710.1235 
18836000     201.2478   -4816.4242   -4428.3009   -4816.4242            0   -1355.4803    20.357514     20.13382    21.116996    8655.3186   -2369.0069   -1531.9699   -165.46425   -130.31154    379.57255    96.939223   -4599.4017 
18837000    209.11989   -4827.6055   -4424.3002   -4827.6055            0   -2101.6538    20.410799    20.138638    21.185757     8708.314   -3311.7949   -1166.5941   -1826.5724    151.49611   -648.14858   -183.49077    -4691.214 
18838000    202.13492   -4799.6637   -4409.8295   -4799.6637            0   -2784.4723    20.279913    20.170081    21.472872    8783.4244   -3075.4547   -1906.6804   -3371.2818   -591.01849     705.9517   -131.82696   -4766.5127 
18839000    193.48626   -4826.3338   -4453.1793   -4826.3338            0    -433.5317    20.208779      20.1907    21.129154    8621.3162   -935.42942    619.12086   -984.28655   -656.37181   -204.47005     213.0715   -4507.6885 
18840000    209.28499   -4831.4128   -4427.7891   -4831.4128            0    420.61679    20.123772    20.270388    20.973397    8555.3982    1389.3582   -807.04261    679.53474     92.25722    209.34897    780.45005    -4375.308 
18841000    204.19898    -4822.551   -4428.7361    -4822.551            0   -810.14819    20.228898    20.086025    21.388901    8690.6987   -1228.1553    69.095858   -1271.3852   -666.54619     181.4094   -662.60758   -4531.4182 
18842000    210.02914   -4825.2989     -4420.24   -4825.2989            0    316.97991    20.239986    20.167361    21.082596     8605.644   -527.34699    1116.2918    361.99494   -533.44255    395.77674   -1006.3684   -4380.4576 
18843000    214.18494   -4815.6042   -4402.5306   -4815.6042            0   -2437.0395    20.274349    20.350584    21.144655    8724.1752    -3087.753   -2129.3332   -2094.0324   -610.72713    209.10731    1093.6635   -4712.6028 
18844000    203.52536     -4810.68   -4418.1643     -4810.68            0    521.84854    20.003538    20.164738    21.214546     8557.229    2418.1714   -846.04869   -6.5770669   -248.72975    128.29898   -933.04103   -4353.0384 
18845000    198.63286   -4827.3367   -4444.2565   -4827.3367            0   -824.58366    20.210499    20.305724    21.359357    8765.6417   -1836.8515    289.57776    -926.4772    175.28068   -168.14677    943.19971   -4549.6695 
18846000    216.36006   -4819.9787   -4402.7101   -4819.9787            0    -756.3643    20.232288    20.181382    21.056697    8597.7764     -948.178   -1441.5178    120.60294    51.577789   -415.71123     309.1644   -4497.5504 
18847000    211.52619   -4822.1868   -4414.2408   -4822.1868            0    194.12823    20.094962    20.160624    21.191149    8585.1061    2764.9623   -1799.8469   -382.73068   -121.36072    240.14473    297.59069    -4389.935 
18848000    202.57421   -4805.0447   -4414.3633   -4805.0447            0   -738.29217    20.308655    20.188787    21.272543    8721.8941    1926.0681   -3042.0263   -1098.9183   -603.12797    257.74328   -681.66109    -4508.274 
18849000    211.18895   -4828.3951   -4421.0994   -4828.3951            0   -1019.2767    20.092598    20.066331    21.463535    8653.7696    213.25211    -1501.303   -1769.7792   -706.87477   -155.42599    95.791136   -4549.7386 
18850000    206.94667   -4814.0418   -4414.9277   -4814.0418            0   -101.28632    20.285355    20.285599    21.100961    8683.0579   -860.57908    216.37913    340.34099    53.302403   -657.91836    478.90801    -4427.754 
18851000    195.09507   -4828.2436   -4451.9864   -4828.2436            0   -1012.4821    20.075306    20.269217     21.21299    8631.7935   -1083.7643   -1891.9425   -61.739569    93.871969   -828.81858    215.63575   -4579.4435 
18852000    210.26327   -4809.9459   -4404.4355   -4809.9459            0   -300.10411    20.068717    20.213031    21.355725     8662.941   -486.25261    603.95301   -1018.0127   -903.13916    5.9665211   -210.28827   -4442.3506 
18853000    203.44241   -4795.0223   -4402.6666   -4795.0223            0    417.63335    20.230291    20.189457    21.022016    8586.2029    990.91552   -612.80059    874.78512    232.62987    432.82005   -444.01309   -4350.3701 
18854000    210.45232   -4812.5647   -4406.6897   -4812.5647            0   -1911.9371    20.254675    20.321238    21.281612    8759.5131   -2519.4181   -2300.7084   -915.68479    45.336165    1025.1141   -1368.6954   -4650.9368 
18855000    219.43608    -4800.673    -4377.472    -4800.673            0   -580.22501    20.161613    20.147972    21.206324    8614.3397   -852.30627   -291.46342   -596.90534   -170.06904    69.957039   -363.65234   -4450.3664 
18856000    202.78829   -4825.7368   -4434.6426   -4825.7368            0    -883.6234    20.299588    20.134795    21.275265    8695.7976     120.8724   -1762.4693   -1009.2733   -97.010634   -650.85499   -1046.3216    -4546.703 
18857000    219.71081   -4832.8917   -4409.1609   -4832.8917            0      443.496    20.059322    20.256289    21.307321    8657.7486   -190.03895    1202.1727    318.35422   -193.43037    491.15745   -285.51322   -4353.1632 
18858000    214.67371   -4811.1561   -4397.1398   -4811.1561            0      789.536    20.199945    20.189413     21.12295    8614.4677    3073.7787   -1905.8069    1200.6362    266.74582    -458.6306    152.81527   -4297.9478 
18859000    204.27393   -4807.7141   -4413.7546   -4807.7141            0    56.558397    20.147014    20.157051    21.315356    8656.2594     608.0513   -222.78801    -215.5881    768.78321     1422.982    568.79684   -4406.6146 
18860000    207.33449   -4787.5749   -4387.7129   -4787.5749            0   -306.36436    20.132482    20.163684    21.459502    8711.3775    1906.4964   -2025.5099   -800.07961    -530.6378    285.13297   -647.81844   -4426.6354 
18861000    222.35549   -4818.5152    -4389.684   -4818.5152            0    355.90172    20.181835    20.259454    21.053708    8608.2918    956.02961    375.84881   -264.17327    148.17029    185.06117    596.09461    -4345.003 
18862000    207.51823   -4800.0132   -4399.7968   -4800.0132            0    11.901993    20.169756    20.254079    21.064698    8605.3467    264.19736    400.90881   -629.40019   -833.11302   -768.24257    474.63286   -4398.3031 
18863000    204.00965   -4830.9959   -4437.5462   -4830.9959            0   -513.05386    20.237976    20.010985    21.436618    8681.4409    617.33206   -1646.4995   -509.99415   -451.56253    1061.5747    320.15061   -4502.5039 
18864000    206.01065   -4805.4779    -4408.169   -4805.4779            0   -282.57728    20.239142    20.318335    21.104859    8678.8597   -1183.5725   -688.03618    1023.8769    797.17839   -223.09549    646.07749   -4443.9355 
18865000    210.19544   -4821.7186   -4416.3391   -4821.7186            0   -1024.9854     20.19259    20.208699    21.235268      8665.39   -2096.9398   -40.548398   -937.46794   -72.376054     393.5816    562.85667   -4545.8724 
18866000    199.18677    -4819.092   -4434.9436    -4819.092            0   -867.59674    20.106956    20.188387    21.449502    8706.9324    423.07527   -1488.3693   -1537.4962   -611.00685    1075.5437    635.41929   -4545.1125 
18867000    201.12083   -4827.9485   -4440.0701   -4827.9485            0   -395.02967    20.360593    20.041656     21.09173    8606.6913   -734.65217    733.41822   -1183.8551    114.71671    831.49333   -76.595048   -4489.6541 
18868000    206.44762   -4826.7623   -4428.6107   -4826.7623            0   -59.177743    20.161926    20.240365    21.217668    8658.6066    746.80744   -254.37026   -669.97041   -36.445716    433.45015    233.38247   -4436.0835 
18869000    205.38031   -4837.5544   -4441.4612   -4837.5544            0    208.89858    20.151955    20.215196    20.917675    8521.3534   -272.49307    269.99567    629.19315   -391.46631   -1226.2245    1283.1893   -4415.5003 
18870000    214.99027   -4822.9658    -4408.339   -4822.9658            0   -1090.9776    20.199546    20.177243    21.334777    8695.4396    548.81518   -2681.6505   -1140.0976   -629.82131   -273.70421    279.45391   -4546.6903 
18871000    206.62506   -4840.1006   -4441.6068   -4840.1006            0   -442.65064    20.255342    20.033007    21.292713     8640.059   -1784.6108     1202.734   -746.07515    -537.6546   -55.702459   -813.15188   -4497.3837 
18872000    218.48889   -4809.0158   -4387.6416   -4809.0158            0   -1019.5112    20.407332    20.223267    21.000297    8666.8841   -1098.2339   -1427.7292   -532.57062   -86.271733    846.91566    128.58355   -4516.5054 
18873000    212.74734   -4825.0383   -4414.7372   -4825.0383            0   -125.04403    20.285523    20.140578    21.066056    8606.7931    -1801.186    1265.7984    160.25554   -426.58178    332.37571    1109.3387   -4430.4328 
18874000    219.58386   -4834.5478   -4411.0619   -4834.5478            0   -661.20331    20.304362     20.19932    21.172156    8683.4276   -1922.9475   -185.10058    124.43819   -493.08806   -1.1617411    -468.9759    -4494.796 
18875000    205.83296   -4788.1369   -4391.1707   -4788.1369            0   -1234.4293    20.163531    20.300038    21.418063     8766.851   -2028.5736   -788.54867   -886.16572    151.50278     1214.888    156.24964   -4548.9994 
18876000     191.6815    -4807.711   -4438.0371    -4807.711            0   -1585.2507       20.282     20.16298    21.134394    8642.8168   -1758.0755   -1642.1503   -1355.5264    362.66449   -531.24916   -279.96959   -4637.8526 
18877000    206.71835   -4818.1818   -4419.5081   -4818.1818            0   -1146.7898    20.274092    20.305764    21.045142    8663.8831   -1450.0394   -1809.1983   -181.13162   -256.13939    469.23691    1343.8761   -4564.4094 
18878000    204.50045   -4817.0398   -4422.6435   -4817.0398            0   -696.77944     20.08566    20.229384    21.375774    8685.4156   -1212.1231   -209.14023   -669.07495    352.70665   -392.57321   -1012.0652   -4510.9031 
18879000    219.52795   -4805.3817   -4382.0036   -4805.3817            0     -1266.65     20.29208    20.196089    21.202722    8689.3131    248.01049   -2519.6998   -1528.2608   -45.170831    598.87617   -154.87053   -4542.5194 
18880000    195.88838   -4830.9483   -4453.1611   -4830.9483            0    -2586.482    20.307183     20.14462    21.121633    8640.4479   -2388.9269   -2842.8803   -2527.6387    -372.1816   -336.84434   -1341.3456    -4779.089 
18881000    196.68986   -4826.3326   -4446.9996   -4826.3326            0   -1421.6566     20.15647    20.226986    21.410433     8729.133   -249.64328   -1825.2757   -2190.0509   -234.81584    750.25721   -186.49765   -4627.9843 
18882000    211.99728    -4787.743   -4378.8885    -4787.743            0   -1180.0219    20.116189    20.205343    21.420942    8706.6383   -1996.8761    90.917343   -1634.1069   -353.85857     232.8669    1240.7679   -4528.7245 
18883000    214.15716   -4803.8312   -4390.8111   -4803.8312            0    961.91125    20.149929    20.260258    21.058991    8597.1807    1063.8394    556.47191    1265.4224    262.29013    217.83074   -274.02234   -4270.2057 
18884000    205.74893   -4828.3613   -4431.5572   -4828.3613            0   -2133.1752    20.294649    20.378135    21.206735    8770.4079    -2461.952   -2926.5619   -1011.0117    574.84295    805.99858    291.35839   -4704.4061 
18885000    212.39575    -4836.286   -4426.6629    -4836.286            0    -490.7611    20.083849    20.079824    21.294262    8587.5531   -1667.3726     828.5959   -633.50664   -308.80207   -356.00573   -509.87685   -4488.1262 
18886000    209.82543   -4812.3653   -4407.6993   -4812.3653            0    354.83744    20.226548    20.194848    21.263073    8685.3711    1420.4003   -1048.4049    692.51697   -44.800252   -701.29668   -156.08935    -4362.753 
18887000    203.31943   -4821.7865   -4429.6679   -4821.7865            0   -810.60517    20.223531    20.180577    21.096682    8610.0313   -1081.7641   -430.03161   -920.01977    413.88281    287.82896   -192.96557   -4531.4544 
18888000    206.30013   -4828.0355   -4430.1684   -4828.0355            0   -1608.3164    20.047547    20.255668    21.446686    8708.9942   -549.59425   -1988.0312   -2287.3238   -231.54703   -1094.5659    -1443.044   -4634.4435 
18889000    185.43956   -4808.8393   -4451.2035   -4808.8393            0   -1494.2203    20.178402    20.379743    21.196943    8716.8327   -2484.9523   -1262.1908   -735.51792   -377.26262    994.62647    141.76265   -4641.1578 
18890000    219.04507   -4827.4613   -4405.0145   -4827.4613            0   -804.40855    20.186358    20.218999    21.228033    8664.1785    1261.9454   -2590.7636   -1084.4075   -163.40527   -647.96505   -309.38155   -4506.6581 
18891000    207.77148   -4818.0844   -4417.3796   -4818.0844            0   -899.47462    20.447993    20.188231    20.947655    8647.3766   -2508.9534    203.55376   -393.02424    63.483285   -419.73888    783.45251   -4530.8152 
18892000    210.71778   -4821.5398   -4415.1529   -4821.5398            0   -1993.6958    20.155721    20.234385    21.312589     8692.097   -1084.9865   -2556.8815   -2339.2195    18.737141    73.397925    293.08157   -4667.8844 
18893000    205.20615   -4816.0688   -4420.3115   -4816.0688            0   -2173.5862    20.124403    20.262651    21.306687    8688.3078    -3366.857   -2283.1265   -870.77513    86.003644     1302.017   -142.90271   -4695.7267 
18894000    204.66183   -4808.6292   -4413.9217   -4808.6292            0    329.74537    20.319491    20.051844    21.146792    8616.1181    401.87642   -1081.9903    1669.3499   -452.50114    363.65885    180.37542   -4372.4868 
18895000    199.83971   -4807.2179   -4421.8103   -4807.2179            0   -1200.8869    20.235389    20.288865    21.119225    8670.5629   -2260.1017   -927.04521   -415.51379   -323.87335    923.08262   -1460.3312   -4573.6639 
18896000    202.86032   -4824.4955   -4433.2623   -4824.4955            0    8.8155052     20.17266    20.151005    21.224995    8627.9471   -111.66466   -12.507561    150.61874    441.43531   -429.71037   -246.89369    -4432.153 
18897000    197.63087   -4820.4129   -4439.2652   -4820.4129            0   -1271.8338    20.235888    20.370918    21.108922    8701.5964   -150.32445   -2845.5014   -819.67539   -80.335828   -601.96518    -726.2488   -4600.6658 
18898000    209.80335   -4843.0874    -4438.464   -4843.0874            0   -75.730935    20.204949    20.043109    21.328406    8637.3642    834.90332   -1435.2667     373.1706    113.50362   -494.50966   -546.67146   -4448.0036 
18899000    212.08238   -4802.6646   -4393.6459   -4802.6646            0   -232.15386    20.127347     20.05338    21.332933    8610.4271   -930.89397     1462.207   -1227.7746   -687.02297    809.09227   -373.97848   -4422.7984 
18900000    201.45489   -4814.3382   -4425.8155   -4814.3382            0    974.37538    20.243827    20.219164    20.988395    8590.8282   -736.30858    1915.5169    1743.9178    -369.4894    495.43375   -58.850855   -4303.7375 
18901000    217.97474   -4805.0468   -4384.6642   -4805.0468            0   -1171.2696    20.153767    20.102246    21.369266    8657.4582   -1721.7057   -1504.5197   -287.58332    20.647907   -257.48048    1070.8782   -4532.5488 
18902000    208.13951    -4793.929   -4392.5145    -4793.929            0   -1938.2325    20.265626    20.126768    21.393666    8726.0818   -2589.1389    -1430.136   -1795.4226   -43.438551    606.47382   -283.10862   -4639.1758 
18903000    201.88249    -4804.771   -4415.4237    -4804.771            0   -667.55908    20.283868    20.203117    21.219761    8695.8016   -1913.9859    115.01219   -203.70356    943.99975    299.65735   -784.14494   -4500.0831 
18904000    213.16542   -4827.1421   -4416.0347   -4827.1421            0     174.8573    20.249323    20.126691    20.974708    8548.2815   -686.44012   -360.83924    1571.8512    -178.5756   -136.69697     38.71702   -4394.2356 
18905000    210.20176   -4826.6092   -4421.2175   -4826.6092            0    753.08453    20.197292    20.165601    21.330058    8687.5304    859.47034    1261.5389    138.24431    364.72956   -341.52626   -854.86715   -4325.8026 
18906000    207.34826   -4826.9145    -4427.026   -4826.9145            0   -858.05022    20.145802    20.279744     21.25834     8685.131   -1843.3043   -671.95735   -58.889037   -795.25799    1178.7233    750.50371   -4535.7098 
18907000    215.53763   -4826.1303   -4410.4479   -4826.1303            0    107.01383    20.274079    20.120104    21.118658    8614.6508    582.51693   -1375.6142    1114.1388   -48.973341   -303.17179    969.63125   -4397.0031 
18908000    198.27544   -4822.2868   -4439.8959   -4822.2868            0   -1189.2064    20.335881    20.170807    21.190942    8692.3364   -744.51036   -1864.7399   -958.36902    114.07234   -536.73124    1162.9323   -4590.6502 
18909000    198.68828   -4815.4682   -4432.2811   -4815.4682            0    906.87816    20.264138    19.971947    21.362235     8645.602    767.79939    1120.2903    832.54483   -581.66924   -1541.0632   -799.79794   -4317.9354 
18910000    212.28207   -4830.2427   -4420.8389   -4830.2427            0    548.99737    20.126058    20.148839    21.187167    8591.7497    1570.0712   -435.42371    512.34466    89.581985    120.06068     1181.313   -4352.0485 
18911000    206.51683    -4829.516   -4431.2309    -4829.516            0   -1378.1143    20.292554    20.210638    21.217278    8701.7462   -2030.1111   -489.61201   -1614.6197      29.7678   -614.08376    455.81538   -4606.1219 
18912000    206.93868   -4811.5449   -4412.4463   -4811.5449            0    141.89023    20.268767    20.002972     21.45487    8698.5678    167.29777    887.29585   -628.92292    -290.4121    1053.5362    1140.9652   -4394.4461 
18913000    209.85111   -4811.5837   -4406.8681   -4811.5837            0   -140.60525    20.303313    20.214985    21.055215    8641.7165     763.9048    -607.5203   -578.20025   -775.96134   -1221.4425   -447.22529   -4424.5887 
18914000    192.83271   -4801.8904   -4429.9963   -4801.8904            0   -313.32021    20.187972    20.314279    21.187861    8689.2288   -239.41584   -582.79688    -117.7479    159.06168   -190.26674   -825.08226   -4469.7013 
18915000     206.9484   -4813.7816   -4414.6642   -4813.7816            0   -1184.1903    20.144712    20.157465    21.495189    8728.4725    387.01986   -1610.4343   -2329.1565   -715.53281   -1074.8999    1067.2364   -4565.4067 
18916000     209.6038   -4804.4021   -4400.1636   -4804.4021            0    -336.6228    20.271794    20.235627    20.998537    8613.8618    652.55546    -2181.026     518.6021    430.74954   -1454.8807   -227.17757   -4442.4516 
18917000    209.81694   -4819.6063   -4414.9567   -4819.6063            0   -657.82599    20.082075    20.361557    21.141267    8644.7132   -725.32832   -1850.5526    602.40292   -351.60467    253.65205   -106.91128   -4497.8917 
18918000    210.99522    -4794.113    -4387.191    -4794.113            0   -399.10129    20.272765    20.081541    21.284934     8665.275   -185.86459   -1071.9987    60.559423    22.672052    895.26226    1037.2723   -4437.6271 
18919000    212.63196   -4795.5429   -4385.4643   -4795.5429            0   -1161.9752    20.164947    20.315457    21.096384    8642.3471   -1342.0978   -1808.1974   -335.63031   -553.07012   -440.20585   -1131.4773   -4531.9194 
18920000    205.75843    -4805.139   -4408.3166    -4805.139            0     437.7273    20.064735    20.223146    21.332064    8655.9558    1724.4576    617.11954   -1028.3953    6.2916438    -479.6967   -130.00737   -4353.0586 
18921000    213.50188   -4811.7523    -4399.996   -4811.7523            0   -2386.1634    20.398951     20.22696    20.981493    8657.1485   -3136.1921   -2183.1848   -1839.1132    239.58771    71.467023    283.13288   -4701.2626 
18922000    206.75951   -4824.6169   -4425.8638   -4824.6169            0   -887.80172    20.129685    20.240687    21.180283    8629.6661    -1690.323   -324.18702   -648.89514   -274.77363   -596.30919   -594.17658    -4537.598 
18923000    191.16102   -4803.1864   -4434.5163   -4803.1864            0   -1127.0751    20.314915     20.08726    21.266982    8678.4379    -2327.955   -587.17961   -466.09069   -559.23639    176.29182   -29.879864   -4577.1659 
18924000     214.2675   -4827.2786   -4414.0457   -4827.2786            0      576.485    20.182487    19.964606    21.289054    8578.1132    1594.8093    68.948459     65.69718   -401.81209    61.539469   -879.95372   -4341.9257 
18925000    207.24337   -4825.2748   -4425.5885   -4825.2748            0    492.27307    20.285405    20.155436    21.043382    8603.8221   -197.28076    449.60999      1224.49   -117.99696   -668.56311   -268.72302   -4363.8191 
18926000    208.35284   -4842.8846   -4441.0586   -4842.8846            0    372.79713    19.984435    20.230375    21.163722    8556.3366    2105.4023   -584.05493   -402.95601   -129.75369    755.41047    405.86243    -4394.539 
18927000    202.75269   -4804.3566    -4413.331   -4804.3566            0   -1105.7621     20.10914    20.186222    21.332816    8659.5777    387.21976   -1752.5115   -1951.9944    156.09514    930.87588   -89.670455   -4552.9789 
18928000    195.52823   -4790.4905   -4413.3978   -4790.4905            0   -493.00324    20.284714    20.173405    21.231145    8688.0339   -1397.3629   -205.36759    123.72077   -668.63234    79.055402    122.50702   -4475.8643 
18929000    208.44309    -4795.783    -4393.783    -4795.783            0   -452.12433    20.282692    20.255659    20.967514    8614.2787    114.46817   -911.22523   -559.61593    763.65259    -78.71127   -652.40041   -4450.5836 
18930000    205.78347   -4798.0687    -4401.198   -4798.0687            0   -2037.3555    20.121208    20.243755    21.402185    8717.7262   -1510.8622   -1976.8916   -2624.3126   -347.95972    187.18263   -273.99686   -4660.2255 
18931000    212.91668   -4837.2743   -4426.6466   -4837.2743            0    489.79124    20.097318    20.284803    21.099799    8601.7581    3055.8251   -1421.9885   -164.46297    155.41015    137.56022   -190.28158   -4365.2034 
18932000    201.98763   -4808.6155   -4419.0654   -4808.6155            0   -673.70609    20.413725    20.107143    21.135973    8675.5071   -2175.5419    1158.8457   -1004.4221   -582.12921    486.95749   -738.80506   -4504.3049 
18933000    199.26539   -4818.0521    -4433.752   -4818.0521            0    1209.4247    20.263883    20.081351     21.12798    8597.5275     1323.855    1703.4675    600.95166   -413.56967   -449.21029   -643.81813   -4282.1069 
18934000    201.16519   -4820.4265   -4432.4625   -4820.4265            0   -575.26987    20.084704    20.197394    21.255877    8622.6312   -57.097294    -952.0652    -716.6471   -370.54291    1017.0066   -1015.3757    -4504.804 
18935000    213.14063   -4801.0007    -4389.941   -4801.0007            0   -1633.6348    20.128616     20.31353    21.376088    8740.3246   -384.68169   -3197.5162   -1318.7066   -39.790599    231.71852   -153.97963   -4598.1783 
18936000    213.18693   -4805.4032   -4394.2543   -4805.4032            0    108.97598    20.323454    20.200246    20.909003    8583.9564    428.57253    -1417.444    1315.7994   -17.309056   -796.60198    830.68857   -4380.6118 
18937000    200.08566   -4812.2113   -4426.3292   -4812.2113            0   -709.96485    20.172293    20.305542    21.003569    8603.2577    123.64938   -1806.4979   -447.04603   -478.67421   -25.524206    133.37963   -4515.4083 
18938000    204.70449   -4797.1562   -4402.3664   -4797.1562            0   -1667.7494    20.086684    20.241223    21.518411    8748.9352   -1739.5899   -462.37967   -2801.2786   -8.5971888    -876.9987   -606.03445   -4615.1616 
18939000    207.49177   -4842.0657   -4441.9004   -4842.0657            0   -968.68629    20.078279    20.232085    21.286511    8647.1226    317.32549   -817.15594   -2406.2284    599.56496       542.05   -164.26483   -4564.0608 
18940000    219.15439   -4806.8202   -4384.1625   -4806.8202            0    54.502571    20.348565    20.158149    20.973086    8602.9376   -171.05788     393.0403   -58.474702   -65.105714     959.6665   -385.41987   -4377.3244 
18941000     212.8265   -4820.3695   -4409.9157   -4820.3695            0   -631.74683    20.210973    20.150145     21.19544    8631.9287    35.187817   -949.48644   -980.94186   -389.04248    248.44856   -269.63493   -4489.4449 
18942000    204.51346   -4803.8199   -4409.3984   -4803.8199            0   -1360.7402     20.24842    20.169881    21.297004    8697.8715   -389.04349   -2748.0613   -945.11589   -479.92347   -450.00303    846.38619   -4582.0077 
18943000    202.45472   -4794.0028   -4403.5519   -4794.0028            0   -1880.7973    20.462263    20.134205    21.058979    8676.1184   -1738.1124   -1694.0916   -2210.1879   -103.38723    426.15377   -339.94827   -4641.5335 
18944000    215.41516   -4811.5126   -4396.0664   -4811.5126            0   -177.73977    20.189973    20.051435    21.254241    8604.5233   -1457.6851    1312.8709    -388.4051    187.98694    1549.1521    727.24394   -4418.3706 
18945000    202.94225   -4801.9341   -4410.5429   -4801.9341            0   -523.71705    20.139702    20.223034    21.255708    8657.1498    162.55335    -736.1815   -997.52301   -609.80708    -583.0084   -778.87758   -4476.6652 
18946000    209.51697   -4822.9831    -4418.912   -4822.9831            0    -781.5663     20.11902    20.305102    20.873723    8527.3073    -382.9119   -1396.5557   -565.23129   -5.1614807   -10.741381    96.262101   -4516.1091 
18947000    215.13722   -4831.4598   -4416.5496   -4831.4598            0   -1213.4483    20.342283    20.181798    21.144135    8680.5946   -714.40812   -1802.6788   -1123.2579   -396.16783    50.361226    219.39346   -4570.1692 
18948000    212.59562   -4818.5773   -4408.5687   -4818.5773            0   -1184.5842    20.175629    20.238639    21.356753    8720.5445   -2308.9301    331.26009   -1576.0828    99.463076   -409.57428   -1127.1693   -4559.2244 
18949000    210.62052   -4794.7776   -4388.5782   -4794.7776            0   -863.62898    20.186443    20.215578    21.128406    8622.0928     23.49154     -1076.41   -1537.9685   -572.88806   -457.72457    -1357.345   -4497.1747 
18950000    193.12206   -4795.2294   -4422.7772   -4795.2294            0   -2212.8035      20.3558    20.325429    21.114297     8735.837   -3381.4223   -2028.3357   -1228.6524   -800.14091   -835.62241    1052.6636   -4704.6955 
18951000    204.06919   -4807.9059   -4414.3413   -4807.9059            0   -848.52585    19.992936    20.191474    21.513561    8684.7419   -335.16165   -713.55197   -1496.8639   -161.81992    119.68734   -612.00963    -4521.814 
18952000    206.66446   -4811.3524   -4412.7826   -4811.3524            0   -1216.1727    20.274676    20.191237    21.242941     8696.239   -1453.2669   -650.52421    -1544.727   -340.87399    945.42048   -36.754557   -4567.0246 
18953000    209.96443   -4843.4869   -4438.5529   -4843.4869            0    257.24879    20.116496    20.300194    20.938624    8550.6802    2027.0078   -831.06136   -424.20004   -342.26799    1337.0847   -1135.0062   -4406.4732 
18954000    198.47035   -4818.8833   -4436.1165   -4818.8833            0   -895.11609    20.249545    20.265273    21.326353    8751.5367    91.387248   -1982.2081   -794.52742    7.8732932    565.06746   -634.76913   -4550.3621 
18955000     199.1797   -4829.2193   -4445.0845   -4829.2193            0    158.79171    20.247376    19.980043    21.222787    8585.5395    14.911563    1072.7227   -611.25914    -37.97939   -430.78303    563.33752    -4425.202 
18956000    206.17153   -4834.6885   -4437.0694   -4834.6885            0   -851.68579    20.242668    20.123172    21.362652    8702.0054   -1755.9686    2.4115956   -801.50035    74.212089   -264.33167   -314.65924   -4545.1567 
18957000    203.20886   -4811.8372   -4419.9318   -4811.8372            0   -319.53022    20.120547      20.3242    21.030237    8599.9793   -310.58208   -895.10702    247.09844    206.38278    962.17465   -18.485132   -4460.0079 
18958000    207.02885   -4806.3789   -4407.1063   -4806.3789            0   -159.09399    20.179506    20.098129     21.29096    8634.9809   -1393.6106    775.52574    140.80285   -156.54286   -199.21274   -150.87792   -4427.1414 
18959000    203.40118   -4809.8153    -4417.539   -4809.8153            0   -1161.6391    20.232139    20.068799    21.422974    8698.4714   -283.76021   -1712.1794   -1488.9776   -127.15493   -950.46436    653.28393   -4564.9026 
18960000    207.57641   -4790.3329   -4390.0043   -4790.3329            0     -469.113    20.171592    20.389956    21.044096    8655.3922   -129.45876   -683.14345    -594.7368   -256.56613    2230.7845     -35.2096   -4449.2205 
18961000    204.87067   -4808.6912   -4413.5808   -4808.6912            0    158.52094    20.259755    20.097855    21.180645    8624.2846   -113.47946    1175.8997   -586.85746   -331.99936    622.00221   -633.50697   -4393.6427 
18962000    197.08378   -4788.9557    -4408.863   -4788.9557            0   -615.79175    20.150168    20.156472    21.670707    8801.6939   -41.217737   -192.03226   -1614.1253    148.97017   -236.65087   -1093.7371   -4487.9083 
18963000    214.27713   -4806.1599   -4392.9084   -4806.1599            0    432.15505    20.231385    20.073045    21.130226    8581.1014    663.50855    417.39363    215.56298    245.08516   -942.38185    275.08347   -4338.8257 
18964000    213.71556   -4819.5866   -4407.4182   -4819.5866            0   -1507.9627    20.243809    20.294988    21.185434    8703.9905   -1693.6425   -1945.7997    -884.4458    -79.38834    -143.0388    1558.4549   -4598.8371 
18965000    204.45123   -4851.8027   -4457.5013   -4851.8027            0   -205.10823    20.099059    20.164271    21.198157    8591.2501     127.4239    -392.9076     -349.841   -540.18686    907.08998    541.03151   -4483.2002 
18966000    196.35046   -4806.9756   -4428.2972   -4806.9756            0   -2095.6875    20.316026     20.23867    21.149935    8696.2046   -2479.1529   -2459.3125    -1348.597     86.92818    78.612737   -200.60622   -4694.0832 
18967000    199.66671   -4829.9672   -4444.8931   -4829.9672            0   -1344.1504    20.043553    20.213193     21.43431    8683.9862    1615.0868   -3543.0477   -2104.4903   -320.19135   -31.198278    86.487626   -4615.1258 
18968000    216.74778   -4815.5609   -4397.5446   -4815.5609            0    903.29979    20.175649    20.187911    21.206463    8637.4812     1155.582    24.192748    1530.1246   -2.8591709   -993.22598   -176.50161    -4283.757 
18969000    219.48863   -4823.7298   -4400.4275   -4823.7298            0   -1013.1136    20.354053    20.106709    21.216371    8682.8637   -1519.2239   -784.87121   -735.24586   -152.76813    1173.4718     217.5337   -4528.7187 
18970000    196.34601   -4821.7878    -4443.118   -4821.7878            0    323.27392    20.237589     20.21617    20.955285    8573.3634   -173.40185    45.937578     1097.286   -394.69313    -808.0395    769.82057   -4402.6979 
18971000    204.23574   -4820.0846   -4426.1988   -4820.0846            0   -969.16812    20.227373    20.200707     21.00989    8584.7931   -2398.1675    59.663213   -569.00003   -354.77408    783.35168    440.43459    -4547.539 
18972000    197.20253   -4807.4643   -4427.1426   -4807.4643            0   -921.25964    20.297619    20.069439    21.543699    8776.0805   -2129.0676    605.25156   -1239.9629   -167.75519    927.60115    168.25291   -4545.0548 
18973000    199.30364   -4813.5873   -4429.2135   -4813.5873            0   -319.96876    20.284628    20.058652    21.218437    8633.4062    669.00843   -1090.7635   -538.15122    33.386005    -492.1553    761.65475   -4469.5005 
18974000    206.56514   -4813.3294   -4414.9512   -4813.3294            0      -937.12    20.141512    20.268544    21.295834    8693.7923    240.20923   -804.33614   -2247.2331   -203.00341    176.30502    -1169.623   -4533.7687 
18975000    198.06677   -4814.9349   -4432.9465   -4814.9349            0   -265.74954    20.314195    20.206417     20.98903    8615.5161   -857.67595    494.77915   -434.35182    -433.9028   -715.70953   -105.32488   -4466.3375 
18976000    205.60211     -4814.51    -4417.989     -4814.51            0   -1595.1939    20.303657    20.169999     21.35816    8746.6947   -1813.8436    -834.4655   -2137.2724   -464.30735    439.39797    -670.8421   -4621.4745 
18977000     218.6058   -4787.3578   -4365.7581   -4787.3578            0   -751.85435    20.258848    20.250579    21.280099    8730.2331   -926.72306   -925.93138    -402.9086    -134.5475   -197.65459   -671.91929   -4461.4853 
18978000    222.03721   -4820.2068   -4391.9894   -4820.2068            0   -750.33268    20.177833    20.295918    21.061561    8625.2911   -979.34223   -707.44936   -564.20643    243.14847    428.20326    -622.1478   -4486.3745 
18979000    216.18589    -4821.652   -4404.7193    -4821.652            0   -616.47101    20.198367    20.287365    21.236447    8702.0938   -702.35962   -1593.7828    446.72936     329.2866    1145.0123   -208.89231   -4482.9563 
18980000    212.20573    -4797.876   -4388.6194    -4797.876            0   -677.09429     20.08998    20.176059    21.424289    8684.0492   -29.174959   -565.12512   -1436.9828    338.61172   -351.92331   -617.78914    -4474.372 
18981000    211.18675   -4805.4428   -4398.1513   -4805.4428            0   -1201.3664    20.236777    20.326683    21.134769    8693.7142   -938.56374   -2880.8824    215.34691   -80.165787    610.60334   -600.58016   -4550.4713 
18982000    199.33591   -4796.0406   -4411.6045   -4796.0406            0   -1508.4413    20.355952    20.194846    21.113628    8679.5025   -1180.6535    -2346.586   -998.08442   -698.03604      397.705    167.98672   -4602.5455 
18983000    208.84166   -4828.7086   -4425.9399   -4828.7086            0   -1241.7727    20.217292    20.223777     21.39109     8746.175   -2020.5525   -46.210268   -1658.5555    -795.0311   -3.6378269   -366.56426   -4584.3329 
18984000    212.71872   -4808.3643   -4398.1183   -4808.3643            0    114.72469    20.260599    20.048466    21.247309    8630.5278   -66.064607   -552.58813    962.82679   -1247.0153    688.41809    1655.0468   -4383.6783 
18985000    193.33442   -4815.4444   -4442.5827   -4815.4444            0   -724.27725    20.139138    20.374151    20.951893    8596.9351   -798.89813    -526.2999   -847.63373   -18.241718   -100.18828   -60.027055   -4533.3908 
18986000     196.4134   -4813.5516   -4434.7518   -4813.5516            0   -640.66727    20.135341    20.130095    21.367965    8660.9983    1691.4287   -1399.2213   -2214.2092    393.10813   -11.522302     639.6577   -4515.6756 
18987000    210.90349   -4820.6171   -4413.8719   -4820.6171            0   -1227.5334    20.128609    20.090406    21.409345    8657.7662    299.38548   -1201.1015   -2780.8843   -245.50872    800.03759    1263.1881    -4568.866 
18988000    205.90556   -4800.6128   -4403.5066   -4800.6128            0   -1191.1217    20.286828    20.237303    21.108798    8666.2312   -1987.1044   -1343.8237   -242.43715   -165.50402     355.8162    21.350126   -4554.0502 
18989000    206.29973   -4823.6265   -4425.7601   -4823.6265            0    21.212763    20.107492    20.282585    21.034858    8578.6863      155.878   -1537.2248     1444.985   -1069.6405   -623.35606    39.970273   -4423.1061 
18990000    209.30954   -4802.5251   -4398.8541   -4802.5251            0    191.14589    20.149876    20.109023    21.322563    8639.7817    567.07416    4.7028202     1.660688    491.47935   -422.83234    972.27473   -4374.7692 
18991000    206.49951   -4833.8328   -4435.5812   -4833.8328            0    338.23096    20.241519    20.176775    21.082991     8610.474    1038.5966   -64.790196    40.886497    259.87182    978.34899   -1245.3609   -4393.1078 
18992000    208.81123   -4811.4612   -4408.7512   -4811.4612            0   -1214.0939    20.374001    20.301881    21.012276    8691.3189   -1854.5224   -720.56914   -1067.1902    -414.9842    601.37477    79.740845   -4562.6424 
18993000    207.56678   -4793.4916   -4393.1816   -4793.4916            0   -1316.0467    20.193354    20.109268    21.646255    8789.9721   -1972.6355    590.17286   -2565.6776   -456.64468    385.39285    249.22159   -4561.8892 
18994000    204.17763   -4795.7783   -4402.0046   -4795.7783            0   -432.30917    20.136968    20.256315    21.210108    8651.6196     1182.743   -2047.6813   -431.98921   -126.98288     290.2406   -431.74583   -4456.5512 
18995000    208.89914   -4779.5541   -4376.6745   -4779.5541            0    51.200394    20.534273    20.004765    21.146806    8686.7549   -1958.2194    1670.8769    440.94365   -537.22909   -240.12687    165.09986   -4370.1881 
18996000    214.22954   -4812.6677    -4399.508   -4812.6677            0   -2241.5646     20.29348    20.099719    21.376118    8719.1743   -1555.5151   -3723.3666   -1445.8121   -208.30523    404.02466    238.57957   -4684.5458 
18997000    201.81816   -4807.2362   -4418.0129   -4807.2362            0   -1439.6054    20.199744    20.173672    21.294884    8677.7293   -724.56939    -2455.921   -1138.3258   -697.40321    55.531262   -139.88877   -4600.2033 
18998000    213.16938   -4811.0991    -4399.984   -4811.0991            0   -1218.6083    20.254401    20.326916     20.87162    8593.0447   -1314.7665   -1628.6535   -712.40487   -11.265205    446.57134    391.35231   -4552.7009 
18999000    198.52286     -4811.09   -4428.2219     -4811.09            0   -1168.7531    20.231725    20.101587     21.40444    8704.9668   -1491.6876   -490.16701   -1524.4047    443.85309    399.90575   -649.55119   -4576.5987 
19000000    212.34573   -4786.8751   -4377.3485   -4786.8751            0   -940.47776    20.299016     20.30527    21.181951    8730.7132    -1279.303   -900.42719   -641.70311    303.00939   -343.41234    711.61841   -4497.0982 
Loop time of 476.138 on 64 procs for 250000 steps with 972 atoms

Performance: 90.730 ns/day, 0.265 hours/ns, 525.057 timesteps/s
99.1% CPU use with 64 MPI tasks x 1 OpenMP threads

MPI task timing breakdown:
Section |  min time  |  avg time  |  max time  |%varavg| %total
---------------------------------------------------------------
Pair    | 18.421     | 26.543     | 33.723     |  75.5 |  5.57
Bond    | 0.25506    | 0.27437    | 0.2908     |   1.0 |  0.06
Kspace  | 192.88     | 206.04     | 223.67     |  44.7 | 43.27
Neigh   | 1.9478     | 2.3099     | 2.9186     |  15.7 |  0.49
Comm    | 93.071     | 107.53     | 116.51     |  53.5 | 22.58
Output  | 1.3315     | 1.3349     | 1.3589     |   0.5 |  0.28
Modify  | 121.79     | 124.16     | 128.74     |  13.8 | 26.08
Other   |            | 7.94       |            |       |  1.67

Nlocal:        15.1875 ave          20 max          11 min
Histogram: 4 4 9 8 9 10 11 4 3 2
Nghost:        2098.55 ave        2136 max        2055 min
Histogram: 2 2 7 9 4 12 16 6 3 3
Neighs:        4521.77 ave        6389 max        3047 min
Histogram: 2 10 5 14 11 5 8 4 3 2

Total # of neighbors = 289393
Ave neighs/atom = 297.72942
Ave special neighs/atom = 2.0000000
Neighbor list builds = 5394
Dangerous builds = 0

unfix		3
unfix		2
unfix		1

write_data	data.final.${pid}
write_data	data.final.0
System init for write_data ...
PPPM initialization ...
  extracting TIP4P info from pair style
  using 12-bit tables for long-range coulomb (../kspace.cpp:340)
  G vector (1/distance) = 0.37106588
  grid = 24 24 25
  stencil order = 5
  estimated absolute RMS force accuracy = 0.0035746713
  estimated relative force accuracy = 1.0765017e-05
  using double precision FFTW3
  3d grid and FFT values/proc = 2366 288
Last active /omp style is kspace_style pppm/tip4p/omp
WARNING: Not all mixed pair coeffs generated from mixing. Use write_data with 'pair ij' option to store all pair coeffs. (../write_data.cpp:312)

write_restart   restart.lmp.${pid}
write_restart   restart.lmp.0
System init for write_restart ...
PPPM initialization ...
  extracting TIP4P info from pair style
  using 12-bit tables for long-range coulomb (../kspace.cpp:340)
  G vector (1/distance) = 0.37106588
  grid = 24 24 25
  stencil order = 5
  estimated absolute RMS force accuracy = 0.0035746713
  estimated relative force accuracy = 1.0765017e-05
  using double precision FFTW3
  3d grid and FFT values/proc = 2366 288
Last active /omp style is kspace_style pppm/tip4p/omp
Total wall time: 0:08:00
