LAMMPS data file via write_data, version 30 Jul 2021, timestep = 28750000

972 atoms
2 atom types
648 bonds
1 bond types
324 angles
1 angle types

0.15661864533613112 19.84338235466997 xlo xhi
0.02753631852912619 19.972464681481775 ylo yhi
0.030948753736439016 20.669049246261636 zlo zhi

Masses

1 1.008
2 15.999

Pair Coeffs # lj/cut/tip4p/long/omp

1 0 0
2 0.21084 3.1668

Bond Coeffs # harmonic/omp

1 450 0.9572

Angle Coeffs # harmonic/omp

1 55 104.52

Atoms # full

33 11 1 0.5897 1.6497736564612135 2.67539154179084 1.226004076906744 0 0 0
11 4 1 0.5897 1.1954632273639303 3.6637756447428065 3.7270429238841674 0 0 0
1 1 2 -1.1794 3.1101815362683314 2.73709961288508 0.04909580532529551 0 0 0
4 2 2 -1.1794 4.0801090617432605 1.6605063583828417 2.9013067903224945 0 0 0
5 2 1 0.5897 4.153453861041374 1.003864592693629 2.2087254317560787 0 0 0
31 11 2 -1.1794 0.986573148430099 2.672585738072708 1.9162900742161495 0 0 0
18 6 1 0.5897 4.484058583724497 3.468946682630925 2.965221668034731 0 0 0
12 4 1 0.5897 2.6076895921014995 4.172478313131912 3.9241124388700626 0 0 0
15 5 1 0.5897 4.422107220197937 6.85392876493984 1.8098850406504445 0 0 0
22 8 2 -1.1794 2.270205601067511 0.7871186725747765 4.778854372755022 0 0 0
10 4 2 -1.1794 1.6968426459024346 4.360659180851156 4.150439131407781 0 0 0
110 37 1 0.5897 3.860224041666718 9.485827222249506 0.1372137537701542 0 0 0
111 37 1 0.5897 2.4908137008366187 9.68907286070949 0.7499925983074613 0 0 0
3 1 1 0.5897 4.007919300383915 2.7798204146640844 0.37853352645936744 0 0 0
140 47 1 0.5897 0.8809556192677924 9.789381365347957 2.580462978366111 0 0 0
20 7 1 0.5897 1.1607307528460036 5.82357856611339 3.0007837014098415 0 0 0
16 6 2 -1.1794 4.463104081779622 4.362702053323706 3.3073230266287426 0 0 0
19 7 2 -1.1794 0.9563507744957171 6.402082874325964 2.2659944243876797 0 0 0
6 2 1 0.5897 4.702783154250979 1.374855601587216 3.5698299208707387 0 0 0
102 34 1 0.5897 0.54378802952771 0.7111218238833902 4.991132772273331 1 0 0
674 225 1 0.5897 1.809681158547502 5.658969615129341 0.7969080624927558 0 0 1
113 38 1 0.5897 3.6162013926119587 8.119644488534119 3.6520104663593016 0 0 0
17 6 1 0.5897 4.61995261769322 4.91620968928344 2.542225243655158 0 0 0
141 47 1 0.5897 0.9805914225595492 8.290990475236455 2.3884774927064267 0 0 0
112 38 2 -1.1794 4.282334166593005 8.30092229881469 2.9889196790060026 0 0 0
139 47 2 -1.1794 1.073167003392092 9.121714352774426 1.921975301638751 0 0 0
236 79 1 0.5897 1.0232266546880662 0.7816876328256451 1.9751012062080455 0 1 0
14 5 1 0.5897 4.094941533526033 5.786704507046802 0.7871232833459334 0 0 0
24 8 1 0.5897 2.7521850879260223 0.9214472323007262 3.962744870413187 0 0 0
130 44 2 -1.1794 2.27688239066778 7.740802587469669 5.003040075036258 0 0 0
132 44 1 0.5897 1.3312111878392805 7.639103728886702 4.895124545639624 0 0 0
13 5 2 -1.1794 4.8297206620125435 6.206828782110902 1.2342199698047103 0 0 0
673 225 2 -1.1794 2.3405279461286934 5.403288792376721 0.04246169117476106 0 0 1
32 11 1 0.5897 0.15750391255372165 2.7919689859439702 1.4529632411439635 0 0 0
325 109 2 -1.1794 2.336152342704516 2.8890077517778003 6.699258951929726 0 0 0
326 109 1 0.5897 2.1960486104407586 2.2002126626554843 6.049517651894886 0 0 0
327 109 1 0.5897 3.2588537303521767 2.807305350095035 6.940534010572562 0 0 0
356 119 1 0.5897 1.4404251972326818 2.543257130111073 8.213019509804232 0 0 0
343 115 2 -1.1794 0.9409918435641638 6.143786745856723 8.666833772169989 0 0 0
328 110 2 -1.1794 4.677267800391584 1.5328577636961278 10.059346977371762 0 0 0
27 9 1 0.5897 2.595323821240924 4.855230196968988 6.299930343084582 0 0 0
345 115 1 0.5897 1.0215933055557467 7.056127506193191 8.945038798930543 0 0 0
25 9 2 -1.1794 2.937521805191742 5.650042304682839 6.709156339742519 0 0 0
339 113 1 0.5897 4.438782872509342 5.947116390005571 7.65083256724772 0 0 0
344 115 1 0.5897 0.9831655280256318 5.640357835320176 9.47992116196137 0 0 0
468 156 1 0.5897 4.651907168341898 9.250421863818605 7.572724387060256 0 0 0
438 146 1 0.5897 4.30384021647688 8.777961781018417 10.115348334966356 0 0 0
560 187 1 0.5897 0.8620918556830206 0.2214161814481196 8.859213294179543 0 1 0
463 155 2 -1.1794 0.9452613583125835 8.904048461662544 9.11801500465735 0 0 0
342 114 1 0.5897 3.970905487821265 4.710429254052338 9.910194151115922 0 0 0
26 9 1 0.5897 2.267516145567501 5.899920073408155 7.345549043430499 0 0 0
433 145 2 -1.1794 2.79122076587779 9.310839629973403 7.191951860704495 0 0 0
464 155 1 0.5897 1.611709339353888 8.960125718898771 8.433143907693495 0 0 0
435 145 1 0.5897 2.563602437574131 8.892267049485522 6.361672775165031 0 0 0
355 119 2 -1.1794 0.900752027592408 2.0963548930956777 8.865193173587265 0 0 0
437 146 1 0.5897 4.472090977164754 7.4073363085817645 9.494823562387834 0 0 0
23 8 1 0.5897 2.739197312237562 0.07935594241324703 5.220891836235044 0 0 0
81 27 1 0.5897 0.18966874796964733 4.365401992250007 5.284356729788333 1 0 0
554 185 1 0.5897 4.803265813448324 0.12203217152262931 9.085106195404707 0 1 0
337 113 2 -1.1794 5.04298575151761 5.926070411295659 8.393004866146187 0 0 0
335 112 1 0.5897 0.8600089902409356 3.2908891021408238 10.14141549220965 0 0 0
131 44 1 0.5897 2.5293092009883824 7.028808517114109 5.590967839538589 0 0 0
436 146 2 -1.1794 4.228331057775188 7.844020020868315 10.31106427129024 0 0 0
649 217 2 -1.1794 2.781978088094277 2.468939693412288 13.630700290356252 0 0 0
650 217 1 0.5897 2.4866988460166386 1.9074767467571658 12.913835771469309 0 0 0
334 112 2 -1.1794 1.0336853939799866 4.022997426518648 10.733163119501231 0 0 0
789 263 1 0.5897 1.4732916091014436 8.528491450722646 15.176369269601077 0 0 0
347 116 1 0.5897 1.5098832431415872 0.8275562285194271 11.432733688719512 0 0 0
683 228 1 0.5897 4.640130227604122 2.810593859519113 14.332683157816335 0 0 0
346 116 2 -1.1794 2.4490694564249917 0.6449781145144692 11.403213014336396 0 0 0
651 217 1 0.5897 2.156275819708526 2.306021965741605 14.336536537755036 0 0 0
351 117 1 0.5897 3.0098607377668825 4.419813645634486 13.461598068967946 0 0 0
758 253 1 0.5897 2.468943012513948 8.292985337418827 13.104951840015966 0 0 0
350 117 1 0.5897 3.5708885017754164 5.727912721680334 13.977470060015875 0 0 0
792 264 1 0.5897 4.611139184360208 8.944144426753416 14.983930887180454 0 0 0
757 253 2 -1.1794 2.535641747573067 8.754476062069543 13.940971859737521 0 0 0
336 112 1 0.5897 1.9715718692232413 3.9664820449960145 10.916083889290533 0 0 0
349 117 2 -1.1794 2.856376103850541 5.364606042339922 13.4542151341751 0 0 0
455 152 1 0.5897 2.581386606676463 7.510136537774032 11.017804226939209 0 0 0
456 152 1 0.5897 2.2489444823808133 6.531260383199642 12.123871855719567 0 0 0
454 152 2 -1.1794 1.9055871457220646 7.295473523401693 11.660877005995584 0 0 0
340 114 2 -1.1794 3.771892518636171 4.203438036712262 10.697411308024165 0 0 0
668 223 1 0.5897 1.5442999548673242 5.477144247401233 14.60229565623913 0 0 0
332 111 1 0.5897 4.997683135548655 4.663832423871972 12.08802198736498 0 0 0
759 253 1 0.5897 2.5894395975009936 9.679493170986857 13.700796484729569 0 0 0
533 178 1 0.5897 0.2810655433193785 7.557483015044038 11.939224921135702 1 0 0
329 110 1 0.5897 3.8457882547383613 1.2564081576854813 10.444723897766133 0 0 0
661 221 2 -1.1794 4.819425244001691 5.896997012186431 15.318237632085694 0 0 0
667 223 2 -1.1794 0.9686213512880288 5.61345470289275 15.3547960822669 0 0 0
341 114 1 0.5897 4.062659437273615 3.3152179817844196 10.490633164965892 0 0 0
885 295 1 0.5897 0.877281683616891 0.2800523193922448 15.479721142335288 0 1 0
671 224 1 0.5897 2.619742743671415 1.9520065943399916 19.132386173213725 0 0 0
653 218 1 0.5897 3.7417951648280425 1.151894877321318 17.24950137718012 0 0 0
652 218 2 -1.1794 4.593607850899731 1.1092501278130575 16.81487737585364 0 0 0
664 222 2 -1.1794 4.589227182169522 3.772602498899484 17.428958295634484 0 0 0
670 224 2 -1.1794 2.3288851653737526 1.2809314234731608 18.514836599203793 0 0 0
788 263 1 0.5897 1.1260838407532974 8.790312017029988 16.62659555994539 0 0 0
760 254 2 -1.1794 4.407597098419123 7.908166617080149 17.30273087020797 0 0 0
679 227 2 -1.1794 1.0942814590078953 2.0728725225141926 15.783403107443371 0 0 0
665 222 1 0.5897 3.670065603635809 3.8855544591154048 17.671184612289498 0 0 0
658 220 2 -1.1794 1.9187810667724654 4.029072978793933 17.687442576078823 0 0 0
654 218 1 0.5897 4.4741811747501705 0.4669987053400064 16.11517759183192 0 0 0
109 37 2 -1.1794 2.9942165471425395 9.84897401820849 20.589724364607292 0 0 -1
672 224 1 0.5897 1.4186957885451352 1.508169388511611 18.3245550184599 0 0 0
666 222 1 0.5897 4.653993202352831 2.8584495849274805 17.152551964956533 0 0 0
660 220 1 0.5897 1.569494951188112 4.496686369030371 16.92870404339498 0 0 0
787 263 2 -1.1794 0.9024902541722365 8.229056841983967 15.884092106165987 0 0 0
761 254 1 0.5897 4.430715354570786 8.854131431685182 17.158425819308214 0 0 0
659 220 1 0.5897 1.3314947049714787 4.264522018083877 18.40578311605582 0 0 0
681 227 1 0.5897 1.3351623715635446 2.7559169317116075 16.40930144501709 0 0 0
780 260 1 0.5897 2.5620326506295634 8.46915987375023 19.516227541991114 0 0 0
779 260 1 0.5897 2.9966871718624573 7.583606181264875 18.36776689517017 0 0 0
778 260 2 -1.1794 2.326860065940034 7.669111574630606 19.0462251159105 0 0 0
675 225 1 0.5897 2.380767032885098 6.190538669137668 20.13750523888369 0 0 0
662 221 1 0.5897 4.939229414422897 5.149920421157438 15.904617526194599 0 0 0
2 1 1 0.5897 2.8554255229794805 3.651721305977744 20.565438625937958 0 0 -1
669 223 1 0.5897 1.0999376309955016 6.5308425911228545 15.59429525122979 0 0 0
663 221 1 0.5897 4.674826649033422 6.6405730040044215 15.903468978131809 0 0 0
858 286 1 0.5897 0.6352334069685348 7.6924100951191425 18.979739502450933 1 0 0
680 227 1 0.5897 0.1960805602329479 2.285522388084869 15.529953933883245 0 0 0
118 40 2 -1.1794 1.0425256529789628 11.091222775614922 3.872105567018222 0 0 0
230 77 1 0.5897 4.661541205887389 18.91470512065127 0.8716708852498337 0 0 0
124 42 2 -1.1794 3.882601170065689 10.9478041396633 3.63706638625267 0 0 0
121 41 2 -1.1794 4.5756140952063165 12.64306265463268 1.6838473583678044 0 0 0
127 43 2 -1.1794 1.0437830880720393 12.950496961457834 1.8057061554342377 0 0 0
235 79 2 -1.1794 1.066871042101713 19.795012418176807 1.7595976202953658 0 0 0
129 43 1 0.5897 1.2218631431690514 13.798474948384083 2.2125266801947334 0 0 0
232 78 2 -1.1794 4.074085492421254 17.307843896065453 3.641038079700792 0 0 0
234 78 1 0.5897 4.371979231074145 17.94657721305025 2.9932640211695807 0 0 0
123 41 1 0.5897 4.349770432668469 11.860791386432396 2.1871452703962126 0 0 0
247 83 2 -1.1794 0.8468050809956166 15.64266534783737 2.0742562152936306 0 0 0
220 74 2 -1.1794 4.137393081114729 14.319359372775901 3.798740445358159 0 0 0
119 40 1 0.5897 1.9901672817665488 11.040723318545025 3.997423923570345 0 0 0
222 74 1 0.5897 4.367031830685922 13.7939144986713 3.032266567428244 0 0 0
217 73 2 -1.1794 2.483077725704976 16.474561893047017 0.08295569939590323 0 0 0
227 76 1 0.5897 1.3770903657902123 18.813600743612916 3.3381015057967156 0 0 0
120 40 1 0.5897 0.9220057723154321 11.793823081260866 3.233245589698307 0 0 0
240 80 1 0.5897 2.6868168923585665 13.90594059108966 4.375599052705667 0 0 0
249 83 1 0.5897 0.931917006879019 16.388243334826097 2.668499844801818 0 0 0
221 74 1 0.5897 4.271199456442384 15.224622515150626 3.517943140426429 0 0 0
783 261 1 0.5897 2.260697842015051 12.787666643786771 0.4835759719862781 0 0 1
248 83 1 0.5897 1.5164741406842608 15.790320968326148 1.4063628319945403 0 0 0
890 297 1 0.5897 2.368175271246342 19.459161565303994 0.4269271187997045 0 0 1
226 76 2 -1.1794 1.3705705109278807 17.942665567431387 3.7351063642071822 0 0 0
233 78 1 0.5897 3.1342656173361374 17.46986820927528 3.723273334674477 0 0 0
126 42 1 0.5897 4.118758394644532 10.041476541936582 3.4394562392937558 0 0 0
125 42 1 0.5897 4.3471231302507585 11.144984445997535 4.450524352676783 0 0 0
122 41 1 0.5897 4.064749243834093 12.565822691273949 0.8779747773302126 0 0 0
229 77 2 -1.1794 4.976952329067986 19.19987081172208 1.729330496982199 0 0 0
219 73 1 0.5897 3.3506890144114574 16.140950919307226 0.31149234941502124 0 0 0
218 73 1 0.5897 2.5872579290338686 17.426009893956984 0.07113750226267551 0 0 0
250 84 2 -1.1794 5.030442389894895 15.501398018536243 0.3566204229800771 0 0 0
228 76 1 0.5897 0.63379781590117 17.962821677034174 4.345912136517295 0 0 0
238 80 2 -1.1794 1.824036611657896 13.7996021405931 4.776348277756163 0 0 0
128 43 1 0.5897 0.16582123896465537 13.041616797945766 1.4353271585069594 0 0 0
237 79 1 0.5897 0.17226094620118315 19.56451457441061 1.5089964848023645 0 0 0
133 45 2 -1.1794 2.672370828139752 11.9934254865274 6.579195782081385 0 0 0
134 45 1 0.5897 1.9174020680055193 12.049525622656411 7.165032417666329 0 0 0
135 45 1 0.5897 3.3790270818041908 12.42873648444188 7.056088301377976 0 0 0
576 192 1 0.5897 4.4702546811731185 16.1818760156812 6.7990566867662725 0 0 0
561 187 1 0.5897 0.8136474955787195 18.704243665613404 9.248958139584694 0 0 0
451 151 2 -1.1794 0.765381119045749 12.286448491121924 8.424769417300817 0 0 0
571 191 2 -1.1794 1.294184480961862 14.909349856495332 8.559702798970203 0 0 0
573 191 1 0.5897 1.211233605077516 13.969341044192072 8.399214545477292 0 0 0
553 185 2 -1.1794 4.897649968632207 19.303865811654173 8.514938442138453 0 0 0
544 182 2 -1.1794 4.141394274182065 14.91539339871631 10.039750990617364 0 0 0
572 191 1 0.5897 1.8018203210679855 15.235779763557343 7.816666207224975 0 0 0
543 181 1 0.5897 2.5478354201906286 15.585165534063076 5.715819609985974 0 0 0
243 81 1 0.5897 3.6791974696690324 18.976152588027386 7.201781955383303 0 0 0
557 186 1 0.5897 3.9162430006455264 16.786881818044368 9.922135862442808 0 0 0
446 149 1 0.5897 4.549082503496905 13.755272515361838 8.63845471331593 0 0 0
541 181 2 -1.1794 2.748176182334546 15.980190252613859 6.56445186432983 0 0 0
559 187 2 -1.1794 0.7097700469309309 19.292016341800412 8.500567159813901 0 0 0
242 81 1 0.5897 2.1673616311767954 18.89698441876661 7.204380734555379 0 0 0
241 81 2 -1.1794 2.933247164573958 18.72865401224094 6.6553820876862755 0 0 0
542 181 1 0.5897 2.452709436758458 16.886974112162356 6.482770579589207 0 0 0
453 151 1 0.5897 0.9557020768510334 11.915093311058572 9.286309229494242 0 0 0
434 145 1 0.5897 2.730465400618957 10.24906977642828 7.012270944700546 0 0 0
450 150 1 0.5897 4.427829064722671 11.404145702972382 9.70638378062379 0 0 0
239 80 1 0.5897 1.9530064128719535 13.132086534350073 5.450229484750497 0 0 0
445 149 2 -1.1794 4.767875866276226 12.976494213498665 8.126729357869799 0 0 0
558 186 1 0.5897 4.165722988743732 18.26283429171094 9.695669729761521 0 0 0
448 150 2 -1.1794 4.207274939492652 10.632355195864074 10.227921648770197 0 0 0
443 148 1 0.5897 1.2991348023688618 10.136614661538015 10.0600415895737 0 0 0
552 184 1 0.5897 1.232272136744841 16.200183270379874 9.797232125207788 0 0 0
556 186 2 -1.1794 3.68716505433692 17.65353932509036 10.257853460754722 0 0 0
551 184 1 0.5897 2.087157697445801 17.33375960968808 10.322787081892221 0 0 0
550 184 2 -1.1794 1.181734595586706 17.02640315931614 10.277949604238243 0 0 0
457 153 2 -1.1794 2.9318177860460843 11.600838695887434 13.48356354192314 0 0 0
458 153 1 0.5897 2.2066969498186895 11.755083032020064 14.089141760782738 0 0 0
459 153 1 0.5897 3.706635752843277 11.909207703419478 13.953519535659739 0 0 0
563 188 1 0.5897 2.34142857259915 13.077749186466368 11.975921455829711 0 0 0
562 188 2 -1.1794 2.089238545036502 13.961735283563673 11.709017599246751 0 0 0
348 116 1 0.5897 2.576160032435392 19.883104346440707 12.036142901924821 0 -1 0
883 295 2 -1.1794 0.8150585254236546 19.283352334835527 15.319504988285733 0 0 0
879 293 1 0.5897 3.9292316924924364 18.723000348365066 14.376233722786388 0 0 0
867 289 1 0.5897 1.920062060542796 15.453448705905764 14.550257589153514 0 0 0
449 150 1 0.5897 4.708427300827425 10.737918557952822 11.036675448422434 0 0 0
546 182 1 0.5897 4.906962663611561 14.955484618842837 10.6129815124541 0 0 0
641 214 1 0.5897 0.26082570191668336 14.175779658031756 11.46253621080643 1 0 0
564 188 1 0.5897 2.2349847007293024 14.498394617395252 12.488190534228073 0 0 0
444 148 1 0.5897 2.329973636822908 11.026188389202572 10.721899614679732 0 0 0
865 289 2 -1.1794 2.432292748131965 15.748713689857366 13.79741782055549 0 0 0
566 189 1 0.5897 2.5046456881168493 17.507000034681827 13.307164251172333 0 0 0
565 189 2 -1.1794 2.5702605184608185 18.456129881617265 13.201968171519246 0 0 0
567 189 1 0.5897 1.9742908956111527 18.812413841482577 13.860913186620653 0 0 0
866 289 1 0.5897 3.3377209679028925 15.538152856122478 14.025786913249977 0 0 0
545 182 1 0.5897 3.4795959322428534 14.454268173746632 10.555177819949938 0 0 0
769 257 2 -1.1794 4.801485214884053 12.766334858094869 15.288131652693796 0 0 0
442 148 2 -1.1794 1.387565038498987 10.865318184366947 10.67442730836498 0 0 0
775 259 2 -1.1794 0.98578955287915 12.063718628210841 15.240544375976288 0 0 0
877 293 2 -1.1794 4.525298149827695 18.983986925904816 15.07832978063568 0 0 0
621 207 1 0.5897 0.29493108387963496 17.6172674194059 11.767366529472907 1 0 0
548 183 1 0.5897 4.76865100591317 17.790127709191477 11.609451399038882 0 0 0
888 296 1 0.5897 2.130390201310477 13.854077676899445 19.142097437280352 0 0 0
781 261 2 -1.1794 2.8212465413835943 12.602388682000997 20.368140122702165 0 0 0
766 256 2 -1.1794 1.6593299257686094 10.391460940302652 17.465756157076225 0 0 0
768 256 1 0.5897 1.281634960493176 10.709054100068897 16.645480177668393 0 0 0
874 292 2 -1.1794 0.9984994368587548 17.398973776122986 17.234749759560597 0 0 0
773 258 1 0.5897 3.375043571599481 10.632106435533467 17.285106449449934 0 0 0
876 292 1 0.5897 0.8718810676841859 18.004922949755397 16.5046096679646 0 0 0
881 294 1 0.5897 2.810208101490901 17.459180088499267 17.404640120133443 0 0 0
767 256 1 0.5897 1.0183012734286394 10.632733450442647 18.134500184579696 0 0 0
771 257 1 0.5897 4.7232905132542715 13.469079866538713 15.933391272965432 0 0 0
886 296 2 -1.1794 1.741991578283464 14.638103292212428 18.75384761661372 0 0 0
869 290 1 0.5897 3.246293535036255 14.674735684739302 17.66553777016915 0 0 0
868 290 2 -1.1794 4.059749404592974 14.699793435358343 17.16158491392629 0 0 0
882 294 1 0.5897 4.041396124514765 16.582113766825596 17.321451817608637 0 0 0
774 258 1 0.5897 4.433520474664227 11.360330982222626 16.484229197378394 0 0 0
782 261 1 0.5897 2.7534320122313947 11.655472838231198 20.24563935908555 0 0 0
887 296 1 0.5897 1.9802548916294698 15.34572238089778 19.352868606468654 0 0 0
891 297 1 0.5897 2.9197382842296435 19.5750446013938 19.659803347478988 0 0 0
772 258 2 -1.1794 4.307879349699583 10.614603029391569 17.071102220855085 0 0 0
880 294 2 -1.1794 3.7656393027895727 17.497882243210512 17.36066350444917 0 0 0
873 291 1 0.5897 4.634489230802493 17.95793353450874 19.112753125110064 0 0 0
897 299 1 0.5897 0.7477628305623449 15.610213675695498 16.474489292611725 0 0 0
875 292 1 0.5897 0.592336312707049 17.836507845902847 17.983052686158345 0 0 0
895 299 2 -1.1794 0.6790880202759195 14.928629792850703 15.80587440755384 0 0 0
878 293 1 0.5897 4.328894059156334 18.381936931619656 15.796177848374104 0 0 0
870 290 1 0.5897 4.751229767566122 14.61115283860667 17.81758250857207 0 0 0
889 297 2 -1.1794 3.0924550719105675 19.170136313554874 20.50985743272351 0 0 0
777 259 1 0.5897 1.2970185296327092 12.916922690073598 15.54294477241407 0 0 0
57 19 1 0.5897 7.727935938086754 5.649336779036628 2.4662592982008413 0 0 0
69 23 1 0.5897 6.98116065865074 2.4718877679159417 2.153409896393834 0 0 0
710 237 1 0.5897 8.52142206516962 5.267120196681294 0.5521868335021475 0 0 1
48 16 1 0.5897 7.3993035295377965 4.829392511947346 4.6473464342364466 0 0 0
68 23 1 0.5897 8.488562643722311 2.3474272826285105 2.2186914133542412 0 0 0
46 16 2 -1.1794 8.076431636583052 4.746800905016459 3.975780812154971 0 0 0
67 23 2 -1.1794 7.71653720000364 2.4918408876582205 2.7659065121356283 0 0 0
47 16 1 0.5897 7.967275598483899 3.859870854867105 3.632699897986303 0 0 0
53 18 1 0.5897 9.953358546316101 4.28079963017685 3.9462350967982087 0 0 0
114 38 1 0.5897 5.114333414817328 8.210497618289143 3.4535719912085 0 0 0
175 59 2 -1.1794 7.89850259931155 9.082719105332005 1.9053972764523417 0 0 0
142 48 2 -1.1794 5.806351638442031 9.173002012766597 0.15061722669038435 0 0 0
176 59 1 0.5897 7.657659778068342 8.208594702650693 2.2122661182521517 0 0 0
58 20 2 -1.1794 8.684690120441907 0.7509849047593777 5.098103749907593 0 0 0
144 48 1 0.5897 6.499474357093623 9.220636018829348 0.8091114485105317 0 0 0
56 19 1 0.5897 6.661522130560248 6.152130026607002 1.5164631186104605 0 0 0
177 59 1 0.5897 8.561762674442168 8.92677752021315 1.2330064917087085 0 0 0
55 19 2 -1.1794 7.6007995553947465 6.2009137649093 1.6942916183843788 0 0 0
166 56 2 -1.1794 8.443661061225704 7.721565339082048 4.710865014709308 0 0 0
41 14 1 0.5897 9.936238814996923 1.33980813245725 3.8099779149646356 0 0 0
34 12 2 -1.1794 5.886360398514566 2.5774857011635732 0.7553852304600909 0 0 0
37 13 2 -1.1794 9.427094698448832 2.020376162997335 0.4519152290253515 0 0 0
36 12 1 0.5897 5.958521308750395 3.321684763298502 0.15765948700092272 0 0 0
149 50 1 0.5897 9.829843817516169 7.676018534209744 3.669587429041686 0 0 0
273 91 1 0.5897 8.029682810236896 0.3539697415177963 3.0307306538149996 0 1 0
29 10 1 0.5897 6.584187987266654 1.3940923902904616 4.7569834474316055 0 0 0
28 10 2 -1.1794 5.6557400101550455 1.2147288704578965 4.90554719256901 0 0 0
9 3 1 0.5897 5.317723174443626 4.615918455853962 4.736173375574262 0 0 0
35 12 1 0.5897 5.8150853155046125 1.8147600466631808 0.18137752749430092 0 0 0
167 56 1 0.5897 8.814642844244123 6.917542981208236 5.0744376337041945 0 0 0
30 10 1 0.5897 5.614733125057743 0.27016898830603875 5.055116713459361 0 0 0
469 157 2 -1.1794 9.096701951909022 9.271441914676258 7.002009424069282 0 0 0
359 120 1 0.5897 5.589220427002895 2.634695212013875 7.98349273231689 0 0 0
362 121 1 0.5897 9.299928731337706 3.8968721521467073 6.6920012948998275 0 0 0
467 156 1 0.5897 5.784231424785835 8.802423037130106 6.67312733998478 0 0 0
381 127 1 0.5897 7.78306638453341 5.120751592623357 9.513265096491372 0 0 0
392 131 1 0.5897 8.083037145305243 2.5275549424643997 8.380474081897402 0 0 0
8 3 1 0.5897 5.664539917581513 4.238480420258034 6.160797372166591 0 0 0
393 131 1 0.5897 7.597106329254592 1.2505152593486493 9.032443594597163 0 0 0
500 167 1 0.5897 7.726936211763634 8.730963386233643 9.895412119820552 0 0 0
391 131 2 -1.1794 7.35785375667425 2.166388977344019 8.890361577940638 0 0 0
338 113 1 0.5897 5.745474635167034 5.338792373928384 8.113920311177337 0 0 0
61 21 2 -1.1794 9.489405592238436 5.643660712448225 6.416297696279014 0 0 0
137 46 1 0.5897 5.708714948466443 6.639298004856272 5.501378858879579 0 0 0
59 20 1 0.5897 8.813771848059094 1.4689161570812117 5.717958533762941 0 0 0
7 3 2 -1.1794 5.832109932616817 4.901722467044169 5.491205018550981 0 0 0
470 157 1 0.5897 8.671526437524282 9.058356430169693 7.832752109789123 0 0 0
360 120 1 0.5897 5.500499021583212 2.3065326654892044 6.508103431138497 0 0 0
380 127 1 0.5897 7.7395162760988185 6.5479489095914465 9.010068201352457 0 0 0
62 21 1 0.5897 8.732228650341403 5.637510972384751 7.001942648734187 0 0 0
501 167 1 0.5897 6.902671138415284 8.68427676621599 8.626304980916645 0 0 0
379 127 2 -1.1794 7.86835277656308 5.645734795711308 8.717372002604908 0 0 0
358 120 2 -1.1794 5.217868291704468 2.9489540632145217 7.159055143809562 0 0 0
371 124 1 0.5897 7.787231828486065 3.1821710170154436 10.349870595435254 0 0 0
499 167 2 -1.1794 7.68623129447759 8.315370132692548 9.034011755929196 0 0 0
361 121 2 -1.1794 9.203201183200463 2.9943880761984323 6.996002952024991 0 0 0
466 156 2 -1.1794 5.603823982256002 9.286840717300855 7.478833848561415 0 0 0
377 126 1 0.5897 9.812861535991335 3.6922975106937277 10.16494048671591 0 0 0
138 46 1 0.5897 6.754288954453443 7.695306362338678 5.212232756416578 0 0 0
136 46 2 -1.1794 5.815647820924697 7.580007451660571 5.360384183018807 0 0 0
168 56 1 0.5897 8.876349459682638 8.425438224150566 5.194205838076746 0 0 0
386 129 1 0.5897 8.798428310452158 4.243811103937394 13.766188768756997 0 0 0
354 118 1 0.5897 6.068837246110851 1.3219693786550504 12.94264599626414 0 0 0
793 265 2 -1.1794 9.278996719061654 9.330728832574165 14.3482136342609 0 0 0
460 154 2 -1.1794 6.296625606263123 7.393111875043315 12.051634222390062 0 0 0
370 124 2 -1.1794 8.038508870722765 3.90535461806938 10.924485626533636 0 0 0
686 229 1 0.5897 8.357413552620491 1.9475510893514456 14.608917256674571 0 0 0
684 228 1 0.5897 5.728882071587689 3.5538808132423227 13.588215736374483 0 0 0
385 129 2 -1.1794 8.902363391008661 5.095445113219401 14.190631162811053 0 0 0
384 128 1 0.5897 9.218037752724825 0.24214174213342107 11.274233865219186 0 0 0
383 128 1 0.5897 8.718485020187197 0.641221523406986 12.646624375873545 0 0 0
353 118 1 0.5897 6.79002780215528 0.4070993998655852 11.975673167951882 0 0 0
330 110 1 0.5897 5.321262958119829 1.3952932880241418 10.754114737658716 0 0 0
682 228 2 -1.1794 5.591512076030242 2.892405270770552 14.266362913858467 0 0 0
790 264 2 -1.1794 5.35721935702263 9.079424737664056 14.399665394486368 0 0 0
372 124 1 0.5897 7.355983862426574 3.9272135799369825 11.59533002784866 0 0 0
352 118 2 -1.1794 5.914574109703779 0.6591206073967751 12.26948132287668 0 0 0
331 111 2 -1.1794 5.8817396827269555 4.784635552933363 12.434566622943242 0 0 0
333 111 1 0.5897 6.1116101133099585 5.683135894566302 12.19770425758745 0 0 0
491 164 1 0.5897 9.56368937641474 7.270719938162952 11.626953290187437 0 0 0
387 129 1 0.5897 8.863197569161015 5.727586796404872 13.472899693655371 0 0 0
490 164 2 -1.1794 9.071310470834797 7.335007561865478 12.445359378351766 0 0 0
462 154 1 0.5897 5.763305438847704 7.4733928935604474 11.260757115631389 0 0 0
794 265 1 0.5897 9.129346331119203 8.742738632305652 13.607809839632088 0 0 0
687 229 1 0.5897 9.80025544394308 1.941417337612883 14.1504123296402 0 0 0
685 229 2 -1.1794 8.901547626743309 1.9618479526365555 13.821462014827677 0 0 0
492 164 1 0.5897 8.154589399849966 7.368455945993564 12.171892735928369 0 0 0
461 154 1 0.5897 5.773338718275156 7.808384200134462 12.737239114677546 0 0 0
791 264 1 0.5897 6.119806466158559 9.06995232648804 14.978178493750935 0 0 0
762 254 1 0.5897 5.094799550369109 7.7471642663683955 17.94939043841086 0 0 0
715 239 2 -1.1794 7.302753276349302 1.7224703224785034 16.180439365840325 0 0 0
677 226 1 0.5897 5.6729520018057045 0.8072453960153946 18.52736038934396 0 0 0
702 234 1 0.5897 9.984417988155371 3.811406804704808 18.1010888776761 0 0 0
716 239 1 0.5897 7.147654426834317 0.7790528471275534 16.226556058340623 0 0 0
696 232 1 0.5897 7.747514703800423 4.5679664108174505 17.434622288775977 0 0 0
784 262 2 -1.1794 6.384402702032926 7.143701422547063 19.01305368927084 0 0 0
708 236 1 0.5897 7.6894686578915055 0.4334169501008123 19.04611545973133 0 0 0
657 219 1 0.5897 6.835237013190148 4.290883247505897 19.249752319038706 0 0 0
694 232 2 -1.1794 8.091238270078204 3.859587910569922 17.97901922974309 0 0 0
703 235 2 -1.1794 7.439447097103367 5.921948759941969 16.14780740097427 0 0 0
695 232 1 0.5897 7.953159782946877 3.068272489472028 17.458402713003974 0 0 0
785 262 1 0.5897 6.327244686561981 6.191721691609657 19.09502243798392 0 0 0
814 272 2 -1.1794 9.095003902426663 6.936188549991314 18.67640881413208 0 0 0
655 219 2 -1.1794 5.975342851769662 4.624792508821735 19.50544262137324 0 0 0
676 226 2 -1.1794 5.950400486876194 0.7201551450726417 19.43941143179435 0 0 0
825 275 1 0.5897 7.438216323118683 7.66498972518346 16.223613838659976 0 0 0
823 275 2 -1.1794 7.468131572303744 8.617356427013187 16.13224351089592 0 0 0
709 237 2 -1.1794 9.19795370961603 4.948964073911237 20.59245755028522 0 0 0
815 272 1 0.5897 9.194606567981898 6.182350521492973 19.257854551619012 0 0 0
816 272 1 0.5897 9.476937254846979 7.666635003113798 19.163030683236446 0 0 0
786 262 1 0.5897 7.276368696256529 7.304971058461757 18.705348148790247 0 0 0
706 236 2 -1.1794 8.635818108910929 0.2902707544292645 19.05869551135514 0 0 0
38 13 1 0.5897 9.298508553445686 1.3417396702171738 20.42726826944361 0 0 -1
143 48 1 0.5897 5.93081403568847 8.321049743302432 20.370417913133057 0 0 -1
656 219 1 0.5897 5.385606355522346 4.3232616003463 18.81433833432383 0 0 0
145 49 2 -1.1794 9.509890181283131 9.225149212173594 20.306994295450984 0 0 -1
711 237 1 0.5897 9.066010546843717 4.001347260266632 20.563220747914517 0 0 0
704 235 1 0.5897 6.604100766387381 5.791625075655972 15.698886567494 0 0 0
705 235 1 0.5897 8.080657544214215 5.4732723466268585 15.596574890061529 0 0 0
717 239 1 0.5897 6.576623869065968 2.0597061726435477 15.655729022138303 0 0 0
824 275 1 0.5897 8.18084839734884 8.776816824459793 15.51342529512602 0 0 0
251 84 1 0.5897 5.638346870796949 15.521335255537291 1.095816614375292 0 0 0
285 95 1 0.5897 7.383086335477272 14.528909887982392 2.238510087345947 0 0 0
224 75 1 0.5897 5.225523255515145 18.296258003536575 4.878185275959645 0 0 0
819 273 1 0.5897 8.415213240254632 12.069861899867627 0.21636202997088355 0 0 1
263 88 1 0.5897 7.286316709931326 17.651763672606354 4.658110169341385 0 0 0
164 55 1 0.5897 7.561092722643832 12.297793299932302 2.646656210428168 0 0 0
165 55 1 0.5897 6.466662954775308 12.518623923570209 1.624089470003498 0 0 0
163 55 2 -1.1794 7.387595124559801 12.710912440915484 1.8007178848680736 0 0 0
245 82 1 0.5897 5.616744715975307 14.242513639990852 4.687204635383787 0 0 0
271 91 2 -1.1794 7.679768469842996 19.564051239045316 2.526936269128475 0 0 0
154 52 2 -1.1794 7.698692979130299 10.762959427766932 3.9415795710323893 0 0 0
254 85 1 0.5897 8.328522142318773 15.577775313134492 0.8322753802506346 0 0 0
284 95 1 0.5897 7.351465908346553 15.840813390068046 2.9934717425944086 0 0 0
283 95 2 -1.1794 7.125212971038013 15.446571963047278 2.150995370722642 0 0 0
264 88 1 0.5897 8.721475396963859 17.40049383942212 4.24672610645692 0 0 0