LAMMPS (30 Jul 2021)
Processor partition = 0
  using 4 OpenMP thread(s) per MPI task
using multi-threaded neighbor list subroutines
variable        pid world 0 1
variable        phase world IceII IceIh

shell cd ${phase}
shell cd IceII
include Restart.lmp
echo both
log log.lammps
#include		in.partitions
include		in.temp
variable        temperature equal 42.60
variable	tempDamp equal 100.0
include		in.pressure
variable        pressure equal 2005.2
variable        pressureDamp equal 1000.0 # This is 1 ps
include		in.seed
variable        seed equal 745823

units		real
atom_style	full
box tilt large
read_restart	restart.lmp.${pid}
read_restart	restart.lmp.0
Reading restart file ...
  restart file = 30 Jul 2021, LAMMPS = 30 Jul 2021
  restoring atom style full from restart
  triclinic box = (-10.613255 -9.1170041 0.11721256) to (12.593255 12.107002 21.742786) with tilt (-9.1194320 1.9822211 2.8919679)
  2 by 2 by 4 MPI processor grid
  restoring pair style lj/cut/tip4p/long/omp from restart
  restoring bond style harmonic/omp from restart
  restoring angle style harmonic/omp from restart
  1296 atoms
  864 bonds
  432 angles
Finding 1-2 1-3 1-4 neighbors ...
  special bond factors lj:    0        0        0       
  special bond factors coul:  0        0        0       
     2 = max # of 1-2 neighbors
     1 = max # of 1-3 neighbors
     1 = max # of 1-4 neighbors
     2 = max # of special neighbors
  special bonds CPU = 0.001 seconds
  read_restart CPU = 0.005 seconds
include 	in.setup
variable	out_freq equal 1000
variable	out_freq2 equal 10000
variable	out_freq3 equal 1000

timestep	2.0

neigh_modify    delay 7 every 1

include		in.tip4p
# This is TIP4P/Ice

# create groups ###
group ox type 2
432 atoms in group ox
group hy type 1
864 atoms in group hy

# set charges - beside manually ###
set group ox charge -1.1794
Setting atom values ...
  432 settings made for charge
set group hy charge 0.5897
Setting atom values ...
  864 settings made for charge

# ### TIP3P Potential Parameters ###
pair_style lj/cut/tip4p/long/omp 2 1 1 1 0.1577 8.5
pair_coeff 1 1*2 0.000 0.000
pair_coeff 2 2 0.21084 3.1668
bond_style  harmonic
bond_coeff  1 450 0.9572
angle_style harmonic
angle_coeff 1 55 104.52
kspace_style pppm/tip4p/omp 1.0e-5
pair_modify tail yes

thermo          ${out_freq}
thermo          1000
thermo_style    custom step temp pe etotal epair emol press lx ly lz vol pxx pyy pzz pxy pxz pyz enthalpy

restart 	${out_freq3} restart.lmp.${pid} restart2.lmp.${pid}
restart 	1000 restart.lmp.${pid} restart2.lmp.${pid}
restart 	1000 restart.lmp.0 restart2.lmp.${pid}
restart 	1000 restart.lmp.0 restart2.lmp.0


include         in.dump
dump            myDump all atom ${out_freq2} dump.water.${pid}
dump            myDump all atom 10000 dump.water.${pid}
dump            myDump all atom 10000 dump.water.0
dump            myDump2 all dcd ${out_freq2} dump.dcd
dump            myDump2 all dcd 10000 dump.dcd
dump_modify     myDump append yes
dump_modify     myDump2 append yes


variable natoms 	equal  "count(all)"                        # NUMBER ATOMS
variable H      	equal  "enthalpy/v_natoms"                 # ENTHALPY-per-atom
variable Vol      	equal  "vol/v_natoms"                 # volume-per-atom
fix AVG all 		ave/time ${out_freq} 1 ${out_freq} v_Vol v_H file vol_enthalpy.dat
fix AVG all 		ave/time 1000 1 ${out_freq} v_Vol v_H file vol_enthalpy.dat
fix AVG all 		ave/time 1000 1 1000 v_Vol v_H file vol_enthalpy.dat


timer           timeout 10:00:00 every 1000
New timer settings: style=normal  mode=nosync  timeout=10:00:00

fix 		1 all shake 1e-6 200 0 b 1 a 1
Finding SHAKE clusters ...
       0 = # of size 2 clusters
       0 = # of size 3 clusters
       0 = # of size 4 clusters
     432 = # of frozen angles
  find clusters CPU = 0.000 seconds
fix             2 all nph tri ${pressure} ${pressure} ${pressureDamp}
fix             2 all nph tri 2005.2 ${pressure} ${pressureDamp}
fix             2 all nph tri 2005.2 2005.2 ${pressureDamp}
fix             2 all nph tri 2005.2 2005.2 1000
fix             3 all temp/csvr ${temperature} ${temperature} ${tempDamp} ${seed}
fix             3 all temp/csvr 42.6 ${temperature} ${tempDamp} ${seed}
fix             3 all temp/csvr 42.6 42.6 ${tempDamp} ${seed}
fix             3 all temp/csvr 42.6 42.6 100 ${seed}
fix             3 all temp/csvr 42.6 42.6 100 745823


run             250000
PPPM initialization ...
  extracting TIP4P info from pair style
  using 12-bit tables for long-range coulomb (../kspace.cpp:340)
  G vector (1/distance) = 0.36685065
  grid = 30 40 32
  stencil order = 5
  estimated absolute RMS force accuracy = 0.0046791754
  estimated relative force accuracy = 1.4091198e-05
  using double precision FFTW3
  3d grid and FFT values/proc = 11832 2400
Last active /omp style is kspace_style pppm/tip4p/omp
Neighbor list info ...
  update every 1 steps, delay 7 steps, check yes
  max neighbors/atom: 2000, page size: 100000
  master list distance cutoff = 10.8154
  ghost atom cutoff = 10.8154
  binsize = 5.4077, bins = 7 5 4
  1 neighbor lists, perpetual/occasional/extra = 1 0 0
  (1) pair lj/cut/tip4p/long/omp, perpetual
      attributes: half, newton on, omp
      pair build: half/bin/newton/tri/omp
      stencil: half/bin/3d/tri
      bin: standard
Setting up Verlet run ...
  Unit style    : real
  Current step  : 39500000
  Time step     : 2
  Walltime left : 9:59:59.96
Per MPI rank memory allocation (min/avg/max) = 12.76 | 12.77 | 12.77 Mbytes
Step Temp PotEng TotEng E_pair E_mol Press Lx Ly Lz Volume Pxx Pyy Pzz Pxy Pxz Pyz Enthalpy 
39500000    46.567665   -6902.8359   -6783.0434   -6902.8359            0    2449.4464    23.206509    21.224006    21.625574    10651.354    2287.3768     3205.268    1855.6946    113.25108   -145.05426   -201.94049   -6402.5487 
39501000    42.144107   -6913.8445   -6805.4314   -6913.8445            0    2002.8323     23.08558    21.394553    21.565626    10651.385    1923.1983    2300.4199    1784.8788    213.90228    305.86975   -457.87396   -6494.3124 
39502000    42.380762   -6914.0487   -6805.0268   -6914.0487            0    1809.8946    23.121308    21.337909    21.603007    10658.067    2190.0012    1947.6165    1292.0661    263.33339    101.21618   -70.293719   -6523.7022 
39503000    41.244188    -6911.857   -6805.7588    -6911.857            0    2066.2555    23.270461    21.220646    21.575507    10654.292    1598.9909    2214.9002    2384.8754    146.97879   -212.90283    590.28471   -6484.7001 
39504000    42.559705    -6921.823   -6812.3407    -6921.823            0     2023.979    23.179586    21.278046    21.608924    10657.874    1723.4648    1963.6096    2384.8624    162.74666    2.2692181    18.064971   -6497.7453 
39505000    42.409107   -6915.9602   -6806.8653   -6915.9602            0    1741.6233     23.11306    21.387945    21.585693    10670.689    1789.8735    1344.0191    2090.9775    224.28166   -11.494573   -49.650848   -6535.8321 
39506000    43.971247   -6915.8076   -6802.6943   -6915.8076            0    1749.3254    23.167825    21.290748      21.6186    10663.597    1893.1449    1306.2037    2048.6276    259.35247   -298.63277    253.86279   -6530.6433 
39507000    42.249693   -6915.5541   -6806.8694   -6915.5541            0    1811.6942    23.227528    21.204317    21.646689    10661.511    1672.6844    1907.4455    1854.9528   -215.82018   -328.29059    559.98357   -6525.1741 
39508000    42.495805   -6912.5542   -6803.2364   -6912.5542            0    2001.0617    23.125608    21.336053    21.595749    10655.541     2168.531    1659.6797    2174.9744     23.69566    633.33696    61.268822   -6492.2711 
39509000    42.911936    -6907.914   -6797.5256    -6907.914            0    2386.0958    23.134374    21.384481    21.506636     10639.69    2923.4847    1836.0115    2398.7912   -196.07092   -75.142299   -251.57034   -6427.2776 
39510000    41.763894   -6910.4434   -6803.0083   -6910.4434            0     2569.878    23.237214    21.194705    21.602813    10639.513    2438.0872    2776.8231    2494.7238    264.60022    -563.5082   -257.21821   -6404.2496 
39511000    42.063709   -6913.2112   -6805.0048   -6913.2112            0    2294.7091    23.184464    21.263265    21.588971    10642.875    2629.9045    2129.4401    2124.7828   -430.40886   -549.68513    194.72882   -6448.8306 
39512000    42.687513   -6908.4004   -6798.5893   -6908.4004            0    2109.3948    23.107493    21.353876    21.598729    10657.559    2621.0981    1887.4496    1819.6365    292.45182    39.819649   -200.74196    -6470.727 
39513000     44.49053   -6916.4124   -6801.9633   -6916.4124            0    1811.7451    23.199166    21.303936    21.589002    10670.009    1383.5477    2034.6473    2017.0401      36.0459   -22.270233   -9.6996852   -6520.0355 
39514000    41.277588   -6916.7896   -6810.6055   -6916.7896            0    2229.0002    23.274417    21.211403    21.564402    10645.979    1896.3482    2145.7975     2644.855   -45.771736    -86.88648   -42.932833   -6464.5294 
39515000    43.716331   -6916.7234   -6804.2658   -6916.7234            0    2207.9895    23.106362    21.336434    21.593445    10645.727    2545.4954       2048.2     2030.273    256.24042     61.17939    337.86649     -6461.46 
39516000    42.889763   -6915.2779   -6804.9466   -6915.2779            0    2106.5382    23.094291    21.335354    21.613173    10649.348    2442.3908    1820.1327    2057.0912    87.425361     105.8703   -190.32012   -6477.7805 
39517000    42.903517   -6914.3486   -6803.9819   -6914.3486            0    2434.0597    23.228276    21.199067    21.625056    10648.562    2113.9716    2620.9646    2567.2428   -194.12651   -233.00169   -46.027153   -6425.9765 
39518000    41.112448   -6915.8088   -6810.0495   -6915.8088            0    2344.0314    23.208164    21.262122    21.564557    10641.135    2411.1334    2420.2462    2200.7145   -243.95927    139.23084   -337.38566   -6446.2792 
39519000    42.746349   -6914.9214   -6804.9591   -6914.9214            0    2795.3857    23.008466    21.422571    21.529145    10611.726    3792.2135     2178.348    2415.5956    416.78514    346.66927    -281.2584    -6372.342 
39520000    42.200608   -6916.3445    -6807.786   -6916.3445            0    2457.6607    23.156801    21.247724    21.629131    10642.166    2321.9208     3120.771    1930.2904     293.0108   -124.68706   -274.35452   -6426.3446 
39521000    42.425862   -6920.9572   -6811.8192   -6920.9572            0    2054.5583     23.25818    21.177947     21.63275    10655.438    1347.9658    2892.7035    1923.0056   -182.53988    252.94358   -252.96658   -6492.5437 
39522000    43.553195   -6917.5338   -6805.4959   -6917.5338            0    2141.1437    23.104653    21.365107    21.571602    10648.463     2150.682    2222.3529    2050.3963   -166.20043    420.95649   -29.551449   -6472.9829 
39523000      42.5262   -6918.4959   -6809.0999   -6918.4959            0    2235.0754    23.115841    21.372357    21.544898    10644.042    1940.0635     1945.135    2820.0276    302.71905   -53.723147    150.62745   -6462.1437 
39524000    45.440678   -6910.5212   -6793.6278   -6910.5212            0    1993.7422    23.229828     21.23033    21.616192    10660.607    2009.3989    1952.0158    2019.8118   -375.05064   -8.0476562     203.3855   -6483.6527 
39525000     44.08034    -6910.849    -6797.455    -6910.849            0    2247.2932    23.202667    21.241612    21.624565    10657.928    2088.5572    2358.4004     2294.922    2.4969561   -19.116388   -70.648546   -6448.1471 
39526000    41.959797   -6908.4189   -6800.4799   -6908.4189            0    2046.2553    23.098902    21.442592    21.526092     10661.88    1876.9594    1607.8409    2653.9655    507.52909    315.65981     158.9971   -6482.3024 
39527000    41.589611   -6909.6047   -6802.6179   -6909.6047            0    2034.9357    23.178162    21.286934    21.606443    10660.446     2305.147    2083.1424    1716.5178   -73.557949   -550.20519    514.18545   -6486.2431 
39528000      41.6259   -6918.7378   -6811.6577   -6918.7378            0    1769.4394    23.265905    21.183566    21.647454    10669.052    1459.8628    1926.6059    1921.8493     166.7989   -578.79753    123.07819   -6536.3379 
39529000    41.843943   -6918.0951   -6810.4541   -6918.0951            0    1632.8143    23.140371    21.319605    21.640005    10675.958    1947.7159    1584.1959    1366.5311   -156.76872    1.4549238   -174.86315   -6556.2283 
39530000    43.910733   -6910.6488   -6797.6911   -6910.6488            0    1957.0574    23.179342    21.366519    21.529171    10662.577    1738.4428       1336.2    2796.5294    28.437056    544.70686    241.63722   -6493.3633 
39531000    44.089681   -6913.8112   -6800.3932   -6913.8112            0    2305.1657    23.210326     21.20359    21.672072    10665.742    2295.7009    2659.8174    1959.9788   -577.86097    218.75679    -67.57449   -6441.8272 
39532000    46.208965   -6921.3173   -6802.4476   -6921.3173            0    1733.0946    23.178734    21.325639     21.57521    10664.655     1634.496    1559.2309    2005.5568    60.651517   -10.546963   -511.58025   -6532.8941 
39533000    41.601375   -6912.4799   -6805.4629   -6912.4799            0    1915.4523    23.086556    21.372988    21.615827    10665.869    1923.3086      2099.48    1723.5682    297.09097    215.01853    206.53285   -6507.5128 
39534000    42.292602   -6916.9521   -6808.1569   -6916.9521            0    1924.6818    23.225509    21.313853    21.528724    10657.258    1854.5579    1895.0436     2024.444    89.590197    -200.4789   -34.636292   -6509.0129 
39535000    42.757972   -6919.8997   -6809.9074   -6919.8997            0     1900.682    23.236929    21.199552     21.66656    10673.218    1777.7987    2181.2648    1742.9826   -9.2505785   -245.66472   -166.08107   -6514.0512 
39536000    44.193084   -6922.4966   -6808.8126   -6922.4966            0    1905.2773    23.139143    21.359979    21.561594    10656.852    1674.7372    1802.1777    2238.9171   -175.19125    297.38973   -135.97392   -6512.6958 
39537000    43.860686   -6917.3407   -6804.5118   -6917.3407            0    1965.7588    23.136952     21.33032    21.602836    10661.401    2234.1995    1562.8002    2100.2767    129.50773   -60.213603     428.7435   -6498.8646 
39538000    42.109712   -6914.5514   -6806.2267   -6914.5514            0    1735.7965    23.269567    21.256194    21.577717    10672.823    1507.8716    1481.3918    2218.1263   -280.41735   -106.05937    380.96022   -6536.0462 
39539000    42.875359   -6916.9029   -6806.6087   -6916.9029            0    1434.2188    23.189625     21.26827    21.678042     10691.68    1495.6832    1733.1802     1073.793    350.64578     218.4766   -319.35905    -6582.975 
39540000    43.233618   -6918.6391   -6807.4233   -6918.6391            0    1799.4745    23.077481    21.434819    21.559203     10664.51    2046.5832    1725.0284    1626.8117   -123.38924   -157.45563   -515.55044   -6527.5493 
39541000    40.188186   -6913.0973   -6809.7156   -6913.0973            0    1785.0017    23.158907    21.309163    21.634624    10676.621     1764.159    1936.6611     1654.185    418.52157    31.326969   -106.04682   -6531.7774 
39542000    41.496466   -6913.8015   -6807.0544   -6913.8015            0     1576.224    23.261578    21.257023     21.60002    10680.603    843.08423    1888.8703    1996.7175   -42.360034   -355.61444    101.93625   -6561.5328 
39543000    43.475774   -6914.4814   -6802.6427   -6914.4814            0     1919.829    23.169248    21.322267    21.580134    10661.037    1692.0192    2098.8525    1968.6152   -168.16479    466.37855    102.82367   -6504.1471 
39544000    43.291793   -6915.5201   -6804.1546   -6915.5201            0    1879.3279    23.115518    21.367252    21.583598    10660.465    1942.1972    1918.6367    1777.1498   -394.21813       380.57    -303.7038   -6511.9719 
39545000    40.885734   -6922.2027   -6817.0266   -6922.2027            0    1870.8928    23.236793    21.207743    21.635803    10662.122    1671.2903      2340.78    1600.6081    58.608362   -235.52027   -100.36175     -6526.11 
39546000    42.789602   -6914.6846    -6804.611   -6914.6846            0    2053.2237    23.197175    21.253181    21.629326    10663.555    2032.6747    2559.7097    1567.2867   -144.48693      321.469   -160.10337   -6485.2998 
39547000    42.295643    -6918.999    -6810.196    -6918.999            0    1726.9081    23.065274    21.442322    21.559004    10662.502    2002.1764    1339.0679    1839.4799   -16.707034     384.1145   -86.305097    -6541.659 
39548000     42.92646   -6913.9422   -6803.5165   -6913.9422            0    1448.4877    23.189194    21.292135    21.648592    10688.937    1532.8613    1728.9946    1083.6073    -45.22754   -392.03438    477.16187   -6577.7158 
39549000    42.603797   -6911.8739   -6802.2783   -6911.8739            0    1784.7934    23.269737    21.244104    21.589051    10672.433    1660.5066    1962.8848    1730.9889    7.5663518   -191.11853   -128.10733   -6524.4814 
39550000    42.654796   -6915.6498   -6805.9229   -6915.6498            0    1629.9706    23.089306    21.398172    21.604765    10674.243    1827.6006    1547.5093    1514.8018    250.72009   -304.11773    -189.3521   -6552.1807 
39551000    44.216185   -6915.4103   -6801.6668   -6915.4103            0    1948.1132    23.094343     21.36966    21.590932    10655.519    2800.5838    1534.5097    1509.2461   -65.682557   -33.556202    214.34724   -6498.9304 
39552000    40.243553   -6912.8329   -6809.3088   -6912.8329            0    2493.7651    23.205282    21.223076    21.608059    10641.698     2466.913    2482.5833    2531.7989    500.08128   -390.64687    262.42177   -6422.2809 
39553000     42.27742   -6916.7382   -6807.9821   -6916.7382            0    2360.0872    23.258082    21.185735    21.592449    10639.454    1783.4232    2911.6293    2385.2092    170.76511    179.43442   -518.33025   -6441.7779 
39554000    43.181971   -6913.8017   -6802.7187   -6913.8017            0    2217.7549     23.06944    21.395727    21.577724    10650.494    2748.4494     1336.981    2567.8343   -240.66042    271.86587    155.14638   -6458.2425 
39555000    43.669777   -6914.7766   -6802.4388   -6914.7766            0    2195.5238    23.167277    21.266663    21.605672    10644.913     2184.523    2460.5143     1941.534   -387.66393   -7.1095852   -198.28685   -6461.5944 
39556000    44.467629   -6914.4061   -6800.0159   -6914.4061            0    1895.7107    23.240422    21.236374    21.592515    10656.819    1976.0513    2263.2318    1447.8489   -302.90363   -55.079273   -492.15606   -6505.3868 
39557000    43.736012   -6917.8412    -6805.333   -6917.8412            0     1981.984    23.159211    21.352444    21.533986     10648.68    1980.1518    1667.0945    2298.7058    316.93594   -125.97349   -136.82037   -6497.5307 
39558000    42.311395   -6915.8423   -6806.9988   -6915.8423            0    2177.8175    23.117596    21.326403    21.607434    10652.793    2375.6183    1899.4241    2258.4101   -363.35669   -103.09189    69.857041    -6468.653 
39559000    44.287327   -6919.8916   -6805.9652   -6919.8916            0    2006.1522    23.169007    21.198031    21.702528    10658.922    2024.0087    2256.1876    1738.2603   -77.279459    84.312213    218.32489   -6494.1099 
39560000    40.893503   -6917.6268   -6812.4308   -6917.6268            0    1676.0471    23.218717    21.321043    21.545297     10665.94    1395.9858     1998.613    1633.5425   -270.95873    210.59115   -337.19844   -6551.7186 
39561000    43.681849    -6918.389   -6806.0201    -6918.389            0    1915.7086    23.132384    21.347204    21.592327    10662.544    2144.4339    1706.2779    1896.4142    46.708432    189.48659    602.49783    -6508.123 
39562000    44.358731   -6917.3204   -6803.2103   -6917.3204            0    2135.8495     23.19164    21.246744    21.619116    10652.751    1470.7888    2974.4674    1962.2922    437.88616    47.818145   -693.55441   -6471.3858 
39563000    44.773759   -6913.9165   -6798.7388   -6913.9165            0    2047.3581    23.192463    21.207991    21.694021    10670.542    1779.3111    2821.1757    1541.5874     72.54604   -455.76059   -295.35438   -6480.1312 
39564000    40.742141   -6913.0692   -6808.2625   -6913.0692            0    1734.8819    23.153505    21.438537    21.489991    10667.143     1219.954    1252.4586     2732.233    48.664884    405.99791    53.959574   -6538.3681 
39565000    40.745383   -6918.9255   -6814.1105   -6918.9255            0    1395.0262    23.157234    21.354849    21.588276    10675.818    1336.9986    1623.4855    1224.5943    -160.3389    608.52007    52.371032   -6596.9107 
39566000    44.260083   -6914.2277   -6800.3714   -6914.2277            0    2051.6583    23.225723    21.204605     21.64937    10662.147    1389.4292     2891.308    1874.2378   -35.804702    15.522877   -214.42273   -6481.3457 
39567000    41.042173   -6918.1202   -6812.5417   -6918.1202            0    1915.1748    23.166966    21.268146    21.639101    10661.983    1670.2622    2434.2838    1640.9784    3.9115487    228.52567   -431.51925   -6514.7433 
39568000    41.530388   -6916.4472   -6809.6128   -6916.4472            0    2085.0753    23.070722    21.447508    21.513694     10645.18     2141.838    1238.8531    2874.5349   -206.76816    266.17959    248.54182   -6485.9069 
39569000    40.793289   -6918.8665   -6813.9283   -6918.8665            0    1876.0661    23.187995    21.249662    21.631328    10658.557    2560.0976    1299.6558    1768.4448   -221.78901    -275.3463   -380.58661   -6522.3048 
39570000      42.3412   -6916.2081    -6807.288   -6916.2081            0    1907.5356    23.210178    21.216869    21.658663     10665.75    1959.9919    1894.7207    1867.8942   -397.19956    247.96096    189.50455   -6510.5727 
39571000    42.376337   -6912.4594   -6803.4489   -6912.4594            0    2161.5217    23.106599    21.405781    21.530445    10649.277    1975.8937    1740.5054    2768.1659    848.35131    107.33165   -13.532218   -6467.7456 
39572000    44.816682   -6910.6951   -6795.4069   -6910.6951            0    2146.8331    23.195007    21.315208    21.543952    10651.468    1932.0505    2069.4143    2439.0346   -209.46053    75.129884    63.595348   -6461.9163 
39573000    42.052786   -6919.5138   -6811.3355   -6919.5138            0    1958.7525    23.235004    21.209844    21.646077    10667.421     1824.054    2500.0597    1552.1438   -232.22091    -159.6525   -186.46554   -6506.6058 
39574000    42.510165    -6917.423   -6808.0682    -6917.423            0    1568.2987    23.138483    21.341592    21.642622    10687.388    2003.4535    1218.0761    1483.3665    72.329217    240.31068   -50.362741    -6563.626 
39575000    41.428525   -6913.1688   -6806.5964   -6913.1688            0    1691.7162    23.122694     21.38615     21.57702    10669.953    1164.2751    1769.7763    2141.0972    383.81076     418.6694    246.62347   -6543.3479 
39576000    42.234249   -6915.2993   -6806.6543   -6915.2993            0    1800.7288    23.270949    21.217828    21.619417    10674.781    969.30301    2597.6702    1835.2133    312.86587   -327.36568    70.844732   -6526.3155 
39577000    42.227484   -6916.6334   -6808.0058   -6916.6334            0    2100.9023    23.262435    21.253305     21.56253    10660.593    1707.8058    2104.1995    2490.7016   -79.571738    63.118373    258.90272   -6481.3705 
39578000    44.744671   -6913.2251   -6798.1221   -6913.2251            0    2003.2441    23.087163    21.407497    21.582511    10666.905    1927.2379     1958.436    2124.0586    133.30009     146.0418    102.92317   -6486.4857 
39579000    41.312965   -6916.1285   -6809.8534   -6916.1285            0     2008.947    23.159111    21.318365      21.5983    10663.391    1733.5614    2010.1792    2283.1005   -110.87781   -78.227371   -227.61167   -6497.4328 
39580000    44.476499   -6914.4948   -6800.0817   -6914.4948            0    1892.9434    23.304883    21.165024    21.618314    10663.199    1576.3403    2364.2809     1738.209   -140.79144   -283.08278    21.173052   -6505.7066 
39581000    41.931493   -6916.5082    -6808.642   -6916.5082            0    1914.8024    23.179189    21.307558     21.57158    10654.029    1991.8514    1613.9786    2138.5771    -153.5346    222.97041    628.86664   -6511.1237 
39582000    42.693566   -6917.0116    -6807.185   -6917.0116            0    1876.9335    23.033394    21.423738    21.599512    10658.525    2190.3918    1420.9788    2019.4298    437.38314   -236.31115    87.046906   -6515.4276 
39583000    42.024585   -6915.2205   -6807.1148   -6915.2205            0     1460.173     23.18073    21.230758    21.720071    10689.413    1227.1643    2248.0581    905.29658     230.6925   -685.15176    -148.2843   -6579.4824 
39584000    44.978941   -6911.7139   -6796.0083   -6911.7139            0    2201.4876    23.228048    21.227021    21.603448    10651.845    1689.7724    2362.9883    2551.7021   -406.29346    308.64343    215.63834   -6454.0155 
39585000    42.328571   -6915.8483   -6806.9606   -6915.8483            0    2155.6603    23.132075    21.345571    21.563233     10647.22    2500.2202    1713.9728     2252.788    -228.7146    347.22857    526.80593   -6472.2323 
39586000     42.20987   -6916.9267   -6808.3444   -6916.9267            0    1987.9603    23.110738    21.385108    21.557444    10654.241    2308.5878    1781.2936    1873.9996    474.99769   -539.99799   -222.20785   -6499.4528 
39587000    41.597823   -6918.1644   -6811.1565   -6918.1644            0    1824.3903    23.233462    21.201903    21.661848    10670.488    1626.4487    2323.6265    1523.0959   -314.92549   -108.86266   -569.65507   -6527.2483 
39588000    43.187045   -6915.8529   -6804.7569   -6915.8529            0    1900.1059    23.213678    21.280284    21.592106    10666.363    1567.3109    2445.6529    1687.3539   -337.04688    226.21043   -493.66354   -6509.1803 
39589000    41.322259   -6920.7118   -6814.4128   -6920.7118            0    1944.3942    23.118949    21.388528    21.550123    10656.111     1859.238    1912.8043    2061.1401    19.907296    111.43525    77.772245   -6512.2376 
39590000    42.489029    -6917.746   -6808.4456    -6917.746            0      1929.12    23.176788    21.293671    21.600352    10660.182    2421.8168     1502.588    1862.9552    -585.2568   -363.36516     437.1081   -6508.5295 
39591000    42.844974   -6921.2783   -6811.0622   -6921.2783            0    2241.2046    23.216256    21.200551    21.629409    10645.939    1893.6271    2218.7418    2611.2448    103.12728    269.70582    81.892872   -6463.0926 
39592000    43.265958   -6916.4789   -6805.1798   -6916.4789            0    2204.9704     23.10115    21.344198    21.597221    10649.061    2448.3058    2096.6052    2070.0002    170.00691    20.674121    83.120098   -6462.7355 
39593000    42.352801    -6917.644    -6808.694    -6917.644            0    1920.3674    23.149809    21.375399    21.549154    10663.306    2435.7016    1466.2284    1859.1722   -165.54854    339.20754   -112.14812   -6510.0511 
39594000    43.133391   -6915.6805   -6804.7225   -6915.6805            0    1894.9515     23.24788    21.209023    21.632637    10666.293    1995.6328    2089.1361    1600.0857   -234.77879   -170.18036    -229.4603   -6509.9497 
39595000    41.170022   -6918.2803   -6812.3729   -6918.2803            0    2240.0941    23.194705    21.266873    21.573386    10641.695    2269.2443    1945.9877    2505.0504    268.62623   -149.90662    23.565123   -6464.7143 
39596000    43.135742   -6911.4008   -6800.4367   -6911.4008            0    2176.8184    23.029699    21.395012    21.617452    10651.366    2444.6483    1732.6606    2353.1464    455.74525    255.63615    534.89496   -6462.2914 
39597000    41.844644   -6914.6176   -6806.9748   -6914.6176            0     1986.714    23.214079     21.25536    21.590266    10653.146     1772.766    2279.0454    1908.3305   -137.47897    334.56407   -243.67513   -6498.3086 
39598000    41.381155   -6920.2065    -6813.756   -6920.2065            0    1957.4766    23.249233    21.232635    21.571537    10648.627    1760.2869     2132.264     1979.879   -463.68628    33.440582   -332.18435   -6509.7612 
39599000    43.236103    -6917.141   -6805.9188    -6917.141            0     1547.768    23.092103    21.352836    21.636364    10668.499    2147.7106    1177.9067    1317.6866   -325.98676    454.73724    259.50554   -6565.1029 
39600000    41.289595   -6915.2566   -6809.0416   -6915.2566            0    1952.2374    23.082258     21.34838    21.635255    10661.179    2175.1592    1781.6589    1899.8939    261.39862   -132.21338   -157.40979   -6505.5031 
39601000    40.572726    -6916.893   -6812.5222    -6916.893            0    2290.8868      23.2064    21.232859    21.611951    10649.034    2385.9851    2269.1257    2217.5497     27.45567   -230.28008   -178.66432   -6456.7354 
39602000    42.858811   -6917.3818   -6807.1302   -6917.3818            0    2698.4543    23.209487    21.269436     21.53161    10629.137    3017.5903    2353.5401    2724.2326    264.34946   -542.31939    -134.3597   -6388.8291 
39603000    43.397794   -6912.8251    -6801.187   -6912.8251            0    2123.5165     23.08855    21.381852    21.579097    10653.081    2798.7816    1610.9353    1960.8326    365.43477   -172.91891    130.78997   -6471.2684 
39604000    42.753665   -6914.5753   -6804.5941   -6914.5753            0    2158.2511    23.170159    21.283636    21.585951    10645.009    2061.9348    2124.0564    2288.7623   -312.51133    292.62031    314.73422   -6469.5331 
39605000    42.991703   -6914.3672   -6803.7737   -6914.3672            0    2032.0138    23.239288    21.194527    21.641715    10659.534    2093.6602    2255.6982     1746.683    120.46994   -172.69264   -258.08078   -6487.8801 
39606000    40.556568   -6913.6554   -6809.3261   -6913.6554            0    2244.9122     23.14856    21.349914    21.542699    10646.827    2131.2808    1787.5968     2815.859    -45.89532    -256.0971   -109.33494   -6460.7517 
39607000    42.552353   -6917.3828   -6807.9195   -6917.3828            0    2033.9775    23.124338    21.355415    21.559626    10646.787    1675.3644    1965.6188    2460.9495     687.9244    302.63466    504.61842   -6492.0988 
39608000    41.883186   -6915.4321   -6807.6901   -6915.4321            0    1714.4348    23.246382      21.2408    21.587082    10659.091    1341.0012    2050.5107    1751.7924   -302.79235    216.67823    339.87274    -6541.178 
39609000    42.240418   -6919.0125   -6810.3516   -6919.0125            0    1926.1691    23.132962    21.262557    21.683054    10665.156    2338.8949    1635.8308    1803.7815    -95.82681   -43.652796   -59.121465   -6510.7546 
39610000    41.612145   -6916.5985   -6809.5538   -6916.5985            0    2049.4057    23.090217    21.421682    21.555928    10662.236    2009.5588    1629.6426    2509.0157    1.9668356    190.18894   -352.31322   -6490.8757 
39611000    41.202552   -6912.4194   -6806.4284   -6912.4194            0    1746.6021    23.216634    21.282087    21.598082    10671.578    1328.0482    1813.2445    2098.5136   -114.78766    290.91986    114.96034   -6534.5977 
39612000    44.894789   -6920.1357   -6804.6466   -6920.1357            0      1900.01    23.250991    21.229525    21.594342    10659.129    1723.2366    2092.9851    1883.8083     203.2564   -338.70461   -61.104868   -6509.2853 
39613000    41.674946   -6911.4015   -6804.1953   -6911.4015            0     2340.121    23.058263    21.380624    21.595122    10646.396    3042.1634    1811.7936    2166.4061   -311.05699   -172.44295     48.22168   -6440.8522 
39614000    43.671851   -6915.0015   -6802.6584   -6915.0015            0    2464.3337    23.145117    21.321369    21.558839    10638.976    2624.0198    1769.7082    2999.2731   -192.23131    389.64617   -72.206313   -6420.2959 
39615000    41.672004   -6912.4584   -6805.2597   -6912.4584            0    2201.3022    23.263701    21.193876    21.616944    10658.191    1852.5753    3020.0078    1731.3236   -239.86706   -240.78648   -379.42221    -6463.092 
39616000    41.042073   -6919.8874   -6814.3091   -6919.8874            0    1845.0479    23.143791    21.333567    21.599564     10664.56    1952.5158    1923.9257    1658.7022    332.59433   -215.64781   -255.18971   -6527.3457 
39617000    40.322277   -6920.4038   -6816.6772   -6920.4038            0    2254.9805    23.046857    21.392225    21.581964    10640.417    2757.9563    1952.0414    2054.9437    180.78782    233.53816    431.64842   -6466.7503 
39618000    42.049189   -6918.3128   -6810.1438   -6918.3128            0     1960.869    23.231355    21.207284    21.643074    10662.978    1859.0417     2451.703    1571.8622    1.6005506   -225.55926    80.178283   -6505.2118 
39619000    42.066075   -6915.4957   -6807.2833   -6915.4957            0    1990.5014     23.20059    21.269591    21.606367     10662.03    1661.6707    2252.7481    2057.0854    46.845203   -66.676138   -376.31203   -6497.7707 
39620000    42.709387   -6917.3656   -6807.4983   -6917.3656            0    1607.9222    23.066961    21.451208    21.561667    10669.019     1761.336    1369.0264    1693.4042    175.47952    522.68324    16.511411   -6557.3109 
39621000    42.076238    -6916.089   -6807.8505    -6916.089            0     1905.284    23.185517    21.253103    21.632739    10659.839    1711.6176    2334.8651    1669.3693   -254.15837    336.20584    377.00737   -6511.6497 
39622000    43.497529    -6910.179   -6798.2842    -6910.179            0     2369.158    23.270604    21.188114    21.597091    10648.666    1825.9983    3062.0322    2219.4436   -60.731336   -294.30064   -422.63363   -6430.3543 
39623000    41.920869    -6914.481   -6806.6421    -6914.481            0    2353.9581    23.104954    21.317548    21.594688    10636.268    2432.8562    2409.6772    2219.3408    136.07642    171.42412   -291.54216   -6441.4983 
39624000    43.003984   -6913.5893   -6802.9641   -6913.5893            0    2237.3909    23.086885    21.373693    21.551457    10634.609    2459.9463    1538.6479    2713.5785   -182.91753    166.93808    231.02519   -6455.9563 
39625000    44.415175   -6916.4131   -6802.1578   -6916.4131            0    1749.7364    23.275134    21.159135    21.646743    10660.624    1405.9354    2199.4596    1643.8143    421.47723   -412.81812     273.3885   -6530.1188 
39626000    45.160257   -6923.3253   -6807.1533   -6923.3253            0    1903.9806    23.214718    21.285145    21.543279    10645.151    1666.1295     2015.682    2030.1303   -194.21086   -147.68321   -226.23813    -6511.563 
39627000    43.365266    -6917.835   -6806.2805    -6917.835            0    2743.7492    23.010566    21.364598    21.602807    10620.188    2813.2541    2776.6886     2641.305    603.97536    182.21366   -165.00896   -6381.3161 
39628000    41.417495   -6913.1977   -6806.6537   -6913.1977            0    2066.3566    23.150222    21.319632    21.565707    10643.846    2185.4114    1889.1704    2124.4882   -366.36079   -209.74298    187.96589   -6485.8941 
39629000    43.388786   -6910.2866   -6798.6716   -6910.2866            0     2073.333    23.308656     21.11677    21.643675    10653.093    1561.6822    3435.3361    1222.9808   -57.547366   -92.553687   -367.69818   -6476.5493 
39630000    40.667967   -6920.0037   -6815.3878   -6920.0037            0    2248.8205    23.134435    21.338705    21.545891    10636.321    3040.4798    2146.9643    1559.0174   -203.42313   -75.814559   -584.44996   -6466.5511 
39631000    41.328395   -6919.9345   -6813.6197   -6919.9345            0     2377.162    23.085226    21.339245    21.604097    10642.638    2383.7267    2410.5458    2337.2135     460.2248   -78.307767   -7.7863385   -6444.6557 
39632000    44.076305   -6914.4834   -6801.0998   -6914.4834            0    1833.9348    23.277747    21.227248    21.583975    10665.127    820.42535     2266.039    2415.3402   -229.36379   -1.0594782    261.46157   -6515.8496 
39633000    42.152222   -6913.6319   -6805.1979   -6913.6319            0    1715.1007    23.231935    21.246926     21.62147    10672.514    1112.5618    2109.5598    1923.1804    139.60281    342.16125    698.76896   -6538.2465 
39634000    40.140428   -6916.5609   -6813.3021   -6916.5609            0    1156.9816    23.111112    21.438354    21.570542    10687.431    1228.4319    538.19314    1704.3196    388.53106    334.11115     87.16467   -6632.9689 
39635000      41.8444    -6919.962   -6812.3199    -6919.962            0    1603.1084    23.184318    21.317227    21.602198    10676.355    1442.9686    1851.6862    1514.6705   -273.40747    367.45719   -199.03472     -6562.71 
39636000    44.690624   -6916.0242   -6801.0603   -6916.0242            0    2224.4163    23.278453    21.191486    21.595229    10653.034    1601.6005    3030.8049    2040.8436   -298.38343    146.82932   -323.69701    -6455.467 
39637000     42.40813   -6916.3031   -6807.2108   -6916.3031            0    1996.6846      23.0775    21.391218    21.584623    10655.375    2313.3884     1673.826    2002.8396    439.53608    274.25614     302.3987   -6496.9305 
39638000     40.11985   -6914.8221   -6811.6162   -6914.8221            0    1900.6803    23.153749    21.342051    21.569648    10658.609     1711.663    1853.8686    2136.5094    -377.1752    215.05082    415.21113   -6516.1652 
39639000    41.834763   -6916.4193   -6808.8019   -6916.4193            0    1665.7404    23.251492    21.183005    21.693907     10685.04    1488.2389    2224.1721    1284.8102   -6.1607004   -597.73279    84.987256    -6549.229 
39640000    42.522096   -6915.8729   -6806.4874   -6915.8729            0    2003.0762    23.212912    21.305741     21.55444    10660.143    1441.1766    1891.8707    2676.1813   -318.17815    294.97433    185.54886   -6495.0746 
39641000    41.261457   -6916.0279   -6809.8853   -6916.0279            0    2193.4149    23.128463     21.38771    21.521904    10646.129    2121.5181    1985.8363    2472.8905    157.17273    410.50516    289.84272   -6469.3294 
39642000    42.577332   -6916.2641   -6806.7365   -6916.2641            0    1856.2476    23.178256    21.282187    21.624086    10666.815    1779.9612    2139.3272    1649.4544    126.55715     181.5262    529.99288   -6517.9702 
39643000      42.0201   -6914.7684   -6806.6742   -6914.7684            0     1909.301      23.2082    21.224995    21.660609    10669.885    1768.9631    2985.6019    973.33795    186.96749   -270.06318   -153.99948   -6509.5692 
39644000    41.552093   -6915.4406   -6808.5504   -6915.4406            0    2024.1203     23.18067    21.328352    21.578067    10668.315    1548.9098    2547.3782    1976.0728    154.48634    198.36456   -459.22272   -6493.6248 
39645000    42.601736   -6910.8029   -6801.2125   -6910.8029            0    1821.4756    23.142416    21.367619    21.593039    10677.722    1764.8078    1943.9611    1755.6578    18.347893   -188.05437   -83.753952   -6517.5657 
39646000     43.20714   -6919.7426   -6808.5949   -6919.7426            0    1858.5943    23.244095    21.228998    21.600686    10658.834    1113.4378    2827.1859    1635.1591    129.70311    15.502361    38.307138   -6519.6798 
39647000     42.50122   -6920.3857   -6811.0539   -6920.3857            0    2152.2108      23.1763    21.236508    21.627056    10644.484    2029.1255    2533.1344    1894.3724   -716.93626    534.68695    392.87337   -6476.9472 
39648000    42.032816   -6919.0583   -6810.9315   -6919.0583            0     1826.494    23.050058    21.449732    21.568973    10664.079     2176.766    1326.2007    1976.5153   -35.920471   -51.235327   -304.48867   -6526.8666 
39649000    44.150772   -6913.9643   -6800.3892   -6913.9643            0    2041.8435    23.147732    21.304827    21.628749      10666.4    2429.5536    2020.7031    1675.2739     166.3131   -410.34341    -153.1455    -6482.763 
39650000    42.443745   -6918.8196   -6809.6357   -6918.8196            0    1998.3232    23.234126     21.19434    21.649314    10660.814    2446.6834    1933.4118    1614.8745   -115.86915   -366.88074   -313.28944   -6498.9423 
39651000    43.186172   -6913.9218    -6802.828   -6913.9218            0     1805.559    23.139755    21.338304    21.591332    10661.004    2070.9182    1653.6773    1692.0814   -207.37645    192.09747   -106.40266   -6522.1001 
39652000    42.052093    -6919.252   -6811.0755    -6919.252            0    2237.7495    23.115566    21.339556    21.576285    10643.062    2315.0331    1996.4258    2401.7896    290.18159   -172.12443    177.17782   -6463.7362 
39653000    43.178905   -6911.1483   -6800.0732   -6911.1483            0    1800.1684    23.295629    21.210495    21.589698    10667.725    1574.0586     1971.977    1854.4696   -710.88353    -24.83292   -200.66363   -6520.0069 
39654000    42.663567   -6914.5746   -6804.8251   -6914.5746            0    2540.0141    23.184795    21.251814    21.588279    10636.955    2284.5848    2467.6716     2867.786    353.31351    240.33014    353.06361   -6410.7951 
39655000    40.577108   -6915.0613   -6810.6791   -6915.0613            0    2382.8974    23.101687    21.389353    21.529762    10638.505    2499.2812    1859.5985    2789.8126    -110.6231    180.56752    89.833689   -6440.9686 
39656000    40.318487   -6918.8154   -6815.0986   -6918.8154            0    2289.7276    23.173854    21.246498     21.61983     10644.81      2478.62    2589.8611    1800.7016    411.20916   -120.51794   -434.23843   -6459.6329 
39657000    41.795437   -6915.9523    -6808.436   -6915.9523            0     2324.822     23.21667    21.216241    21.607674    10643.302    2579.6153    2583.3348     1811.516    30.576234   -445.02356    -258.7134   -6447.5734 
39658000    43.056537   -6920.3501   -6809.5898   -6920.3501            0    2479.3763    23.097552    21.329917     21.59791    10640.618    2779.2883    2520.9472    2137.8934    233.93194   -111.63439    92.479468    -6424.834 
39659000    42.534468   -6915.0177   -6805.6004   -6915.0177            0    2452.8144    23.095343    21.381677    21.552352    10642.921    2466.2506    2584.4719    2307.7207     549.6909   -26.754467   -78.886573   -6424.8841 
39660000    41.640535    -6915.697   -6808.5793    -6915.697            0    2225.5888     23.21998    21.228138    21.604908    10649.425    1915.4834    2551.8568    2209.4263   -197.81205   -255.87305   -250.90548    -6462.921 
39661000    43.211687   -6923.9703   -6812.8109   -6923.9703            0     1750.863    23.215289    21.218792     21.63171    10655.789    1420.7564    1883.4721    1948.3605   -178.19621   -169.76406    434.81265   -6540.7202 
39662000    43.352507   -6918.6871   -6807.1654   -6918.6871            0    1682.7272    23.117727    21.363192    21.594022    10664.606    1717.1852     1453.225    1877.7713    78.717095    632.54135    316.16298    -6545.447 
39663000    41.954808   -6914.8906   -6806.9644   -6914.8906            0    2011.1894     23.14827    21.339116    21.592619    10665.968    1683.5491    2323.9242    2026.0948    620.24635    396.51931   -251.89521   -6494.1195 
39664000    41.493988   -6917.0508   -6810.3101   -6917.0508            0    2146.9388    23.275626    21.215278    21.574713    10653.569    1386.0198    2920.6727    2134.1238    89.116735   -317.95578   -363.06011   -6476.7372 
39665000    41.903036   -6914.6424   -6806.8494   -6914.6424            0    2276.5807    23.148106    21.300249    21.605701    10652.916    2241.5824    2200.6476    2387.5121    76.827783   -149.75819    417.00293   -6453.1556 
39666000    42.423811   -6910.1561   -6801.0234   -6910.1561            0    2113.0845    23.092588    21.379428    21.577288    10652.844    2229.1915    1894.1989    2215.8629    90.809687    652.55519    17.006221   -6472.7329 
39667000    42.828668     -6916.07   -6805.8959     -6916.07            0    2216.4615    23.202127    21.208974    21.657072      10657.3    1916.3476    2886.2488    1846.7882   -209.08747    124.11575   -181.04978   -6461.4006 
39668000    43.656099   -6913.4616   -6801.1589   -6913.4616            0    2270.4638     23.25983    21.235549    21.563506    10650.976    1574.6299    2362.3489    2874.4126   -124.36253   -200.29982   -101.94324   -6448.4797 
39669000     46.37067   -6917.2481   -6797.9624   -6917.2481            0    1967.0037    23.103568    21.378797    21.575005    10656.466    2511.2183    1468.1363    1921.6565   -64.447593    283.40378   -51.865508   -6492.2632 
39670000     42.18708   -6915.5873   -6807.0636   -6915.5873            0    1930.3772    23.149097    21.342513    21.574398    10659.045    1989.8143    1861.9205    1939.3968   -82.106169   -41.889661   -1.0132914   -6506.9841 
39671000    42.552796   -6916.3956   -6806.9312   -6916.3956            0    1996.7177    23.266164    21.162412    21.669915    10669.576    1429.9829    2239.4883     2320.682    310.97984   -628.05471    249.31397   -6496.2323 
39672000    41.912438   -6912.4578   -6804.6407   -6912.4578            0    2239.6343     23.15457    21.303121    21.588972    10649.076    2872.3277     1500.681    2345.8943   -547.90556    214.17703    295.94013   -6456.8123 
39673000    42.086654   -6917.3401   -6809.0748   -6917.3401            0    2022.4333    23.080191    21.410265    21.541452    10644.773    2603.7736    882.24718    2581.2792    20.017651      405.749    443.67868   -6495.1059 
39674000    40.275261   -6913.6724   -6810.0667   -6913.6724            0    1903.1797    23.149735    21.272017    21.648016    10660.383    2390.4144      2026.59    1292.5348   -287.95966   -184.80018   -527.98028    -6514.178 
39675000    43.112788   -6916.9607   -6806.0557   -6916.9607            0    2572.9729     23.25597    21.171106    21.606792    10638.203    2044.2576    3501.4875    2173.1735   -403.53974   -148.29499   -794.22995   -6406.8659 
39676000    41.103731   -6917.1454   -6811.4085   -6917.1454            0    2104.3252    23.143289    21.326837    21.574719    10648.702    2573.6653    1740.5136    1998.7967   -77.304657   -365.05763    230.73969    -6484.606 
39677000    42.564791   -6909.6166   -6800.1213   -6909.6166            0    1810.8474    23.112029    21.418428    21.539965    10662.785    2438.6538    1205.1738    1788.7147    216.34888   -876.33706    620.31414    -6518.524 
39678000    42.516169    -6913.966   -6804.5958    -6913.966            0      1814.82    23.251189    21.156216    21.691753    10670.329    1569.5523    2636.6656    1238.2421   -47.778392   -32.580547    155.00462   -6522.1811 
39679000    41.787821   -6914.2253   -6806.7287   -6914.2253            0    1876.7132    23.207852    21.294168    21.574231     10661.81    1601.8089    2209.7211    1818.6098    34.027928     142.5307   -282.40328   -6514.9156 
39680000     43.66558    -6916.974   -6804.6469    -6916.974            0    1622.3495    23.071148    21.407779     21.60163    10669.089    2070.9725    1389.4946    1406.5813    327.25801     223.8102    -148.7082    -6552.213 
39681000    42.586488   -6917.5085   -6807.9573   -6917.5085            0    1961.1937    23.188067    21.310392    21.559527    10653.571    2210.4227    1781.3652    1891.7933   -473.36282    4.5458385   -281.42322   -6503.2439 
39682000    43.892274   -6915.9734   -6803.0631   -6915.9734            0    2501.1332    23.254141     21.14289     21.64094    10639.979    2244.9873    3507.2192    1751.1931   -406.93568    126.43946    -674.9095   -6414.9544 
39683000    43.239689   -6922.8165   -6811.5851   -6922.8165            0    1874.3072    23.119394    21.360235     21.57377    10653.897    1900.1861    1918.6628    1804.0726    290.38643    115.10445   -418.90616   -6520.3624 
39684000    42.408877   -6919.6725   -6810.5782   -6919.6725            0    1912.0725     23.08023    21.352759    21.638402     10663.98    2044.7861    1627.8972    2063.5341    772.97838   -91.117521    499.23245   -6513.2066 
39685000    42.807605   -6912.5708   -6802.4509   -6912.5708            0    1933.3095    23.271236    21.222828    21.600917    10668.292    1560.5323    2066.4142    2172.9819   -365.79118    166.52995   -78.611964   -6501.6548 
39686000    43.857046   -6915.3791   -6802.5595   -6915.3791            0     2000.978     23.18831    21.264025    21.625857    10663.208    2058.6233    1847.3238    2096.9868    48.555394   -165.63102    196.63808   -6491.3835 
39687000    41.298036    -6919.413   -6813.1763    -6919.413            0    1969.3543    23.106699    21.409021    21.528044    10649.747    2158.4497    1386.1216    2363.4916   -104.80241   -321.95417     212.4143   -6507.3048 
39688000    43.451622   -6912.8415   -6801.0648   -6912.8415            0    1824.1538    23.257751    21.221315    21.612704    10667.168    1518.7321    2218.0149    1735.7143    72.103654    541.45887    266.44573   -6517.2818 
39689000    41.319803   -6920.3854   -6814.0927   -6920.3854            0    2373.2212    23.222591    21.267911    21.552312    10644.601    2048.2841    2446.7729    2624.6067   -746.78947    322.54184   -140.46839   -6445.6725 
39690000    44.097471   -6909.6502   -6796.2121   -6909.6502            0    1776.7731    23.061085    21.369883    21.673315    10680.885     2363.965    1399.8662    1566.4879    177.94899   -2.1364607    147.36314   -6519.4446 
39691000    42.484875   -6910.8172   -6801.5275   -6910.8172            0    2131.2895     23.12593    21.393069    21.546855    10659.975    2111.2606     1714.246    2568.3619   -331.06542    225.44289   -26.775281    -6470.187 
39692000    43.668103   -6916.9868   -6804.6533   -6916.9868            0      2203.14    23.259493    21.166515    21.651261    10659.401    1591.6665    3356.7658    1660.9878   -162.22793   -268.72092   -364.24381    -6462.161 
39693000    43.411017   -6921.0615   -6809.3893   -6921.0615            0     1991.375    23.189087    21.311201    21.571731    10660.475    1910.2474    2179.9111    1883.9666      102.082   -234.52034   -242.47812    -6499.786 
39694000    41.398666   -6912.6455   -6806.1499   -6912.6455            0    1827.4925     23.08724    21.401745    21.602026    10673.717    1723.4353    1981.7519    1777.2902    337.92886    285.16833    275.49923   -6521.6729 
39695000    44.204072   -6918.4708   -6804.7586   -6918.4708            0    1676.5901    23.242774    21.271673    21.600218    10679.422    785.31287    2144.6002    2099.8573    124.84544    360.78052    149.92418   -6543.6323 
39696000      42.3826   -6918.1361   -6809.1094   -6918.1361            0    1826.0767    23.247254    21.194805    21.659719    10672.199    1385.0588     2477.911    1615.2603   -249.53205   -163.22217     60.97381   -6524.8932 
39697000    42.419037   -6914.4132   -6805.2928   -6914.4132            0    2024.7118    23.072464    21.383701     21.58861    10651.273    2058.6391    2340.3467    1675.1496    179.97746   -154.05286   -494.31765   -6490.7784 
39698000    45.403162    -6920.551   -6803.7541    -6920.551            0    2019.0606    23.098668    21.365695    21.583242    10651.742    2708.0208    2087.8107    1261.3503   -194.40649    302.71463   -781.29886   -6490.1037 
39699000    43.891039   -6916.0794   -6803.1724   -6916.0794            0    1961.0726    23.238454    21.223095    21.598566    10652.238    1838.6279     2330.743    1713.8468    -591.7213    122.50657   -254.19796   -6498.5159 
39700000    42.308741   -6917.4276   -6808.5909   -6917.4276            0    2619.5361    23.137775    21.237651    21.643007      10635.2    2622.8958    2559.2483    2676.4641    117.65988   -37.314063    477.91338   -6402.2917 
39701000    41.862773   -6913.8968   -6806.2073   -6913.8968            0    1926.7638    23.099049    21.380274    21.578514    10656.851    1812.6036    1726.8701    2240.8177    422.19029   -28.284148    252.89823   -6506.7512 
39702000    41.616197    -6914.691   -6807.6359    -6914.691            0    1874.6587    23.222614    21.301139    21.559561    10664.828    1403.7941    2029.4486    2190.7336     325.7479    603.80677    202.16941   -6516.0598 
39703000    40.743289   -6920.0214   -6815.2117   -6920.0214            0    1784.1235    23.259126    21.214576    21.617497    10666.775    1221.0022    2322.0685    1809.2997    134.87635    425.68287   -272.21345   -6537.6664 
39704000    42.332785   -6917.2436   -6808.3451   -6917.2436            0    1918.5296    23.113867    21.342013     21.60904    10659.663    2018.8713    1997.8933    1738.8241    158.85629   -243.04372    65.454338   -6510.0901 
39705000    43.836012   -6922.5431   -6809.7776   -6922.5431            0    2188.7372    23.033452    21.385095    21.607608    10643.315    2635.3659    1926.6198    2004.2258    9.3290483    293.91953    120.31079   -6470.0378 
39706000    41.790042   -6920.0785   -6812.5761   -6920.0785            0    1959.8509    23.263434    21.226046    21.581062    10656.528    1680.9774    2392.0116    1806.5638   -568.16075   -345.09008   -554.32835   -6507.9868 
39707000     40.25091   -6916.0218   -6812.4788   -6916.0218            0    2296.0511    23.199323    21.216734    21.658418    10660.573    1798.9129    2932.1323     2157.108    149.59565   -236.82349   -75.040392   -6455.5036 
39708000    41.109919   -6911.8219   -6806.0692   -6911.8219            0    2315.8018    23.031507    21.425669    21.585599    10651.747    2882.4667    1806.6645    2258.2742   -96.664602    203.02022   -3.0143365   -6446.3214 
39709000    43.550852   -6916.5197   -6804.4878   -6916.5197            0    2049.0586    23.171523    21.293995    21.609168    10662.272    2185.9747    2001.4958    1959.7055    3.5920054   -258.49193    244.11251   -6485.8626 
39710000    41.526698   -6915.2824   -6808.4575   -6915.2824            0    1935.0408    23.319812    21.162712    21.626863    10673.084     1431.472    2353.1527    2020.4975    -322.9781   -458.68234   -56.157616   -6507.2568 
39711000    41.796504   -6911.7035   -6804.1845   -6911.7035            0    2154.2517    23.146744    21.314665    21.605073    10659.189      2185.84    2363.4671     1913.448   -284.98607    366.87581   -257.53103   -6469.2989 
39712000    42.124873   -6918.4623   -6810.0986   -6918.4623            0    1860.3792     23.09091    21.440556    21.530617     10659.42    1851.9499    1287.7973    2441.3905    247.64774    409.67962   -72.012806   -6520.8902 
39713000    40.754371   -6913.2099   -6808.3718   -6913.2099            0     1729.296    23.220066    21.235356    21.652424    10676.515    2132.6684    2117.3053     937.9142   -55.005212    -543.4425   -616.17891     -6539.11 
39714000    42.210479    -6916.001   -6807.4171    -6916.001            0    2068.4123    23.255272    21.247744     21.55739    10651.982    1758.4449    1906.5423    2540.2498   -37.101996   -12.267341    184.94902   -6486.0929 
39715000    39.918759   -6915.0437   -6812.3552   -6915.0437            0    2540.9183     23.03425    21.391701    21.577581    10632.176    2753.5175    2701.1528    2168.0846   -49.790276    453.21446   -110.87693   -6418.3619 
39716000    41.344175   -6914.3001   -6807.9447   -6914.3001            0    2415.5868    23.131298    21.314067    21.564902    10631.972    2348.7444    2560.9987    2337.0173    -576.6496    201.45026   -84.061543   -6433.3925 
39717000    42.132644   -6915.3245   -6806.9409   -6915.3245            0    2272.6704    23.254555    21.145353    21.638024    10639.974    1484.4494    3284.0116    2049.5501    107.13078   -443.66753    76.464425   -6454.2836 
39718000    42.500494   -6912.6708   -6803.3409   -6912.6708            0    2120.3086    23.221297    21.333572    21.490743    10646.368    1471.7869    1855.8386    3033.3003   -110.26114    190.44216   -397.43908   -6474.1283 
39719000    41.881759   -6916.4656   -6808.7273   -6916.4656            0    1992.8981    23.083267    21.348123    21.634267     10661.03     2038.759     2368.137    1571.7984    474.45855    281.57246   -379.45692   -6498.8712 
39720000    39.560053   -6916.1009   -6814.3351   -6916.1009            0    1967.2676    23.169914    21.289091    21.606473    10657.747    1846.4509     2170.942    1884.4101    75.236797   -264.69911   -151.10584   -6508.5581 
39721000    40.267477   -6913.1154   -6809.5298   -6913.1154            0    2102.3972    23.197174    21.233631    21.624557    10651.397    2027.5523    2322.0525    1957.5869    51.604272   -275.76598    194.99329    -6482.944 
39722000    42.082089   -6919.5527   -6811.2991   -6919.5527            0     2127.108    23.163999    21.360853    21.506339    10641.397    2017.3856    1553.9882    2809.9503    28.889625    152.00038    213.64301    -6481.185 
39723000    42.054625   -6919.2459   -6811.0629   -6919.2459            0      1689.46    23.102076    21.374532      21.6141    10672.957     1559.642    1868.8404    1639.8976    45.485427   -68.680264   -501.31975   -6548.0915 
39724000    42.649376   -6911.5929   -6801.8799   -6911.5929            0    1960.2567     23.19679    21.261327    21.631758    10668.665    1527.4641    2387.0378    1966.2681   -161.71181    29.240593    205.12786   -6496.8806 
39725000    43.206988   -6919.9736   -6808.8263   -6919.9736            0    2121.6225     23.19989    21.222595    21.630416    10649.992    1970.6376    2405.5728    1988.6569   -19.309092    321.68553    285.68165   -6479.2975 
39726000    41.522662   -6914.4184   -6807.6039   -6914.4184            0    1936.0535    23.156157    21.323242    21.582121    10656.482    1759.0486    2125.5883    1923.5237    47.851148   -175.33364    -149.8627   -6506.7144 
39727000     44.30257   -6911.6245   -6797.6588   -6911.6245            0     2379.245    23.127543    21.347033    21.555317    10641.956    2511.4096    2422.6106    2203.7148    42.878527   -118.57058   -707.93782   -6428.3952 
39728000     43.09406   -6911.4082   -6800.5513   -6911.4082            0    2253.3705    23.206237    21.243191    21.616453     10656.36    2129.0946    2562.2589     2068.758   -203.04431    159.39191   -17.481963   -6450.3503 
39729000    42.472843   -6913.8814   -6804.6226   -6913.8814            0    1697.5278    23.189624    21.294939    21.598741    10665.926    1140.6911    2049.5591    1902.3333    189.59907   -125.14009    415.23439   -6540.5695 
39730000    43.074405   -6911.5551   -6800.7489   -6911.5551            0    2152.2814    23.114322    21.317473    21.605387    10645.815    2203.9272    2232.2442    2020.6727    168.23281    -112.4565    443.11265   -6466.5893 
39731000    43.408294   -6913.6545   -6801.9893   -6913.6545            0    1850.6143    23.238247     21.29423    21.547762    10662.707    1772.1553    1841.1086    1938.5789   -228.91826     51.61463   -267.28754   -6514.2102 
39732000    42.483728   -6913.8505   -6804.5637   -6913.8505            0    1929.9384     23.22323     21.23566    21.638841    10671.424    1947.1421     2328.108    1514.5651    108.13987   -493.76742   -388.32321   -6504.2039 
39733000    40.736412   -6915.7223   -6810.9304   -6915.7223            0    1900.6167    23.106232     21.35334    21.609934    10662.238     2298.047    1558.5806    1845.2223   -192.65913   -326.75432    -340.9113   -6515.3886 
39734000    42.542814   -6916.6189   -6807.1801   -6916.6189            0    1765.6887    23.199847    21.317486    21.549991    10657.816     1850.142    1121.8104    2325.1137    12.610159      281.314    137.39123   -6532.7333 
39735000    41.725149   -6915.7059   -6808.3705   -6915.7059            0    1641.7495    23.252651    21.253915    21.607387    10678.584    1460.4592    1550.1899    1914.5995    5.1878509     102.1145    597.91935   -6552.6906 
39736000     41.10992   -6915.5933   -6809.8405   -6915.5933            0    1873.7382    23.167354    21.317272    21.610478    10672.654    1649.6499    1269.5781    2701.9865   -39.088064     391.5029    486.16166   -6518.1937 
39737000     41.49465   -6917.3867   -6810.6443   -6917.3867            0    2012.9285    23.057928    21.406115    21.608062    10665.321    2247.8902    1693.4986    2097.3967   -276.35301    239.29596     23.23393   -6497.5478 
39738000    43.559302   -6912.8853   -6800.8317   -6912.8853            0    2057.3755    23.228834    21.261165    21.572361    10653.986    1884.5316    2040.9044    2246.6906   -17.453057    189.76442    11.997113   -6481.1619 
39739000    42.189812   -6917.0116   -6808.4809   -6917.0116            0    1796.9013     23.26083    21.179154    21.653541    10667.502    1651.6526    2347.7492     1391.302    567.01899   -266.46626   -202.98682   -6528.9287 
39740000    44.017731   -6917.3379    -6804.105   -6917.3379            0    2166.9533    23.068298    21.370459    21.620981    10658.714    2566.8485     2169.224    1764.7875     49.98517   -9.5314359   -255.87403   -6467.2599 
39741000    41.261488   -6915.0563   -6808.9137   -6915.0563            0    2049.4607    23.135101    21.361167    21.569239    10659.362    2506.0149    1421.9381    2220.4291   -387.92928   -5.5536754    6.2059928    -6490.313 
39742000    41.786962   -6915.3784    -6807.884   -6915.3784            0    2132.9769    23.269121    21.223493    21.550145    10642.583    1727.8601    2396.8274    2274.2431    171.94736   -348.59232    306.51438   -6476.8222 
39743000    42.782881   -6913.6578   -6803.6014   -6913.6578            0    2208.6426    23.132999    21.292077    21.608734    10643.373    2090.0274    2091.4299    2444.4705    188.47259   -34.149704    454.69286     -6460.77 
39744000     42.57387    -6915.636   -6806.1173    -6915.636            0    1988.9829    23.083368    21.351023    21.628314    10659.591    2124.8349    1667.1802    2174.9334   -345.48503    662.41992    109.31787   -6496.9116 
39745000    45.388313   -6915.4719   -6798.7132   -6915.4719            0     2151.648    23.190302    21.261497    21.619286    10659.617     2437.955    2179.1463    1837.8425    114.39289   -5.6963073    -150.9668   -6464.2189 
39746000    41.717225   -6915.7064   -6808.3914   -6915.7064            0    2396.5294    23.270622    21.197206    21.556002    10632.976    2050.0911    2619.3477    2520.1493    332.56124   -529.62851    135.60698   -6436.7591 
39747000    43.172977   -6918.1005   -6807.0407   -6918.1005            0     2003.951    23.146299    21.344063    21.560773    10651.799    1733.2453    2074.8028    2203.8049    176.43657    199.34086     71.66803   -6495.7358 
39748000    43.658271   -6917.4982   -6805.1899   -6917.4982            0    1770.0896    23.108668    21.333407    21.636194    10666.354    1836.7878     1883.393    1590.0881   -360.37017    148.80474   -432.60447   -6529.8386 
39749000    42.657273   -6919.2337   -6809.5005   -6919.2337            0    1986.6081    23.256677    21.182765    21.635117     10658.34    1685.3038    1951.2124    2323.3082   -326.23662   -261.88305    337.22307   -6500.7002 
39750000    46.019297   -6916.4772   -6798.0953   -6916.4772            0    2048.3998    23.215997     21.31915    21.519927    10651.187     1307.578    2134.8298    2702.7916     437.9777   -41.085112    263.85238   -6479.9038 
Loop time of 544.024 on 64 procs for 250000 steps with 1296 atoms

Performance: 79.408 ns/day, 0.302 hours/ns, 459.538 timesteps/s
387.2% CPU use with 16 MPI tasks x 4 OpenMP threads

MPI task timing breakdown:
Section |  min time  |  avg time  |  max time  |%varavg| %total
---------------------------------------------------------------
Pair    | 38.997     | 48.99      | 58.988     |  77.8 |  9.01
Bond    | 1.512      | 1.7251     | 2.1293     |  13.0 |  0.32
Kspace  | 273.45     | 287.22     | 298.16     |  36.0 | 52.80
Neigh   | 0.11898    | 0.12366    | 0.12842    |   0.8 |  0.02
Comm    | 52.387     | 58.115     | 61.589     |  34.6 | 10.68
Output  | 0.46255    | 0.46291    | 0.46429    |   0.1 |  0.09
Modify  | 130.69     | 132.75     | 134.14     |   9.5 | 24.40
Other   |            | 14.63      |            |       |  2.69

Nlocal:        81.0000 ave          97 max          62 min
Histogram: 2 0 2 0 3 1 4 0 2 2
Nghost:        3710.81 ave        3741 max        3666 min
Histogram: 1 0 1 2 1 2 4 1 2 2
Neighs:        26223.6 ave       31359 max       20005 min
Histogram: 2 0 2 0 3 3 2 0 2 2

Total # of neighbors = 419577
Ave neighs/atom = 323.74769
Ave special neighs/atom = 2.0000000
Neighbor list builds = 281
Dangerous builds = 0

unfix		3
unfix		2
unfix		1

write_data	data.final.${pid}
write_data	data.final.0
System init for write_data ...
PPPM initialization ...
  extracting TIP4P info from pair style
  using 12-bit tables for long-range coulomb (../kspace.cpp:340)
  G vector (1/distance) = 0.36807169
  grid = 27 40 32
  stencil order = 5
  estimated absolute RMS force accuracy = 0.0043809094
  estimated relative force accuracy = 1.3192978e-05
  using double precision FFTW3
  3d grid and FFT values/proc = 10353 2240
Last active /omp style is kspace_style pppm/tip4p/omp
WARNING: Not all mixed pair coeffs generated from mixing. Use write_data with 'pair ij' option to store all pair coeffs. (../write_data.cpp:312)

write_restart   restart.lmp.${pid}
write_restart   restart.lmp.0
System init for write_restart ...
PPPM initialization ...
  extracting TIP4P info from pair style
  using 12-bit tables for long-range coulomb (../kspace.cpp:340)
  G vector (1/distance) = 0.36807169
  grid = 27 40 32
  stencil order = 5
  estimated absolute RMS force accuracy = 0.0043809094
  estimated relative force accuracy = 1.3192978e-05
  using double precision FFTW3
  3d grid and FFT values/proc = 10353 2240
Last active /omp style is kspace_style pppm/tip4p/omp
Total wall time: 0:09:04
